                         Program Version 4.2.0 -  RELEASE  -
|  1> # ORCA input file
|  2> # SCF done       -210.805352378266          0.000509672160
|  3> ! CAM-B3LYP def2-SVP def2/J RIJCOSX Grid4 TightSCF
|  4> %maxcore 5000
|  5> %tddft
|  6>     Mode sTDDFT
|  7>     Ethresh 5.0
|  8>     maxcore 5000
|  9> end
| 10>
| 11> %pal
| 12>   nprocs 6
| 13>   end
| 14> * xyz 0 1
| 15>    C        3.52813        13.74798         5.74348
| 16>    C        2.71835        12.93769         6.47779
| 17>    C        1.96337        12.08140         5.65212
| 18>    C        2.23369        12.27742         4.29000
| 19>    S        3.39954        13.49688         4.03201
| 20>    C        1.43060        11.38065         3.53207
| 21>    C        0.65851        10.62312         4.42300
| 22>    C        0.97047        11.03709         5.78683
| 23>    C        0.43001        10.53065         6.93471
| 24>    C       -0.53004         9.49877         6.91886
| 25>    N       -1.30884         8.65576         6.90930
| 26>    C        0.79760        11.00209         8.21196
| 27>    N        1.09271        11.38115         9.25328
| 28>    C       -0.17660         9.70979         3.78627
| 29>    C       -0.05353         9.76365         2.40684
| 30>    S        1.12735        10.96363         1.90259
| 31>    C       -0.76310         8.98423         1.44586
| 32>    C       -1.77834         8.13052         1.80663
| 33>    C       -2.52021         7.35181         0.92215
| 34>    C       -2.35326         7.48897        -0.53052
| 35>    C       -1.40030         8.25253        -1.10772
| 36>    S       -0.25949         9.18520        -0.22631
| 37>    C       -3.38439         6.69366        -1.10359
| 38>    C       -4.14124         6.10322        -0.08955
| 39>    C       -5.18299         5.29903        -0.60085
| 40>    C       -5.19251         5.30236        -1.95956
| 41>    S       -3.94459         6.26937        -2.67126
| 42>    C       -3.59172         6.47688         1.18646
| 43>    C       -4.07532         6.02972         2.44041
| 44>    C       -3.33273         5.95868         3.57855
| 45>    C       -3.82608         5.61786         4.85940
| 46>    C       -5.14006         5.46191         5.28525
| 47>    C       -5.21806         5.17561         6.64257
| 48>    C       -3.95647         5.10072         7.26642
| 49>    S       -2.67955         5.40001         6.17387
| 50>    C       -4.14891         4.81103         8.63499
| 51>    C       -5.53390         4.71938         8.88799
| 52>    C       -6.24851         4.94288         7.64538
| 53>    C       -7.59982         4.93976         7.45562
| 54>    C       -8.50320         4.72737         8.51811
| 55>    N       -9.23828         4.56361         9.38263
| 56>    C       -8.17630         5.15339         6.18665
| 57>    N       -8.64148         5.32285         5.15211
| 58>    C       -5.82420         4.43607        10.21918
| 59>    C       -4.67882         4.29619        10.98310
| 60>    S       -3.21228         4.53170        10.03331
| 61>    C       -4.59704         3.99607        12.36141
| 62>    C       -3.46804         3.69365        13.10278
| 63>    C       -3.73154         3.44394        14.44805
| 64>    C       -2.71852         2.99004        15.41006
| 65>    C       -1.57330         3.71043        15.75564
| 66>    C       -0.60548         3.11231        16.56865
| 67>    C       -0.78358         1.83589        17.04735
| 68>    C       -1.93200         1.11953        16.74571
| 69>    C       -2.89715         1.68761        15.93078
| 70>    O       -4.03680         1.06431        15.53599
| 71>    C       -4.25621        -0.27473        15.91145
| 72>    O       -1.27843         4.98711        15.38868
| 73>    C       -2.28716         5.89524        15.01365
| 74>    C       -5.09351         3.54046        14.76200
| 75>    S       -6.02446         3.96509        13.34613
| 76>    C       -5.62443         3.48278        16.05655
| 77>    C       -6.92914         3.52419        16.47024
| 78>    C       -7.24119         3.99030        17.84052
| 79>    O       -6.47127         4.12598        18.76365
| 80>    C       -8.69159         4.31317        17.81705
| 81>    C       -9.22296         3.95515        16.56484
| 82>    C      -10.54790         4.22427        16.26895
| 83>    C      -11.34899         4.82374        17.23898
| 84>    C      -10.81507         5.15820        18.49439
| 85>    C       -9.47067         4.90339        18.78735
| 86>    C      -11.61441         5.73790        19.51222
| 87>    N      -12.17570         6.17264        20.41090
| 88>    C      -12.77915         5.18105        16.95618
| 89>    O      -13.31639         6.11863        17.47364
| 90>    O      -13.42834         4.39786        16.08689
| 91>    C       -8.17412         3.30059        15.78104
| 92>    C       -8.41527         2.39238        14.78060
| 93>    C       -7.44022         1.51951        14.25699
| 94>    N       -6.70862         0.73426        13.84997
| 95>    C       -9.71207         2.12460        14.30120
| 96>    N      -10.76782         1.88643        13.91722
| 97>    H        4.20889        14.49487         6.09961
| 98>    H        2.66793        12.95708         7.55112
| 99>    H       -0.83509         9.03771         4.30332
|100>    H       -2.04889         8.10131         2.85025
|101>    H       -1.28123         8.32788        -2.17694
|102>    H       -5.88825         4.75049        -0.00361
|103>    H       -5.86824         4.78576        -2.61275
|104>    H       -5.10238         5.69037         2.46005
|105>    H       -2.26807         6.13762         3.52601
|106>    H       -5.98572         5.57029         4.63182
|107>    H       -6.81086         4.32234        10.63137
|108>    H       -2.48657         3.63084        12.66485
|109>    H        0.27316         3.68753        16.80989
|110>    H       -0.02984         1.38826        17.67651
|111>    H       -2.06051         0.12605        17.14200
|112>    H       -4.37698        -0.37283        16.99492
|113>    H       -3.44479        -0.92491        15.57156
|114>    H       -5.18177        -0.55683        15.41187
|115>    H       -1.88887         6.88527        15.23951
|116>    H       -3.20600         5.73879        15.58383
|117>    H       -2.50922         5.83903        13.94378
|118>    H       -4.89082         3.52624        16.85714
|119>    H      -10.94024         4.01872        15.28397
|120>    H       -9.05537         5.16566        19.74851
|121>    H      -12.90524         3.65815        15.74652
|122> *
|123>
|124>                          ****END OF INPUT****

CARTESIAN COORDINATES (ANGSTROEM)
---------------------------------
  C      3.528130   13.747980    5.743480
  C      2.718350   12.937690    6.477790
  C      1.963370   12.081400    5.652120
  C      2.233690   12.277420    4.290000
  S      3.399540   13.496880    4.032010
  C      1.430600   11.380650    3.532070
  C      0.658510   10.623120    4.423000
  C      0.970470   11.037090    5.786830
  C      0.430010   10.530650    6.934710
  C     -0.530040    9.498770    6.918860
  N     -1.308840    8.655760    6.909300
  C      0.797600   11.002090    8.211960
  N      1.092710   11.381150    9.253280
  C     -0.176600    9.709790    3.786270
  C     -0.053530    9.763650    2.406840
  S      1.127350   10.963630    1.902590
  C     -0.763100    8.984230    1.445860
  C     -1.778340    8.130520    1.806630
  C     -2.520210    7.351810    0.922150
  C     -2.353260    7.488970   -0.530520
  C     -1.400300    8.252530   -1.107720
  S     -0.259490    9.185200   -0.226310
  C     -3.384390    6.693660   -1.103590
  C     -4.141240    6.103220   -0.089550
  C     -5.182990    5.299030   -0.600850
  C     -5.192510    5.302360   -1.959560
  S     -3.944590    6.269370   -2.671260
  C     -3.591720    6.476880    1.186460
  C     -4.075320    6.029720    2.440410
  C     -3.332730    5.958680    3.578550
  C     -3.826080    5.617860    4.859400
  C     -5.140060    5.461910    5.285250
  C     -5.218060    5.175610    6.642570
  C     -3.956470    5.100720    7.266420
  S     -2.679550    5.400010    6.173870
  C     -4.148910    4.811030    8.634990
  C     -5.533900    4.719380    8.887990
  C     -6.248510    4.942880    7.645380
  C     -7.599820    4.939760    7.455620
  C     -8.503200    4.727370    8.518110
  N     -9.238280    4.563610    9.382630
  C     -8.176300    5.153390    6.186650
  N     -8.641480    5.322850    5.152110
  C     -5.824200    4.436070   10.219180
  C     -4.678820    4.296190   10.983100
  S     -3.212280    4.531700   10.033310
  C     -4.597040    3.996070   12.361410
  C     -3.468040    3.693650   13.102780
  C     -3.731540    3.443940   14.448050
  C     -2.718520    2.990040   15.410060
  C     -1.573300    3.710430   15.755640
  C     -0.605480    3.112310   16.568650
  C     -0.783580    1.835890   17.047350
  C     -1.932000    1.119530   16.745710
  C     -2.897150    1.687610   15.930780
  O     -4.036800    1.064310   15.535990
  C     -4.256210   -0.274730   15.911450
  O     -1.278430    4.987110   15.388680
  C     -2.287160    5.895240   15.013650
  C     -5.093510    3.540460   14.762000
  S     -6.024460    3.965090   13.346130
  C     -5.624430    3.482780   16.056550
  C     -6.929140    3.524190   16.470240
  C     -7.241190    3.990300   17.840520
  O     -6.471270    4.125980   18.763650
  C     -8.691590    4.313170   17.817050
  C     -9.222960    3.955150   16.564840
  C    -10.547900    4.224270   16.268950
  C    -11.348990    4.823740   17.238980
  C    -10.815070    5.158200   18.494390
  C     -9.470670    4.903390   18.787350
  C    -11.614410    5.737900   19.512220
  N    -12.175700    6.172640   20.410900
  C    -12.779150    5.181050   16.956180
  O    -13.316390    6.118630   17.473640
  O    -13.428340    4.397860   16.086890
  C     -8.174120    3.300590   15.781040
  C     -8.415270    2.392380   14.780600
  C     -7.440220    1.519510   14.256990
  N     -6.708620    0.734260   13.849970
  C     -9.712070    2.124600   14.301200
  N    -10.767820    1.886430   13.917220
  H      4.208890   14.494870    6.099610
  H      2.667930   12.957080    7.551120
  H     -0.835090    9.037710    4.303320
  H     -2.048890    8.101310    2.850250
  H     -1.281230    8.327880   -2.176940
  H     -5.888250    4.750490   -0.003610
  H     -5.868240    4.785760   -2.612750
  H     -5.102380    5.690370    2.460050
  H     -2.268070    6.137620    3.526010
  H     -5.985720    5.570290    4.631820
  H     -6.810860    4.322340   10.631370
  H     -2.486570    3.630840   12.664850
  H      0.273160    3.687530   16.809890
  H     -0.029840    1.388260   17.676510
  H     -2.060510    0.126050   17.142000
  H     -4.376980   -0.372830   16.994920
  H     -3.444790   -0.924910   15.571560
  H     -5.181770   -0.556830   15.411870
  H     -1.888870    6.885270   15.239510
  H     -3.206000    5.738790   15.583830
  H     -2.509220    5.839030   13.943780
  H     -4.890820    3.526240   16.857140
  H    -10.940240    4.018720   15.283970
  H     -9.055370    5.165660   19.748510
  H    -12.905240    3.658150   15.746520

 Total Charge           Charge          ....    0
 Multiplicity           Mult            ....    1
 Number of Electrons    NEL             ....  604
 Basis Dimension        Dim             .... 1301

ORBITAL ENERGIES
----------------

  NO   OCC          E(Eh)            E(eV)
   0   2.0000     -88.996856     -2421.7276
   1   2.0000     -88.994241     -2421.6564
   2   2.0000     -88.992640     -2421.6129
   3   2.0000     -88.985598     -2421.4212
   4   2.0000     -88.985184     -2421.4099
   5   2.0000     -88.975052     -2421.1342
   6   2.0000     -88.962139     -2420.7829
   7   2.0000     -19.265971      -524.2537
   8   2.0000     -19.247144      -523.7414
   9   2.0000     -19.246754      -523.7308
  10   2.0000     -19.220087      -523.0052
  11   2.0000     -19.205500      -522.6082
  12   2.0000     -14.438697      -392.8969
  13   2.0000     -14.434569      -392.7846
  14   2.0000     -14.430419      -392.6717
  15   2.0000     -14.430004      -392.6604
  16   2.0000     -14.423279      -392.4774
  17   2.0000     -14.419187      -392.3660
  18   2.0000     -14.402501      -391.9120
  19   2.0000     -10.411148      -283.3017
  20   2.0000     -10.372423      -282.2480
  21   2.0000     -10.368847      -282.1507
  22   2.0000     -10.364464      -282.0314
  23   2.0000     -10.357146      -281.8323
  24   2.0000     -10.351957      -281.6911
  25   2.0000     -10.349952      -281.6365
  26   2.0000     -10.348664      -281.6015
  27   2.0000     -10.341411      -281.4041
  28   2.0000     -10.340554      -281.3808
  29   2.0000     -10.339865      -281.3620
  30   2.0000     -10.339317      -281.3471
  31   2.0000     -10.339208      -281.3441
  32   2.0000     -10.337262      -281.2912
  33   2.0000     -10.336490      -281.2702
  34   2.0000     -10.336402      -281.2678
  35   2.0000     -10.335568      -281.2451
  36   2.0000     -10.334992      -281.2294
  37   2.0000     -10.334643      -281.2199
  38   2.0000     -10.334561      -281.2177
  39   2.0000     -10.330860      -281.1170
  40   2.0000     -10.330208      -281.0993
  41   2.0000     -10.328998      -281.0663
  42   2.0000     -10.326392      -280.9954
  43   2.0000     -10.326348      -280.9942
  44   2.0000     -10.325666      -280.9756
  45   2.0000     -10.325144      -280.9614
  46   2.0000     -10.322948      -280.9017
  47   2.0000     -10.321946      -280.8744
  48   2.0000     -10.321706      -280.8679
  49   2.0000     -10.321498      -280.8622
  50   2.0000     -10.319830      -280.8169
  51   2.0000     -10.317502      -280.7535
  52   2.0000     -10.315741      -280.7056
  53   2.0000     -10.315603      -280.7018
  54   2.0000     -10.315133      -280.6890
  55   2.0000     -10.311630      -280.5937
  56   2.0000     -10.309510      -280.5360
  57   2.0000     -10.308335      -280.5041
  58   2.0000     -10.307452      -280.4800
  59   2.0000     -10.306727      -280.4603
  60   2.0000     -10.306600      -280.4569
  61   2.0000     -10.303976      -280.3854
  62   2.0000     -10.303946      -280.3846
  63   2.0000     -10.303586      -280.3748
  64   2.0000     -10.303515      -280.3729
  65   2.0000     -10.302508      -280.3455
  66   2.0000     -10.302221      -280.3377
  67   2.0000     -10.301780      -280.3257
  68   2.0000     -10.296013      -280.1688
  69   2.0000     -10.296001      -280.1684
  70   2.0000     -10.293420      -280.0982
  71   2.0000     -10.292854      -280.0828
  72   2.0000     -10.292076      -280.0616
  73   2.0000     -10.290838      -280.0279
  74   2.0000     -10.290135      -280.0088
  75   2.0000     -10.284340      -279.8511
  76   2.0000     -10.283033      -279.8155
  77   2.0000     -10.279834      -279.7285
  78   2.0000     -10.279462      -279.7184
  79   2.0000     -10.277532      -279.6659
  80   2.0000     -10.265129      -279.3284
  81   2.0000     -10.260679      -279.2073
  82   2.0000      -8.091280      -220.1749
  83   2.0000      -8.088723      -220.1053
  84   2.0000      -8.087544      -220.0733
  85   2.0000      -8.081060      -219.8968
  86   2.0000      -8.079804      -219.8626
  87   2.0000      -8.069906      -219.5933
  88   2.0000      -8.057482      -219.2552
  89   2.0000      -6.060614      -164.9177
  90   2.0000      -6.057995      -164.8464
  91   2.0000      -6.056808      -164.8141
  92   2.0000      -6.056324      -164.8010
  93   2.0000      -6.053849      -164.7336
  94   2.0000      -6.053633      -164.7277
  95   2.0000      -6.052339      -164.6925
  96   2.0000      -6.051014      -164.6565
  97   2.0000      -6.050712      -164.6482
  98   2.0000      -6.050193      -164.6341
  99   2.0000      -6.048989      -164.6014
 100   2.0000      -6.046138      -164.5238
 101   2.0000      -6.044828      -164.4881
 102   2.0000      -6.042819      -164.4335
 103   2.0000      -6.042267      -164.4184
 104   2.0000      -6.039307      -164.3379
 105   2.0000      -6.035204      -164.2263
 106   2.0000      -6.031779      -164.1330
 107   2.0000      -6.026927      -164.0010
 108   2.0000      -6.022680      -163.8855
 109   2.0000      -6.019532      -163.7998
 110   2.0000      -1.189902       -32.3789
 111   2.0000      -1.153473       -31.3876
 112   2.0000      -1.149998       -31.2930
 113   2.0000      -1.135214       -30.8907
 114   2.0000      -1.104963       -30.0676
 115   2.0000      -1.048610       -28.5341
 116   2.0000      -1.045079       -28.4380
 117   2.0000      -1.028781       -27.9946
 118   2.0000      -1.028213       -27.9791
 119   2.0000      -1.022342       -27.8193
 120   2.0000      -1.015043       -27.6207
 121   2.0000      -1.013626       -27.5822
 122   2.0000      -1.012187       -27.5430
 123   2.0000      -1.010273       -27.4909
 124   2.0000      -1.007734       -27.4218
 125   2.0000      -1.002327       -27.2747
 126   2.0000      -0.999437       -27.1961
 127   2.0000      -0.992877       -27.0176
 128   2.0000      -0.988548       -26.8997
 129   2.0000      -0.977911       -26.6103
 130   2.0000      -0.963607       -26.2211
 131   2.0000      -0.960244       -26.1296
 132   2.0000      -0.959377       -26.1060
 133   2.0000      -0.949793       -25.8452
 134   2.0000      -0.936217       -25.4758
 135   2.0000      -0.922228       -25.0951
 136   2.0000      -0.916933       -24.9510
 137   2.0000      -0.912286       -24.8246
 138   2.0000      -0.903797       -24.5936
 139   2.0000      -0.895249       -24.3610
 140   2.0000      -0.888540       -24.1784
 141   2.0000      -0.885774       -24.1031
 142   2.0000      -0.883585       -24.0436
 143   2.0000      -0.869134       -23.6503
 144   2.0000      -0.865354       -23.5475
 145   2.0000      -0.858978       -23.3740
 146   2.0000      -0.857518       -23.3342
 147   2.0000      -0.850591       -23.1458
 148   2.0000      -0.849243       -23.1091
 149   2.0000      -0.845509       -23.0075
 150   2.0000      -0.830694       -22.6043
 151   2.0000      -0.825738       -22.4695
 152   2.0000      -0.815231       -22.1836
 153   2.0000      -0.803364       -21.8607
 154   2.0000      -0.793057       -21.5802
 155   2.0000      -0.790321       -21.5057
 156   2.0000      -0.783404       -21.3175
 157   2.0000      -0.781324       -21.2609
 158   2.0000      -0.776334       -21.1251
 159   2.0000      -0.775264       -21.0960
 160   2.0000      -0.765584       -20.8326
 161   2.0000      -0.749312       -20.3898
 162   2.0000      -0.738830       -20.1046
 163   2.0000      -0.735923       -20.0255
 164   2.0000      -0.727030       -19.7835
 165   2.0000      -0.711384       -19.3577
 166   2.0000      -0.709127       -19.2963
 167   2.0000      -0.708046       -19.2669
 168   2.0000      -0.703448       -19.1418
 169   2.0000      -0.698425       -19.0051
 170   2.0000      -0.692818       -18.8525
 171   2.0000      -0.686914       -18.6919
 172   2.0000      -0.684557       -18.6278
 173   2.0000      -0.682110       -18.5612
 174   2.0000      -0.676100       -18.3976
 175   2.0000      -0.672316       -18.2946
 176   2.0000      -0.665412       -18.1068
 177   2.0000      -0.658065       -17.9069
 178   2.0000      -0.651155       -17.7188
 179   2.0000      -0.646785       -17.5999
 180   2.0000      -0.640291       -17.4232
 181   2.0000      -0.639205       -17.3937
 182   2.0000      -0.635915       -17.3041
 183   2.0000      -0.630735       -17.1632
 184   2.0000      -0.628183       -17.0937
 185   2.0000      -0.624307       -16.9883
 186   2.0000      -0.620128       -16.8745
 187   2.0000      -0.616549       -16.7772
 188   2.0000      -0.609188       -16.5769
 189   2.0000      -0.604149       -16.4397
 190   2.0000      -0.601135       -16.3577
 191   2.0000      -0.594377       -16.1738
 192   2.0000      -0.594004       -16.1637
 193   2.0000      -0.590071       -16.0567
 194   2.0000      -0.585752       -15.9391
 195   2.0000      -0.574820       -15.6417
 196   2.0000      -0.571956       -15.5637
 197   2.0000      -0.570839       -15.5333
 198   2.0000      -0.567791       -15.4504
 199   2.0000      -0.562020       -15.2934
 200   2.0000      -0.557925       -15.1819
 201   2.0000      -0.555617       -15.1191
 202   2.0000      -0.553584       -15.0638
 203   2.0000      -0.551296       -15.0015
 204   2.0000      -0.550394       -14.9770
 205   2.0000      -0.548745       -14.9321
 206   2.0000      -0.547470       -14.8974
 207   2.0000      -0.542680       -14.7671
 208   2.0000      -0.540291       -14.7021
 209   2.0000      -0.539473       -14.6798
 210   2.0000      -0.535187       -14.5632
 211   2.0000      -0.528145       -14.3716
 212   2.0000      -0.526792       -14.3347
 213   2.0000      -0.525766       -14.3068
 214   2.0000      -0.523676       -14.2499
 215   2.0000      -0.520351       -14.1595
 216   2.0000      -0.518537       -14.1101
 217   2.0000      -0.516298       -14.0492
 218   2.0000      -0.514559       -14.0019
 219   2.0000      -0.512421       -13.9437
 220   2.0000      -0.509870       -13.8743
 221   2.0000      -0.508713       -13.8428
 222   2.0000      -0.505351       -13.7513
 223   2.0000      -0.502045       -13.6613
 224   2.0000      -0.500543       -13.6205
 225   2.0000      -0.499764       -13.5993
 226   2.0000      -0.499626       -13.5955
 227   2.0000      -0.497162       -13.5285
 228   2.0000      -0.493778       -13.4364
 229   2.0000      -0.491342       -13.3701
 230   2.0000      -0.489810       -13.3284
 231   2.0000      -0.488398       -13.2900
 232   2.0000      -0.485410       -13.2087
 233   2.0000      -0.479798       -13.0560
 234   2.0000      -0.479751       -13.0547
 235   2.0000      -0.475784       -12.9467
 236   2.0000      -0.472821       -12.8661
 237   2.0000      -0.470638       -12.8067
 238   2.0000      -0.468527       -12.7493
 239   2.0000      -0.466668       -12.6987
 240   2.0000      -0.465805       -12.6752
 241   2.0000      -0.463874       -12.6227
 242   2.0000      -0.462500       -12.5853
 243   2.0000      -0.461386       -12.5549
 244   2.0000      -0.459751       -12.5105
 245   2.0000      -0.459088       -12.4924
 246   2.0000      -0.457921       -12.4607
 247   2.0000      -0.455870       -12.4049
 248   2.0000      -0.454612       -12.3706
 249   2.0000      -0.453894       -12.3511
 250   2.0000      -0.451284       -12.2801
 251   2.0000      -0.449567       -12.2333
 252   2.0000      -0.449409       -12.2291
 253   2.0000      -0.447233       -12.1698
 254   2.0000      -0.445539       -12.1237
 255   2.0000      -0.443524       -12.0689
 256   2.0000      -0.440860       -11.9964
 257   2.0000      -0.440447       -11.9852
 258   2.0000      -0.439548       -11.9607
 259   2.0000      -0.438647       -11.9362
 260   2.0000      -0.437367       -11.9014
 261   2.0000      -0.436294       -11.8722
 262   2.0000      -0.435158       -11.8413
 263   2.0000      -0.432767       -11.7762
 264   2.0000      -0.431967       -11.7544
 265   2.0000      -0.429984       -11.7005
 266   2.0000      -0.428695       -11.6654
 267   2.0000      -0.427417       -11.6306
 268   2.0000      -0.426805       -11.6139
 269   2.0000      -0.424264       -11.5448
 270   2.0000      -0.423054       -11.5119
 271   2.0000      -0.420113       -11.4319
 272   2.0000      -0.416938       -11.3455
 273   2.0000      -0.414704       -11.2847
 274   2.0000      -0.412791       -11.2326
 275   2.0000      -0.407661       -11.0930
 276   2.0000      -0.404842       -11.0163
 277   2.0000      -0.401675       -10.9301
 278   2.0000      -0.401047       -10.9130
 279   2.0000      -0.395029       -10.7493
 280   2.0000      -0.391048       -10.6410
 281   2.0000      -0.381469       -10.3803
 282   2.0000      -0.376407       -10.2425
 283   2.0000      -0.363875        -9.9015
 284   2.0000      -0.363503        -9.8914
 285   2.0000      -0.354655        -9.6507
 286   2.0000      -0.352415        -9.5897
 287   2.0000      -0.351284        -9.5589
 288   2.0000      -0.348681        -9.4881
 289   2.0000      -0.343678        -9.3520
 290   2.0000      -0.338927        -9.2227
 291   2.0000      -0.335234        -9.1222
 292   2.0000      -0.326907        -8.8956
 293   2.0000      -0.324461        -8.8290
 294   2.0000      -0.320753        -8.7281
 295   2.0000      -0.306465        -8.3393
 296   2.0000      -0.299325        -8.1450
 297   2.0000      -0.297708        -8.1011
 298   2.0000      -0.284569        -7.7435
 299   2.0000      -0.278137        -7.5685
 300   2.0000      -0.258570        -7.0361
 301   2.0000      -0.226815        -6.1720
 302   0.0000      -0.112327        -3.0566
 303   0.0000      -0.106727        -2.9042
 304   0.0000      -0.097625        -2.6565
 305   0.0000      -0.077850        -2.1184
 306   0.0000      -0.068772        -1.8714

MULLIKEN ATOMIC CHARGES
-----------------------
   0 C :   -0.083466
   1 C :    0.037525
   2 C :   -0.034677
   3 C :   -0.118544
   4 S :    0.183162
   5 C :   -0.105185
   6 C :    0.012971
   7 C :    0.303377
   8 C :   -0.301162
   9 C :   -0.180144
  10 N :    0.157283
  11 C :   -0.195878
  12 N :    0.179387
  13 C :   -0.045102
  14 C :   -0.064128
  15 S :    0.187235
  16 C :   -0.033948
  17 C :   -0.078081
  18 C :    0.046805
  19 C :    0.066704
  20 C :   -0.129599
  21 S :    0.123336
  22 C :   -0.112665
  23 C :    0.058791
  24 C :    0.010047
  25 C :   -0.068731
  26 S :    0.131350
  27 C :    0.072248
  28 C :   -0.024562
  29 C :    0.020392
  30 C :   -0.079300
  31 C :   -0.039276
  32 C :    0.012076
  33 C :   -0.110350
  34 S :    0.216456
  35 C :   -0.087467
  36 C :    0.009927
  37 C :    0.299455
  38 C :   -0.292354
  39 C :   -0.190188
  40 N :    0.175822
  41 C :   -0.182708
  42 N :    0.167621
  43 C :   -0.052227
  44 C :   -0.046800
  45 S :    0.194760
  46 C :   -0.021559
  47 C :   -0.053808
  48 C :    0.085815
  49 C :   -0.099955
  50 C :    0.177146
  51 C :   -0.034784
  52 C :    0.056290
  53 C :   -0.112394
  54 C :    0.225315
  55 O :   -0.303408
  56 C :    0.174431
  57 O :   -0.311481
  58 C :    0.208920
  59 C :   -0.081399
  60 S :    0.141967
  61 C :    0.035409
  62 C :   -0.162807
  63 C :    0.146905
  64 O :   -0.134760
  65 C :    0.013064
  66 C :    0.025939
  67 C :   -0.085960
  68 C :    0.007780
  69 C :   -0.078750
  70 C :   -0.039946
  71 C :   -0.154764
  72 N :    0.139543
  73 C :    0.180002
  74 O :   -0.150642
  75 O :   -0.144450
  76 C :    0.250125
  77 C :   -0.308238
  78 C :   -0.180533
  79 N :    0.165111
  80 C :   -0.180931
  81 N :    0.142771
  82 H :    0.037400
  83 H :    0.014516
  84 H :    0.002854
  85 H :   -0.014005
  86 H :    0.039215
  87 H :   -0.012728
  88 H :    0.030097
  89 H :   -0.007066
  90 H :   -0.013679
  91 H :    0.005657
  92 H :    0.015722
  93 H :   -0.002543
  94 H :   -0.023067
  95 H :   -0.008366
  96 H :   -0.031164
  97 H :    0.020938
  98 H :    0.021181
  99 H :    0.048700
 100 H :    0.035948
 101 H :    0.023153
 102 H :    0.019106
 103 H :    0.035588
 104 H :    0.009721
 105 H :    0.014572
 106 H :    0.192095
Sum of atomic charges:   -0.0000000

LOEWDIN ATOMIC CHARGES
----------------------
   0 C :   -0.178195
   1 C :   -0.032992
   2 C :   -0.081078
   3 C :   -0.179850
   4 S :    0.478664
   5 C :   -0.186791
   6 C :   -0.067607
   7 C :    0.086516
   8 C :   -0.107855
   9 C :   -0.010917
  10 N :   -0.047992
  11 C :   -0.018299
  12 N :   -0.032629
  13 C :   -0.030629
  14 C :   -0.182466
  15 S :    0.469167
  16 C :   -0.188052
  17 C :   -0.018529
  18 C :   -0.019348
  19 C :   -0.045309
  20 C :   -0.140184
  21 S :    0.435602
  22 C :   -0.205084
  23 C :   -0.038377
  24 C :   -0.062171
  25 C :   -0.161840
  26 S :    0.424105
  27 C :   -0.050405
  28 C :   -0.001804
  29 C :   -0.062455
  30 C :   -0.151486
  31 C :   -0.034348
  32 C :   -0.057135
  33 C :   -0.199690
  34 S :    0.494645
  35 C :   -0.157782
  36 C :   -0.076855
  37 C :    0.082371
  38 C :   -0.101602
  39 C :   -0.017283
  40 N :   -0.030558
  41 C :   -0.014731
  42 N :   -0.034616
  43 C :   -0.016103
  44 C :   -0.194232
  45 S :    0.481069
  46 C :   -0.145149
  47 C :   -0.065136
  48 C :    0.010274
  49 C :   -0.108781
  50 C :    0.072873
  51 C :   -0.063851
  52 C :    0.004804
  53 C :   -0.094847
  54 C :    0.074897
  55 O :   -0.089048
  56 C :    0.076794
  57 O :   -0.103948
  58 C :    0.078162
  59 C :   -0.184967
  60 S :    0.474185
  61 C :    0.067401
  62 C :   -0.121142
  63 C :    0.081684
  64 O :   -0.138430
  65 C :   -0.031758
  66 C :    0.004443
  67 C :   -0.004685
  68 C :   -0.038126
  69 C :   -0.027514
  70 C :    0.047226
  71 C :   -0.033649
  72 N :   -0.029128
  73 C :    0.080115
  74 O :   -0.122418
  75 O :   -0.015582
  76 C :    0.059101
  77 C :   -0.144559
  78 C :   -0.031168
  79 N :   -0.039705
  80 C :   -0.016274
  81 N :   -0.058678
  82 H :    0.028076
  83 H :    0.043185
  84 H :    0.036645
  85 H :    0.038146
  86 H :    0.037661
  87 H :    0.032455
  88 H :    0.024814
  89 H :    0.032459
  90 H :    0.026448
  91 H :    0.038361
  92 H :    0.038637
  93 H :    0.030515
  94 H :    0.032049
  95 H :    0.032972
  96 H :    0.028540
  97 H :    0.013839
  98 H :    0.015205
  99 H :    0.028895
 100 H :    0.027427
 101 H :    0.019169
 102 H :    0.013961
 103 H :    0.053373
 104 H :    0.036862
 105 H :    0.052319
 106 H :    0.099708

  Mayer bond orders larger than 0.100000
B(  0-C ,  1-C ) :   1.5521 B(  0-C ,  4-S ) :   1.1453 B(  0-C , 82-H ) :   0.9646
B(  1-C ,  2-C ) :   1.2731 B(  1-C , 83-H ) :   0.9961 B(  2-C ,  3-C ) :   1.4490
B(  2-C ,  7-C ) :   1.0262 B(  3-C ,  4-S ) :   1.1410 B(  3-C ,  5-C ) :   1.1912
B(  5-C ,  6-C ) :   1.4549 B(  5-C , 15-S ) :   1.1183 B(  6-C ,  7-C ) :   0.9978
B(  6-C , 13-C ) :   1.2994 B(  7-C ,  8-C ) :   1.6989 B(  8-C ,  9-C ) :   1.1359
B(  8-C , 11-C ) :   1.1328 B(  9-C , 10-N ) :   2.9835 B( 11-C , 12-N ) :   3.0066
B( 13-C , 14-C ) :   1.4851 B( 13-C , 84-H ) :   0.9838 B( 14-C , 15-S ) :   1.1073
B( 14-C , 16-C ) :   1.1163 B( 16-C , 17-C ) :   1.5565 B( 16-C , 21-S ) :   1.0398
B( 17-C , 18-C ) :   1.2334 B( 17-C , 85-H ) :   0.9672 B( 18-C , 19-C ) :   1.0534
B( 18-C , 27-C ) :   1.3914 B( 19-C , 20-C ) :   1.6169 B( 19-C , 22-C ) :   1.1751
B( 20-C , 21-S ) :   1.1317 B( 20-C , 86-H ) :   0.9395 B( 22-C , 23-C ) :   1.4396
B( 22-C , 26-S ) :   1.0768 B( 23-C , 24-C ) :   1.2241 B( 23-C , 27-C ) :   1.0971
B( 24-C , 25-C ) :   1.5840 B( 24-C , 87-H ) :   0.9990 B( 25-C , 26-S ) :   1.1560
B( 25-C , 88-H ) :   0.9660 B( 27-C , 28-C ) :   1.1548 B( 28-C , 29-C ) :   1.6476
B( 28-C , 89-H ) :   0.9604 B( 29-C , 30-C ) :   1.1319 B( 29-C , 90-H ) :   0.9577
B( 30-C , 31-C ) :   1.4304 B( 30-C , 34-S ) :   1.1293 B( 31-C , 32-C ) :   1.3192
B( 31-C , 91-H ) :   0.9899 B( 32-C , 33-C ) :   1.4201 B( 32-C , 37-C ) :   0.9939
B( 33-C , 34-S ) :   1.1223 B( 33-C , 35-C ) :   1.2117 B( 35-C , 36-C ) :   1.4147
B( 35-C , 45-S ) :   1.1399 B( 36-C , 37-C ) :   1.0002 B( 36-C , 43-C ) :   1.3107
B( 37-C , 38-C ) :   1.7134 B( 38-C , 39-C ) :   1.1314 B( 38-C , 41-C ) :   1.1338
B( 39-C , 40-N ) :   2.9924 B( 41-C , 42-N ) :   2.9871 B( 43-C , 44-C ) :   1.4363
B( 43-C , 92-H ) :   0.9893 B( 44-C , 45-S ) :   1.0829 B( 44-C , 46-C ) :   1.1828
B( 46-C , 47-C ) :   1.4054 B( 46-C , 60-S ) :   1.1687 B( 47-C , 48-C ) :   1.3522
B( 47-C , 93-H ) :   0.9980 B( 48-C , 49-C ) :   0.9322 B( 48-C , 59-C ) :   1.4098
B( 49-C , 50-C ) :   1.3705 B( 49-C , 54-C ) :   1.3397 B( 50-C , 51-C ) :   1.3391
B( 50-C , 57-O ) :   1.1771 B( 51-C , 52-C ) :   1.4000 B( 51-C , 94-H ) :   0.9959
B( 52-C , 53-C ) :   1.3072 B( 52-C , 95-H ) :   0.9925 B( 53-C , 54-C ) :   1.3452
B( 53-C , 96-H ) :   1.0050 B( 54-C , 55-O ) :   1.1867 B( 55-O , 56-C ) :   0.9514
B( 56-C , 97-H ) :   0.9696 B( 56-C , 98-H ) :   0.9691 B( 56-C , 99-H ) :   0.9676
B( 57-O , 58-C ) :   0.9484 B( 58-C ,100-H ) :   0.9760 B( 58-C ,101-H ) :   0.9598
B( 58-C ,102-H ) :   0.9655 B( 59-C , 60-S ) :   1.0645 B( 59-C , 61-C ) :   1.2294
B( 61-C , 62-C ) :   1.5553 B( 61-C ,103-H ) :   0.9367 B( 62-C , 63-C ) :   0.9660
B( 62-C , 76-C ) :   1.0681 B( 63-C , 64-O ) :   2.2672 B( 63-C , 65-C ) :   0.8951
B( 65-C , 66-C ) :   1.3485 B( 65-C , 70-C ) :   1.3638 B( 66-C , 67-C ) :   1.3934
B( 66-C , 76-C ) :   0.9872 B( 67-C , 68-C ) :   1.3175 B( 67-C ,104-H ) :   0.9690
B( 68-C , 69-C ) :   1.4001 B( 68-C , 73-C ) :   0.8698 B( 69-C , 70-C ) :   1.3611
B( 69-C , 71-C ) :   1.0686 B( 70-C ,105-H ) :   1.0155 B( 71-C , 72-N ) :   3.0388
B( 73-C , 74-O ) :   2.1661 B( 73-C , 75-O ) :   1.2588 B( 75-O ,106-H ) :   0.9440
B( 76-C , 77-C ) :   1.6364 B( 77-C , 78-C ) :   1.1576 B( 77-C , 80-C ) :   1.1398
B( 78-C , 79-N ) :   2.9645 B( 80-C , 81-N ) :   2.9927

-----------------------------------------------------------------------------
         ABSORPTION SPECTRUM VIA TRANSITION ELECTRIC DIPOLE MOMENTS
-----------------------------------------------------------------------------
State   Energy  Wavelength   fosc         T2         TX        TY        TZ
        (cm-1)    (nm)                  (au**2)     (au)      (au)      (au)
-----------------------------------------------------------------------------
   0    9683.3   1032.7   0.290970590   9.89239  -1.65850  -1.63992   2.11008
   1   10809.5    925.1   0.105130640   3.20184   0.50466   0.56256   1.62194
   2   15329.5    652.3   0.829290135  17.80963  -2.04483  -1.34710   3.43709
   3   17292.1    578.3   0.040351366   0.76822  -0.10253   0.19533   0.84826
   4   17750.3    563.4   0.041221473   0.76453  -0.20614  -0.77339  -0.35199
   5   19222.9    520.2   0.175549090   3.00646  -1.18262  -1.25371   0.18996
   6   21553.7    464.0   0.132548754   2.02455   0.72948   0.05787   1.22027
   7   21861.2    457.4   0.007402000   0.11147   0.10929  -0.21297  -0.23274
   8   21993.7    454.7   0.314494781   4.70751   1.10936   0.38719  -1.82398
   9   22460.3    445.2   0.157009188   2.30136  -0.77142  -0.99113  -0.85085
  10   23088.0    433.1   0.005331583   0.07602   0.17639  -0.02585   0.21034
  11   24049.3    415.8   0.127041910   1.73908  -0.51567   0.05545  -1.21247
  12   25178.5    397.2   0.038321230   0.50106   0.61573  -0.23368   0.25946
  13   26049.5    383.9   0.228235162   2.88443   0.28284   0.15106   1.66781
  14   26921.8    371.4   0.082831486   1.01290   0.15208   0.23918   0.96570
  15   27294.8    366.4   0.094851204   1.14403   0.11751  -0.13013   1.05513
  16   27780.5    360.0   0.161605742   1.91510  -0.63845  -0.30308  -1.18980
  17   28121.9    355.6   0.001485317   0.01739   0.10210   0.03103  -0.07746
  18   28573.6    350.0   0.146943855   1.69302   0.41050   0.10248   1.23045
  19   29014.4    344.7   0.379596852   4.30709  -0.09665  -0.14258   2.06819
  20   29624.3    337.6   0.029563160   0.32853   0.42786  -0.05877  -0.37684
  21   29967.8    333.7   0.096950246   1.06505  -0.24475  -0.44432  -0.89873
  22   30334.5    329.7   0.016081187   0.17452   0.10390  -0.01204   0.40446
  23   30393.3    329.0   0.031103483   0.33690   0.35844  -0.09393  -0.44677
  24   30572.8    327.1   0.057922349   0.62372   0.72960  -0.29820   0.04970
  25   30672.1    326.0   0.127771317   1.37140   0.38907  -0.42145  -1.02099
  26   30816.6    324.5   0.009003128   0.09618  -0.09194  -0.10357  -0.27749
  27   31139.0    321.1   0.526133550   5.56246   2.16763   0.27753  -0.88703
  28   31372.4    318.8   0.170317967   1.78726   1.26354   0.42717   0.09080
  29   31722.1    315.2   0.370678546   3.84690   0.15382   0.86958  -1.75130
  30   31927.2    313.2   0.208758688   2.15258   0.10803  -0.28715  -1.43473
  31   31978.8    312.7   0.033953340   0.34954   0.29648  -0.20391  -0.46911
  32   32333.8    309.3   0.033281166   0.33886  -0.19792  -0.54586   0.04153
  33   33049.6    302.6   0.198369117   1.97598  -1.18967  -0.73943   0.11791
  34   33308.8    300.2   0.169619200   1.67646   0.15886   0.61355  -1.12906
  35   33590.3    297.7   0.054271082   0.53190   0.44298   0.53529   0.22167
  36   33846.4    295.5   0.067652964   0.65804  -0.36020   0.56937   0.45179
  37   33920.4    294.8   0.074863503   0.72658   0.04912  -0.75437  -0.39382
  38   34147.9    292.8   0.131853685   1.27117  -0.36752  -0.20819  -1.04535
  39   34293.7    291.6   0.424474395   4.07486  -1.51395  -1.05532  -0.81800
  40   34387.6    290.8   0.708003577   6.77812  -1.41303  -0.81617  -2.02863
  41   34543.1    289.5   0.098011097   0.93409   0.88621  -0.38431   0.03208
  42   34850.3    286.9   0.050181537   0.47404   0.60854  -0.27860  -0.16154
  43   35152.7    284.5   0.130252382   1.21984  -0.90020  -0.01469  -0.63974
  44   35276.0    283.5   0.314197661   2.93224   1.02716  -1.05525  -0.87385
  45   35643.8    280.6   0.029826661   0.27548  -0.12700  -0.18763   0.47344
  46   35847.5    279.0   0.007271925   0.06678  -0.07518   0.20009   0.14524
  47   36064.3    277.3   0.010400859   0.09494  -0.20021   0.09419  -0.21445
  48   36284.5    275.6   0.027170545   0.24652  -0.21512   0.25645  -0.36671
  49   36307.7    275.4   0.033988906   0.30819  -0.43149  -0.02828  -0.34814
  50   36466.3    274.2   0.047583047   0.42957   0.46477   0.37909   0.26430
  51   36637.4    272.9   0.214455106   1.92703   0.92397   0.69479  -0.76849
  52   36922.4    270.8   0.063875244   0.56953   0.32880   0.46188   0.49808
  53   37166.9    269.1   0.128711375   1.14008  -0.61053  -0.65801  -0.57824
  54   37478.4    266.8   0.098230386   0.86286   0.62970   0.42879   0.53148
  55   37908.0    263.8   0.051652107   0.44857  -0.34040  -0.35465  -0.45489
  56   38052.4    262.8   0.082267736   0.71174  -0.20279  -0.17984  -0.79892
  57   38168.6    262.0   0.004629942   0.03993   0.09905  -0.04280  -0.16820
  58   38328.9    260.9   0.080565368   0.69199   0.21237   0.06524   0.80164
  59   38660.3    258.7   0.010118308   0.08616  -0.05416   0.27254   0.09460
  60   39068.3    256.0   0.005616580   0.04733  -0.08634  -0.07387   0.18552
  61   39176.4    255.3   0.003625626   0.03047   0.15518  -0.07912   0.01126
  62   39433.4    253.6   0.037042180   0.30925   0.38023  -0.26435  -0.30788
  63   39555.3    252.8   0.071058265   0.59141   0.71556  -0.22047   0.17542
  64   39827.6    251.1   0.067892723   0.56120  -0.15496  -0.42672  -0.59590
  65   39912.5    250.5   0.094284546   0.77769   0.47508  -0.36556  -0.64681
  66   40137.9    249.1   0.007432175   0.06096   0.17479   0.16310   0.06169
  67   40249.6    248.4   0.018763663   0.15347  -0.35188  -0.08568  -0.14937

FINAL SINGLE POINT ENERGY     -5957.402658680534

DIPOLE MOMENT
-------------
                                X             Y             Z
Electronic contribution:     -4.04006      24.87144     -36.29438
Nuclear contribution   :     10.47433     -24.14427      31.13499
                        -----------------------------------------
Total Dipole Moment    :      6.43426       0.72717      -5.15939
                        -----------------------------------------
Magnitude (a.u.)       :      8.27936
Magnitude (Debye)      :     21.04447

Rotational constants in cm-1:     0.000904     0.000242     0.000216
Rotational constants in MHz :    27.115522     7.251331     6.462340

                             ****ORCA TERMINATED NORMALLY****
TOTAL RUN TIME: 0 days 0 hours 12 minutes 43 seconds 423 msec
