                         Program Version 4.2.0 -  RELEASE  -
|  1> # ORCA input file
|  2> # SCF done       -191.054394666446          0.000888534758
|  3> ! CAM-B3LYP def2-SVP def2/J RIJCOSX Grid4 TightSCF
|  4> %maxcore 5000
|  5> %tddft
|  6>     Mode sTDDFT
|  7>     Ethresh 5.0
|  8>     maxcore 5000
|  9> end
| 10>
| 11> %pal
| 12>   nprocs 6
| 13>   end
| 14> * xyz 0 1
| 15>    C       -2.89223        -2.18860        -2.51961
| 16>    C       -4.03646        -1.57638        -2.10536
| 17>    C       -3.84404        -0.19154        -1.94032
| 18>    C       -2.53647         0.20334        -2.23653
| 19>    S       -1.55655        -1.10608        -2.72005
| 20>    C       -2.43767         1.61529        -2.06176
| 21>    C       -3.68847         2.10237        -1.66142
| 22>    C       -4.61372         0.98233        -1.56320
| 23>    C       -5.92652         1.02897        -1.19599
| 24>    C       -6.56538         2.23857        -0.85149
| 25>    N       -7.09021         3.21921        -0.57319
| 26>    C       -6.73177        -0.12738        -1.12939
| 27>    N       -7.39134        -1.06336        -1.06956
| 28>    C       -3.69767         3.49170        -1.49268
| 29>    C       -2.47907         4.05818        -1.79132
| 30>    S       -1.28144         2.84848        -2.23497
| 31>    C       -2.12442         5.46002        -1.71714
| 32>    C       -2.64897         6.22344        -0.66295
| 33>    C       -2.24463         7.52957        -0.53106
| 34>    C       -1.33143         8.09949        -1.42809
| 35>    C       -1.08877         9.50076        -1.00790
| 36>    O       -0.37992        10.33803        -1.50525
| 37>    N       -1.87353         9.68583         0.12081
| 38>    C       -2.59420         8.55617         0.48174
| 39>    O       -3.33611         8.48024         1.42661
| 40>    C       -1.89455        10.91784         0.88058
| 41>    C       -0.79397        10.93300         1.93552
| 42>    C       -0.82772         7.37915        -2.48297
| 43>    C       -1.23163         6.04516        -2.64817
| 44>    C       -0.79386         5.28166        -3.79536
| 45>    C        0.39281         5.44006        -4.41697
| 46>    C        0.89069         4.66131        -5.50960
| 47>    C        0.36347         3.43733        -5.98747
| 48>    C        0.98757         2.69448        -7.05220
| 49>    N        0.44306         1.52911        -7.45869
| 50>    C       -0.62048         1.08560        -6.88130
| 51>    C       -1.22601         1.80268        -5.81607
| 52>    N       -0.74456         2.92610        -5.40236
| 53>    F       -2.31447         1.33753        -5.19630
| 54>    F       -1.13560        -0.06469        -7.30212
| 55>    C        2.16779         3.14422        -7.68937
| 56>    C        2.68636         4.37063        -7.22946
| 57>    C        2.06549         5.10259        -6.15616
| 58>    N        2.73552         6.22575        -5.87718
| 59>    S        3.99509         6.34487        -6.85458
| 60>    N        3.77586         4.99152        -7.68483
| 61>    C        2.82612         2.40941        -8.71484
| 62>    N        2.45651         1.24544        -9.16124
| 63>    C        3.28142         0.79695       -10.09783
| 64>    C        4.37160         1.65008       -10.42231
| 65>    S        4.30737         3.07593        -9.46833
| 66>    N        5.20004         1.20183       -11.34348
| 67>    C        4.83341         0.01726       -11.78783
| 68>    S        3.35122        -0.63220       -11.03939
| 69>    C        5.63486        -0.60277       -12.76808
| 70>    C        5.48400        -1.80318       -13.39872
| 71>    C        6.37896        -2.36035       -14.40324
| 72>    C        7.56836        -1.83513       -14.83336
| 73>    C        8.39150        -2.43928       -15.80872
| 74>    N        9.10746        -2.87545       -16.59243
| 75>    C        8.16855        -0.64184       -14.37544
| 76>    N        8.74093         0.30515       -14.06901
| 77>    C        5.79477        -3.61454       -14.86345
| 78>    C        4.59487        -3.85175       -14.14506
| 79>    C        4.36583        -2.74642       -13.20536
| 80>    O        3.43494        -2.63692       -12.42966
| 81>    C        3.81308        -4.96365       -14.34954
| 82>    C        4.23166        -5.88676       -15.31192
| 83>    C        5.42857        -5.64125       -16.02841
| 84>    C        6.22006        -4.51789       -15.81952
| 85>    S        5.74967        -6.90911       -17.16779
| 86>    C        4.31150        -7.73987       -16.68616
| 87>    C        3.61656        -7.10426       -15.71735
| 88>    H       -2.74291        -3.22895        -2.72879
| 89>    H       -4.96169        -2.09491        -1.93249
| 90>    H       -4.56041         4.06763        -1.21077
| 91>    H       -3.33262         5.78398         0.04636
| 92>    H       -2.87687        10.99208         1.35286
| 93>    H       -1.75626        11.74065         0.17512
| 94>    H       -0.92665        10.10589         2.62924
| 95>    H       -0.83067        11.86520         2.49175
| 96>    H        0.18119        10.84604         1.46179
| 97>    H       -0.15903         7.84114        -3.19168
| 98>    H       -1.47571         4.53501        -4.17090
| 99>    H        1.08440         6.20197        -4.08162
|100>    H        6.48841         0.01209       -13.02716
|101>    H        2.90677        -5.11337       -13.78368
|102>    H        7.12103        -4.37855       -16.39280
|103>    H        4.07111        -8.66841       -17.16651
|104>    H        2.69905        -7.47136       -15.29454
|105> *
|106>
|107>                          ****END OF INPUT****

CARTESIAN COORDINATES (ANGSTROEM)
---------------------------------
  C     -2.892230   -2.188600   -2.519610
  C     -4.036460   -1.576380   -2.105360
  C     -3.844040   -0.191540   -1.940320
  C     -2.536470    0.203340   -2.236530
  S     -1.556550   -1.106080   -2.720050
  C     -2.437670    1.615290   -2.061760
  C     -3.688470    2.102370   -1.661420
  C     -4.613720    0.982330   -1.563200
  C     -5.926520    1.028970   -1.195990
  C     -6.565380    2.238570   -0.851490
  N     -7.090210    3.219210   -0.573190
  C     -6.731770   -0.127380   -1.129390
  N     -7.391340   -1.063360   -1.069560
  C     -3.697670    3.491700   -1.492680
  C     -2.479070    4.058180   -1.791320
  S     -1.281440    2.848480   -2.234970
  C     -2.124420    5.460020   -1.717140
  C     -2.648970    6.223440   -0.662950
  C     -2.244630    7.529570   -0.531060
  C     -1.331430    8.099490   -1.428090
  C     -1.088770    9.500760   -1.007900
  O     -0.379920   10.338030   -1.505250
  N     -1.873530    9.685830    0.120810
  C     -2.594200    8.556170    0.481740
  O     -3.336110    8.480240    1.426610
  C     -1.894550   10.917840    0.880580
  C     -0.793970   10.933000    1.935520
  C     -0.827720    7.379150   -2.482970
  C     -1.231630    6.045160   -2.648170
  C     -0.793860    5.281660   -3.795360
  C      0.392810    5.440060   -4.416970
  C      0.890690    4.661310   -5.509600
  C      0.363470    3.437330   -5.987470
  C      0.987570    2.694480   -7.052200
  N      0.443060    1.529110   -7.458690
  C     -0.620480    1.085600   -6.881300
  C     -1.226010    1.802680   -5.816070
  N     -0.744560    2.926100   -5.402360
  F     -2.314470    1.337530   -5.196300
  F     -1.135600   -0.064690   -7.302120
  C      2.167790    3.144220   -7.689370
  C      2.686360    4.370630   -7.229460
  C      2.065490    5.102590   -6.156160
  N      2.735520    6.225750   -5.877180
  S      3.995090    6.344870   -6.854580
  N      3.775860    4.991520   -7.684830
  C      2.826120    2.409410   -8.714840
  N      2.456510    1.245440   -9.161240
  C      3.281420    0.796950  -10.097830
  C      4.371600    1.650080  -10.422310
  S      4.307370    3.075930   -9.468330
  N      5.200040    1.201830  -11.343480
  C      4.833410    0.017260  -11.787830
  S      3.351220   -0.632200  -11.039390
  C      5.634860   -0.602770  -12.768080
  C      5.484000   -1.803180  -13.398720
  C      6.378960   -2.360350  -14.403240
  C      7.568360   -1.835130  -14.833360
  C      8.391500   -2.439280  -15.808720
  N      9.107460   -2.875450  -16.592430
  C      8.168550   -0.641840  -14.375440
  N      8.740930    0.305150  -14.069010
  C      5.794770   -3.614540  -14.863450
  C      4.594870   -3.851750  -14.145060
  C      4.365830   -2.746420  -13.205360
  O      3.434940   -2.636920  -12.429660
  C      3.813080   -4.963650  -14.349540
  C      4.231660   -5.886760  -15.311920
  C      5.428570   -5.641250  -16.028410
  C      6.220060   -4.517890  -15.819520
  S      5.749670   -6.909110  -17.167790
  C      4.311500   -7.739870  -16.686160
  C      3.616560   -7.104260  -15.717350
  H     -2.742910   -3.228950   -2.728790
  H     -4.961690   -2.094910   -1.932490
  H     -4.560410    4.067630   -1.210770
  H     -3.332620    5.783980    0.046360
  H     -2.876870   10.992080    1.352860
  H     -1.756260   11.740650    0.175120
  H     -0.926650   10.105890    2.629240
  H     -0.830670   11.865200    2.491750
  H      0.181190   10.846040    1.461790
  H     -0.159030    7.841140   -3.191680
  H     -1.475710    4.535010   -4.170900
  H      1.084400    6.201970   -4.081620
  H      6.488410    0.012090  -13.027160
  H      2.906770   -5.113370  -13.783680
  H      7.121030   -4.378550  -16.392800
  H      4.071110   -8.668410  -17.166510
  H      2.699050   -7.471360  -15.294540

 Total Charge           Charge          ....    0
 Multiplicity           Mult            ....    1
 Number of Electrons    NEL             ....  538
 Basis Dimension        Dim             .... 1131

ORBITAL ENERGIES
----------------

  NO   OCC          E(Eh)            E(eV)
   0   2.0000     -89.054831     -2423.3051
   1   2.0000     -88.990657     -2421.5589
   2   2.0000     -88.988297     -2421.4947
   3   2.0000     -88.971121     -2421.0273
   4   2.0000     -88.969678     -2420.9880
   5   2.0000     -88.966307     -2420.8963
   6   2.0000     -24.826092      -675.5523
   7   2.0000     -24.819313      -675.3679
   8   2.0000     -19.226643      -523.1835
   9   2.0000     -19.212812      -522.8072
  10   2.0000     -19.212782      -522.8064
  11   2.0000     -14.464380      -393.5958
  12   2.0000     -14.463653      -393.5760
  13   2.0000     -14.460372      -393.4867
  14   2.0000     -14.454207      -393.3190
  15   2.0000     -14.453786      -393.3075
  16   2.0000     -14.428959      -392.6319
  17   2.0000     -14.428047      -392.6071
  18   2.0000     -14.427634      -392.5959
  19   2.0000     -14.420718      -392.4077
  20   2.0000     -14.417174      -392.3112
  21   2.0000     -14.416961      -392.3054
  22   2.0000     -10.439180      -284.0645
  23   2.0000     -10.437019      -284.0057
  24   2.0000     -10.392921      -282.8058
  25   2.0000     -10.392803      -282.8025
  26   2.0000     -10.374095      -282.2935
  27   2.0000     -10.361553      -281.9522
  28   2.0000     -10.358831      -281.8781
  29   2.0000     -10.357076      -281.8304
  30   2.0000     -10.356685      -281.8197
  31   2.0000     -10.350464      -281.6504
  32   2.0000     -10.349954      -281.6366
  33   2.0000     -10.348698      -281.6024
  34   2.0000     -10.347969      -281.5825
  35   2.0000     -10.345790      -281.5233
  36   2.0000     -10.344137      -281.4783
  37   2.0000     -10.330712      -281.1130
  38   2.0000     -10.328544      -281.0540
  39   2.0000     -10.328501      -281.0528
  40   2.0000     -10.328391      -281.0498
  41   2.0000     -10.328118      -281.0424
  42   2.0000     -10.328062      -281.0409
  43   2.0000     -10.327021      -281.0125
  44   2.0000     -10.323687      -280.9218
  45   2.0000     -10.322905      -280.9005
  46   2.0000     -10.322176      -280.8807
  47   2.0000     -10.321945      -280.8744
  48   2.0000     -10.319624      -280.8112
  49   2.0000     -10.319086      -280.7966
  50   2.0000     -10.317582      -280.7557
  51   2.0000     -10.317144      -280.7438
  52   2.0000     -10.312371      -280.6139
  53   2.0000     -10.310893      -280.5737
  54   2.0000     -10.309768      -280.5430
  55   2.0000     -10.306185      -280.4456
  56   2.0000     -10.306055      -280.4420
  57   2.0000     -10.305144      -280.4172
  58   2.0000     -10.304985      -280.4129
  59   2.0000     -10.303628      -280.3760
  60   2.0000     -10.303474      -280.3718
  61   2.0000     -10.302772      -280.3527
  62   2.0000     -10.301577      -280.3202
  63   2.0000     -10.300124      -280.2806
  64   2.0000     -10.299974      -280.2766
  65   2.0000     -10.299507      -280.2638
  66   2.0000     -10.298572      -280.2384
  67   2.0000     -10.298365      -280.2328
  68   2.0000     -10.297687      -280.2143
  69   2.0000     -10.297518      -280.2097
  70   2.0000     -10.294133      -280.1176
  71   2.0000     -10.291996      -280.0595
  72   2.0000     -10.259534      -279.1761
  73   2.0000      -8.145916      -221.6616
  74   2.0000      -8.084682      -219.9954
  75   2.0000      -8.083332      -219.9587
  76   2.0000      -8.065920      -219.4849
  77   2.0000      -8.064695      -219.4515
  78   2.0000      -8.061184      -219.3560
  79   2.0000      -6.116908      -166.4495
  80   2.0000      -6.109137      -166.2381
  81   2.0000      -6.108882      -166.2311
  82   2.0000      -6.053889      -164.7347
  83   2.0000      -6.052583      -164.6992
  84   2.0000      -6.049648      -164.6193
  85   2.0000      -6.048145      -164.5784
  86   2.0000      -6.047255      -164.5542
  87   2.0000      -6.045959      -164.5189
  88   2.0000      -6.035419      -164.2321
  89   2.0000      -6.033866      -164.1899
  90   2.0000      -6.031118      -164.1151
  91   2.0000      -6.030429      -164.0963
  92   2.0000      -6.029727      -164.0772
  93   2.0000      -6.027615      -164.0197
  94   2.0000      -6.026877      -163.9997
  95   2.0000      -6.026498      -163.9893
  96   2.0000      -6.022938      -163.8925
  97   2.0000      -1.350242       -36.7419
  98   2.0000      -1.335732       -36.3471
  99   2.0000      -1.158996       -31.5379
 100   2.0000      -1.152025       -31.3482
 101   2.0000      -1.142353       -31.0850
 102   2.0000      -1.135458       -30.8974
 103   2.0000      -1.121468       -30.5167
 104   2.0000      -1.096082       -29.8259
 105   2.0000      -1.057859       -28.7858
 106   2.0000      -1.050003       -28.5720
 107   2.0000      -1.043300       -28.3896
 108   2.0000      -1.042563       -28.3696
 109   2.0000      -1.022798       -27.8318
 110   2.0000      -1.019941       -27.7540
 111   2.0000      -1.010915       -27.5084
 112   2.0000      -1.006147       -27.3787
 113   2.0000      -1.005692       -27.3663
 114   2.0000      -1.001533       -27.2531
 115   2.0000      -0.995378       -27.0856
 116   2.0000      -0.988382       -26.8952
 117   2.0000      -0.985184       -26.8082
 118   2.0000      -0.981355       -26.7040
 119   2.0000      -0.954870       -25.9833
 120   2.0000      -0.935337       -25.4518
 121   2.0000      -0.929125       -25.2828
 122   2.0000      -0.918929       -25.0053
 123   2.0000      -0.914648       -24.8888
 124   2.0000      -0.906237       -24.6600
 125   2.0000      -0.897999       -24.4358
 126   2.0000      -0.894268       -24.3343
 127   2.0000      -0.886449       -24.1215
 128   2.0000      -0.884314       -24.0634
 129   2.0000      -0.878900       -23.9161
 130   2.0000      -0.871643       -23.7186
 131   2.0000      -0.863200       -23.4889
 132   2.0000      -0.856862       -23.3164
 133   2.0000      -0.851569       -23.1724
 134   2.0000      -0.840658       -22.8755
 135   2.0000      -0.826397       -22.4874
 136   2.0000      -0.820554       -22.3284
 137   2.0000      -0.816961       -22.2307
 138   2.0000      -0.799011       -21.7422
 139   2.0000      -0.790127       -21.5004
 140   2.0000      -0.782478       -21.2923
 141   2.0000      -0.776228       -21.1222
 142   2.0000      -0.764895       -20.8138
 143   2.0000      -0.760835       -20.7034
 144   2.0000      -0.758089       -20.6286
 145   2.0000      -0.755481       -20.5577
 146   2.0000      -0.742777       -20.2120
 147   2.0000      -0.726825       -19.7779
 148   2.0000      -0.712489       -19.3878
 149   2.0000      -0.705378       -19.1943
 150   2.0000      -0.700575       -19.0636
 151   2.0000      -0.699778       -19.0419
 152   2.0000      -0.693017       -18.8579
 153   2.0000      -0.691710       -18.8224
 154   2.0000      -0.686481       -18.6801
 155   2.0000      -0.684090       -18.6150
 156   2.0000      -0.677728       -18.4419
 157   2.0000      -0.676047       -18.3962
 158   2.0000      -0.666136       -18.1265
 159   2.0000      -0.665613       -18.1122
 160   2.0000      -0.664172       -18.0730
 161   2.0000      -0.657552       -17.8929
 162   2.0000      -0.649799       -17.6819
 163   2.0000      -0.640692       -17.4341
 164   2.0000      -0.635340       -17.2885
 165   2.0000      -0.632409       -17.2087
 166   2.0000      -0.626390       -17.0449
 167   2.0000      -0.624692       -16.9987
 168   2.0000      -0.622695       -16.9444
 169   2.0000      -0.617813       -16.8115
 170   2.0000      -0.614324       -16.7166
 171   2.0000      -0.609123       -16.5751
 172   2.0000      -0.599625       -16.3166
 173   2.0000      -0.594550       -16.1785
 174   2.0000      -0.591937       -16.1074
 175   2.0000      -0.584267       -15.8987
 176   2.0000      -0.581008       -15.8100
 177   2.0000      -0.578669       -15.7464
 178   2.0000      -0.576895       -15.6981
 179   2.0000      -0.569160       -15.4876
 180   2.0000      -0.562408       -15.3039
 181   2.0000      -0.557397       -15.1676
 182   2.0000      -0.557324       -15.1656
 183   2.0000      -0.550907       -14.9909
 184   2.0000      -0.550260       -14.9733
 185   2.0000      -0.549490       -14.9524
 186   2.0000      -0.545294       -14.8382
 187   2.0000      -0.542385       -14.7591
 188   2.0000      -0.540537       -14.7088
 189   2.0000      -0.540353       -14.7038
 190   2.0000      -0.537862       -14.6360
 191   2.0000      -0.537343       -14.6218
 192   2.0000      -0.533370       -14.5137
 193   2.0000      -0.527467       -14.3531
 194   2.0000      -0.526740       -14.3333
 195   2.0000      -0.525223       -14.2921
 196   2.0000      -0.522357       -14.2141
 197   2.0000      -0.520395       -14.1607
 198   2.0000      -0.515959       -14.0400
 199   2.0000      -0.510997       -13.9049
 200   2.0000      -0.508670       -13.8416
 201   2.0000      -0.505754       -13.7623
 202   2.0000      -0.504139       -13.7183
 203   2.0000      -0.502929       -13.6854
 204   2.0000      -0.500127       -13.6091
 205   2.0000      -0.499549       -13.5934
 206   2.0000      -0.498219       -13.5572
 207   2.0000      -0.497028       -13.5248
 208   2.0000      -0.493000       -13.4152
 209   2.0000      -0.491992       -13.3878
 210   2.0000      -0.491204       -13.3663
 211   2.0000      -0.487863       -13.2754
 212   2.0000      -0.485444       -13.2096
 213   2.0000      -0.482078       -13.1180
 214   2.0000      -0.478974       -13.0336
 215   2.0000      -0.475858       -12.9488
 216   2.0000      -0.471540       -12.8313
 217   2.0000      -0.465442       -12.6653
 218   2.0000      -0.461654       -12.5622
 219   2.0000      -0.459681       -12.5085
 220   2.0000      -0.459287       -12.4978
 221   2.0000      -0.456910       -12.4332
 222   2.0000      -0.455587       -12.3971
 223   2.0000      -0.453999       -12.3539
 224   2.0000      -0.451303       -12.2806
 225   2.0000      -0.449657       -12.2358
 226   2.0000      -0.449483       -12.2310
 227   2.0000      -0.444442       -12.0939
 228   2.0000      -0.441902       -12.0248
 229   2.0000      -0.439994       -11.9729
 230   2.0000      -0.439352       -11.9554
 231   2.0000      -0.438272       -11.9260
 232   2.0000      -0.436737       -11.8842
 233   2.0000      -0.436326       -11.8730
 234   2.0000      -0.433761       -11.8032
 235   2.0000      -0.428660       -11.6644
 236   2.0000      -0.427243       -11.6259
 237   2.0000      -0.426905       -11.6167
 238   2.0000      -0.425099       -11.5675
 239   2.0000      -0.424592       -11.5537
 240   2.0000      -0.419748       -11.4219
 241   2.0000      -0.415180       -11.2976
 242   2.0000      -0.409860       -11.1529
 243   2.0000      -0.409227       -11.1356
 244   2.0000      -0.407957       -11.1011
 245   2.0000      -0.394368       -10.7313
 246   2.0000      -0.392386       -10.6774
 247   2.0000      -0.387567       -10.5462
 248   2.0000      -0.383697       -10.4409
 249   2.0000      -0.381990       -10.3945
 250   2.0000      -0.377437       -10.2706
 251   2.0000      -0.366858        -9.9827
 252   2.0000      -0.364944        -9.9306
 253   2.0000      -0.360406        -9.8072
 254   2.0000      -0.352066        -9.5802
 255   2.0000      -0.348291        -9.4775
 256   2.0000      -0.345776        -9.4090
 257   2.0000      -0.345209        -9.3936
 258   2.0000      -0.344614        -9.3774
 259   2.0000      -0.343736        -9.3535
 260   2.0000      -0.334938        -9.1141
 261   2.0000      -0.327903        -8.9227
 262   2.0000      -0.324719        -8.8360
 263   2.0000      -0.319633        -8.6977
 264   2.0000      -0.316335        -8.6079
 265   2.0000      -0.306676        -8.3451
 266   2.0000      -0.296434        -8.0664
 267   2.0000      -0.275117        -7.4863
 268   2.0000      -0.258972        -7.0470
 269   0.0000      -0.127717        -3.4754
 270   0.0000      -0.100030        -2.7220
 271   0.0000      -0.092455        -2.5158
 272   0.0000      -0.063546        -1.7292
 273   0.0000      -0.061617        -1.6767

MULLIKEN ATOMIC CHARGES
-----------------------
   0 C :   -0.079227
   1 C :    0.035616
   2 C :   -0.029088
   3 C :   -0.110963
   4 S :    0.173052
   5 C :   -0.100601
   6 C :    0.005785
   7 C :    0.298296
   8 C :   -0.298712
   9 C :   -0.187981
  10 N :    0.172547
  11 C :   -0.192831
  12 N :    0.173824
  13 C :   -0.004056
  14 C :   -0.166159
  15 S :    0.199348
  16 C :    0.123411
  17 C :   -0.089431
  18 C :    0.014674
  19 C :    0.017833
  20 C :    0.188882
  21 O :   -0.157194
  22 N :   -0.302683
  23 C :    0.189732
  24 O :   -0.151453
  25 C :    0.132904
  26 C :   -0.009835
  27 C :   -0.093848
  28 C :    0.078972
  29 C :   -0.034361
  30 C :   -0.067886
  31 C :    0.088970
  32 C :   -0.036538
  33 C :   -0.093599
  34 N :    0.078529
  35 C :    0.136376
  36 C :    0.133594
  37 N :   -0.008940
  38 F :   -0.144714
  39 F :   -0.133700
  40 C :    0.192576
  41 C :    0.015151
  42 C :   -0.002473
  43 N :   -0.278107
  44 S :    0.563812
  45 N :   -0.313217
  46 C :   -0.261843
  47 N :    0.018756
  48 C :   -0.046278
  49 C :   -0.038027
  50 S :    0.143080
  51 N :   -0.015436
  52 C :   -0.107208
  53 S :    0.190906
  54 C :    0.000945
  55 C :   -0.083697
  56 C :    0.323475
  57 C :   -0.347563
  58 C :   -0.187523
  59 N :    0.151039
  60 C :   -0.197320
  61 N :    0.168036
  62 C :    0.012631
  63 C :   -0.013474
  64 C :    0.169749
  65 O :   -0.175518
  66 C :   -0.064855
  67 C :    0.114428
  68 C :   -0.095637
  69 C :   -0.021084
  70 S :    0.144496
  71 C :   -0.048785
  72 C :    0.026194
  73 H :    0.036992
  74 H :    0.012252
  75 H :    0.010367
  76 H :    0.000542
  77 H :    0.033328
  78 H :    0.031578
  79 H :    0.027064
  80 H :    0.023495
  81 H :    0.027036
  82 H :   -0.002347
  83 H :    0.057919
  84 H :    0.008364
  85 H :    0.031889
  86 H :   -0.011083
  87 H :   -0.006517
  88 H :    0.039624
  89 H :   -0.006273
Sum of atomic charges:   -0.0000000

LOEWDIN ATOMIC CHARGES
----------------------
   0 C :   -0.176011
   1 C :   -0.033857
   2 C :   -0.073020
   3 C :   -0.186247
   4 S :    0.473591
   5 C :   -0.179175
   6 C :   -0.075003
   7 C :    0.083331
   8 C :   -0.105069
   9 C :   -0.017149
  10 N :   -0.034172
  11 C :   -0.017201
  12 N :   -0.033982
  13 C :   -0.023098
  14 C :   -0.169502
  15 S :    0.516837
  16 C :   -0.018339
  17 C :    0.021117
  18 C :   -0.045903
  19 C :   -0.051937
  20 C :    0.087614
  21 O :   -0.158644
  22 N :   -0.035331
  23 C :    0.087747
  24 O :   -0.153730
  25 C :    0.044642
  26 C :   -0.059754
  27 C :    0.024337
  28 C :   -0.018751
  29 C :   -0.004261
  30 C :   -0.021377
  31 C :   -0.007415
  32 C :   -0.011117
  33 C :    0.007860
  34 N :   -0.011838
  35 C :    0.059522
  36 C :    0.054292
  37 N :   -0.037750
  38 F :   -0.032446
  39 F :   -0.024211
  40 C :   -0.063939
  41 C :   -0.044940
  42 C :   -0.046487
  43 N :   -0.277962
  44 S :    0.692310
  45 N :   -0.304486
  46 C :   -0.103884
  47 N :   -0.078950
  48 C :   -0.207883
  49 C :   -0.217620
  50 S :    0.438999
  51 N :   -0.073533
  52 C :   -0.141921
  53 S :    0.489961
  54 C :    0.049982
  55 C :   -0.092611
  56 C :    0.074499
  57 C :   -0.133277
  58 C :   -0.016877
  59 N :   -0.050490
  60 C :   -0.025112
  61 N :   -0.039476
  62 C :   -0.021620
  63 C :   -0.054387
  64 C :    0.084441
  65 O :   -0.160693
  66 C :    0.024870
  67 C :   -0.034633
  68 C :   -0.144742
  69 C :   -0.007733
  70 S :    0.432879
  71 C :   -0.148156
  72 C :   -0.057312
  73 H :    0.028018
  74 H :    0.042789
  75 H :    0.041838
  76 H :    0.042616
  77 H :    0.032939
  78 H :    0.032369
  79 H :    0.028189
  80 H :    0.030698
  81 H :    0.027954
  82 H :    0.040900
  83 H :    0.026798
  84 H :    0.035241
  85 H :    0.058495
  86 H :    0.040827
  87 H :    0.041017
  88 H :    0.029924
  89 H :    0.035569

  Mayer bond orders larger than 0.100000
B(  0-C ,  1-C ) :   1.5506 B(  0-C ,  4-S ) :   1.1515 B(  0-C , 73-H ) :   0.9646
B(  1-C ,  2-C ) :   1.2747 B(  1-C , 74-H ) :   0.9966 B(  2-C ,  3-C ) :   1.4664
B(  2-C ,  7-C ) :   1.0152 B(  3-C ,  4-S ) :   1.1306 B(  3-C ,  5-C ) :   1.1700
B(  5-C ,  6-C ) :   1.4517 B(  5-C , 15-S ) :   1.1490 B(  6-C ,  7-C ) :   0.9956
B(  6-C , 13-C ) :   1.2756 B(  7-C ,  8-C ) :   1.7079 B(  8-C ,  9-C ) :   1.1329
B(  8-C , 11-C ) :   1.1320 B(  9-C , 10-N ) :   2.9924 B( 11-C , 12-N ) :   3.0028
B( 13-C , 14-C ) :   1.5041 B( 13-C , 75-H ) :   0.9940 B( 14-C , 15-S ) :   1.1232
B( 14-C , 16-C ) :   0.9944 B( 16-C , 17-C ) :   1.3193 B( 16-C , 28-C ) :   1.3454
B( 17-C , 18-C ) :   1.3987 B( 17-C , 76-H ) :   1.0125 B( 18-C , 19-C ) :   1.3415
B( 18-C , 23-C ) :   0.8724 B( 19-C , 20-C ) :   0.8757 B( 19-C , 27-C ) :   1.3986
B( 20-C , 21-O ) :   2.2276 B( 20-C , 22-N ) :   1.0664 B( 22-N , 23-C ) :   1.0621
B( 22-N , 25-C ) :   0.9181 B( 23-C , 24-O ) :   2.2340 B( 25-C , 26-C ) :   1.1226
B( 25-C , 77-H ) :   0.9423 B( 25-C , 78-H ) :   0.9431 B( 26-C , 79-H ) :   0.9697
B( 26-C , 80-H ) :   0.9706 B( 26-C , 81-H ) :   0.9697 B( 27-C , 28-C ) :   1.3025
B( 27-C , 82-H ) :   1.0105 B( 28-C , 29-C ) :   1.0410 B( 29-C , 30-C ) :   1.6655
B( 29-C , 83-H ) :   0.9383 B( 30-C , 31-C ) :   1.1777 B( 30-C , 84-H ) :   0.9628
B( 31-C , 32-C ) :   1.2763 B( 31-C , 40-C ) :   0.1361 B( 31-C , 42-C ) :   1.1904
B( 32-C , 33-C ) :   1.1182 B( 32-C , 37-N ) :   1.4053 B( 33-C , 34-N ) :   1.4765
B( 33-C , 40-C ) :   1.2892 B( 34-N , 35-C ) :   1.6947 B( 35-C , 36-C ) :   1.0969
B( 35-C , 39-F ) :   1.1850 B( 36-C , 37-N ) :   1.6706 B( 36-C , 38-F ) :   1.1472
B( 40-C , 41-C ) :   1.2153 B( 40-C , 46-C ) :   1.1080 B( 41-C , 42-C ) :   1.1285
B( 41-C , 45-N ) :   1.4737 B( 42-C , 43-N ) :   1.5072 B( 43-N , 44-S ) :   1.3070
B( 43-N , 45-N ) :   0.1565 B( 44-S , 45-N ) :   1.2735 B( 46-C , 47-N ) :   1.7198
B( 46-C , 50-S ) :   1.0958 B( 47-N , 48-C ) :   1.4214 B( 47-N , 50-S ) :   0.1099
B( 48-C , 49-C ) :   1.1916 B( 48-C , 53-S ) :   1.0885 B( 49-C , 50-S ) :   1.0625
B( 49-C , 51-N ) :   1.4919 B( 51-N , 52-C ) :   1.5930 B( 51-N , 53-S ) :   0.1189
B( 52-C , 53-S ) :   1.0691 B( 52-C , 54-C ) :   1.1920 B( 54-C , 55-C ) :   1.5555
B( 54-C , 85-H ) :   0.9394 B( 55-C , 56-C ) :   1.0633 B( 55-C , 64-C ) :   0.9599
B( 56-C , 57-C ) :   1.6401 B( 56-C , 62-C ) :   1.0040 B( 57-C , 58-C ) :   1.1448
B( 57-C , 60-C ) :   1.1402 B( 58-C , 59-N ) :   2.9680 B( 60-C , 61-N ) :   2.9711
B( 62-C , 63-C ) :   1.2663 B( 62-C , 69-C ) :   1.4121 B( 63-C , 64-C ) :   0.9650
B( 63-C , 66-C ) :   1.4206 B( 64-C , 65-O ) :   2.1316 B( 66-C , 67-C ) :   1.2465
B( 66-C , 86-H ) :   1.0170 B( 67-C , 68-C ) :   1.2990 B( 67-C , 72-C ) :   1.1716
B( 68-C , 69-C ) :   1.3245 B( 68-C , 70-S ) :   1.1013 B( 69-C , 87-H ) :   0.9819
B( 70-S , 71-C ) :   1.1274 B( 71-C , 72-C ) :   1.6277 B( 71-C , 88-H ) :   0.9687
B( 72-C , 89-H ) :   0.9997

-----------------------------------------------------------------------------
         ABSORPTION SPECTRUM VIA TRANSITION ELECTRIC DIPOLE MOMENTS
-----------------------------------------------------------------------------
State   Energy  Wavelength   fosc         T2         TX        TY        TZ
        (cm-1)    (nm)                  (au**2)     (au)      (au)      (au)
-----------------------------------------------------------------------------
   0   13295.7    752.1   0.973806696  24.11226  -2.51367   2.05556   3.68353
   1   16407.7    609.5   0.019706176   0.39539  -0.06296  -0.62562  -0.00568
   2   17741.9    563.6   0.205064896   3.80510   0.47856  -1.59539  -1.01530
   3   21960.9    455.4   0.679131902  10.18074  -1.45324   1.80038   2.19715
   4   23067.5    433.5   0.001375925   0.01964   0.04322  -0.02099  -0.13164
   5   23260.4    429.9   0.004482416   0.06344   0.21762   0.05265  -0.11537
   6   23356.7    428.1   0.019148962   0.26990   0.00628  -0.36210  -0.37249
   7   25535.2    391.6   0.035981069   0.46389   0.45775   0.50201   0.04840
   8   25949.2    385.4   0.023106473   0.29315   0.00854  -0.47112  -0.26669
   9   27476.9    363.9   0.139990974   1.67729  -0.69618   0.01425   1.09198
  10   27595.0    362.4   0.001205870   0.01439   0.04307  -0.11147   0.01027
  11   27913.3    358.3   0.286586804   3.38003   0.74977   1.67865  -0.00162
  12   28434.3    351.7   0.017197953   0.19912  -0.31538  -0.23539   0.21034
  13   28694.5    348.5   0.019866209   0.22793  -0.21513  -0.41574  -0.09383
  14   29993.0    333.4   0.054983061   0.60351  -0.65095  -0.32956   0.26676
  15   30080.6    332.4   0.040552942   0.44382  -0.17490  -0.51850  -0.37998
  16   30273.1    330.3   0.114241456   1.24235   0.85225   0.71042  -0.10639
  17   30592.7    326.9   0.113376084   1.22005   0.03778  -0.97314  -0.52118
  18   30808.1    324.6   0.120409507   1.28668   1.00980   0.37652  -0.35384
  19   30960.4    323.0   0.380889182   4.05012   0.55308   1.75951   0.80519
  20   31255.5    319.9   0.044459565   0.46829  -0.33905  -0.57951  -0.13228
  21   31552.7    316.9   0.032235902   0.33634  -0.41473   0.18730   0.35953
  22   31794.4    314.5   0.571180558   5.91424  -2.30950  -0.63736   0.41739
  23   32130.9    311.2   0.093081634   0.95371  -0.47452   0.69055   0.50168
  24   32369.9    308.9   0.120102333   1.22148   0.98548  -0.22802  -0.44532
  25   32535.8    307.4   0.059477334   0.60182   0.62827  -0.45296  -0.04389
  26   32595.6    306.8   0.046300190   0.46763  -0.56352  -0.38428   0.04905
  27   32833.4    304.6   0.178539917   1.79017   0.71687   1.09286   0.28624
  28   33132.1    301.8   0.000719055   0.00714   0.02361   0.06294   0.05124
  29   33428.9    299.1   0.000701384   0.00691   0.00030   0.00057  -0.08311
  30   33565.2    297.9   0.014157794   0.13886  -0.01150  -0.30192   0.21811
  31   33988.7    294.2   0.007721901   0.07479   0.08682   0.15797   0.20567
  32   34056.2    293.6   0.516585413   4.99369   0.34433  -2.02176  -0.88748
  33   34247.0    292.0   0.279572425   2.68750  -0.06237  -1.49997  -0.65856
  34   35140.7    284.6   0.113221350   1.06070  -0.82308  -0.61817   0.03322
  35   35634.0    280.6   0.263211234   2.43173   1.32648   0.65732  -0.49002
  36   35832.3    279.1   0.000910389   0.00836  -0.07510  -0.05146   0.00871
  37   35887.7    278.6   0.088145143   0.80859   0.86171   0.08900  -0.24110
  38   36317.6    275.3   0.399304644   3.61962  -0.86120  -1.69636  -0.01806
  39   36745.9    272.1   0.000445943   0.00400   0.04679   0.04201   0.00641
  40   36990.2    270.3   0.003232788   0.02877   0.16569  -0.00727   0.03556
  41   37051.9    269.9   0.009804775   0.08712  -0.01025  -0.28383   0.08033
  42   37096.4    269.6   0.019543962   0.17344  -0.04061   0.36169   0.20241
  43   37384.3    267.5   0.013982169   0.12313   0.02075   0.23572  -0.25910
  44   37590.8    266.0   0.019504654   0.17082   0.33826   0.23561   0.02982
  45   37865.4    264.1   0.240678253   2.09252  -1.23250   0.02059   0.75699
  46   38491.7    259.8   0.024117372   0.20627   0.25708  -0.32189  -0.19122
  47   38598.6    259.1   0.004793406   0.04088  -0.04790   0.18343  -0.07031
  48   38760.3    258.0   0.104026293   0.88355  -0.49283   0.40436   0.69077
  49   38822.0    257.6   0.022042776   0.18692  -0.35621  -0.04124   0.24153
  50   38913.6    257.0   0.023208965   0.19635   0.06260  -0.37123  -0.23371
  51   39213.1    255.0   0.000784653   0.00659   0.01644  -0.07245  -0.03269
  52   39456.3    253.4   0.112235728   0.93646   0.05541   0.88844   0.37957
  53   39868.4    250.8   0.027347673   0.22582   0.33027  -0.17893  -0.29108
  54   39952.9    250.3   0.010853404   0.08943   0.10942   0.27767   0.01888
  55   40305.1    248.1   0.056764069   0.46365   0.34386   0.58769   0.00558

FINAL SINGLE POINT ENERGY     -5365.962520643257

DIPOLE MOMENT
-------------
                                X             Y             Z
Electronic contribution:     10.81191     -26.76953     -31.07740
Nuclear contribution   :    -10.71366      25.37781      30.98484
                        -----------------------------------------
Total Dipole Moment    :      0.09824      -1.39172      -0.09256
                        -----------------------------------------
Magnitude (a.u.)       :      1.39825
Magnitude (Debye)      :      3.55407

Rotational constants in cm-1:     0.001397     0.000280     0.000237
Rotational constants in MHz :    41.889923     8.389680     7.095200

                             ****ORCA TERMINATED NORMALLY****
TOTAL RUN TIME: 0 days 0 hours 9 minutes 14 seconds 750 msec
