                         Program Version 4.2.0 -  RELEASE  -
|  1> # ORCA input file
|  2> # SCF done       -192.043403719556          0.000712894994
|  3> ! CAM-B3LYP def2-SVP def2/J RIJCOSX Grid4 TightSCF
|  4> %maxcore 5000
|  5> %tddft
|  6>     Mode sTDDFT
|  7>     Ethresh 5.0
|  8>     maxcore 5000
|  9> end
| 10>
| 11> %pal
| 12>   nprocs 6
| 13>   end
| 14> * xyz 0 1
| 15>    C       -3.23430        -2.72683        -0.14849
| 16>    C       -2.40242        -1.70329         0.18580
| 17>    C       -2.98102        -0.86719         1.16102
| 18>    C       -4.26367        -1.29240         1.53454
| 19>    S       -4.74336        -2.70669         0.70642
| 20>    C       -4.78417        -0.37869         2.49487
| 21>    C       -3.83246         0.62743         2.70680
| 22>    C       -2.66993         0.35420         1.87230
| 23>    C       -1.54197         1.11973         1.78358
| 24>    C       -1.45067         2.37186         2.41823
| 25>    N       -1.38908         3.40797         2.90925
| 26>    C       -0.40131         0.72550         1.05880
| 27>    N        0.55707         0.42061         0.50647
| 28>    C       -4.22328         1.55780         3.66934
| 29>    C       -5.47253         1.27133         4.19220
| 30>    S       -6.17264        -0.16658         3.46510
| 31>    C       -6.19757         1.98552         5.19630
| 32>    C       -5.66120         3.03210         5.90770
| 33>    C       -6.33668         3.76434         6.88817
| 34>    C       -7.71355         3.40214         7.26633
| 35>    C       -8.42529         2.40265         6.70067
| 36>    S       -7.83508         1.40285         5.44523
| 37>    C       -8.07098         4.28791         8.31676
| 38>    C       -6.99884         5.13619         8.59016
| 39>    C       -7.29221         6.04839         9.62879
| 40>    C       -8.55103         5.86906        10.10666
| 41>    S       -9.42988         4.59803         9.32257
| 42>    C       -5.91104         4.83183         7.69815
| 43>    C       -4.69173         5.56372         7.77289
| 44>    C       -3.66453         5.62346         6.90108
| 45>    C       -2.48986         6.42288         7.16630
| 46>    C       -2.50748         7.65287         7.78886
| 47>    C       -3.62732         8.51412         8.19887
| 48>    O       -3.58589         9.14201         9.23334
| 49>    C       -4.76601         8.65668         7.21637
| 50>    S       -0.90611         8.24726         8.10479
| 51>    C       -0.21600         6.89378         7.33479
| 52>    C       -1.14798         5.98969         6.88285
| 53>    C       -0.81089         4.72665         6.28813
| 54>    S       -1.79799         3.34510         6.57266
| 55>    C       -0.75651         2.29333         5.64636
| 56>    C        0.34445         3.02443         5.14262
| 57>    C        0.29917         4.40475         5.49939
| 58>    C        1.28449         5.27041         4.98112
| 59>    C        2.27602         4.76884         4.19038
| 60>    S        3.51005         5.87480         3.54007
| 61>    C        4.89363         5.47050         4.67277
| 62>    C        4.59721         5.87855         6.10152
| 63>    C        2.32633         3.39030         3.84196
| 64>    S        3.61492         2.92087         2.76455
| 65>    C        3.32104         1.14459         2.44151
| 66>    C        4.38716         0.64922         1.48333
| 67>    C        1.36517         2.52959         4.32677
| 68>    C       -1.09595         0.98362         5.34867
| 69>    C       -2.25317         0.35625         5.75807
| 70>    C       -2.73977        -0.88061         5.34166
| 71>    C       -2.30680        -1.80470         4.39943
| 72>    C       -3.09406        -2.96965         4.05061
| 73>    C       -4.34453        -3.31644         4.50552
| 74>    C       -5.06149        -4.44116         4.04685
| 75>    N       -5.71047        -5.32708         3.71106
| 76>    C       -5.13432        -2.62809         5.44872
| 77>    N       -5.86843        -2.14820         6.19282
| 78>    C       -2.35424        -3.72973         3.04191
| 79>    C       -1.16686        -3.04186         2.75518
| 80>    C       -1.08979        -1.81853         3.58037
| 81>    O       -0.16426        -1.02219         3.52921
| 82>    C       -0.26109        -3.49389         1.81951
| 83>    C       -0.55191        -4.67219         1.14375
| 84>    C       -1.72927        -5.36977         1.42480
| 85>    C       -2.63589        -4.90929         2.37459
| 86>   Cl       -2.08505        -6.82205         0.57629
| 87>   Cl        0.53497        -5.26207        -0.04892
| 88>    H       -3.05985        -3.51227        -0.85574
| 89>    H       -1.42972        -1.55761        -0.24715
| 90>    H       -3.63468         2.40693         3.96081
| 91>    H       -4.63294         3.28296         5.70101
| 92>    H       -9.43152         2.16531         7.00867
| 93>    H       -6.61733         6.79434        10.00885
| 94>    H       -9.03898         6.41395        10.89101
| 95>    H       -4.60280         6.16308         8.67206
| 96>    H       -3.67094         5.06631         5.97747
| 97>    H       -4.71580         7.93315         6.41073
| 98>    H       -4.70401         9.66342         6.80245
| 99>    H       -5.71894         8.57766         7.73452
|100>    H        0.85069         6.79400         7.30758
|101>    H        1.24502         6.32980         5.17334
|102>    H        5.73679         6.02791         4.26855
|103>    H        5.09386         4.40360         4.58778
|104>    H        4.37429         6.94181         6.15349
|105>    H        5.46055         5.67204         6.73081
|106>    H        3.74524         5.32336         6.49111
|107>    H        2.33011         1.03900         2.00055
|108>    H        3.37168         0.61509         3.39299
|109>    H        4.34353         1.20307         0.54864
|110>    H        4.22049        -0.40372         1.26971
|111>    H        5.37986         0.76843         1.91247
|112>    H        1.36634         1.48578         4.06117
|113>    H       -0.41408         0.44021         4.71228
|114>    H       -2.88622         0.89077         6.45845
|115>    H       -3.67234        -1.14848         5.82116
|116>    H        0.64071        -2.93887         1.61398
|117>    H       -3.53146        -5.47848         2.55944
|118> *
|119>
|120>                          ****END OF INPUT****

CARTESIAN COORDINATES (ANGSTROEM)
---------------------------------
  C     -3.234300   -2.726830   -0.148490
  C     -2.402420   -1.703290    0.185800
  C     -2.981020   -0.867190    1.161020
  C     -4.263670   -1.292400    1.534540
  S     -4.743360   -2.706690    0.706420
  C     -4.784170   -0.378690    2.494870
  C     -3.832460    0.627430    2.706800
  C     -2.669930    0.354200    1.872300
  C     -1.541970    1.119730    1.783580
  C     -1.450670    2.371860    2.418230
  N     -1.389080    3.407970    2.909250
  C     -0.401310    0.725500    1.058800
  N      0.557070    0.420610    0.506470
  C     -4.223280    1.557800    3.669340
  C     -5.472530    1.271330    4.192200
  S     -6.172640   -0.166580    3.465100
  C     -6.197570    1.985520    5.196300
  C     -5.661200    3.032100    5.907700
  C     -6.336680    3.764340    6.888170
  C     -7.713550    3.402140    7.266330
  C     -8.425290    2.402650    6.700670
  S     -7.835080    1.402850    5.445230
  C     -8.070980    4.287910    8.316760
  C     -6.998840    5.136190    8.590160
  C     -7.292210    6.048390    9.628790
  C     -8.551030    5.869060   10.106660
  S     -9.429880    4.598030    9.322570
  C     -5.911040    4.831830    7.698150
  C     -4.691730    5.563720    7.772890
  C     -3.664530    5.623460    6.901080
  C     -2.489860    6.422880    7.166300
  C     -2.507480    7.652870    7.788860
  C     -3.627320    8.514120    8.198870
  O     -3.585890    9.142010    9.233340
  C     -4.766010    8.656680    7.216370
  S     -0.906110    8.247260    8.104790
  C     -0.216000    6.893780    7.334790
  C     -1.147980    5.989690    6.882850
  C     -0.810890    4.726650    6.288130
  S     -1.797990    3.345100    6.572660
  C     -0.756510    2.293330    5.646360
  C      0.344450    3.024430    5.142620
  C      0.299170    4.404750    5.499390
  C      1.284490    5.270410    4.981120
  C      2.276020    4.768840    4.190380
  S      3.510050    5.874800    3.540070
  C      4.893630    5.470500    4.672770
  C      4.597210    5.878550    6.101520
  C      2.326330    3.390300    3.841960
  S      3.614920    2.920870    2.764550
  C      3.321040    1.144590    2.441510
  C      4.387160    0.649220    1.483330
  C      1.365170    2.529590    4.326770
  C     -1.095950    0.983620    5.348670
  C     -2.253170    0.356250    5.758070
  C     -2.739770   -0.880610    5.341660
  C     -2.306800   -1.804700    4.399430
  C     -3.094060   -2.969650    4.050610
  C     -4.344530   -3.316440    4.505520
  C     -5.061490   -4.441160    4.046850
  N     -5.710470   -5.327080    3.711060
  C     -5.134320   -2.628090    5.448720
  N     -5.868430   -2.148200    6.192820
  C     -2.354240   -3.729730    3.041910
  C     -1.166860   -3.041860    2.755180
  C     -1.089790   -1.818530    3.580370
  O     -0.164260   -1.022190    3.529210
  C     -0.261090   -3.493890    1.819510
  C     -0.551910   -4.672190    1.143750
  C     -1.729270   -5.369770    1.424800
  C     -2.635890   -4.909290    2.374590
  Cl    -2.085050   -6.822050    0.576290
  Cl     0.534970   -5.262070   -0.048920
  H     -3.059850   -3.512270   -0.855740
  H     -1.429720   -1.557610   -0.247150
  H     -3.634680    2.406930    3.960810
  H     -4.632940    3.282960    5.701010
  H     -9.431520    2.165310    7.008670
  H     -6.617330    6.794340   10.008850
  H     -9.038980    6.413950   10.891010
  H     -4.602800    6.163080    8.672060
  H     -3.670940    5.066310    5.977470
  H     -4.715800    7.933150    6.410730
  H     -4.704010    9.663420    6.802450
  H     -5.718940    8.577660    7.734520
  H      0.850690    6.794000    7.307580
  H      1.245020    6.329800    5.173340
  H      5.736790    6.027910    4.268550
  H      5.093860    4.403600    4.587780
  H      4.374290    6.941810    6.153490
  H      5.460550    5.672040    6.730810
  H      3.745240    5.323360    6.491110
  H      2.330110    1.039000    2.000550
  H      3.371680    0.615090    3.392990
  H      4.343530    1.203070    0.548640
  H      4.220490   -0.403720    1.269710
  H      5.379860    0.768430    1.912470
  H      1.366340    1.485780    4.061170
  H     -0.414080    0.440210    4.712280
  H     -2.886220    0.890770    6.458450
  H     -3.672340   -1.148480    5.821160
  H      0.640710   -2.938870    1.613980
  H     -3.531460   -5.478480    2.559440

 Total Charge           Charge          ....    0
 Multiplicity           Mult            ....    1
 Number of Electrons    NEL             ....  578
 Basis Dimension        Dim             .... 1212

ORBITAL ENERGIES
----------------

  NO   OCC          E(Eh)            E(eV)
   0   2.0000    -101.597908     -2764.6196
   1   2.0000    -101.596792     -2764.5893
   2   2.0000     -88.988563     -2421.5019
   3   2.0000     -88.985523     -2421.4192
   4   2.0000     -88.981497     -2421.3096
   5   2.0000     -88.980015     -2421.2693
   6   2.0000     -88.973870     -2421.1021
   7   2.0000     -88.955742     -2420.6088
   8   2.0000     -88.929986     -2419.9080
   9   2.0000     -88.916153     -2419.5315
  10   2.0000     -19.218023      -522.9490
  11   2.0000     -19.205240      -522.6011
  12   2.0000     -14.430691      -392.6791
  13   2.0000     -14.430599      -392.6766
  14   2.0000     -14.413332      -392.2067
  15   2.0000     -14.410643      -392.1335
  16   2.0000     -10.368284      -282.1354
  17   2.0000     -10.365420      -282.0574
  18   2.0000     -10.359898      -281.9072
  19   2.0000     -10.350434      -281.6496
  20   2.0000     -10.349962      -281.6368
  21   2.0000     -10.348462      -281.5960
  22   2.0000     -10.341257      -281.3999
  23   2.0000     -10.337671      -281.3023
  24   2.0000     -10.335814      -281.2518
  25   2.0000     -10.332839      -281.1708
  26   2.0000     -10.332467      -281.1607
  27   2.0000     -10.331378      -281.1311
  28   2.0000     -10.329971      -281.0928
  29   2.0000     -10.328432      -281.0509
  30   2.0000     -10.326888      -281.0089
  31   2.0000     -10.326191      -280.9899
  32   2.0000     -10.318827      -280.7896
  33   2.0000     -10.317627      -280.7569
  34   2.0000     -10.317476      -280.7528
  35   2.0000     -10.314683      -280.6768
  36   2.0000     -10.309881      -280.5461
  37   2.0000     -10.308249      -280.5017
  38   2.0000     -10.307867      -280.4913
  39   2.0000     -10.306622      -280.4574
  40   2.0000     -10.306501      -280.4542
  41   2.0000     -10.306274      -280.4480
  42   2.0000     -10.304348      -280.3956
  43   2.0000     -10.303736      -280.3789
  44   2.0000     -10.303501      -280.3725
  45   2.0000     -10.302904      -280.3563
  46   2.0000     -10.302566      -280.3471
  47   2.0000     -10.300280      -280.2849
  48   2.0000     -10.299955      -280.2760
  49   2.0000     -10.299635      -280.2673
  50   2.0000     -10.299227      -280.2562
  51   2.0000     -10.298725      -280.2426
  52   2.0000     -10.297681      -280.2142
  53   2.0000     -10.296914      -280.1933
  54   2.0000     -10.296475      -280.1813
  55   2.0000     -10.296246      -280.1751
  56   2.0000     -10.294667      -280.1321
  57   2.0000     -10.294550      -280.1289
  58   2.0000     -10.291472      -280.0452
  59   2.0000     -10.290803      -280.0270
  60   2.0000     -10.289906      -280.0026
  61   2.0000     -10.288272      -279.9581
  62   2.0000     -10.287114      -279.9266
  63   2.0000     -10.285094      -279.8716
  64   2.0000     -10.281420      -279.7717
  65   2.0000     -10.281169      -279.7648
  66   2.0000     -10.280777      -279.7542
  67   2.0000     -10.276171      -279.6288
  68   2.0000     -10.274419      -279.5812
  69   2.0000     -10.272824      -279.5378
  70   2.0000     -10.266025      -279.3527
  71   2.0000     -10.262632      -279.2604
  72   2.0000     -10.261948      -279.2418
  73   2.0000      -9.552831      -259.9458
  74   2.0000      -9.551775      -259.9170
  75   2.0000      -8.082514      -219.9364
  76   2.0000      -8.079811      -219.8628
  77   2.0000      -8.075640      -219.7493
  78   2.0000      -8.075516      -219.7460
  79   2.0000      -8.069527      -219.5830
  80   2.0000      -8.051171      -219.0835
  81   2.0000      -8.025052      -218.3728
  82   2.0000      -8.011266      -217.9976
  83   2.0000      -7.323178      -199.2738
  84   2.0000      -7.322117      -199.2449
  85   2.0000      -7.313139      -199.0006
  86   2.0000      -7.312398      -198.9805
  87   2.0000      -7.312070      -198.9715
  88   2.0000      -7.311341      -198.9517
  89   2.0000      -6.051847      -164.6791
  90   2.0000      -6.049113      -164.6047
  91   2.0000      -6.047497      -164.5608
  92   2.0000      -6.045246      -164.4995
  93   2.0000      -6.044933      -164.4910
  94   2.0000      -6.044672      -164.4839
  95   2.0000      -6.044577      -164.4813
  96   2.0000      -6.042410      -164.4223
  97   2.0000      -6.040585      -164.3727
  98   2.0000      -6.040344      -164.3661
  99   2.0000      -6.038624      -164.3193
 100   2.0000      -6.038396      -164.3131
 101   2.0000      -6.037483      -164.2883
 102   2.0000      -6.034299      -164.2016
 103   2.0000      -6.032149      -164.1431
 104   2.0000      -6.020645      -163.8301
 105   2.0000      -6.016401      -163.7146
 106   2.0000      -6.013117      -163.6252
 107   2.0000      -5.995131      -163.1358
 108   2.0000      -5.990901      -163.0207
 109   2.0000      -5.985502      -162.8738
 110   2.0000      -5.981776      -162.7724
 111   2.0000      -5.977986      -162.6693
 112   2.0000      -5.970562      -162.4672
 113   2.0000      -1.131287       -30.7839
 114   2.0000      -1.124889       -30.6098
 115   2.0000      -1.041900       -28.3515
 116   2.0000      -1.026524       -27.9331
 117   2.0000      -1.022921       -27.8351
 118   2.0000      -1.019027       -27.7291
 119   2.0000      -1.012206       -27.5435
 120   2.0000      -1.008805       -27.4510
 121   2.0000      -1.008414       -27.4403
 122   2.0000      -0.997582       -27.1456
 123   2.0000      -0.996014       -27.1029
 124   2.0000      -0.991005       -26.9666
 125   2.0000      -0.985293       -26.8112
 126   2.0000      -0.972108       -26.4524
 127   2.0000      -0.965184       -26.2640
 128   2.0000      -0.958542       -26.0833
 129   2.0000      -0.953225       -25.9386
 130   2.0000      -0.932474       -25.3739
 131   2.0000      -0.930271       -25.3140
 132   2.0000      -0.919995       -25.0343
 133   2.0000      -0.912869       -24.8404
 134   2.0000      -0.903434       -24.5837
 135   2.0000      -0.902157       -24.5489
 136   2.0000      -0.896981       -24.4081
 137   2.0000      -0.892912       -24.2974
 138   2.0000      -0.886375       -24.1195
 139   2.0000      -0.877460       -23.8769
 140   2.0000      -0.862598       -23.4725
 141   2.0000      -0.857278       -23.3277
 142   2.0000      -0.855584       -23.2816
 143   2.0000      -0.854320       -23.2472
 144   2.0000      -0.848943       -23.1009
 145   2.0000      -0.847220       -23.0540
 146   2.0000      -0.841749       -22.9052
 147   2.0000      -0.832042       -22.6410
 148   2.0000      -0.820220       -22.3193
 149   2.0000      -0.815039       -22.1783
 150   2.0000      -0.804052       -21.8794
 151   2.0000      -0.792270       -21.5588
 152   2.0000      -0.786309       -21.3965
 153   2.0000      -0.780876       -21.2487
 154   2.0000      -0.774748       -21.0820
 155   2.0000      -0.768129       -20.9019
 156   2.0000      -0.762836       -20.7578
 157   2.0000      -0.756297       -20.5799
 158   2.0000      -0.738085       -20.0843
 159   2.0000      -0.730288       -19.8721
 160   2.0000      -0.726968       -19.7818
 161   2.0000      -0.720530       -19.6066
 162   2.0000      -0.706269       -19.2186
 163   2.0000      -0.703241       -19.1362
 164   2.0000      -0.701819       -19.0975
 165   2.0000      -0.690759       -18.7965
 166   2.0000      -0.688762       -18.7422
 167   2.0000      -0.684042       -18.6137
 168   2.0000      -0.678390       -18.4599
 169   2.0000      -0.673113       -18.3163
 170   2.0000      -0.667113       -18.1531
 171   2.0000      -0.658418       -17.9165
 172   2.0000      -0.657990       -17.9048
 173   2.0000      -0.649860       -17.6836
 174   2.0000      -0.644648       -17.5418
 175   2.0000      -0.643515       -17.5109
 176   2.0000      -0.632184       -17.2026
 177   2.0000      -0.627773       -17.0826
 178   2.0000      -0.616751       -16.7827
 179   2.0000      -0.614289       -16.7157
 180   2.0000      -0.612695       -16.6723
 181   2.0000      -0.610469       -16.6117
 182   2.0000      -0.606941       -16.5157
 183   2.0000      -0.592397       -16.1199
 184   2.0000      -0.586871       -15.9696
 185   2.0000      -0.585312       -15.9272
 186   2.0000      -0.581966       -15.8361
 187   2.0000      -0.576460       -15.6863
 188   2.0000      -0.571695       -15.5566
 189   2.0000      -0.566006       -15.4018
 190   2.0000      -0.564258       -15.3542
 191   2.0000      -0.563438       -15.3319
 192   2.0000      -0.561043       -15.2668
 193   2.0000      -0.552654       -15.0385
 194   2.0000      -0.547610       -14.9012
 195   2.0000      -0.546179       -14.8623
 196   2.0000      -0.543815       -14.7980
 197   2.0000      -0.539262       -14.6741
 198   2.0000      -0.537412       -14.6237
 199   2.0000      -0.534639       -14.5483
 200   2.0000      -0.533451       -14.5159
 201   2.0000      -0.532090       -14.4789
 202   2.0000      -0.528486       -14.3808
 203   2.0000      -0.527206       -14.3460
 204   2.0000      -0.526252       -14.3201
 205   2.0000      -0.522487       -14.2176
 206   2.0000      -0.521309       -14.1855
 207   2.0000      -0.518016       -14.0959
 208   2.0000      -0.514705       -14.0058
 209   2.0000      -0.514161       -13.9910
 210   2.0000      -0.510996       -13.9049
 211   2.0000      -0.509940       -13.8762
 212   2.0000      -0.506891       -13.7932
 213   2.0000      -0.505023       -13.7424
 214   2.0000      -0.503084       -13.6896
 215   2.0000      -0.499482       -13.5916
 216   2.0000      -0.494855       -13.4657
 217   2.0000      -0.493081       -13.4174
 218   2.0000      -0.491037       -13.3618
 219   2.0000      -0.489013       -13.3067
 220   2.0000      -0.486899       -13.2492
 221   2.0000      -0.486329       -13.2337
 222   2.0000      -0.481717       -13.1082
 223   2.0000      -0.478460       -13.0196
 224   2.0000      -0.477702       -12.9989
 225   2.0000      -0.472318       -12.8524
 226   2.0000      -0.468544       -12.7497
 227   2.0000      -0.466984       -12.7073
 228   2.0000      -0.464866       -12.6497
 229   2.0000      -0.464241       -12.6326
 230   2.0000      -0.461904       -12.5690
 231   2.0000      -0.461480       -12.5575
 232   2.0000      -0.460450       -12.5295
 233   2.0000      -0.458712       -12.4822
 234   2.0000      -0.457875       -12.4594
 235   2.0000      -0.454968       -12.3803
 236   2.0000      -0.453750       -12.3472
 237   2.0000      -0.452145       -12.3035
 238   2.0000      -0.447880       -12.1874
 239   2.0000      -0.446131       -12.1398
 240   2.0000      -0.443303       -12.0629
 241   2.0000      -0.442278       -12.0350
 242   2.0000      -0.440500       -11.9866
 243   2.0000      -0.439735       -11.9658
 244   2.0000      -0.438872       -11.9423
 245   2.0000      -0.436118       -11.8674
 246   2.0000      -0.434741       -11.8299
 247   2.0000      -0.434190       -11.8149
 248   2.0000      -0.432012       -11.7557
 249   2.0000      -0.430513       -11.7148
 250   2.0000      -0.427316       -11.6279
 251   2.0000      -0.426052       -11.5935
 252   2.0000      -0.424819       -11.5599
 253   2.0000      -0.423671       -11.5287
 254   2.0000      -0.422132       -11.4868
 255   2.0000      -0.421083       -11.4583
 256   2.0000      -0.419640       -11.4190
 257   2.0000      -0.418825       -11.3968
 258   2.0000      -0.417270       -11.3545
 259   2.0000      -0.413350       -11.2478
 260   2.0000      -0.412237       -11.2175
 261   2.0000      -0.408844       -11.1252
 262   2.0000      -0.406387       -11.0583
 263   2.0000      -0.401566       -10.9272
 264   2.0000      -0.394850       -10.7444
 265   2.0000      -0.393035       -10.6950
 266   2.0000      -0.390708       -10.6317
 267   2.0000      -0.379975       -10.3396
 268   2.0000      -0.379543       -10.3279
 269   2.0000      -0.374347       -10.1865
 270   2.0000      -0.368001       -10.0138
 271   2.0000      -0.356868        -9.7109
 272   2.0000      -0.351655        -9.5690
 273   2.0000      -0.348754        -9.4901
 274   2.0000      -0.339486        -9.2379
 275   2.0000      -0.338684        -9.2161
 276   2.0000      -0.333301        -9.0696
 277   2.0000      -0.331468        -9.0197
 278   2.0000      -0.326941        -8.8965
 279   2.0000      -0.315532        -8.5861
 280   2.0000      -0.312963        -8.5162
 281   2.0000      -0.312396        -8.5007
 282   2.0000      -0.304878        -8.2961
 283   2.0000      -0.292630        -7.9629
 284   2.0000      -0.292077        -7.9478
 285   2.0000      -0.282913        -7.6985
 286   2.0000      -0.270739        -7.3672
 287   2.0000      -0.244818        -6.6618
 288   2.0000      -0.232752        -6.3335
 289   0.0000      -0.104646        -2.8476
 290   0.0000      -0.099758        -2.7146
 291   0.0000      -0.069685        -1.8962
 292   0.0000      -0.061900        -1.6844
 293   0.0000      -0.041905        -1.1403

MULLIKEN ATOMIC CHARGES
-----------------------
   0 C :   -0.102761
   1 C :    0.080779
   2 C :   -0.079504
   3 C :   -0.111906
   4 S :    0.194956
   5 C :   -0.110678
   6 C :    0.000486
   7 C :    0.327090
   8 C :   -0.330932
   9 C :   -0.188413
  10 N :    0.165479
  11 C :   -0.130841
  12 N :    0.142564
  13 C :   -0.012093
  14 C :   -0.088680
  15 S :    0.202720
  16 C :   -0.010014
  17 C :   -0.070102
  18 C :    0.065823
  19 C :    0.049228
  20 C :   -0.119353
  21 S :    0.145378
  22 C :   -0.105725
  23 C :    0.042932
  24 C :   -0.001156
  25 C :   -0.065913
  26 S :    0.129377
  27 C :    0.070260
  28 C :   -0.018882
  29 C :   -0.089200
  30 C :    0.155394
  31 C :   -0.240111
  32 C :   -0.020480
  33 O :   -0.189485
  34 C :    0.070872
  35 S :    0.195105
  36 C :   -0.118838
  37 C :    0.069959
  38 C :   -0.121344
  39 S :    0.140873
  40 C :   -0.094837
  41 C :    0.170055
  42 C :    0.152415
  43 C :   -0.020715
  44 C :   -0.131371
  45 S :   -0.017399
  46 C :   -0.104457
  47 C :    0.018479
  48 C :    0.045936
  49 S :    0.009619
  50 C :   -0.151605
  51 C :    0.041685
  52 C :   -0.117044
  53 C :    0.023400
  54 C :   -0.038345
  55 C :    0.021152
  56 C :   -0.112972
  57 C :    0.351173
  58 C :   -0.400737
  59 C :   -0.199031
  60 N :    0.154030
  61 C :   -0.191237
  62 N :    0.149612
  63 C :    0.017188
  64 C :    0.027622
  65 C :    0.158918
  66 O :   -0.190448
  67 C :   -0.060589
  68 C :    0.068195
  69 C :    0.035289
  70 C :   -0.021339
  71 Cl:   -0.045394
  72 Cl:   -0.051391
  73 H :    0.040131
  74 H :    0.008269
  75 H :   -0.006434
  76 H :   -0.041790
  77 H :    0.039211
  78 H :   -0.006307
  79 H :    0.028189
  80 H :    0.003360
  81 H :    0.009309
  82 H :    0.036900
  83 H :    0.046046
  84 H :    0.031845
  85 H :    0.038865
  86 H :   -0.022129
  87 H :    0.051428
  88 H :    0.053138
  89 H :    0.019209
  90 H :    0.021743
  91 H :    0.027247
  92 H :    0.076626
  93 H :    0.058879
  94 H :    0.030673
  95 H :    0.032605
  96 H :    0.021442
  97 H :   -0.011943
  98 H :    0.024268
  99 H :   -0.012848
 100 H :   -0.003068
 101 H :   -0.006880
 102 H :   -0.006704
Sum of atomic charges:   -0.0000000

LOEWDIN ATOMIC CHARGES
----------------------
   0 C :   -0.174656
   1 C :   -0.032744
   2 C :   -0.084757
   3 C :   -0.181667
   4 S :    0.492510
   5 C :   -0.186427
   6 C :   -0.068273
   7 C :    0.082560
   8 C :   -0.109007
   9 C :   -0.005564
  10 N :   -0.041942
  11 C :   -0.004820
  12 N :   -0.044939
  13 C :   -0.024186
  14 C :   -0.188236
  15 S :    0.495600
  16 C :   -0.176927
  17 C :   -0.025924
  18 C :   -0.011583
  19 C :   -0.046071
  20 C :   -0.137884
  21 S :    0.460437
  22 C :   -0.207228
  23 C :   -0.038707
  24 C :   -0.068027
  25 C :   -0.161766
  26 S :    0.420662
  27 C :   -0.064863
  28 C :    0.006820
  29 C :   -0.072223
  30 C :   -0.031911
  31 C :   -0.217953
  32 C :    0.051321
  33 O :   -0.153561
  34 C :   -0.074652
  35 S :    0.501720
  36 C :   -0.161699
  37 C :   -0.087636
  38 C :   -0.107277
  39 S :    0.511904
  40 C :   -0.205222
  41 C :    0.004929
  42 C :   -0.057223
  43 C :   -0.004908
  44 C :   -0.178354
  45 S :    0.259508
  46 C :   -0.129004
  47 C :   -0.074627
  48 C :   -0.140369
  49 S :    0.335737
  50 C :   -0.134096
  51 C :   -0.064259
  52 C :   -0.062165
  53 C :    0.036114
  54 C :   -0.085416
  55 C :    0.066142
  56 C :   -0.130732
  57 C :    0.079087
  58 C :   -0.159812
  59 C :   -0.023436
  60 N :   -0.061797
  61 C :   -0.032136
  62 N :   -0.064707
  63 C :   -0.016093
  64 C :   -0.036048
  65 C :    0.084063
  66 O :   -0.168918
  67 C :   -0.005185
  68 C :   -0.139920
  69 C :   -0.139049
  70 C :   -0.016679
  71 Cl:    0.152142
  72 Cl:    0.151566
  73 H :    0.027297
  74 H :    0.039927
  75 H :    0.032621
  76 H :    0.028177
  77 H :    0.038592
  78 H :    0.032140
  79 H :    0.024195
  80 H :    0.034756
  81 H :    0.018590
  82 H :    0.033933
  83 H :    0.051155
  84 H :    0.043699
  85 H :    0.028020
  86 H :    0.030841
  87 H :    0.026985
  88 H :    0.012209
  89 H :    0.022741
  90 H :    0.028335
  91 H :    0.022629
  92 H :    0.023926
  93 H :    0.022189
  94 H :    0.029893
  95 H :    0.035608
  96 H :    0.024301
  97 H :    0.032356
  98 H :    0.032346
  99 H :    0.023390
 100 H :    0.045408
 101 H :    0.043035
 102 H :    0.041149

  Mayer bond orders larger than 0.100000
B(  0-C ,  1-C ) :   1.5416 B(  0-C ,  4-S ) :   1.1463 B(  0-C , 73-H ) :   0.9611
B(  1-C ,  2-C ) :   1.2753 B(  1-C , 74-H ) :   0.9905 B(  2-C ,  3-C ) :   1.4538
B(  2-C ,  7-C ) :   1.0118 B(  3-C ,  4-S ) :   1.1409 B(  3-C ,  5-C ) :   1.1860
B(  5-C ,  6-C ) :   1.4454 B(  5-C , 15-S ) :   1.1379 B(  6-C ,  7-C ) :   1.0044
B(  6-C , 13-C ) :   1.3041 B(  7-C ,  8-C ) :   1.6909 B(  8-C ,  9-C ) :   1.1615
B(  8-C , 11-C ) :   1.1517 B(  9-C , 10-N ) :   2.9151 B( 11-C , 12-N ) :   2.8694
B( 13-C , 14-C ) :   1.4872 B( 13-C , 75-H ) :   0.9757 B( 14-C , 15-S ) :   1.1173
B( 14-C , 16-C ) :   1.1079 B( 16-C , 17-C ) :   1.5559 B( 16-C , 21-S ) :   1.0535
B( 17-C , 18-C ) :   1.2293 B( 17-C , 76-H ) :   0.9716 B( 18-C , 19-C ) :   1.0476
B( 18-C , 27-C ) :   1.3895 B( 19-C , 20-C ) :   1.6045 B( 19-C , 22-C ) :   1.1827
B( 20-C , 21-S ) :   1.1499 B( 20-C , 77-H ) :   0.9408 B( 22-C , 23-C ) :   1.4432
B( 22-C , 26-S ) :   1.0706 B( 23-C , 24-C ) :   1.2141 B( 23-C , 27-C ) :   1.1117
B( 24-C , 25-C ) :   1.5870 B( 24-C , 78-H ) :   0.9954 B( 25-C , 26-S ) :   1.1558
B( 25-C , 79-H ) :   0.9659 B( 27-C , 28-C ) :   1.1506 B( 28-C , 29-C ) :   1.6788
B( 28-C , 80-H ) :   0.9544 B( 29-C , 30-C ) :   1.0807 B( 29-C , 81-H ) :   0.9377
B( 30-C , 31-C ) :   1.5132 B( 30-C , 37-C ) :   1.2129 B( 31-C , 32-C ) :   0.9359
B( 31-C , 35-S ) :   1.1409 B( 32-C , 33-O ) :   2.1874 B( 32-C , 34-C ) :   1.0414
B( 34-C , 82-H ) :   0.9514 B( 34-C , 83-H ) :   0.9390 B( 34-C , 84-H ) :   0.9407
B( 35-S , 36-C ) :   1.2107 B( 36-C , 37-C ) :   1.5022 B( 36-C , 85-H ) :   0.9660
B( 37-C , 38-C ) :   1.0493 B( 38-C , 39-S ) :   1.2283 B( 38-C , 42-C ) :   1.3479
B( 39-S , 40-C ) :   1.0388 B( 40-C , 41-C ) :   1.2214 B( 40-C , 53-C ) :   1.3515
B( 41-C , 42-C ) :   1.2137 B( 41-C , 52-C ) :   1.2508 B( 42-C , 43-C ) :   1.1685
B( 43-C , 44-C ) :   1.5678 B( 43-C , 86-H ) :   0.9906 B( 44-C , 45-S ) :   1.0356
B( 44-C , 48-C ) :   1.2379 B( 45-S , 46-C ) :   0.9966 B( 46-C , 47-C ) :   1.0650
B( 46-C , 87-H ) :   0.9549 B( 46-C , 88-H ) :   0.9493 B( 47-C , 89-H ) :   0.9708
B( 47-C , 90-H ) :   0.9611 B( 47-C , 91-H ) :   0.9718 B( 48-C , 49-S ) :   1.0700
B( 48-C , 52-C ) :   1.4514 B( 49-S , 50-C ) :   0.9840 B( 50-C , 51-C ) :   1.0864
B( 50-C , 92-H ) :   0.9318 B( 50-C , 93-H ) :   0.9409 B( 51-C , 94-H ) :   0.9679
B( 51-C , 95-H ) :   0.9664 B( 51-C , 96-H ) :   0.9706 B( 52-C , 97-H ) :   0.9939
B( 53-C , 54-C ) :   1.4219 B( 53-C , 98-H ) :   0.9254 B( 54-C , 55-C ) :   1.3971
B( 54-C , 99-H ) :   0.9526 B( 55-C , 56-C ) :   1.3879 B( 55-C ,100-H ) :   0.9314
B( 56-C , 57-C ) :   1.1374 B( 56-C , 65-C ) :   0.9914 B( 57-C , 58-C ) :   1.5737
B( 57-C , 63-C ) :   0.9614 B( 58-C , 59-C ) :   1.1548 B( 58-C , 61-C ) :   1.1515
B( 59-C , 60-N ) :   2.9668 B( 61-C , 62-N ) :   2.9429 B( 63-C , 64-C ) :   1.3381
B( 63-C , 70-C ) :   1.3385 B( 64-C , 65-C ) :   0.9653 B( 64-C , 67-C ) :   1.3351
B( 65-C , 66-O ) :   2.0567 B( 66-O , 98-H ) :   0.1178 B( 67-C , 68-C ) :   1.3209
B( 67-C ,101-H ) :   1.0239 B( 68-C , 69-C ) :   1.4253 B( 68-C , 72-Cl) :   1.0414
B( 69-C , 70-C ) :   1.3429 B( 69-C , 71-Cl) :   1.0650 B( 70-C ,102-H ) :   0.9919

-----------------------------------------------------------------------------
         ABSORPTION SPECTRUM VIA TRANSITION ELECTRIC DIPOLE MOMENTS
-----------------------------------------------------------------------------
State   Energy  Wavelength   fosc         T2         TX        TY        TZ
        (cm-1)    (nm)                  (au**2)     (au)      (au)      (au)
-----------------------------------------------------------------------------
   0   11736.3    852.1   0.048212928   1.35241   0.56651  -0.55876  -0.84809
   1   12841.8    778.7   0.041910987   1.07442   0.06693   0.44865   0.93202
   2   13177.6    758.9   0.008618206   0.21531  -0.02975  -0.46172   0.03518
   3   14901.8    671.1   0.694449891  15.34185  -1.52319  -3.57068  -0.52149
   4   19146.6    522.3   0.167979431   2.88829  -0.33669  -1.39511  -0.91027
   5   20080.3    498.0   0.285808306   4.68576   0.02716   1.74657   1.27849
   6   20848.5    479.7   0.108302001   1.71016   0.62661   0.94987   0.64441
   7   21534.7    464.4   0.013978374   0.21369  -0.06198  -0.43932  -0.12980
   8   22199.7    450.5   0.004613592   0.06842  -0.23722   0.09717   0.05201
   9   23296.1    429.3   0.046859766   0.66221  -0.71082   0.03516   0.39459
  10   23772.7    420.7   0.017096431   0.23676  -0.24298   0.42141   0.01142
  11   23832.1    419.6   0.061180357   0.84513   0.78034   0.28094   0.39657
  12   24393.0    410.0   0.618867009   8.35232   1.05217  -1.99328  -1.80889
  13   25662.7    389.7   0.020109514   0.25797  -0.33484  -0.24697  -0.29131
  14   25856.8    386.7   0.009117311   0.11608   0.23270  -0.17069   0.18111
  15   26185.3    381.9   0.029171701   0.36676   0.39686   0.29978  -0.34554
  16   26690.8    374.7   0.008402716   0.10364   0.04519   0.08704   0.30663
  17   27507.6    363.5   0.037332638   0.44680  -0.40384  -0.53227  -0.01990
  18   27642.6    361.8   0.057556459   0.68547  -0.08662   0.75977   0.31737
  19   27939.1    357.9   0.036482821   0.42988   0.55954   0.32946  -0.09084
  20   28108.2    355.8   0.176780819   2.07051  -1.01698  -0.98582  -0.25382
  21   28524.0    350.6   0.265079835   3.05943   1.57799   0.33405  -0.67661
  22   28594.0    349.7   0.001991448   0.02293   0.07309  -0.10334  -0.08310
  23   28916.8    345.8   0.030359783   0.34564  -0.55779  -0.18100   0.04182
  24   29176.9    342.7   0.078104415   0.88128  -0.33652   0.71519   0.50649
  25   29333.4    340.9   0.119797102   1.34450   1.02748   0.47223  -0.25648
  26   29607.5    337.8   0.016315909   0.18142   0.16424   0.38009   0.09990
  27   29836.7    335.2   0.062622312   0.69096   0.70118   0.43892  -0.08161
  28   29915.2    334.3   0.047259143   0.52008   0.67718   0.08011  -0.23470
  29   30925.1    323.4   0.016086675   0.17125  -0.27797  -0.03188   0.30491
  30   31332.5    319.2   0.017085849   0.17952  -0.05551  -0.42002  -0.00509
  31   31629.2    316.2   0.064580843   0.67219   0.59036  -0.42988  -0.37265
  32   31652.8    315.9   0.157627581   1.63944  -1.09271  -0.58328   0.32438
  33   32480.4    307.9   0.144289411   1.46247   0.35728   0.99733   0.58324
  34   32619.6    306.6   0.141025703   1.42330  -0.42907   0.79220   0.78206
  35   32917.2    303.8   0.079478456   0.79488  -0.34881   0.49241   0.65631
  36   32995.1    303.1   0.061705287   0.61567   0.67583   0.34657  -0.19702
  37   33205.8    301.2   0.008804741   0.08729  -0.06098   0.25393   0.13818
  38   33605.8    297.6   0.241224388   2.36310  -0.55578   0.90972   1.10753
  39   33843.1    295.5   0.016974931   0.16513   0.36803  -0.05063  -0.16468
  40   34165.0    292.7   0.003123444   0.03010  -0.14367   0.09328   0.02750
  41   34298.4    291.6   0.104601224   1.00401   0.18846  -0.82392  -0.53819
  42   34373.5    290.9   0.131592382   1.26032   0.33260  -0.85347  -0.64907
  43   34579.0    289.2   0.032826055   0.31252   0.47815   0.28123  -0.06934
  44   34753.7    287.7   0.012871793   0.12193  -0.12785  -0.21529  -0.24338
  45   34967.6    286.0   0.052243061   0.49186  -0.17687   0.45223   0.50603
  46   35104.0    284.9   0.149547232   1.40248  -0.80837   0.33525   0.79789
  47   35196.1    284.1   0.109967007   1.02859   0.67450  -0.29115  -0.69920
  48   35288.7    283.4   0.341756111   3.18828  -0.65020   0.88420   1.40845
  49   35738.0    279.8   0.285515208   2.63011   0.40212   1.38611   0.73967
  50   35846.2    279.0   0.032327316   0.29689  -0.34652  -0.27744  -0.31599
  51   36084.9    277.1   0.122574089   1.11828  -0.46684  -0.93435  -0.16532
  52   36256.4    275.8   0.041224287   0.37432  -0.54526  -0.18754  -0.20456
  53   36469.0    274.2   0.262616223   2.37068   1.40867   0.32575  -0.52935
  54   36581.8    273.4   0.443476766   3.99100  -1.77917  -0.46768   0.77898
  55   36846.7    271.4   0.089084710   0.79594  -0.44931  -0.75534  -0.15334
  56   37107.5    269.5   0.001035723   0.00919   0.00033   0.05129   0.08098
  57   37216.6    268.7   0.047299895   0.41841  -0.49356   0.11790   0.40113
  58   37585.9    266.1   0.117555076   1.02966   0.91863   0.29183  -0.31721
  59   37713.7    265.2   0.246216391   2.14928  -1.32897  -0.38302   0.48623
  60   38107.5    262.4   0.018421694   0.15915  -0.21623   0.23719   0.23693
  61   38216.1    261.7   0.016129236   0.13895  -0.32276  -0.10985   0.15068
  62   38456.2    260.0   0.000378473   0.00324  -0.03378   0.01801  -0.04213
  63   38531.0    259.5   0.072590901   0.62022   0.34724  -0.44693  -0.54763
  64   38756.4    258.0   0.041085131   0.34899   0.47934   0.31581   0.13962
  65   38856.8    257.4   0.009811308   0.08313  -0.24834   0.14479   0.02204
  66   39072.7    255.9   0.047306919   0.39859  -0.08042   0.52135   0.34687
  67   39187.5    255.2   0.035854305   0.30121  -0.29401  -0.26054   0.38325
  68   39231.2    254.9   0.004607536   0.03866  -0.18583  -0.03890   0.05118
  69   39433.1    253.6   0.027900420   0.23293  -0.35837   0.15910   0.28140
  70   39569.7    252.7   0.087728755   0.72989   0.78530   0.07073  -0.32891
  71   39991.1    250.1   0.024243700   0.19958   0.36546  -0.06796  -0.24779
  72   40264.7    248.4   0.061303558   0.50123   0.44727   0.18656  -0.51612

FINAL SINGLE POINT ENERGY     -6660.850794819670

DIPOLE MOMENT
-------------
                                X             Y             Z
Electronic contribution:    -42.61118     -62.69685     -23.51776
Nuclear contribution   :     43.16771      63.66615      23.29111
                        -----------------------------------------
Total Dipole Moment    :      0.55653       0.96930      -0.22665
                        -----------------------------------------
Magnitude (a.u.)       :      1.14045
Magnitude (Debye)      :      2.89880

Rotational constants in cm-1:     0.001013     0.000635     0.000418
Rotational constants in MHz :    30.359719    19.023081    12.535047

                             ****ORCA TERMINATED NORMALLY****
TOTAL RUN TIME: 0 days 0 hours 17 minutes 9 seconds 658 msec
