                         Program Version 4.2.0 -  RELEASE  -
|  1> # ORCA input file
|  2> # SCF done       -174.543404738975          0.000629964408
|  3> ! CAM-B3LYP def2-SVP def2/J RIJCOSX Grid4 TightSCF
|  4> %maxcore 5000
|  5> %tddft
|  6>     Mode sTDDFT
|  7>     Ethresh 5.0
|  8>     maxcore 5000
|  9> end
| 10>
| 11> %pal
| 12>   nprocs 6
| 13>   end
| 14> * xyz 0 1
| 15>    C       -5.42406        18.50405        -0.95571
| 16>    C       -4.10947        18.29485        -0.67149
| 17>    C       -3.69490        17.01100        -1.07665
| 18>    C       -4.73140        16.27682        -1.66654
| 19>    S       -6.19539        17.15302        -1.72147
| 20>    C       -4.22746        15.00180        -2.04622
| 21>    C       -2.87153        14.93553        -1.69111
| 22>    C       -2.49223        16.20116        -1.07092
| 23>    C       -1.26126        16.54750        -0.59496
| 24>    C       -0.15428        15.67482        -0.64762
| 25>    N        0.75605        14.97851        -0.68481
| 26>    C       -1.00786        17.80927        -0.01723
| 27>    N       -0.79513        18.83417         0.45168
| 28>    C       -2.27987        13.71925        -2.02586
| 29>    C       -3.18203        12.86378        -2.63738
| 30>    S       -4.77755        13.56964        -2.79489
| 31>    C       -2.90213        11.56360        -3.11585
| 32>    S       -4.14258        10.58688        -3.95061
| 33>    C       -2.95128         9.36789        -4.13256
| 34>    C       -1.74056         9.77791        -3.55927
| 35>    N       -1.73739        10.98528        -3.00872
| 36>    C       -0.69184         8.72472        -3.71924
| 37>    C       -1.45495         7.67073        -4.46560
| 38>    C       -2.77379         8.08313        -4.68727
| 39>    S       -3.68272         6.92083        -5.55966
| 40>    C       -2.28349         5.86448        -5.63923
| 41>    C       -1.18321         6.42038        -5.00053
| 42>    C       -2.38820         4.64210        -6.35064
| 43>    C       -1.36822         3.76377        -6.49949
| 44>    C       -1.42758         2.53486        -7.22603
| 45>    S       -3.06681         1.87738        -7.40046
| 46>    C       -2.91554         0.87748        -8.83832
| 47>    C       -3.92400         0.67485        -9.72708
| 48>    S       -3.47055        -0.42092       -10.97273
| 49>    C       -1.89492        -0.58941       -10.30264
| 50>    C       -1.74447         0.14742        -9.17038
| 51>    S       -0.27978         0.18565        -8.20238
| 52>    C       -0.29585         1.88534        -7.64045
| 53>    C        1.01495         2.44603        -7.63480
| 54>    C        1.32567         3.76446        -7.72309
| 55>    C        2.64969         4.25034        -7.63760
| 56>    S        2.92648         6.02023        -7.69563
| 57>    C        4.59367         5.69414        -7.47956
| 58>    C        4.81297         4.31207        -7.38929
| 59>    N        3.73498         3.54460        -7.47323
| 60>    C        6.26729         4.01720        -7.20105
| 61>    C        6.84357         5.40277        -7.18618
| 62>    C        5.83219         6.35548        -7.35103
| 63>    S        6.43554         7.95956        -7.32483
| 64>    C        8.06795         7.35687        -7.09211
| 65>    C        8.10165         5.97018        -7.04375
| 66>    C        9.12399         8.29405        -6.97192
| 67>    C       10.43470         7.98276        -6.82621
| 68>    C       11.47721         8.93265        -6.68717
| 69>    C       12.82837         8.65723        -6.55889
| 70>    C       13.59389         9.81594        -6.42891
| 71>    C       12.82251        10.98518        -6.45589
| 72>    S       11.15670        10.66250        -6.64640
| 73>    C       13.69218        12.10220        -6.30661
| 74>    C       15.00659        11.63396        -6.18750
| 75>    C       14.99536        10.18631        -6.26288
| 76>    C       16.06501         9.34106        -6.19748
| 77>    C       17.38563         9.80941        -6.03775
| 78>    N       18.46188        10.18319        -5.90584
| 79>    C       15.92282         7.94122        -6.28846
| 80>    N       15.81220         6.80208        -6.36391
| 81>    C       15.93756        12.67928        -6.02981
| 82>    C       15.32409        13.89412        -6.03196
| 83>    S       13.60267        13.80476        -6.22583
| 84>    H       -6.00676        19.38229        -0.76243
| 85>    H       -3.47770        19.02388        -0.19802
| 86>    H       -1.25738        13.43925        -1.85403
| 87>    H       -0.32593         8.36919        -2.75441
| 88>    H        0.16671         9.09235        -4.28401
| 89>    H       -0.22787         5.93181        -4.94439
| 90>    H       -3.33882         4.44584        -6.82786
| 91>    H       -0.42070         3.97227        -6.02429
| 92>    H       -4.90957         1.09284        -9.70536
| 93>    H       -1.17569        -1.23461       -10.76387
| 94>    H        1.83347         1.73882        -7.60823
| 95>    H        0.56026         4.51006        -7.88229
| 96>    H        6.66486         3.41078        -8.01676
| 97>    H        6.45315         3.48146        -6.26843
| 98>    H        9.00868         5.41167        -6.90385
| 99>    H        8.83628         9.33769        -7.00068
|100>    H       10.74959         6.94895        -6.80939
|101>    H       13.21955         7.65610        -6.56149
|102>    H       16.99825        12.54600        -5.91994
|103>    H       15.77663        14.85998        -5.92977
|104> *
|105>
|106>                          ****END OF INPUT****

CARTESIAN COORDINATES (ANGSTROEM)
---------------------------------
  C     -5.424060   18.504050   -0.955710
  C     -4.109470   18.294850   -0.671490
  C     -3.694900   17.011000   -1.076650
  C     -4.731400   16.276820   -1.666540
  S     -6.195390   17.153020   -1.721470
  C     -4.227460   15.001800   -2.046220
  C     -2.871530   14.935530   -1.691110
  C     -2.492230   16.201160   -1.070920
  C     -1.261260   16.547500   -0.594960
  C     -0.154280   15.674820   -0.647620
  N      0.756050   14.978510   -0.684810
  C     -1.007860   17.809270   -0.017230
  N     -0.795130   18.834170    0.451680
  C     -2.279870   13.719250   -2.025860
  C     -3.182030   12.863780   -2.637380
  S     -4.777550   13.569640   -2.794890
  C     -2.902130   11.563600   -3.115850
  S     -4.142580   10.586880   -3.950610
  C     -2.951280    9.367890   -4.132560
  C     -1.740560    9.777910   -3.559270
  N     -1.737390   10.985280   -3.008720
  C     -0.691840    8.724720   -3.719240
  C     -1.454950    7.670730   -4.465600
  C     -2.773790    8.083130   -4.687270
  S     -3.682720    6.920830   -5.559660
  C     -2.283490    5.864480   -5.639230
  C     -1.183210    6.420380   -5.000530
  C     -2.388200    4.642100   -6.350640
  C     -1.368220    3.763770   -6.499490
  C     -1.427580    2.534860   -7.226030
  S     -3.066810    1.877380   -7.400460
  C     -2.915540    0.877480   -8.838320
  C     -3.924000    0.674850   -9.727080
  S     -3.470550   -0.420920  -10.972730
  C     -1.894920   -0.589410  -10.302640
  C     -1.744470    0.147420   -9.170380
  S     -0.279780    0.185650   -8.202380
  C     -0.295850    1.885340   -7.640450
  C      1.014950    2.446030   -7.634800
  C      1.325670    3.764460   -7.723090
  C      2.649690    4.250340   -7.637600
  S      2.926480    6.020230   -7.695630
  C      4.593670    5.694140   -7.479560
  C      4.812970    4.312070   -7.389290
  N      3.734980    3.544600   -7.473230
  C      6.267290    4.017200   -7.201050
  C      6.843570    5.402770   -7.186180
  C      5.832190    6.355480   -7.351030
  S      6.435540    7.959560   -7.324830
  C      8.067950    7.356870   -7.092110
  C      8.101650    5.970180   -7.043750
  C      9.123990    8.294050   -6.971920
  C     10.434700    7.982760   -6.826210
  C     11.477210    8.932650   -6.687170
  C     12.828370    8.657230   -6.558890
  C     13.593890    9.815940   -6.428910
  C     12.822510   10.985180   -6.455890
  S     11.156700   10.662500   -6.646400
  C     13.692180   12.102200   -6.306610
  C     15.006590   11.633960   -6.187500
  C     14.995360   10.186310   -6.262880
  C     16.065010    9.341060   -6.197480
  C     17.385630    9.809410   -6.037750
  N     18.461880   10.183190   -5.905840
  C     15.922820    7.941220   -6.288460
  N     15.812200    6.802080   -6.363910
  C     15.937560   12.679280   -6.029810
  C     15.324090   13.894120   -6.031960
  S     13.602670   13.804760   -6.225830
  H     -6.006760   19.382290   -0.762430
  H     -3.477700   19.023880   -0.198020
  H     -1.257380   13.439250   -1.854030
  H     -0.325930    8.369190   -2.754410
  H      0.166710    9.092350   -4.284010
  H     -0.227870    5.931810   -4.944390
  H     -3.338820    4.445840   -6.827860
  H     -0.420700    3.972270   -6.024290
  H     -4.909570    1.092840   -9.705360
  H     -1.175690   -1.234610  -10.763870
  H      1.833470    1.738820   -7.608230
  H      0.560260    4.510060   -7.882290
  H      6.664860    3.410780   -8.016760
  H      6.453150    3.481460   -6.268430
  H      9.008680    5.411670   -6.903850
  H      8.836280    9.337690   -7.000680
  H     10.749590    6.948950   -6.809390
  H     13.219550    7.656100   -6.561490
  H     16.998250   12.546000   -5.919940
  H     15.776630   14.859980   -5.929770

 Total Charge           Charge          ....    0
 Multiplicity           Mult            ....    1
 Number of Electrons    NEL             ....  550
 Basis Dimension        Dim             .... 1110

ORBITAL ENERGIES
----------------

  NO   OCC          E(Eh)            E(eV)
   0   2.0000     -88.988773     -2421.5076
   1   2.0000     -88.985172     -2421.4096
   2   2.0000     -88.981016     -2421.2965
   3   2.0000     -88.978787     -2421.2359
   4   2.0000     -88.973826     -2421.1009
   5   2.0000     -88.966680     -2420.9064
   6   2.0000     -88.964649     -2420.8512
   7   2.0000     -88.963608     -2420.8228
   8   2.0000     -88.959815     -2420.7196
   9   2.0000     -88.942836     -2420.2576
  10   2.0000     -88.934926     -2420.0424
  11   2.0000     -14.426146      -392.5554
  12   2.0000     -14.424904      -392.5216
  13   2.0000     -14.423231      -392.4761
  14   2.0000     -14.422797      -392.4643
  15   2.0000     -14.415997      -392.2792
  16   2.0000     -14.410170      -392.1207
  17   2.0000     -10.359733      -281.9027
  18   2.0000     -10.355767      -281.7947
  19   2.0000     -10.347288      -281.5640
  20   2.0000     -10.345626      -281.5188
  21   2.0000     -10.343833      -281.4700
  22   2.0000     -10.334229      -281.2087
  23   2.0000     -10.328049      -281.0405
  24   2.0000     -10.327176      -281.0168
  25   2.0000     -10.326577      -281.0005
  26   2.0000     -10.325117      -280.9607
  27   2.0000     -10.324030      -280.9311
  28   2.0000     -10.323410      -280.9143
  29   2.0000     -10.322843      -280.8988
  30   2.0000     -10.321264      -280.8559
  31   2.0000     -10.320617      -280.8383
  32   2.0000     -10.313313      -280.6395
  33   2.0000     -10.312896      -280.6282
  34   2.0000     -10.309424      -280.5337
  35   2.0000     -10.309270      -280.5295
  36   2.0000     -10.307991      -280.4947
  37   2.0000     -10.307436      -280.4796
  38   2.0000     -10.306107      -280.4434
  39   2.0000     -10.305635      -280.4306
  40   2.0000     -10.305588      -280.4293
  41   2.0000     -10.304963      -280.4123
  42   2.0000     -10.304817      -280.4083
  43   2.0000     -10.304716      -280.4056
  44   2.0000     -10.304642      -280.4036
  45   2.0000     -10.303814      -280.3810
  46   2.0000     -10.303236      -280.3653
  47   2.0000     -10.298713      -280.2422
  48   2.0000     -10.298711      -280.2422
  49   2.0000     -10.296903      -280.1930
  50   2.0000     -10.296280      -280.1760
  51   2.0000     -10.295673      -280.1595
  52   2.0000     -10.294995      -280.1411
  53   2.0000     -10.292766      -280.0804
  54   2.0000     -10.291533      -280.0469
  55   2.0000     -10.291038      -280.0334
  56   2.0000     -10.289877      -280.0018
  57   2.0000     -10.289544      -279.9927
  58   2.0000     -10.289421      -279.9894
  59   2.0000     -10.288047      -279.9520
  60   2.0000     -10.287055      -279.9250
  61   2.0000     -10.286205      -279.9019
  62   2.0000     -10.285525      -279.8834
  63   2.0000     -10.284161      -279.8462
  64   2.0000     -10.282757      -279.8080
  65   2.0000     -10.281361      -279.7700
  66   2.0000     -10.280876      -279.7568
  67   2.0000     -10.279440      -279.7178
  68   2.0000     -10.279088      -279.7082
  69   2.0000      -8.083488      -219.9629
  70   2.0000      -8.080189      -219.8731
  71   2.0000      -8.075999      -219.7591
  72   2.0000      -8.073475      -219.6904
  73   2.0000      -8.068957      -219.5675
  74   2.0000      -8.061863      -219.3744
  75   2.0000      -8.059685      -219.3152
  76   2.0000      -8.058809      -219.2913
  77   2.0000      -8.055934      -219.2131
  78   2.0000      -8.038046      -218.7264
  79   2.0000      -8.030594      -218.5236
  80   2.0000      -6.052734      -164.7033
  81   2.0000      -6.049462      -164.6142
  82   2.0000      -6.048615      -164.5912
  83   2.0000      -6.045824      -164.5152
  84   2.0000      -6.045257      -164.4998
  85   2.0000      -6.045011      -164.4931
  86   2.0000      -6.042768      -164.4321
  87   2.0000      -6.042674      -164.4295
  88   2.0000      -6.040813      -164.3789
  89   2.0000      -6.038625      -164.3194
  90   2.0000      -6.038607      -164.3188
  91   2.0000      -6.038238      -164.3088
  92   2.0000      -6.035835      -164.2434
  93   2.0000      -6.034305      -164.2018
  94   2.0000      -6.030984      -164.1114
  95   2.0000      -6.030978      -164.1113
  96   2.0000      -6.029008      -164.0576
  97   2.0000      -6.028135      -164.0339
  98   2.0000      -6.027171      -164.0077
  99   2.0000      -6.025297      -163.9567
 100   2.0000      -6.024962      -163.9475
 101   2.0000      -6.024084      -163.9236
 102   2.0000      -6.024060      -163.9230
 103   2.0000      -6.021794      -163.8613
 104   2.0000      -6.020934      -163.8379
 105   2.0000      -6.020862      -163.8360
 106   2.0000      -6.018050      -163.7595
 107   2.0000      -6.008410      -163.4971
 108   2.0000      -6.004187      -163.3822
 109   2.0000      -6.000982      -163.2950
 110   2.0000      -5.997979      -163.2133
 111   2.0000      -5.997144      -163.1906
 112   2.0000      -5.990043      -162.9974
 113   2.0000      -1.073103       -29.2006
 114   2.0000      -1.066187       -29.0124
 115   2.0000      -1.039166       -28.2771
 116   2.0000      -1.034552       -28.1516
 117   2.0000      -1.017166       -27.6785
 118   2.0000      -1.014163       -27.5968
 119   2.0000      -1.002921       -27.2909
 120   2.0000      -1.000631       -27.2286
 121   2.0000      -0.999874       -27.2079
 122   2.0000      -0.997886       -27.1539
 123   2.0000      -0.997068       -27.1316
 124   2.0000      -0.990017       -26.9397
 125   2.0000      -0.986050       -26.8318
 126   2.0000      -0.956717       -26.0336
 127   2.0000      -0.953037       -25.9335
 128   2.0000      -0.949774       -25.8447
 129   2.0000      -0.932735       -25.3810
 130   2.0000      -0.930296       -25.3146
 131   2.0000      -0.908769       -24.7289
 132   2.0000      -0.907908       -24.7054
 133   2.0000      -0.901903       -24.5420
 134   2.0000      -0.897572       -24.4242
 135   2.0000      -0.894767       -24.3479
 136   2.0000      -0.885874       -24.1059
 137   2.0000      -0.877329       -23.8733
 138   2.0000      -0.867783       -23.6136
 139   2.0000      -0.862999       -23.4834
 140   2.0000      -0.856035       -23.2939
 141   2.0000      -0.849827       -23.1250
 142   2.0000      -0.846365       -23.0308
 143   2.0000      -0.843191       -22.9444
 144   2.0000      -0.841946       -22.9105
 145   2.0000      -0.832838       -22.6627
 146   2.0000      -0.819452       -22.2984
 147   2.0000      -0.807864       -21.9831
 148   2.0000      -0.802521       -21.8377
 149   2.0000      -0.783895       -21.3309
 150   2.0000      -0.777987       -21.1701
 151   2.0000      -0.773947       -21.0602
 152   2.0000      -0.771715       -20.9994
 153   2.0000      -0.767381       -20.8815
 154   2.0000      -0.764648       -20.8071
 155   2.0000      -0.753466       -20.5028
 156   2.0000      -0.740798       -20.1581
 157   2.0000      -0.723374       -19.6840
 158   2.0000      -0.707564       -19.2538
 159   2.0000      -0.698617       -19.0103
 160   2.0000      -0.695463       -18.9245
 161   2.0000      -0.689749       -18.7690
 162   2.0000      -0.676731       -18.4148
 163   2.0000      -0.675075       -18.3697
 164   2.0000      -0.671582       -18.2747
 165   2.0000      -0.662209       -18.0196
 166   2.0000      -0.658390       -17.9157
 167   2.0000      -0.656052       -17.8521
 168   2.0000      -0.655136       -17.8272
 169   2.0000      -0.647134       -17.6094
 170   2.0000      -0.637986       -17.3605
 171   2.0000      -0.630125       -17.1466
 172   2.0000      -0.630096       -17.1458
 173   2.0000      -0.624422       -16.9914
 174   2.0000      -0.621524       -16.9125
 175   2.0000      -0.618660       -16.8346
 176   2.0000      -0.613379       -16.6909
 177   2.0000      -0.610493       -16.6124
 178   2.0000      -0.606394       -16.5008
 179   2.0000      -0.604922       -16.4608
 180   2.0000      -0.590523       -16.0690
 181   2.0000      -0.585718       -15.9382
 182   2.0000      -0.579405       -15.7664
 183   2.0000      -0.573205       -15.5977
 184   2.0000      -0.567712       -15.4482
 185   2.0000      -0.566549       -15.4166
 186   2.0000      -0.563811       -15.3421
 187   2.0000      -0.557345       -15.1661
 188   2.0000      -0.554584       -15.0910
 189   2.0000      -0.551215       -14.9993
 190   2.0000      -0.542271       -14.7559
 191   2.0000      -0.541722       -14.7410
 192   2.0000      -0.540876       -14.7180
 193   2.0000      -0.537270       -14.6199
 194   2.0000      -0.536946       -14.6111
 195   2.0000      -0.528108       -14.3705
 196   2.0000      -0.524998       -14.2859
 197   2.0000      -0.517283       -14.0760
 198   2.0000      -0.514269       -13.9940
 199   2.0000      -0.510777       -13.8990
 200   2.0000      -0.506239       -13.7755
 201   2.0000      -0.499917       -13.6034
 202   2.0000      -0.498263       -13.5584
 203   2.0000      -0.496635       -13.5141
 204   2.0000      -0.495017       -13.4701
 205   2.0000      -0.494638       -13.4598
 206   2.0000      -0.492498       -13.4016
 207   2.0000      -0.490924       -13.3587
 208   2.0000      -0.490565       -13.3490
 209   2.0000      -0.488093       -13.2817
 210   2.0000      -0.486043       -13.2259
 211   2.0000      -0.481206       -13.0943
 212   2.0000      -0.479464       -13.0469
 213   2.0000      -0.478371       -13.0171
 214   2.0000      -0.474988       -12.9251
 215   2.0000      -0.474923       -12.9233
 216   2.0000      -0.468294       -12.7429
 217   2.0000      -0.468250       -12.7417
 218   2.0000      -0.467030       -12.7085
 219   2.0000      -0.466210       -12.6862
 220   2.0000      -0.462600       -12.5880
 221   2.0000      -0.459964       -12.5162
 222   2.0000      -0.457107       -12.4385
 223   2.0000      -0.457051       -12.4370
 224   2.0000      -0.454814       -12.3761
 225   2.0000      -0.453817       -12.3490
 226   2.0000      -0.452640       -12.3170
 227   2.0000      -0.452373       -12.3097
 228   2.0000      -0.450043       -12.2463
 229   2.0000      -0.448965       -12.2169
 230   2.0000      -0.447158       -12.1678
 231   2.0000      -0.440986       -11.9998
 232   2.0000      -0.438058       -11.9202
 233   2.0000      -0.435813       -11.8591
 234   2.0000      -0.435599       -11.8533
 235   2.0000      -0.434239       -11.8162
 236   2.0000      -0.433589       -11.7986
 237   2.0000      -0.432119       -11.7586
 238   2.0000      -0.431482       -11.7412
 239   2.0000      -0.428420       -11.6579
 240   2.0000      -0.427532       -11.6337
 241   2.0000      -0.425212       -11.5706
 242   2.0000      -0.422000       -11.4832
 243   2.0000      -0.421288       -11.4638
 244   2.0000      -0.421086       -11.4583
 245   2.0000      -0.420034       -11.4297
 246   2.0000      -0.417517       -11.3612
 247   2.0000      -0.415105       -11.2956
 248   2.0000      -0.411980       -11.2106
 249   2.0000      -0.402846       -10.9620
 250   2.0000      -0.400940       -10.9101
 251   2.0000      -0.393395       -10.7048
 252   2.0000      -0.384334       -10.4583
 253   2.0000      -0.372869       -10.1463
 254   2.0000      -0.367260        -9.9936
 255   2.0000      -0.360023        -9.7967
 256   2.0000      -0.356401        -9.6982
 257   2.0000      -0.356249        -9.6940
 258   2.0000      -0.350246        -9.5307
 259   2.0000      -0.349982        -9.5235
 260   2.0000      -0.344106        -9.3636
 261   2.0000      -0.341407        -9.2902
 262   2.0000      -0.338850        -9.2206
 263   2.0000      -0.328431        -8.9370
 264   2.0000      -0.325174        -8.8484
 265   2.0000      -0.323754        -8.8098
 266   2.0000      -0.317433        -8.6378
 267   2.0000      -0.313891        -8.5414
 268   2.0000      -0.309709        -8.4276
 269   2.0000      -0.293654        -7.9907
 270   2.0000      -0.283859        -7.7242
 271   2.0000      -0.272263        -7.4087
 272   2.0000      -0.256514        -6.9801
 273   2.0000      -0.234326        -6.3763
 274   2.0000      -0.217862        -5.9283
 275   0.0000      -0.099869        -2.7176
 276   0.0000      -0.095872        -2.6088
 277   0.0000      -0.070290        -1.9127
 278   0.0000      -0.048959        -1.3322
 279   0.0000      -0.030044        -0.8175

MULLIKEN ATOMIC CHARGES
-----------------------
   0 C :   -0.082025
   1 C :    0.035236
   2 C :   -0.030438
   3 C :   -0.114628
   4 S :    0.177893
   5 C :   -0.100181
   6 C :    0.012905
   7 C :    0.297577
   8 C :   -0.302392
   9 C :   -0.188546
  10 N :    0.178790
  11 C :   -0.193816
  12 N :    0.174834
  13 C :   -0.041174
  14 C :   -0.039935
  15 S :    0.186100
  16 C :   -0.107566
  17 S :    0.120490
  18 C :   -0.052934
  19 C :   -0.225615
  20 N :   -0.008341
  21 C :    0.394473
  22 C :   -0.163635
  23 C :   -0.103469
  24 S :    0.152294
  25 C :   -0.079950
  26 C :   -0.021131
  27 C :    0.043081
  28 C :   -0.069019
  29 C :   -0.011048
  30 S :    0.097229
  31 C :   -0.007563
  32 C :   -0.121809
  33 S :    0.120586
  34 C :   -0.123273
  35 C :   -0.001920
  36 S :    0.083071
  37 C :   -0.100577
  38 C :    0.057011
  39 C :    0.019178
  40 C :   -0.118096
  41 S :    0.118551
  42 C :   -0.062703
  43 C :   -0.226665
  44 N :   -0.007694
  45 C :    0.385330
  46 C :   -0.163193
  47 C :   -0.099941
  48 S :    0.147310
  49 C :   -0.081889
  50 C :   -0.014294
  51 C :    0.036955
  52 C :    0.003945
  53 C :   -0.040545
  54 C :   -0.046122
  55 C :    0.015089
  56 C :   -0.103015
  57 S :    0.162836
  58 C :   -0.114618
  59 C :   -0.034305
  60 C :    0.296837
  61 C :   -0.296998
  62 C :   -0.189840
  63 N :    0.170632
  64 C :   -0.188216
  65 N :    0.164672
  66 C :    0.036610
  67 C :   -0.084677
  68 S :    0.177776
  69 H :    0.035042
  70 H :    0.012342
  71 H :    0.018270
  72 H :    0.038728
  73 H :    0.038277
  74 H :   -0.025953
  75 H :   -0.006044
  76 H :    0.026601
  77 H :    0.025143
  78 H :    0.026923
  79 H :    0.017486
  80 H :    0.012139
  81 H :    0.037319
  82 H :    0.036361
  83 H :   -0.023832
  84 H :   -0.012791
  85 H :   -0.007373
  86 H :    0.001988
  87 H :    0.012169
  88 H :    0.033708
Sum of atomic charges:   -0.0000000

LOEWDIN ATOMIC CHARGES
----------------------
   0 C :   -0.178635
   1 C :   -0.034283
   2 C :   -0.077763
   3 C :   -0.183060
   4 S :    0.474295
   5 C :   -0.182124
   6 C :   -0.069342
   7 C :    0.082871
   8 C :   -0.102842
   9 C :   -0.018281
  10 N :   -0.031078
  11 C :   -0.016274
  12 N :   -0.034812
  13 C :   -0.007245
  14 C :   -0.197246
  15 S :    0.469342
  16 C :   -0.144297
  17 S :    0.397744
  18 C :   -0.213253
  19 C :   -0.037190
  20 N :   -0.083173
  21 C :   -0.011144
  22 C :   -0.046549
  23 C :   -0.202126
  24 S :    0.438685
  25 C :   -0.168293
  26 C :   -0.052089
  27 C :   -0.047714
  28 C :   -0.048535
  29 C :   -0.159146
  30 S :    0.366283
  31 C :   -0.217210
  32 C :   -0.203031
  33 S :    0.445008
  34 C :   -0.203478
  35 C :   -0.213552
  36 S :    0.340879
  37 C :   -0.183965
  38 C :   -0.011276
  39 C :   -0.062699
  40 C :   -0.123773
  41 S :    0.401415
  42 C :   -0.218289
  43 C :   -0.036058
  44 N :   -0.087638
  45 C :   -0.012045
  46 C :   -0.047241
  47 C :   -0.201231
  48 S :    0.436124
  49 C :   -0.169049
  50 C :   -0.050588
  51 C :   -0.049508
  52 C :   -0.042475
  53 C :   -0.158731
  54 C :   -0.033945
  55 C :   -0.072037
  56 C :   -0.183845
  57 S :    0.465407
  58 C :   -0.181245
  59 C :   -0.080385
  60 C :    0.085424
  61 C :   -0.107035
  62 C :   -0.016762
  63 N :   -0.036618
  64 C :   -0.015542
  65 N :   -0.038782
  66 C :   -0.034474
  67 C :   -0.181009
  68 S :    0.474159
  69 H :    0.027183
  70 H :    0.042498
  71 H :    0.046261
  72 H :    0.057674
  73 H :    0.057207
  74 H :    0.029956
  75 H :    0.020654
  76 H :    0.033973
  77 H :    0.025383
  78 H :    0.026226
  79 H :    0.034220
  80 H :    0.033262
  81 H :    0.056569
  82 H :    0.056113
  83 H :    0.030261
  84 H :    0.020506
  85 H :    0.036230
  86 H :    0.039425
  87 H :    0.042231
  88 H :    0.026543

  Mayer bond orders larger than 0.100000
B(  0-C ,  1-C ) :   1.5513 B(  0-C ,  4-S ) :   1.1471 B(  0-C , 69-H ) :   0.9645
B(  1-C ,  2-C ) :   1.2747 B(  1-C , 70-H ) :   0.9957 B(  2-C ,  3-C ) :   1.4521
B(  2-C ,  7-C ) :   1.0210 B(  3-C ,  4-S ) :   1.1361 B(  3-C ,  5-C ) :   1.1899
B(  5-C ,  6-C ) :   1.4506 B(  5-C , 15-S ) :   1.1289 B(  6-C ,  7-C ) :   0.9847
B(  6-C , 13-C ) :   1.2662 B(  7-C ,  8-C ) :   1.7131 B(  8-C ,  9-C ) :   1.1331
B(  8-C , 11-C ) :   1.1337 B(  9-C , 10-N ) :   2.9993 B( 11-C , 12-N ) :   3.0024
B( 13-C , 14-C ) :   1.4726 B( 13-C , 71-H ) :   1.0109 B( 14-C , 15-S ) :   1.1043
B( 14-C , 16-C ) :   1.0977 B( 16-C , 17-S ) :   1.0738 B( 16-C , 20-N ) :   1.7034
B( 17-S , 18-C ) :   1.0834 B( 18-C , 19-C ) :   1.4870 B( 18-C , 23-C ) :   1.1939
B( 19-C , 20-N ) :   1.4300 B( 19-C , 21-C ) :   1.0427 B( 21-C , 22-C ) :   0.9814
B( 21-C , 72-H ) :   0.8585 B( 21-C , 73-H ) :   0.8614 B( 22-C , 23-C ) :   1.5110
B( 22-C , 26-C ) :   1.3223 B( 23-C , 24-S ) :   1.0877 B( 24-S , 25-C ) :   1.1030
B( 25-C , 26-C ) :   1.4574 B( 25-C , 27-C ) :   1.1317 B( 26-C , 74-H ) :   0.9957
B( 27-C , 28-C ) :   1.6769 B( 27-C , 75-H ) :   0.9510 B( 28-C , 29-C ) :   1.1715
B( 28-C , 76-H ) :   0.9622 B( 29-C , 30-S ) :   1.0330 B( 29-C , 37-C ) :   1.6104
B( 30-S , 31-C ) :   0.9782 B( 31-C , 32-C ) :   1.5961 B( 31-C , 35-C ) :   1.2624
B( 32-C , 33-S ) :   1.1754 B( 32-C , 77-H ) :   0.9703 B( 33-S , 34-C ) :   1.1718
B( 34-C , 35-C ) :   1.5953 B( 34-C , 78-H ) :   0.9712 B( 35-C , 36-S ) :   0.9880
B( 36-S , 37-C ) :   0.9862 B( 37-C , 38-C ) :   1.1347 B( 38-C , 39-C ) :   1.7030
B( 38-C , 79-H ) :   0.9510 B( 39-C , 40-C ) :   1.1256 B( 39-C , 80-H ) :   0.9447
B( 40-C , 41-S ) :   1.0633 B( 40-C , 44-N ) :   1.6551 B( 41-S , 42-C ) :   1.0850
B( 42-C , 43-C ) :   1.4771 B( 42-C , 47-C ) :   1.1960 B( 43-C , 44-N ) :   1.4452
B( 43-C , 45-C ) :   1.0448 B( 45-C , 46-C ) :   0.9813 B( 45-C , 81-H ) :   0.8613
B( 45-C , 82-H ) :   0.8630 B( 46-C , 47-C ) :   1.5153 B( 46-C , 50-C ) :   1.3210
B( 47-C , 48-S ) :   1.0863 B( 48-S , 49-C ) :   1.1011 B( 49-C , 50-C ) :   1.4606
B( 49-C , 51-C ) :   1.1379 B( 50-C , 83-H ) :   0.9967 B( 51-C , 52-C ) :   1.6608
B( 51-C , 84-H ) :   0.9550 B( 52-C , 53-C ) :   1.1688 B( 52-C , 85-H ) :   0.9755
B( 53-C , 54-C ) :   1.4388 B( 53-C , 57-S ) :   1.0912 B( 54-C , 55-C ) :   1.2686
B( 54-C , 86-H ) :   1.0062 B( 55-C , 56-C ) :   1.4605 B( 55-C , 60-C ) :   0.9945
B( 56-C , 57-S ) :   1.1189 B( 56-C , 58-C ) :   1.1868 B( 58-C , 59-C ) :   1.4536
B( 58-C , 68-S ) :   1.1378 B( 59-C , 60-C ) :   1.0230 B( 59-C , 66-C ) :   1.2735
B( 60-C , 61-C ) :   1.7052 B( 61-C , 62-C ) :   1.1292 B( 61-C , 64-C ) :   1.1333
B( 62-C , 63-N ) :   3.0026 B( 64-C , 65-N ) :   2.9921 B( 66-C , 67-C ) :   1.5494
B( 66-C , 87-H ) :   0.9965 B( 67-C , 68-S ) :   1.1453 B( 67-C , 88-H ) :   0.9650

-----------------------------------------------------------------------------
         ABSORPTION SPECTRUM VIA TRANSITION ELECTRIC DIPOLE MOMENTS
-----------------------------------------------------------------------------
State   Energy  Wavelength   fosc         T2         TX        TY        TZ
        (cm-1)    (nm)                  (au**2)     (au)      (au)      (au)
-----------------------------------------------------------------------------
   0   12169.1    821.8   0.181310734   4.90500   2.12167   0.62303  -0.12386
   1   12619.6    792.4   0.217786925   5.68147  -0.53514   2.15590   0.86440
   2   17018.7    587.6   1.025279943  19.83312   4.17065  -0.97924  -1.21650
   3   19159.5    521.9   0.040811085   0.70124   0.82120   0.00767  -0.16376
   4   20544.6    486.7   0.057714210   0.92483   0.52890  -0.70132  -0.39147
   5   21877.7    457.1   1.552885038  23.36756  -2.48418  -3.90312  -1.40075
   6   22871.5    437.2   0.125818204   1.81103   1.04850   0.79006   0.29575
   7   23802.4    420.1   1.198695352  16.57918   1.65510   3.50622   1.24348
   8   24206.1    413.1   0.019180767   0.26087   0.10226   0.44064   0.23716
   9   25342.5    394.6   0.100402340   1.30428   0.44789  -0.98128  -0.37517
  10   26981.6    370.6   0.147282117   1.79704   1.24099  -0.47041  -0.18893
  11   27695.1    361.1   0.011633616   0.13829   0.23191  -0.27866  -0.08280
  12   29156.1    343.0   0.011261186   0.12715  -0.33812  -0.10395  -0.04498
  13   29172.6    342.8   0.054637899   0.61659  -0.22309   0.70696   0.25889
  14   30260.8    330.5   0.018926230   0.20590   0.39577   0.19946  -0.09736
  15   31113.1    321.4   0.004920405   0.05206   0.16620   0.14857   0.04865
  16   31297.6    319.5   0.209439139   2.20304   1.40124  -0.47074   0.13409
  17   31694.7    315.5   0.421224686   4.37525   1.69318   1.00206   0.71011
  18   31738.1    315.1   0.838080116   8.69321  -2.45597   1.59290  -0.35223
  19   31962.9    312.9   0.026647780   0.27447   0.18258   0.33325   0.36066
  20   32556.4    307.2   0.030846030   0.31192   0.12361  -0.52163   0.15664
  21   32962.4    303.4   0.034061121   0.34019  -0.38577  -0.42043  -0.12083
  22   33527.1    298.3   0.150808094   1.48083  -0.83812  -0.85445  -0.21974
  23   33633.1    297.3   0.160579751   1.57181  -0.02228   1.19312   0.38441
  24   33724.9    296.5   0.054027087   0.52740   0.64631  -0.33026   0.02451
  25   34437.0    290.4   0.029810191   0.28498   0.11566   0.46106   0.24295
  26   35110.3    284.8   0.009956229   0.09335  -0.05090  -0.26009  -0.15204
  27   35567.5    281.2   0.004843811   0.04483   0.03532  -0.18473  -0.09727
  28   35789.7    279.4   0.031562748   0.29033  -0.09255  -0.25286  -0.46672
  29   35988.1    277.9   0.078009942   0.71362  -0.72430  -0.20958  -0.38090
  30   36107.2    277.0   0.025288569   0.23057   0.43820   0.19558   0.01748
  31   36416.9    274.6   0.015924100   0.14396  -0.20451  -0.29080   0.13254
  32   37379.3    267.5   0.023562972   0.20753  -0.00493  -0.45447  -0.03097
  33   37484.7    266.8   0.071893107   0.63141  -0.74015   0.13370  -0.25633
  34   37771.9    264.7   0.011536087   0.10055  -0.24030  -0.20658  -0.01127
  35   38133.5    262.2   0.034907543   0.30136  -0.22525   0.47426   0.16032
  36   38690.7    258.5   0.000178370   0.00152  -0.02122   0.02087  -0.02514
  37   38813.0    257.6   0.036230890   0.30731  -0.37038   0.33079   0.24638
  38   39030.8    256.2   0.002603160   0.02196   0.11780   0.08497   0.02933
  39   39255.5    254.7   0.008605507   0.07217  -0.22478  -0.13767  -0.05186
  40   39629.2    252.3   0.101174472   0.84049   0.62769   0.61386   0.26395
  41   40168.2    249.0   0.089527181   0.73375  -0.17609  -0.83830   0.00046

FINAL SINGLE POINT ENERGY     -6697.696699529715

DIPOLE MOMENT
-------------
                                X             Y             Z
Electronic contribution:    -17.39309      21.36287       4.68436
Nuclear contribution   :     14.01208     -20.57558      -5.79902
                        -----------------------------------------
Total Dipole Moment    :     -3.38101       0.78730      -1.11467
                        -----------------------------------------
Magnitude (a.u.)       :      3.64603
Magnitude (Debye)      :      9.26747

Rotational constants in cm-1:     0.000452     0.000291     0.000180
Rotational constants in MHz :    13.556868     8.732345     5.388458

                             ****ORCA TERMINATED NORMALLY****
TOTAL RUN TIME: 0 days 0 hours 7 minutes 31 seconds 382 msec
