                         Program Version 4.2.0 -  RELEASE  -
|  1> # ORCA input file
|  2> # SCF done       -157.095369615501          0.000771534707
|  3> ! CAM-B3LYP def2-SVP def2/J RIJCOSX Grid4 TightSCF
|  4> %maxcore 5000
|  5> %tddft
|  6>     Mode sTDDFT
|  7>     Ethresh 5.0
|  8>     maxcore 5000
|  9> end
| 10>
| 11> %pal
| 12>   nprocs 6
| 13>   end
| 14> * xyz 0 1
| 15>    C        0.10454        -3.85341         6.22222
| 16>    C        1.28115        -3.23160         5.93749
| 17>    C        1.08881        -2.14592         5.06037
| 18>    C       -0.25172        -1.98115         4.70170
| 19>    S       -1.26634        -3.14001         5.43322
| 20>    C       -0.35227        -0.86746         3.81350
| 21>    C        0.92324        -0.33015         3.63223
| 22>    C        1.87620        -1.12083         4.39633
| 23>    C        3.22955        -0.94464         4.45261
| 24>    C        3.87518         0.08674         3.74194
| 25>    N        4.40870         0.92085         3.16172
| 26>    C        4.06997        -1.78314         5.21224
| 27>    N        4.76256        -2.46183         5.82531
| 28>    C        0.92485         0.79091         2.78679
| 29>    C       -0.33420         1.10106         2.33192
| 30>    S       -1.54652        -0.01435         2.94554
| 31>    C       -0.71429         2.13628         1.40874
| 32>    C        0.04283         2.62020         0.35649
| 33>    C        1.42332         2.29112        -0.08305
| 34>    N       -0.72872         3.51068        -0.32518
| 35>    C       -1.96876         3.60960         0.24100
| 36>    C       -3.00036         4.53608        -0.29382
| 37>    C       -1.99893         2.77181         1.32964
| 38>    C       -3.08310         2.56697         2.27116
| 39>    C       -2.88363         2.62232         3.59405
| 40>    C       -3.84347         2.25900         4.60781
| 41>    S       -4.98204         0.96679         4.11065
| 42>    C       -4.78520        -0.10417         5.48888
| 43>    C       -4.72576        -1.45922         5.41809
| 44>    S       -4.57914        -2.17443         6.97700
| 45>    C       -4.56289        -0.62571         7.72911
| 46>    C       -4.68748         0.37735         6.82155
| 47>    S       -4.74270         2.08826         7.22263
| 48>    C       -3.80570         2.76055         5.86287
| 49>    C       -3.02444         3.90715         6.25876
| 50>    C       -2.71238         4.93086         5.44584
| 51>    C       -1.96247         6.09884         5.82505
| 52>    C       -1.12779         6.81033         4.98688
| 53>    C       -0.75851         6.58438         3.56473
| 54>    N       -0.57076         7.81739         5.71800
| 55>    C       -1.02544         7.79607         7.00143
| 56>    C       -0.61099         8.83821         7.97629
| 57>    C       -1.90459         6.73156         7.11708
| 58>    C       -2.72507         6.36168         8.23122
| 59>    C       -2.51387         6.64086         9.53174
| 60>    C       -3.39155         6.22542        10.57590
| 61>    C       -3.26774         6.50380        11.92267
| 62>    C       -4.29618         5.93095        12.67818
| 63>    C       -5.20379         5.20719        11.89889
| 64>    S       -4.80376         5.23189        10.23891
| 65>    C       -6.20372         4.66479        12.75789
| 66>    C       -5.92257         5.05184        14.07255
| 67>    C       -4.71870         5.86120        14.07203
| 68>    C       -4.10866         6.44317        15.14570
| 69>    C       -4.60956         6.31425        16.45728
| 70>    N       -5.00973         6.21479        17.52770
| 71>    C       -2.93827         7.21825        15.01726
| 72>    N       -1.98554         7.84995        14.91997
| 73>    C       -6.86701         4.55648        14.99335
| 74>    C       -7.82560         3.81777        14.37158
| 75>    S       -7.60909         3.70321        12.65305
| 76>    H       -0.05715        -4.70151         6.85658
| 77>    H        2.23058        -3.53833         6.33706
| 78>    H        1.79653         1.36918         2.54533
| 79>    H        1.63385         1.23818         0.09117
| 80>    H        2.16274         2.87564         0.46638
| 81>    H        1.54334         2.50282        -1.14395
| 82>    H       -0.43057         4.01692        -1.14310
| 83>    H       -2.67999         5.57464        -0.19841
| 84>    H       -3.92778         4.41035         0.25679
| 85>    H       -3.18908         4.33658        -1.34891
| 86>    H       -4.06700         2.35446         1.87357
| 87>    H       -1.90952         2.91572         3.97016
| 88>    H       -4.78209        -2.07439         4.54382
| 89>    H       -4.48351        -0.54225         8.79366
| 90>    H       -2.72716         3.92748         7.29759
| 91>    H       -3.03292         4.89706         4.41266
| 92>    H        0.20502         6.07736         3.48853
| 93>    H       -0.68643         7.53262         3.03276
| 94>    H       -1.50285         5.96150         3.07605
| 95>    H        0.08871         8.48861         5.35771
| 96>    H       -0.21132         9.70602         7.45433
| 97>    H        0.16049         8.46227         8.64979
| 98>    H       -1.46182         9.15247         8.57760
| 99>    H       -3.61252         5.79601         7.97331
|100>    H       -1.63489         7.17735         9.85555
|101>    H       -2.46637         7.09719        12.32408
|102>    H       -6.84293         4.73307        16.05316
|103>    H       -8.66491         3.32022        14.81427
|104> *
|105>
|106>                          ****END OF INPUT****

CARTESIAN COORDINATES (ANGSTROEM)
---------------------------------
  C      0.104540   -3.853410    6.222220
  C      1.281150   -3.231600    5.937490
  C      1.088810   -2.145920    5.060370
  C     -0.251720   -1.981150    4.701700
  S     -1.266340   -3.140010    5.433220
  C     -0.352270   -0.867460    3.813500
  C      0.923240   -0.330150    3.632230
  C      1.876200   -1.120830    4.396330
  C      3.229550   -0.944640    4.452610
  C      3.875180    0.086740    3.741940
  N      4.408700    0.920850    3.161720
  C      4.069970   -1.783140    5.212240
  N      4.762560   -2.461830    5.825310
  C      0.924850    0.790910    2.786790
  C     -0.334200    1.101060    2.331920
  S     -1.546520   -0.014350    2.945540
  C     -0.714290    2.136280    1.408740
  C      0.042830    2.620200    0.356490
  C      1.423320    2.291120   -0.083050
  N     -0.728720    3.510680   -0.325180
  C     -1.968760    3.609600    0.241000
  C     -3.000360    4.536080   -0.293820
  C     -1.998930    2.771810    1.329640
  C     -3.083100    2.566970    2.271160
  C     -2.883630    2.622320    3.594050
  C     -3.843470    2.259000    4.607810
  S     -4.982040    0.966790    4.110650
  C     -4.785200   -0.104170    5.488880
  C     -4.725760   -1.459220    5.418090
  S     -4.579140   -2.174430    6.977000
  C     -4.562890   -0.625710    7.729110
  C     -4.687480    0.377350    6.821550
  S     -4.742700    2.088260    7.222630
  C     -3.805700    2.760550    5.862870
  C     -3.024440    3.907150    6.258760
  C     -2.712380    4.930860    5.445840
  C     -1.962470    6.098840    5.825050
  C     -1.127790    6.810330    4.986880
  C     -0.758510    6.584380    3.564730
  N     -0.570760    7.817390    5.718000
  C     -1.025440    7.796070    7.001430
  C     -0.610990    8.838210    7.976290
  C     -1.904590    6.731560    7.117080
  C     -2.725070    6.361680    8.231220
  C     -2.513870    6.640860    9.531740
  C     -3.391550    6.225420   10.575900
  C     -3.267740    6.503800   11.922670
  C     -4.296180    5.930950   12.678180
  C     -5.203790    5.207190   11.898890
  S     -4.803760    5.231890   10.238910
  C     -6.203720    4.664790   12.757890
  C     -5.922570    5.051840   14.072550
  C     -4.718700    5.861200   14.072030
  C     -4.108660    6.443170   15.145700
  C     -4.609560    6.314250   16.457280
  N     -5.009730    6.214790   17.527700
  C     -2.938270    7.218250   15.017260
  N     -1.985540    7.849950   14.919970
  C     -6.867010    4.556480   14.993350
  C     -7.825600    3.817770   14.371580
  S     -7.609090    3.703210   12.653050
  H     -0.057150   -4.701510    6.856580
  H      2.230580   -3.538330    6.337060
  H      1.796530    1.369180    2.545330
  H      1.633850    1.238180    0.091170
  H      2.162740    2.875640    0.466380
  H      1.543340    2.502820   -1.143950
  H     -0.430570    4.016920   -1.143100
  H     -2.679990    5.574640   -0.198410
  H     -3.927780    4.410350    0.256790
  H     -3.189080    4.336580   -1.348910
  H     -4.067000    2.354460    1.873570
  H     -1.909520    2.915720    3.970160
  H     -4.782090   -2.074390    4.543820
  H     -4.483510   -0.542250    8.793660
  H     -2.727160    3.927480    7.297590
  H     -3.032920    4.897060    4.412660
  H      0.205020    6.077360    3.488530
  H     -0.686430    7.532620    3.032760
  H     -1.502850    5.961500    3.076050
  H      0.088710    8.488610    5.357710
  H     -0.211320    9.706020    7.454330
  H      0.160490    8.462270    8.649790
  H     -1.461820    9.152470    8.577600
  H     -3.612520    5.796010    7.973310
  H     -1.634890    7.177350    9.855550
  H     -2.466370    7.097190   12.324080
  H     -6.842930    4.733070   16.053160
  H     -8.664910    3.320220   14.814270

 Total Charge           Charge          ....    0
 Multiplicity           Mult            ....    1
 Number of Electrons    NEL             ....  470
 Basis Dimension        Dim             .... 1022

ORBITAL ENERGIES
----------------

  NO   OCC          E(Eh)            E(eV)
   0   2.0000     -88.975275     -2421.1403
   1   2.0000     -88.971358     -2421.0337
   2   2.0000     -88.970308     -2421.0052
   3   2.0000     -88.963616     -2420.8231
   4   2.0000     -88.956798     -2420.6375
   5   2.0000     -88.933893     -2420.0143
   6   2.0000     -88.928621     -2419.8708
   7   2.0000     -14.460889      -393.5008
   8   2.0000     -14.456993      -393.3948
   9   2.0000     -14.418123      -392.3371
  10   2.0000     -14.417907      -392.3312
  11   2.0000     -14.415539      -392.2668
  12   2.0000     -14.413835      -392.2204
  13   2.0000     -10.349702      -281.6297
  14   2.0000     -10.344177      -281.4794
  15   2.0000     -10.338239      -281.3178
  16   2.0000     -10.334231      -281.2087
  17   2.0000     -10.319174      -280.7990
  18   2.0000     -10.318788      -280.7885
  19   2.0000     -10.317234      -280.7462
  20   2.0000     -10.317010      -280.7401
  21   2.0000     -10.315131      -280.6890
  22   2.0000     -10.312408      -280.6149
  23   2.0000     -10.311974      -280.6031
  24   2.0000     -10.304586      -280.4020
  25   2.0000     -10.304253      -280.3930
  26   2.0000     -10.302856      -280.3550
  27   2.0000     -10.300656      -280.2951
  28   2.0000     -10.299825      -280.2725
  29   2.0000     -10.299045      -280.2513
  30   2.0000     -10.298780      -280.2441
  31   2.0000     -10.298717      -280.2423
  32   2.0000     -10.298244      -280.2295
  33   2.0000     -10.298231      -280.2291
  34   2.0000     -10.295280      -280.1488
  35   2.0000     -10.294885      -280.1381
  36   2.0000     -10.294584      -280.1299
  37   2.0000     -10.294163      -280.1184
  38   2.0000     -10.293833      -280.1094
  39   2.0000     -10.285900      -279.8936
  40   2.0000     -10.285164      -279.8735
  41   2.0000     -10.284869      -279.8655
  42   2.0000     -10.281860      -279.7836
  43   2.0000     -10.280479      -279.7460
  44   2.0000     -10.280092      -279.7355
  45   2.0000     -10.278310      -279.6870
  46   2.0000     -10.277815      -279.6736
  47   2.0000     -10.277583      -279.6673
  48   2.0000     -10.277393      -279.6621
  49   2.0000     -10.277304      -279.6597
  50   2.0000     -10.274076      -279.5718
  51   2.0000     -10.273869      -279.5662
  52   2.0000     -10.273676      -279.5609
  53   2.0000     -10.272252      -279.5222
  54   2.0000     -10.270026      -279.4616
  55   2.0000     -10.268513      -279.4204
  56   2.0000     -10.266330      -279.3610
  57   2.0000     -10.259473      -279.1745
  58   2.0000     -10.257222      -279.1132
  59   2.0000     -10.256510      -279.0938
  60   2.0000     -10.255197      -279.0581
  61   2.0000      -8.070316      -219.6045
  62   2.0000      -8.066128      -219.4905
  63   2.0000      -8.064853      -219.4558
  64   2.0000      -8.057384      -219.2526
  65   2.0000      -8.052733      -219.1260
  66   2.0000      -8.029386      -218.4907
  67   2.0000      -8.023849      -218.3400
  68   2.0000      -6.039563      -164.3449
  69   2.0000      -6.035359      -164.2305
  70   2.0000      -6.035145      -164.2247
  71   2.0000      -6.034028      -164.1942
  72   2.0000      -6.032923      -164.1642
  73   2.0000      -6.030940      -164.1102
  74   2.0000      -6.029996      -164.0845
  75   2.0000      -6.028807      -164.0522
  76   2.0000      -6.027248      -164.0097
  77   2.0000      -6.026685      -163.9944
  78   2.0000      -6.022255      -163.8739
  79   2.0000      -6.022113      -163.8700
  80   2.0000      -6.019978      -163.8119
  81   2.0000      -6.017749      -163.7513
  82   2.0000      -6.014856      -163.6726
  83   2.0000      -5.999748      -163.2615
  84   2.0000      -5.995653      -163.1500
  85   2.0000      -5.994302      -163.1133
  86   2.0000      -5.990454      -163.0085
  87   2.0000      -5.989195      -162.9743
  88   2.0000      -5.983291      -162.8136
  89   2.0000      -1.077897       -29.3311
  90   2.0000      -1.075057       -29.2538
  91   2.0000      -1.028057       -27.9749
  92   2.0000      -1.023076       -27.8393
  93   2.0000      -1.008814       -27.4512
  94   2.0000      -1.005145       -27.3514
  95   2.0000      -0.995646       -27.0929
  96   2.0000      -0.993473       -27.0338
  97   2.0000      -0.992530       -27.0081
  98   2.0000      -0.978989       -26.6396
  99   2.0000      -0.973589       -26.4927
 100   2.0000      -0.948358       -25.8061
 101   2.0000      -0.943362       -25.6702
 102   2.0000      -0.938472       -25.5371
 103   2.0000      -0.912498       -24.8303
 104   2.0000      -0.905285       -24.6341
 105   2.0000      -0.898247       -24.4425
 106   2.0000      -0.890266       -24.2254
 107   2.0000      -0.885380       -24.0924
 108   2.0000      -0.877565       -23.8797
 109   2.0000      -0.871609       -23.7177
 110   2.0000      -0.866391       -23.5757
 111   2.0000      -0.856132       -23.2965
 112   2.0000      -0.846412       -23.0320
 113   2.0000      -0.842967       -22.9383
 114   2.0000      -0.837706       -22.7951
 115   2.0000      -0.835407       -22.7326
 116   2.0000      -0.830223       -22.5915
 117   2.0000      -0.819323       -22.2949
 118   2.0000      -0.816544       -22.2193
 119   2.0000      -0.811564       -22.0838
 120   2.0000      -0.793025       -21.5793
 121   2.0000      -0.781795       -21.2737
 122   2.0000      -0.781092       -21.2546
 123   2.0000      -0.761500       -20.7215
 124   2.0000      -0.757052       -20.6004
 125   2.0000      -0.754522       -20.5316
 126   2.0000      -0.740976       -20.1630
 127   2.0000      -0.732014       -19.9191
 128   2.0000      -0.720643       -19.6097
 129   2.0000      -0.709419       -19.3043
 130   2.0000      -0.701806       -19.0971
 131   2.0000      -0.689781       -18.7699
 132   2.0000      -0.686038       -18.6681
 133   2.0000      -0.682067       -18.5600
 134   2.0000      -0.669395       -18.2152
 135   2.0000      -0.663211       -18.0469
 136   2.0000      -0.658871       -17.9288
 137   2.0000      -0.657836       -17.9006
 138   2.0000      -0.646420       -17.5900
 139   2.0000      -0.640914       -17.4401
 140   2.0000      -0.628960       -17.1149
 141   2.0000      -0.627904       -17.0861
 142   2.0000      -0.621751       -16.9187
 143   2.0000      -0.611761       -16.6469
 144   2.0000      -0.607719       -16.5369
 145   2.0000      -0.603410       -16.4196
 146   2.0000      -0.600215       -16.3327
 147   2.0000      -0.599410       -16.3108
 148   2.0000      -0.593665       -16.1544
 149   2.0000      -0.587662       -15.9911
 150   2.0000      -0.582461       -15.8496
 151   2.0000      -0.579321       -15.7641
 152   2.0000      -0.564533       -15.3617
 153   2.0000      -0.555745       -15.1226
 154   2.0000      -0.551302       -15.0017
 155   2.0000      -0.543093       -14.7783
 156   2.0000      -0.542413       -14.7598
 157   2.0000      -0.537594       -14.6287
 158   2.0000      -0.535407       -14.5692
 159   2.0000      -0.530926       -14.4472
 160   2.0000      -0.527870       -14.3641
 161   2.0000      -0.526203       -14.3187
 162   2.0000      -0.525375       -14.2962
 163   2.0000      -0.515249       -14.0206
 164   2.0000      -0.513598       -13.9757
 165   2.0000      -0.508345       -13.8328
 166   2.0000      -0.504423       -13.7261
 167   2.0000      -0.503673       -13.7056
 168   2.0000      -0.501831       -13.6555
 169   2.0000      -0.500084       -13.6080
 170   2.0000      -0.498673       -13.5696
 171   2.0000      -0.494499       -13.4560
 172   2.0000      -0.490645       -13.3511
 173   2.0000      -0.488564       -13.2945
 174   2.0000      -0.485982       -13.2243
 175   2.0000      -0.485349       -13.2070
 176   2.0000      -0.483829       -13.1657
 177   2.0000      -0.478881       -13.0310
 178   2.0000      -0.478436       -13.0189
 179   2.0000      -0.474971       -12.9246
 180   2.0000      -0.474178       -12.9030
 181   2.0000      -0.473177       -12.8758
 182   2.0000      -0.469200       -12.7676
 183   2.0000      -0.467336       -12.7169
 184   2.0000      -0.466658       -12.6984
 185   2.0000      -0.464210       -12.6318
 186   2.0000      -0.463248       -12.6056
 187   2.0000      -0.457871       -12.4593
 188   2.0000      -0.457541       -12.4503
 189   2.0000      -0.454187       -12.3591
 190   2.0000      -0.453477       -12.3397
 191   2.0000      -0.450424       -12.2567
 192   2.0000      -0.448271       -12.1981
 193   2.0000      -0.447281       -12.1711
 194   2.0000      -0.445631       -12.1262
 195   2.0000      -0.445369       -12.1191
 196   2.0000      -0.442137       -12.0312
 197   2.0000      -0.438640       -11.9360
 198   2.0000      -0.437421       -11.9028
 199   2.0000      -0.435369       -11.8470
 200   2.0000      -0.432881       -11.7793
 201   2.0000      -0.430249       -11.7077
 202   2.0000      -0.428768       -11.6674
 203   2.0000      -0.427895       -11.6436
 204   2.0000      -0.426344       -11.6014
 205   2.0000      -0.425939       -11.5904
 206   2.0000      -0.423915       -11.5353
 207   2.0000      -0.422338       -11.4924
 208   2.0000      -0.419094       -11.4041
 209   2.0000      -0.417304       -11.3554
 210   2.0000      -0.411011       -11.1842
 211   2.0000      -0.409713       -11.1489
 212   2.0000      -0.408026       -11.1030
 213   2.0000      -0.403949       -10.9920
 214   2.0000      -0.392956       -10.6929
 215   2.0000      -0.390329       -10.6214
 216   2.0000      -0.383394       -10.4327
 217   2.0000      -0.373426       -10.1614
 218   2.0000      -0.363346        -9.8871
 219   2.0000      -0.354706        -9.6520
 220   2.0000      -0.348755        -9.4901
 221   2.0000      -0.344773        -9.3817
 222   2.0000      -0.331825        -9.0294
 223   2.0000      -0.328449        -8.9376
 224   2.0000      -0.321820        -8.7572
 225   2.0000      -0.308651        -8.3988
 226   2.0000      -0.306786        -8.3481
 227   2.0000      -0.298453        -8.1213
 228   2.0000      -0.293055        -7.9744
 229   2.0000      -0.287649        -7.8273
 230   2.0000      -0.273989        -7.4556
 231   2.0000      -0.265745        -7.2313
 232   2.0000      -0.242074        -6.5872
 233   2.0000      -0.240166        -6.5353
 234   2.0000      -0.236330        -6.4309
 235   0.0000      -0.088709        -2.4139
 236   0.0000      -0.082938        -2.2569
 237   0.0000      -0.027316        -0.7433
 238   0.0000      -0.013830        -0.3763
 239   0.0000       0.010002         0.2722

MULLIKEN ATOMIC CHARGES
-----------------------
   0 C :   -0.089889
   1 C :    0.036267
   2 C :   -0.037395
   3 C :   -0.113782
   4 S :    0.173845
   5 C :   -0.105272
   6 C :    0.010415
   7 C :    0.298052
   8 C :   -0.312093
   9 C :   -0.185380
  10 N :    0.154118
  11 C :   -0.192968
  12 N :    0.166651
  13 C :   -0.046866
  14 C :   -0.147316
  15 S :    0.192882
  16 C :    0.077223
  17 C :   -0.171829
  18 C :    0.126258
  19 N :   -0.041253
  20 C :   -0.154771
  21 C :    0.134506
  22 C :    0.018959
  23 C :   -0.091092
  24 C :   -0.013498
  25 C :   -0.109565
  26 S :    0.070433
  27 C :    0.002660
  28 C :   -0.136160
  29 S :    0.112084
  30 C :   -0.124584
  31 C :    0.002215
  32 S :    0.086325
  33 C :   -0.040094
  34 C :   -0.022698
  35 C :   -0.042834
  36 C :    0.053491
  37 C :   -0.154104
  38 C :    0.135520
  39 N :   -0.035085
  40 C :   -0.166321
  41 C :    0.124272
  42 C :    0.057446
  43 C :   -0.055399
  44 C :   -0.002773
  45 C :   -0.045630
  46 C :   -0.046072
  47 C :    0.008664
  48 C :   -0.100701
  49 S :    0.158560
  50 C :   -0.114961
  51 C :   -0.037234
  52 C :    0.302222
  53 C :   -0.303162
  54 C :   -0.191366
  55 N :    0.166846
  56 C :   -0.187102
  57 N :    0.163441
  58 C :    0.036783
  59 C :   -0.088465
  60 S :    0.173610
  61 H :    0.028925
  62 H :    0.006228
  63 H :   -0.011860
  64 H :    0.037860
  65 H :    0.045056
  66 H :    0.000244
  67 H :    0.109902
  68 H :    0.019563
  69 H :    0.016052
  70 H :    0.017680
  71 H :    0.007038
  72 H :    0.034296
  73 H :    0.022467
  74 H :    0.025705
  75 H :    0.007620
  76 H :    0.023108
  77 H :    0.036110
  78 H :    0.007671
  79 H :    0.018611
  80 H :    0.112781
  81 H :   -0.001271
  82 H :    0.042230
  83 H :    0.037209
  84 H :    0.002798
  85 H :   -0.021791
  86 H :   -0.001707
  87 H :    0.010082
  88 H :    0.031356
Sum of atomic charges:   -0.0000000

LOEWDIN ATOMIC CHARGES
----------------------
   0 C :   -0.188143
   1 C :   -0.035733
   2 C :   -0.085209
   3 C :   -0.177619
   4 S :    0.474479
   5 C :   -0.193351
   6 C :   -0.080156
   7 C :    0.089698
   8 C :   -0.118238
   9 C :   -0.013148
  10 N :   -0.051469
  11 C :   -0.017381
  12 N :   -0.044525
  13 C :   -0.051509
  14 C :   -0.149249
  15 S :    0.504872
  16 C :   -0.104814
  17 C :   -0.008070
  18 C :   -0.054731
  19 N :    0.085943
  20 C :   -0.023928
  21 C :   -0.053888
  22 C :   -0.086022
  23 C :   -0.054044
  24 C :   -0.046167
  25 C :   -0.182848
  26 S :    0.327683
  27 C :   -0.212447
  28 C :   -0.212966
  29 S :    0.437402
  30 C :   -0.202256
  31 C :   -0.214420
  32 S :    0.340370
  33 C :   -0.155906
  34 C :   -0.070141
  35 C :    0.011929
  36 C :   -0.080722
  37 C :   -0.013708
  38 C :   -0.053363
  39 N :    0.092619
  40 C :   -0.006991
  41 C :   -0.054696
  42 C :   -0.079509
  43 C :   -0.015587
  44 C :   -0.063445
  45 C :   -0.153083
  46 C :   -0.042860
  47 C :   -0.073159
  48 C :   -0.188352
  49 S :    0.468769
  50 C :   -0.178964
  51 C :   -0.083673
  52 C :    0.087209
  53 C :   -0.110667
  54 C :   -0.016558
  55 N :   -0.040261
  56 C :   -0.015218
  57 N :   -0.042009
  58 C :   -0.035151
  59 C :   -0.184839
  60 S :    0.471311
  61 H :    0.024154
  62 H :    0.040296
  63 H :    0.033569
  64 H :    0.043896
  65 H :    0.039803
  66 H :    0.029416
  67 H :    0.085184
  68 H :    0.032127
  69 H :    0.040549
  70 H :    0.032657
  71 H :    0.020190
  72 H :    0.035330
  73 H :    0.023013
  74 H :    0.025495
  75 H :    0.025539
  76 H :    0.033174
  77 H :    0.039115
  78 H :    0.030148
  79 H :    0.040974
  80 H :    0.086515
  81 H :    0.029521
  82 H :    0.038471
  83 H :    0.042539
  84 H :    0.020874
  85 H :    0.031959
  86 H :    0.037710
  87 H :    0.041405
  88 H :    0.025287

  Mayer bond orders larger than 0.100000
B(  0-C ,  1-C ) :   1.5511 B(  0-C ,  4-S ) :   1.1444 B(  0-C , 61-H ) :   0.9655
B(  1-C ,  2-C ) :   1.2735 B(  1-C , 62-H ) :   0.9967 B(  2-C ,  3-C ) :   1.4640
B(  2-C ,  7-C ) :   1.0109 B(  3-C ,  4-S ) :   1.1476 B(  3-C ,  5-C ) :   1.1677
B(  5-C ,  6-C ) :   1.4671 B(  5-C , 15-S ) :   1.1204 B(  6-C ,  7-C ) :   0.9981
B(  6-C , 13-C ) :   1.2408 B(  7-C ,  8-C ) :   1.6960 B(  8-C ,  9-C ) :   1.1381
B(  8-C , 11-C ) :   1.1310 B(  9-C , 10-N ) :   2.9873 B( 11-C , 12-N ) :   3.0048
B( 13-C , 14-C ) :   1.5004 B( 13-C , 63-H ) :   1.0000 B( 14-C , 15-S ) :   1.1231
B( 14-C , 16-C ) :   1.0282 B( 16-C , 17-C ) :   1.4775 B( 16-C , 22-C ) :   1.2562
B( 17-C , 18-C ) :   1.1138 B( 17-C , 19-N ) :   1.2292 B( 18-C , 64-H ) :   0.9374
B( 18-C , 65-H ) :   0.9398 B( 18-C , 66-H ) :   0.9352 B( 19-N , 20-C ) :   1.2014
B( 19-N , 67-H ) :   0.9393 B( 20-C , 21-C ) :   1.1129 B( 20-C , 22-C ) :   1.5020
B( 21-C , 68-H ) :   0.9452 B( 21-C , 69-H ) :   0.9384 B( 21-C , 70-H ) :   0.9422
B( 22-C , 23-C ) :   1.0330 B( 23-C , 24-C ) :   1.7699 B( 23-C , 71-H ) :   0.9593
B( 24-C , 25-C ) :   1.1137 B( 24-C , 72-H ) :   0.9647 B( 25-C , 26-S ) :   1.0140
B( 25-C , 33-C ) :   1.6905 B( 26-S , 27-C ) :   0.9925 B( 27-C , 28-C ) :   1.5918
B( 27-C , 31-C ) :   1.2547 B( 28-C , 29-S ) :   1.1642 B( 28-C , 73-H ) :   0.9728
B( 29-S , 30-C ) :   1.1728 B( 30-C , 31-C ) :   1.5952 B( 30-C , 74-H ) :   0.9717
B( 31-C , 32-S ) :   0.9831 B( 32-S , 33-C ) :   1.0227 B( 33-C , 34-C ) :   1.0959
B( 34-C , 35-C ) :   1.7225 B( 34-C , 75-H ) :   0.9583 B( 35-C , 36-C ) :   1.0808
B( 35-C , 76-H ) :   0.9516 B( 36-C , 37-C ) :   1.4611 B( 36-C , 42-C ) :   1.2191
B( 37-C , 38-C ) :   1.1119 B( 37-C , 39-N ) :   1.2155 B( 38-C , 77-H ) :   0.9431
B( 38-C , 78-H ) :   0.9393 B( 38-C , 79-H ) :   0.9384 B( 39-N , 40-C ) :   1.2283
B( 39-N , 80-H ) :   0.9367 B( 40-C , 41-C ) :   1.1118 B( 40-C , 42-C ) :   1.4576
B( 41-C , 81-H ) :   0.9362 B( 41-C , 82-H ) :   0.9386 B( 41-C , 83-H ) :   0.9395
B( 42-C , 43-C ) :   1.1049 B( 43-C , 44-C ) :   1.6785 B( 43-C , 84-H ) :   0.9508
B( 44-C , 45-C ) :   1.1345 B( 44-C , 85-H ) :   0.9786 B( 45-C , 46-C ) :   1.4608
B( 45-C , 49-S ) :   1.0987 B( 46-C , 47-C ) :   1.2572 B( 46-C , 86-H ) :   1.0051
B( 47-C , 48-C ) :   1.4696 B( 47-C , 52-C ) :   0.9980 B( 48-C , 49-S ) :   1.1178
B( 48-C , 50-C ) :   1.1778 B( 50-C , 51-C ) :   1.4579 B( 50-C , 60-S ) :   1.1400
B( 51-C , 52-C ) :   1.0185 B( 51-C , 58-C ) :   1.2738 B( 52-C , 53-C ) :   1.7014
B( 53-C , 54-C ) :   1.1309 B( 53-C , 56-C ) :   1.1335 B( 54-C , 55-N ) :   3.0024
B( 56-C , 57-N ) :   2.9931 B( 58-C , 59-C ) :   1.5525 B( 58-C , 87-H ) :   0.9959
B( 59-C , 60-S ) :   1.1420 B( 59-C , 88-H ) :   0.9648

-----------------------------------------------------------------------------
         ABSORPTION SPECTRUM VIA TRANSITION ELECTRIC DIPOLE MOMENTS
-----------------------------------------------------------------------------
State   Energy  Wavelength   fosc         T2         TX        TY        TZ
        (cm-1)    (nm)                  (au**2)     (au)      (au)      (au)
-----------------------------------------------------------------------------
   0   12918.0    774.1   0.051436279   1.31085   0.72438   0.30443  -0.83273
   1   13971.0    715.8   0.026309218   0.61995   0.04305   0.63150  -0.46830
   2   19650.6    508.9   0.017297775   0.28979  -0.36195   0.25507  -0.30615
   3   21643.3    462.0   0.002311163   0.03515  -0.04373  -0.15714  -0.09246
   4   23503.4    425.5   0.000128982   0.00181  -0.01248  -0.00665   0.04008
   5   24370.1    410.3   0.012721997   0.17186  -0.07361   0.33238  -0.23657
   6   24977.6    400.4   0.001214605   0.01601   0.08130   0.02134  -0.09457
   7   25688.3    389.3   0.081510796   1.04461   0.51945   0.07683  -0.87686
   8   27906.2    358.3   0.021390164   0.25234  -0.07263   0.49479   0.04745
   9   28403.3    352.1   0.653121049   7.57008   0.72379  -1.36982  -2.27372
  10   28736.8    348.0   0.014979239   0.17160   0.35620   0.20936   0.02988
  11   28824.8    346.9   0.043410990   0.49580  -0.18160   0.60286   0.31525
  12   29159.0    342.9   0.000473156   0.00534   0.00850  -0.07000   0.01923
  13   29398.5    340.2   0.174737282   1.95675   0.09989   0.01076  -1.39523
  14   29664.4    337.1   0.055341461   0.61417  -0.44720  -0.55343   0.32848
  15   30690.3    325.8   0.109877932   1.17865   1.01131  -0.02549   0.39403
  16   31558.6    316.9   0.605481623   6.31625  -0.26366  -0.09429   2.49757
  17   31967.2    312.8   0.315285405   3.24695  -1.74791   0.41532  -0.13883
  18   32097.7    311.5   0.118194099   1.21226  -0.49373  -0.02896  -0.98370
  19   32220.8    310.4   0.649345105   6.63460   2.05042   1.11308   1.09153
  20   32765.7    305.2   0.055629113   0.55893   0.64319   0.34829  -0.15470
  21   33164.3    301.5   0.141883346   1.40843   0.95101   0.66033  -0.26069
  22   33308.0    300.2   0.384536436   3.80070   1.34608   0.72441  -1.20996
  23   34179.1    292.6   0.002895558   0.02789  -0.10290  -0.00812  -0.13129
  24   34653.9    288.6   0.456971876   4.34123   1.33633   1.49180  -0.57444
  25   35041.7    285.4   0.003807225   0.03577  -0.18660  -0.03057   0.00392
  26   36199.6    276.2   0.017741627   0.16135  -0.32916  -0.22989   0.01240
  27   37058.3    269.8   0.453609145   4.02970   0.73737  -1.31217   1.32823
  28   37773.6    264.7   0.129890793   1.13205   0.32026   0.75615  -0.67655
  29   37796.9    264.6   0.046238001   0.40273  -0.46334  -0.41088   0.13866
  30   37837.2    264.3   0.163588008   1.42334  -0.20141   0.93610  -0.71168
  31   37902.5    263.8   0.009739142   0.08459  -0.22004  -0.16964   0.08602
  32   38135.1    262.2   0.206964604   1.78668   0.18299   0.93492  -0.93761
  33   38958.2    256.7   0.095267078   0.80504   0.04884  -0.51215   0.73509
  34   39303.5    254.4   0.055253312   0.46281   0.46809   0.42995   0.24257

FINAL SINGLE POINT ENERGY     -4958.017324836213

DIPOLE MOMENT
-------------
                                X             Y             Z
Electronic contribution:    -19.16655     -36.39096      42.52388
Nuclear contribution   :     17.70108      37.47725     -46.39037
                        -----------------------------------------
Total Dipole Moment    :     -1.46547       1.08629      -3.86649
                        -----------------------------------------
Magnitude (a.u.)       :      4.27520
Magnitude (Debye)      :     10.86670

Rotational constants in cm-1:     0.001458     0.000572     0.000524
Rotational constants in MHz :    43.704977    17.159525    15.703528

                             ****ORCA TERMINATED NORMALLY****
TOTAL RUN TIME: 0 days 0 hours 8 minutes 5 seconds 863 msec
