                         Program Version 4.2.0 -  RELEASE  -
|  1> # ORCA input file
|  2> # SCF done       -183.533969940380          0.000815946896
|  3> ! CAM-B3LYP def2-SVP def2/J RIJCOSX Grid4 TightSCF
|  4> %maxcore 5000
|  5> %tddft
|  6>     Mode sTDDFT
|  7>     Ethresh 5.0
|  8>     maxcore 5000
|  9> end
| 10>
| 11> %pal
| 12>   nprocs 6
| 13>   end
| 14> * xyz 0 1
| 15>    C        6.52441         8.94473         0.57951
| 16>    C        6.38815         8.44347        -0.67787
| 17>    C        5.13898         7.81435        -0.84919
| 18>    C        4.35424         7.86265         0.31220
| 19>    S        5.14383         8.67000         1.59444
| 20>    C        3.11937         7.21425         0.05238
| 21>    C        3.12637         6.75594        -1.27352
| 22>    C        4.40142         7.12102        -1.88285
| 23>    C        4.80282         6.86143        -3.16370
| 24>    C        3.98434         6.17354        -4.08129
| 25>    N        3.31671         5.61636        -4.82949
| 26>    C        6.06201         7.26592        -3.65050
| 27>    N        7.08651         7.59299        -4.04994
| 28>    C        1.94735         6.10590        -1.63214
| 29>    C        1.03509         6.06462        -0.59098
| 30>    S        1.66010         6.84569         0.86079
| 31>    C       -0.27092         5.50043        -0.58946
| 32>    C       -1.09381         5.54705         0.51307
| 33>    C       -2.38200         5.03122         0.56847
| 34>    C       -2.98990         4.36962        -0.58576
| 35>    C       -2.36500         4.20134        -1.77210
| 36>    S       -0.76920         4.74504        -2.09873
| 37>    C       -4.29336         3.99311        -0.15550
| 38>    C       -4.49661         4.38596         1.16942
| 39>    C       -5.78513         4.03091         1.62693
| 40>    C       -6.50404         3.39628         0.66391
| 41>    S       -5.65833         3.20072        -0.83246
| 42>    C       -3.30168         5.04124         1.64636
| 43>    C       -3.02608         5.60188         2.89963
| 44>    C       -3.83826         5.67080         4.00056
| 45>    C       -3.37933         6.28237         5.17602
| 46>    C       -4.04714         6.46555         6.40918
| 47>    C       -3.14351         7.14491         7.26133
| 48>    C       -1.96552         7.32873         6.47224
| 49>    N       -2.11090         6.82414         5.26025
| 50>    O       -0.86186         7.92791         6.89494
| 51>    C        0.19205         8.00229         5.95213
| 52>    C       -3.81125         7.33232         8.48669
| 53>    N       -5.07382         6.79505         8.41280
| 54>    C       -5.22434         6.28210         7.19604
| 55>    O       -6.32903         5.68289         6.78805
| 56>    C       -7.37791         5.60852         7.74275
| 57>    C       -3.37038         7.95871         9.67423
| 58>    C       -4.20735         8.04414        10.77118
| 59>    C       -3.87072         8.64169        11.97278
| 60>    C       -2.55311         9.24632        12.17568
| 61>    C       -1.58019         9.27323        11.23522
| 62>    S       -1.74111         8.60538         9.66319
| 63>    C       -2.57707         9.75044        13.50391
| 64>    C       -3.81553         9.48835        14.10082
| 65>    C       -3.86543         9.98147        15.42599
| 66>    C       -2.70327        10.58425        15.78609
| 67>    S       -1.49616        10.58487        14.54505
| 68>    C       -4.64416         8.79153        13.15340
| 69>    C       -5.96360         8.32022        13.27956
| 70>    C       -6.77558         8.43255        14.36867
| 71>    C       -8.09666         7.93513        14.41399
| 72>    C       -8.81794         7.26435        13.43158
| 73>    C      -10.09996         6.93466        13.85260
| 74>    C      -10.37850         7.34869        15.16476
| 75>    S       -9.04695         8.14937        15.88003
| 76>    C      -11.70494         6.96115        15.48311
| 77>    C      -12.26213         6.30350        14.37434
| 78>    C      -11.28169         6.26220        13.31522
| 79>    C      -11.41469         5.71464        12.06938
| 80>    C      -12.60404         5.08378        11.65185
| 81>    N      -13.56884         4.56900        11.30484
| 82>    C      -10.38004         5.73916        11.11374
| 83>    N       -9.54880         5.75018        10.32190
| 84>    C      -13.58752         5.88454        14.60986
| 85>    C      -14.00228         6.22225        15.85961
| 86>    S      -12.79785         7.05981        16.79157
| 87>    H        7.36226         9.47074         0.99128
| 88>    H        7.14440         8.52338        -1.43718
| 89>    H        1.74723         5.68121        -2.59948
| 90>    H       -0.69475         6.03076         1.39496
| 91>    H       -2.82898         3.70888        -2.61189
| 92>    H       -6.17440         4.22656         2.60863
| 93>    H       -7.50549         3.01899         0.73508
| 94>    H       -2.04773         6.04423         3.03247
| 95>    H       -4.83964         5.27018         4.00876
| 96>    H        1.01133         8.51498         6.45133
| 97>    H       -0.12713         8.55760         5.06761
| 98>    H        0.49700         7.00035         5.64270
| 99>    H       -8.20053         5.09089         7.25561
|100>    H       -7.68713         6.60774         8.05206
|101>    H       -7.05302         5.05908         8.62726
|102>    H       -5.18097         7.59842        10.62434
|103>    H       -0.61865         9.72769        11.41656
|104>    H       -4.70432         9.90449        16.09262
|105>    H       -2.46674        11.04276        16.72639
|106>    H       -6.35810         7.82054        12.40628
|107>    H       -6.42089         8.92528        15.26054
|108>    H       -8.41870         7.03330        12.46170
|109>    H      -14.20094         5.36332        13.89773
|110>    H      -14.95503         6.03403        16.31217
|111> *
|112>
|113>                          ****END OF INPUT****

CARTESIAN COORDINATES (ANGSTROEM)
---------------------------------
  C      6.524410    8.944730    0.579510
  C      6.388150    8.443470   -0.677870
  C      5.138980    7.814350   -0.849190
  C      4.354240    7.862650    0.312200
  S      5.143830    8.670000    1.594440
  C      3.119370    7.214250    0.052380
  C      3.126370    6.755940   -1.273520
  C      4.401420    7.121020   -1.882850
  C      4.802820    6.861430   -3.163700
  C      3.984340    6.173540   -4.081290
  N      3.316710    5.616360   -4.829490
  C      6.062010    7.265920   -3.650500
  N      7.086510    7.592990   -4.049940
  C      1.947350    6.105900   -1.632140
  C      1.035090    6.064620   -0.590980
  S      1.660100    6.845690    0.860790
  C     -0.270920    5.500430   -0.589460
  C     -1.093810    5.547050    0.513070
  C     -2.382000    5.031220    0.568470
  C     -2.989900    4.369620   -0.585760
  C     -2.365000    4.201340   -1.772100
  S     -0.769200    4.745040   -2.098730
  C     -4.293360    3.993110   -0.155500
  C     -4.496610    4.385960    1.169420
  C     -5.785130    4.030910    1.626930
  C     -6.504040    3.396280    0.663910
  S     -5.658330    3.200720   -0.832460
  C     -3.301680    5.041240    1.646360
  C     -3.026080    5.601880    2.899630
  C     -3.838260    5.670800    4.000560
  C     -3.379330    6.282370    5.176020
  C     -4.047140    6.465550    6.409180
  C     -3.143510    7.144910    7.261330
  C     -1.965520    7.328730    6.472240
  N     -2.110900    6.824140    5.260250
  O     -0.861860    7.927910    6.894940
  C      0.192050    8.002290    5.952130
  C     -3.811250    7.332320    8.486690
  N     -5.073820    6.795050    8.412800
  C     -5.224340    6.282100    7.196040
  O     -6.329030    5.682890    6.788050
  C     -7.377910    5.608520    7.742750
  C     -3.370380    7.958710    9.674230
  C     -4.207350    8.044140   10.771180
  C     -3.870720    8.641690   11.972780
  C     -2.553110    9.246320   12.175680
  C     -1.580190    9.273230   11.235220
  S     -1.741110    8.605380    9.663190
  C     -2.577070    9.750440   13.503910
  C     -3.815530    9.488350   14.100820
  C     -3.865430    9.981470   15.425990
  C     -2.703270   10.584250   15.786090
  S     -1.496160   10.584870   14.545050
  C     -4.644160    8.791530   13.153400
  C     -5.963600    8.320220   13.279560
  C     -6.775580    8.432550   14.368670
  C     -8.096660    7.935130   14.413990
  C     -8.817940    7.264350   13.431580
  C    -10.099960    6.934660   13.852600
  C    -10.378500    7.348690   15.164760
  S     -9.046950    8.149370   15.880030
  C    -11.704940    6.961150   15.483110
  C    -12.262130    6.303500   14.374340
  C    -11.281690    6.262200   13.315220
  C    -11.414690    5.714640   12.069380
  C    -12.604040    5.083780   11.651850
  N    -13.568840    4.569000   11.304840
  C    -10.380040    5.739160   11.113740
  N     -9.548800    5.750180   10.321900
  C    -13.587520    5.884540   14.609860
  C    -14.002280    6.222250   15.859610
  S    -12.797850    7.059810   16.791570
  H      7.362260    9.470740    0.991280
  H      7.144400    8.523380   -1.437180
  H      1.747230    5.681210   -2.599480
  H     -0.694750    6.030760    1.394960
  H     -2.828980    3.708880   -2.611890
  H     -6.174400    4.226560    2.608630
  H     -7.505490    3.018990    0.735080
  H     -2.047730    6.044230    3.032470
  H     -4.839640    5.270180    4.008760
  H      1.011330    8.514980    6.451330
  H     -0.127130    8.557600    5.067610
  H      0.497000    7.000350    5.642700
  H     -8.200530    5.090890    7.255610
  H     -7.687130    6.607740    8.052060
  H     -7.053020    5.059080    8.627260
  H     -5.180970    7.598420   10.624340
  H     -0.618650    9.727690   11.416560
  H     -4.704320    9.904490   16.092620
  H     -2.466740   11.042760   16.726390
  H     -6.358100    7.820540   12.406280
  H     -6.420890    8.925280   15.260540
  H     -8.418700    7.033300   12.461700
  H    -14.200940    5.363320   13.897730
  H    -14.955030    6.034030   16.312170

 Total Charge           Charge          ....    0
 Multiplicity           Mult            ....    1
 Number of Electrons    NEL             ....  546
 Basis Dimension        Dim             .... 1160

ORBITAL ENERGIES
----------------

  NO   OCC          E(Eh)            E(eV)
   0   2.0000     -88.993250     -2421.6295
   1   2.0000     -88.990071     -2421.5429
   2   2.0000     -88.982969     -2421.3497
   3   2.0000     -88.975278     -2421.1404
   4   2.0000     -88.971793     -2421.0456
   5   2.0000     -88.962804     -2420.8010
   6   2.0000     -88.957484     -2420.6562
   7   2.0000     -88.951658     -2420.4977
   8   2.0000     -19.258890      -524.0610
   9   2.0000     -19.247190      -523.7427
  10   2.0000     -14.431313      -392.6960
  11   2.0000     -14.430610      -392.6769
  12   2.0000     -14.423211      -392.4755
  13   2.0000     -14.418789      -392.3552
  14   2.0000     -14.368653      -390.9909
  15   2.0000     -14.366731      -390.9386
  16   2.0000     -10.365085      -282.0483
  17   2.0000     -10.359005      -281.8828
  18   2.0000     -10.352719      -281.7118
  19   2.0000     -10.351783      -281.6863
  20   2.0000     -10.350579      -281.6536
  21   2.0000     -10.339804      -281.3604
  22   2.0000     -10.336175      -281.2616
  23   2.0000     -10.333477      -281.1882
  24   2.0000     -10.332893      -281.1723
  25   2.0000     -10.331949      -281.1466
  26   2.0000     -10.331623      -281.1378
  27   2.0000     -10.330786      -281.1150
  28   2.0000     -10.330690      -281.1124
  29   2.0000     -10.324559      -280.9455
  30   2.0000     -10.319781      -280.8155
  31   2.0000     -10.318845      -280.7901
  32   2.0000     -10.318392      -280.7777
  33   2.0000     -10.317933      -280.7652
  34   2.0000     -10.313940      -280.6566
  35   2.0000     -10.309182      -280.5271
  36   2.0000     -10.308770      -280.5159
  37   2.0000     -10.307265      -280.4749
  38   2.0000     -10.305497      -280.4268
  39   2.0000     -10.305167      -280.4178
  40   2.0000     -10.304675      -280.4045
  41   2.0000     -10.304180      -280.3910
  42   2.0000     -10.302964      -280.3579
  43   2.0000     -10.302698      -280.3507
  44   2.0000     -10.301229      -280.3107
  45   2.0000     -10.299642      -280.2675
  46   2.0000     -10.297873      -280.2194
  47   2.0000     -10.297274      -280.2031
  48   2.0000     -10.296119      -280.1716
  49   2.0000     -10.293212      -280.0925
  50   2.0000     -10.291663      -280.0504
  51   2.0000     -10.289120      -279.9812
  52   2.0000     -10.287783      -279.9448
  53   2.0000     -10.287594      -279.9397
  54   2.0000     -10.285639      -279.8865
  55   2.0000     -10.283665      -279.8328
  56   2.0000     -10.282276      -279.7950
  57   2.0000     -10.281580      -279.7760
  58   2.0000     -10.280640      -279.7504
  59   2.0000     -10.277009      -279.6516
  60   2.0000     -10.276557      -279.6393
  61   2.0000     -10.276340      -279.6334
  62   2.0000     -10.276072      -279.6261
  63   2.0000     -10.274031      -279.5706
  64   2.0000     -10.273408      -279.5536
  65   2.0000     -10.272375      -279.5255
  66   2.0000     -10.270957      -279.4869
  67   2.0000     -10.269156      -279.4379
  68   2.0000     -10.268521      -279.4207
  69   2.0000     -10.262079      -279.2454
  70   2.0000     -10.238478      -278.6031
  71   2.0000     -10.235205      -278.5141
  72   2.0000      -8.087370      -220.0685
  73   2.0000      -8.084984      -220.0036
  74   2.0000      -8.077988      -219.8132
  75   2.0000      -8.070171      -219.6005
  76   2.0000      -8.066381      -219.4974
  77   2.0000      -8.057925      -219.2673
  78   2.0000      -8.052950      -219.1319
  79   2.0000      -8.047038      -218.9710
  80   2.0000      -6.056674      -164.8105
  81   2.0000      -6.054229      -164.7440
  82   2.0000      -6.052560      -164.6985
  83   2.0000      -6.049815      -164.6238
  84   2.0000      -6.049650      -164.6194
  85   2.0000      -6.047600      -164.5636
  86   2.0000      -6.047576      -164.5629
  87   2.0000      -6.043026      -164.4391
  88   2.0000      -6.039878      -164.3534
  89   2.0000      -6.039453      -164.3419
  90   2.0000      -6.035582      -164.2365
  91   2.0000      -6.035024      -164.2214
  92   2.0000      -6.032778      -164.1602
  93   2.0000      -6.031511      -164.1258
  94   2.0000      -6.028816      -164.0524
  95   2.0000      -6.027376      -164.0132
  96   2.0000      -6.022778      -163.8881
  97   2.0000      -6.022371      -163.8770
  98   2.0000      -6.019992      -163.8123
  99   2.0000      -6.018103      -163.7609
 100   2.0000      -6.016466      -163.7164
 101   2.0000      -6.015026      -163.6772
 102   2.0000      -6.012237      -163.6013
 103   2.0000      -6.009129      -163.5167
 104   2.0000      -1.170395       -31.8481
 105   2.0000      -1.158267       -31.5180
 106   2.0000      -1.045177       -28.4407
 107   2.0000      -1.036154       -28.1952
 108   2.0000      -1.028472       -27.9861
 109   2.0000      -1.022706       -27.8292
 110   2.0000      -1.011157       -27.5150
 111   2.0000      -1.010940       -27.5091
 112   2.0000      -1.009206       -27.4619
 113   2.0000      -1.008160       -27.4334
 114   2.0000      -0.998351       -27.1665
 115   2.0000      -0.998047       -27.1582
 116   2.0000      -0.996924       -27.1277
 117   2.0000      -0.978319       -26.6214
 118   2.0000      -0.974277       -26.5114
 119   2.0000      -0.959137       -26.0995
 120   2.0000      -0.956160       -26.0184
 121   2.0000      -0.943933       -25.6857
 122   2.0000      -0.930840       -25.3294
 123   2.0000      -0.919990       -25.0342
 124   2.0000      -0.914185       -24.8762
 125   2.0000      -0.900961       -24.5164
 126   2.0000      -0.891307       -24.2537
 127   2.0000      -0.883361       -24.0375
 128   2.0000      -0.879624       -23.9358
 129   2.0000      -0.868602       -23.6359
 130   2.0000      -0.867343       -23.6016
 131   2.0000      -0.854160       -23.2429
 132   2.0000      -0.847922       -23.0731
 133   2.0000      -0.843999       -22.9664
 134   2.0000      -0.837003       -22.7760
 135   2.0000      -0.835949       -22.7473
 136   2.0000      -0.829692       -22.5771
 137   2.0000      -0.827173       -22.5085
 138   2.0000      -0.822168       -22.3723
 139   2.0000      -0.811781       -22.0897
 140   2.0000      -0.798241       -21.7212
 141   2.0000      -0.797224       -21.6936
 142   2.0000      -0.793331       -21.5876
 143   2.0000      -0.783651       -21.3242
 144   2.0000      -0.778194       -21.1757
 145   2.0000      -0.765168       -20.8213
 146   2.0000      -0.763890       -20.7865
 147   2.0000      -0.753587       -20.5061
 148   2.0000      -0.740897       -20.1608
 149   2.0000      -0.731116       -19.8947
 150   2.0000      -0.723269       -19.6812
 151   2.0000      -0.708593       -19.2818
 152   2.0000      -0.704136       -19.1605
 153   2.0000      -0.691998       -18.8302
 154   2.0000      -0.690406       -18.7869
 155   2.0000      -0.681532       -18.5454
 156   2.0000      -0.676518       -18.4090
 157   2.0000      -0.669980       -18.2311
 158   2.0000      -0.668207       -18.1828
 159   2.0000      -0.662379       -18.0243
 160   2.0000      -0.657767       -17.8988
 161   2.0000      -0.656340       -17.8599
 162   2.0000      -0.653593       -17.7852
 163   2.0000      -0.643313       -17.5054
 164   2.0000      -0.641172       -17.4472
 165   2.0000      -0.632411       -17.2088
 166   2.0000      -0.629091       -17.1184
 167   2.0000      -0.621004       -16.8984
 168   2.0000      -0.618349       -16.8261
 169   2.0000      -0.616512       -16.7761
 170   2.0000      -0.615017       -16.7355
 171   2.0000      -0.613351       -16.6901
 172   2.0000      -0.604583       -16.4515
 173   2.0000      -0.601881       -16.3780
 174   2.0000      -0.599001       -16.2997
 175   2.0000      -0.592013       -16.1095
 176   2.0000      -0.577004       -15.7011
 177   2.0000      -0.572513       -15.5789
 178   2.0000      -0.568947       -15.4818
 179   2.0000      -0.565998       -15.4016
 180   2.0000      -0.561439       -15.2775
 181   2.0000      -0.560674       -15.2567
 182   2.0000      -0.553860       -15.0713
 183   2.0000      -0.549925       -14.9642
 184   2.0000      -0.547605       -14.9011
 185   2.0000      -0.545074       -14.8322
 186   2.0000      -0.544882       -14.8270
 187   2.0000      -0.539727       -14.6867
 188   2.0000      -0.534412       -14.5421
 189   2.0000      -0.533629       -14.5208
 190   2.0000      -0.531514       -14.4632
 191   2.0000      -0.524878       -14.2827
 192   2.0000      -0.521725       -14.1969
 193   2.0000      -0.517438       -14.0802
 194   2.0000      -0.513106       -13.9623
 195   2.0000      -0.511533       -13.9195
 196   2.0000      -0.509811       -13.8727
 197   2.0000      -0.504615       -13.7313
 198   2.0000      -0.504231       -13.7208
 199   2.0000      -0.504011       -13.7148
 200   2.0000      -0.499984       -13.6053
 201   2.0000      -0.497010       -13.5243
 202   2.0000      -0.496260       -13.5039
 203   2.0000      -0.493075       -13.4173
 204   2.0000      -0.492126       -13.3914
 205   2.0000      -0.490684       -13.3522
 206   2.0000      -0.488398       -13.2900
 207   2.0000      -0.486291       -13.2327
 208   2.0000      -0.483442       -13.1551
 209   2.0000      -0.477116       -12.9830
 210   2.0000      -0.473672       -12.8893
 211   2.0000      -0.470325       -12.7982
 212   2.0000      -0.467793       -12.7293
 213   2.0000      -0.466853       -12.7037
 214   2.0000      -0.462197       -12.5770
 215   2.0000      -0.460122       -12.5206
 216   2.0000      -0.458934       -12.4882
 217   2.0000      -0.458873       -12.4866
 218   2.0000      -0.457213       -12.4414
 219   2.0000      -0.456986       -12.4352
 220   2.0000      -0.454954       -12.3799
 221   2.0000      -0.452027       -12.3003
 222   2.0000      -0.448173       -12.1954
 223   2.0000      -0.446519       -12.1504
 224   2.0000      -0.444480       -12.0949
 225   2.0000      -0.442825       -12.0499
 226   2.0000      -0.440935       -11.9985
 227   2.0000      -0.440524       -11.9873
 228   2.0000      -0.439336       -11.9549
 229   2.0000      -0.437593       -11.9075
 230   2.0000      -0.435777       -11.8581
 231   2.0000      -0.432174       -11.7601
 232   2.0000      -0.431498       -11.7417
 233   2.0000      -0.430775       -11.7220
 234   2.0000      -0.428254       -11.6534
 235   2.0000      -0.428060       -11.6481
 236   2.0000      -0.425060       -11.5665
 237   2.0000      -0.424550       -11.5526
 238   2.0000      -0.421619       -11.4728
 239   2.0000      -0.420362       -11.4386
 240   2.0000      -0.418896       -11.3987
 241   2.0000      -0.417446       -11.3593
 242   2.0000      -0.417330       -11.3561
 243   2.0000      -0.414985       -11.2923
 244   2.0000      -0.414597       -11.2817
 245   2.0000      -0.412133       -11.2147
 246   2.0000      -0.404104       -10.9962
 247   2.0000      -0.403465       -10.9788
 248   2.0000      -0.398820       -10.8524
 249   2.0000      -0.398685       -10.8488
 250   2.0000      -0.396887       -10.7998
 251   2.0000      -0.395554       -10.7636
 252   2.0000      -0.374611       -10.1937
 253   2.0000      -0.362077        -9.8526
 254   2.0000      -0.359453        -9.7812
 255   2.0000      -0.356563        -9.7026
 256   2.0000      -0.351479        -9.5642
 257   2.0000      -0.348030        -9.4704
 258   2.0000      -0.339412        -9.2359
 259   2.0000      -0.332421        -9.0456
 260   2.0000      -0.324733        -8.8364
 261   2.0000      -0.322348        -8.7715
 262   2.0000      -0.320503        -8.7213
 263   2.0000      -0.314063        -8.5461
 264   2.0000      -0.308715        -8.4006
 265   2.0000      -0.296327        -8.0635
 266   2.0000      -0.284729        -7.7479
 267   2.0000      -0.278554        -7.5798
 268   2.0000      -0.275646        -7.5007
 269   2.0000      -0.271011        -7.3746
 270   2.0000      -0.256853        -6.9893
 271   2.0000      -0.228872        -6.2279
 272   2.0000      -0.202434        -5.5085
 273   0.0000      -0.106513        -2.8984
 274   0.0000      -0.094021        -2.5584
 275   0.0000      -0.085786        -2.3344
 276   0.0000      -0.053180        -1.4471
 277   0.0000      -0.032459        -0.8832

MULLIKEN ATOMIC CHARGES
-----------------------
   0 C :   -0.081534
   1 C :    0.036349
   2 C :   -0.032632
   3 C :   -0.115735
   4 S :    0.180504
   5 C :   -0.094638
   6 C :    0.015644
   7 C :    0.299502
   8 C :   -0.296622
   9 C :   -0.185082
  10 N :    0.169682
  11 C :   -0.190233
  12 N :    0.177303
  13 C :   -0.052509
  14 C :   -0.066487
  15 S :    0.167660
  16 C :   -0.014910
  17 C :   -0.095347
  18 C :    0.065132
  19 C :    0.065359
  20 C :   -0.121580
  21 S :    0.140589
  22 C :   -0.115626
  23 C :    0.058335
  24 C :   -0.000378
  25 C :   -0.065942
  26 S :    0.129609
  27 C :    0.131212
  28 C :   -0.021172
  29 C :   -0.036070
  30 C :    0.010687
  31 C :    0.045923
  32 C :   -0.016884
  33 C :    0.079826
  34 N :   -0.201512
  35 O :   -0.269103
  36 C :    0.205897
  37 C :    0.055512
  38 N :   -0.193714
  39 C :    0.076766
  40 O :   -0.266955
  41 C :    0.211031
  42 C :   -0.106586
  43 C :   -0.084283
  44 C :    0.089954
  45 C :    0.061673
  46 C :   -0.121709
  47 S :    0.168910
  48 C :   -0.110913
  49 C :    0.054526
  50 C :   -0.011223
  51 C :   -0.066417
  52 S :    0.122025
  53 C :    0.101743
  54 C :   -0.018760
  55 C :    0.034613
  56 C :   -0.070399
  57 C :   -0.049006
  58 C :    0.011759
  59 C :   -0.114111
  60 S :    0.170475
  61 C :   -0.112377
  62 C :   -0.042387
  63 C :    0.310607
  64 C :   -0.314096
  65 C :   -0.195513
  66 N :    0.169327
  67 C :   -0.178363
  68 N :    0.163241
  69 C :    0.037162
  70 C :   -0.087643
  71 S :    0.168922
  72 H :    0.037220
  73 H :    0.014035
  74 H :    0.019091
  75 H :    0.000201
  76 H :    0.040616
  77 H :   -0.004873
  78 H :    0.027352
  79 H :   -0.018324
  80 H :   -0.042858
  81 H :    0.026731
  82 H :    0.025722
  83 H :    0.025594
  84 H :    0.024731
  85 H :    0.029058
  86 H :    0.028535
  87 H :    0.003119
  88 H :    0.029120
  89 H :   -0.014631
  90 H :    0.021949
  91 H :   -0.029739
  92 H :   -0.054505
  93 H :    0.004018
  94 H :    0.008900
  95 H :    0.029928
Sum of atomic charges:   -0.0000000

LOEWDIN ATOMIC CHARGES
----------------------
   0 C :   -0.176384
   1 C :   -0.033144
   2 C :   -0.076803
   3 C :   -0.183052
   4 S :    0.475376
   5 C :   -0.178424
   6 C :   -0.068549
   7 C :    0.083442
   8 C :   -0.102389
   9 C :   -0.016256
  10 N :   -0.033798
  11 C :   -0.016940
  12 N :   -0.031955
  13 C :   -0.037469
  14 C :   -0.180295
  15 S :    0.478461
  16 C :   -0.176614
  17 C :   -0.030368
  18 C :   -0.003598
  19 C :   -0.047775
  20 C :   -0.138336
  21 S :    0.467603
  22 C :   -0.202156
  23 C :   -0.033492
  24 C :   -0.060701
  25 C :   -0.162667
  26 S :    0.425227
  27 C :   -0.052858
  28 C :    0.028548
  29 C :   -0.051682
  30 C :    0.068040
  31 C :   -0.131472
  32 C :   -0.143386
  33 C :    0.090933
  34 N :   -0.196188
  35 O :   -0.067588
  36 C :    0.082657
  37 C :    0.028567
  38 N :   -0.188183
  39 C :    0.092877
  40 O :   -0.066537
  41 C :    0.085338
  42 C :   -0.177826
  43 C :    0.008988
  44 C :   -0.016489
  45 C :   -0.056723
  46 C :   -0.141157
  47 S :    0.484756
  48 C :   -0.196873
  49 C :   -0.039655
  50 C :   -0.066666
  51 C :   -0.167439
  52 S :    0.418592
  53 C :   -0.049250
  54 C :   -0.000168
  55 C :   -0.070723
  56 C :   -0.150739
  57 C :   -0.040186
  58 C :   -0.063736
  59 C :   -0.204890
  60 S :    0.462191
  61 C :   -0.171212
  62 C :   -0.090523
  63 C :    0.090131
  64 C :   -0.114686
  65 C :   -0.016775
  66 N :   -0.040968
  67 C :   -0.006774
  68 N :   -0.047319
  69 C :   -0.033920
  70 C :   -0.186921
  71 S :    0.466631
  72 H :    0.028046
  73 H :    0.043127
  74 H :    0.035325
  75 H :    0.029433
  76 H :    0.038587
  77 H :    0.033022
  78 H :    0.024674
  79 H :    0.029854
  80 H :    0.029303
  81 H :    0.021763
  82 H :    0.020975
  83 H :    0.021000
  84 H :    0.022792
  85 H :    0.022277
  86 H :    0.022363
  87 H :    0.041499
  88 H :    0.033610
  89 H :    0.027402
  90 H :    0.022264
  91 H :    0.031000
  92 H :    0.021848
  93 H :    0.036218
  94 H :    0.041165
  95 H :    0.024767

  Mayer bond orders larger than 0.100000
B(  0-C ,  1-C ) :   1.5503 B(  0-C ,  4-S ) :   1.1475 B(  0-C , 72-H ) :   0.9642
B(  1-C ,  2-C ) :   1.2761 B(  1-C , 73-H ) :   0.9957 B(  2-C ,  3-C ) :   1.4496
B(  2-C ,  7-C ) :   1.0205 B(  3-C ,  4-S ) :   1.1351 B(  3-C ,  5-C ) :   1.1887
B(  5-C ,  6-C ) :   1.4602 B(  5-C , 15-S ) :   1.1251 B(  6-C ,  7-C ) :   0.9926
B(  6-C , 13-C ) :   1.3041 B(  7-C ,  8-C ) :   1.7081 B(  8-C ,  9-C ) :   1.1329
B(  8-C , 11-C ) :   1.1329 B(  9-C , 10-N ) :   2.9887 B( 11-C , 12-N ) :   3.0020
B( 13-C , 14-C ) :   1.4566 B( 13-C , 74-H ) :   0.9803 B( 14-C , 15-S ) :   1.1071
B( 14-C , 16-C ) :   1.1696 B( 16-C , 17-C ) :   1.5039 B( 16-C , 21-S ) :   1.0654
B( 17-C , 18-C ) :   1.2781 B( 17-C , 75-H ) :   0.9570 B( 18-C , 19-C ) :   1.0569
B( 18-C , 27-C ) :   1.3410 B( 19-C , 20-C ) :   1.6036 B( 19-C , 22-C ) :   1.1720
B( 20-C , 21-S ) :   1.1390 B( 20-C , 76-H ) :   0.9392 B( 22-C , 23-C ) :   1.4569
B( 22-C , 26-S ) :   1.0797 B( 23-C , 24-C ) :   1.2222 B( 23-C , 27-C ) :   1.0676
B( 24-C , 25-C ) :   1.5819 B( 24-C , 77-H ) :   1.0028 B( 25-C , 26-S ) :   1.1569
B( 25-C , 78-H ) :   0.9647 B( 27-C , 28-C ) :   1.1565 B( 28-C , 29-C ) :   1.5109
B( 28-C , 79-H ) :   0.9629 B( 29-C , 30-C ) :   1.2490 B( 29-C , 80-H ) :   0.9745
B( 30-C , 31-C ) :   1.1301 B( 30-C , 34-N ) :   1.3306 B( 31-C , 32-C ) :   1.2751
B( 31-C , 39-C ) :   1.0903 B( 32-C , 33-C ) :   1.0660 B( 32-C , 37-C ) :   1.1718
B( 33-C , 34-N ) :   1.5336 B( 33-C , 35-O ) :   1.2767 B( 35-O , 36-C ) :   0.9298
B( 36-C , 81-H ) :   0.9791 B( 36-C , 82-H ) :   0.9730 B( 36-C , 83-H ) :   0.9729
B( 37-C , 38-N ) :   1.4002 B( 37-C , 42-C ) :   1.1703 B( 38-N , 39-C ) :   1.4889
B( 39-C , 40-O ) :   1.3051 B( 40-O , 41-C ) :   0.9102 B( 41-C , 84-H ) :   0.9795
B( 41-C , 85-H ) :   0.9730 B( 41-C , 86-H ) :   0.9731 B( 42-C , 43-C ) :   1.4811
B( 42-C , 47-S ) :   1.0640 B( 43-C , 44-C ) :   1.1999 B( 43-C , 87-H ) :   0.9755
B( 44-C , 45-C ) :   1.0594 B( 44-C , 53-C ) :   1.3259 B( 45-C , 46-C ) :   1.5849
B( 45-C , 48-C ) :   1.1842 B( 46-C , 47-S ) :   1.1533 B( 46-C , 88-H ) :   0.9406
B( 48-C , 49-C ) :   1.4396 B( 48-C , 52-S ) :   1.0769 B( 49-C , 50-C ) :   1.2050
B( 49-C , 53-C ) :   1.0833 B( 50-C , 51-C ) :   1.5946 B( 50-C , 89-H ) :   1.0007
B( 51-C , 52-S ) :   1.1504 B( 51-C , 90-H ) :   0.9640 B( 53-C , 54-C ) :   1.2114
B( 54-C , 55-C ) :   1.6066 B( 54-C , 91-H ) :   0.9559 B( 55-C , 56-C ) :   1.1381
B( 55-C , 92-H ) :   0.9656 B( 56-C , 57-C ) :   1.4335 B( 56-C , 60-S ) :   1.1143
B( 57-C , 58-C ) :   1.3082 B( 57-C , 93-H ) :   0.9894 B( 58-C , 59-C ) :   1.4497
B( 58-C , 63-C ) :   0.9903 B( 59-C , 60-S ) :   1.1015 B( 59-C , 61-C ) :   1.1995
B( 61-C , 62-C ) :   1.4413 B( 61-C , 71-S ) :   1.1425 B( 62-C , 63-C ) :   1.0316
B( 62-C , 69-C ) :   1.2679 B( 63-C , 64-C ) :   1.6909 B( 64-C , 65-C ) :   1.1354
B( 64-C , 67-C ) :   1.1334 B( 65-C , 66-N ) :   3.0040 B( 67-C , 68-N ) :   2.9913
B( 69-C , 70-C ) :   1.5605 B( 69-C , 94-H ) :   0.9954 B( 70-C , 71-S ) :   1.1313
B( 70-C , 95-H ) :   0.9648

-----------------------------------------------------------------------------
         ABSORPTION SPECTRUM VIA TRANSITION ELECTRIC DIPOLE MOMENTS
-----------------------------------------------------------------------------
State   Energy  Wavelength   fosc         T2         TX        TY        TZ
        (cm-1)    (nm)                  (au**2)     (au)      (au)      (au)
-----------------------------------------------------------------------------
   0    8938.4   1118.8   0.448851445  16.53181   2.89185   0.08973  -2.85674
   1    9988.6   1001.1   0.190949937   6.29349  -1.50452   0.08478   2.00567
   2   12343.3    810.2   1.214450476  32.39107  -2.03557   1.10931   5.19778
   3   15323.8    652.6   0.048982437   1.05232  -0.82108  -0.15166   0.59594
   4   16703.8    598.7   0.037947553   0.74790   0.34295   0.36769   0.70363
   5   17812.4    561.4   0.011159623   0.20625  -0.26907  -0.01725   0.36546
   6   18498.6    540.6   0.005256259   0.09354   0.08113  -0.04479  -0.29147
   7   19208.7    520.6   0.014939109   0.25604   0.00485   0.22912   0.45113
   8   19575.9    510.8   0.002577038   0.04334   0.16828   0.02753  -0.11942
   9   21074.6    474.5   0.039744676   0.62086  -0.42168  -0.36934  -0.55375
  10   21862.9    457.4   0.153613503   2.31311  -1.11882  -0.72770  -0.72925
  11   22657.8    441.3   0.018338665   0.26646   0.47405   0.08639  -0.18512
  12   22830.2    438.0   0.108728593   1.56787  -1.15105  -0.43343   0.23473
  13   24907.0    401.5   0.065714191   0.86859   0.84131   0.38800   0.10117
  14   25615.2    390.4   0.395380906   5.08151   1.89192   1.01579   0.68580
  15   25991.8    384.7   0.642552928   8.13858  -2.67358  -0.95479   0.28094
  16   26559.8    376.5   0.067373964   0.83511  -0.61292  -0.43458  -0.52017
  17   26840.5    372.6   0.000690916   0.00847   0.08338   0.03743  -0.01099
  18   26868.2    372.2   0.064185476   0.78645  -0.82949  -0.30639   0.06728
  19   26923.6    371.4   0.140758505   1.72114   1.17060   0.27162  -0.52636
  20   27395.1    365.0   0.098304623   1.18135  -0.58408  -0.51841  -0.75594
  21   27834.5    359.3   0.029248643   0.34594   0.48980   0.25938   0.19686
  22   28155.0    355.2   0.023338707   0.27290   0.21818  -0.10684  -0.46247
  23   29047.3    344.3   0.038024375   0.43095   0.51476   0.04609  -0.40479
  24   29163.7    342.9   0.104535179   1.18004   0.81153   0.04506  -0.72071
  25   30181.9    331.3   0.021542096   0.23497   0.44747   0.18245  -0.03822
  26   30388.8    329.1   0.281722344   3.05199   1.54955   0.44702  -0.67161
  27   30603.2    326.8   0.058986901   0.63455   0.73813   0.25311  -0.16015
  28   30970.4    322.9   0.038747948   0.41189  -0.05251   0.18741   0.61156
  29   31275.8    319.7   0.586920998   6.17799   0.54055  -0.58093  -2.35549
  30   31694.7    315.5   0.431457954   4.48154  -0.44356  -0.88940  -1.86916
  31   31737.7    315.1   0.173978462   1.80466   0.29508  -0.40409  -1.24671
  32   31823.2    314.2   0.157320329   1.62748  -0.55870  -0.59341  -0.98143
  33   32586.1    306.9   0.153333347   1.54910  -0.55510   0.22039   1.09197
  34   32984.2    303.2   0.028241680   0.28188   0.48104   0.11583  -0.19251
  35   33124.6    301.9   0.173274889   1.72211  -1.18957  -0.27299   0.48220
  36   33534.5    298.2   0.060458977   0.59353   0.69670   0.32812   0.02183
  37   33724.9    296.5   0.109696328   1.07082  -0.93810  -0.33053   0.28555
  38   34118.8    293.1   0.096309386   0.92929  -0.76983  -0.10117   0.57133
  39   34255.3    291.9   0.144562626   1.38933  -0.10191  -0.45297  -1.08340
  40   34504.3    289.8   0.033705899   0.32159   0.53118   0.19810   0.01397
  41   34754.1    287.7   0.105153397   0.99608  -0.92994  -0.35168   0.08725
  42   34914.7    286.4   0.192441522   1.81454   1.24469   0.47587  -0.19703
  43   35095.5    284.9   0.000138028   0.00129   0.01100  -0.03204   0.01212
  44   35623.2    280.7   0.069272504   0.64018  -0.69859  -0.35257  -0.16688
  45   36084.9    277.1   0.363198510   3.31356  -1.69819  -0.58956   0.28658
  46   36292.0    275.5   0.097529212   0.88471  -0.29253  -0.42985  -0.78381
  47   36534.3    273.7   0.040240090   0.36261  -0.56235  -0.20887   0.05236
  48   36776.6    271.9   0.000337476   0.00302   0.02557  -0.04542   0.01746
  49   36860.2    271.3   0.096588229   0.86266  -0.60676  -0.44695  -0.54291
  50   37259.0    268.4   0.066972007   0.59175   0.48501  -0.00899  -0.59702
  51   37492.0    266.7   0.480216282   4.21671  -1.33827  -0.99618  -1.19723
  52   37528.7    266.5   0.000341061   0.00299   0.00312  -0.05457   0.00208
  53   37690.4    265.3   0.019735646   0.17238  -0.38823  -0.12534   0.07714
  54   37832.0    264.3   0.074160830   0.64534  -0.68136  -0.15393   0.39674
  55   38167.0    262.0   0.011499295   0.09919   0.13907  -0.03008  -0.28097
  56   38353.8    260.7   0.045143730   0.38749   0.55941   0.15306  -0.22611
  57   38495.9    259.8   0.086000044   0.73546  -0.02984  -0.31211  -0.79822
  58   38617.9    258.9   0.000047848   0.00041   0.00080   0.01842   0.00825
  59   39097.5    255.8   0.029913608   0.25188  -0.30307   0.04001   0.39803
  60   39349.6    254.1   0.002645189   0.02213  -0.13592  -0.05940  -0.01134
  61   39416.1    253.7   0.168264687   1.40538   0.82978   0.58113   0.61575
  62   39618.6    252.4   0.055642527   0.46236  -0.11366  -0.25838  -0.61861
  63   39858.1    250.9   0.016810631   0.13885   0.02045   0.13525   0.34661
  64   39984.3    250.1   0.017011873   0.14007   0.25642   0.02149  -0.27176
  65   40141.0    249.1   0.033016721   0.27078  -0.39756  -0.25556  -0.21777

FINAL SINGLE POINT ENERGY     -5808.375315818199

DIPOLE MOMENT
-------------
                                X             Y             Z
Electronic contribution:     11.00271       0.38683     -12.75160
Nuclear contribution   :     -9.85902       0.62260      14.21588
                        -----------------------------------------
Total Dipole Moment    :      1.14370       1.00943       1.46428
                        -----------------------------------------
Magnitude (a.u.)       :      2.11450
Magnitude (Debye)      :      5.37463

Rotational constants in cm-1:     0.001240     0.000241     0.000202
Rotational constants in MHz :    37.171397     7.235692     6.058751

                             ****ORCA TERMINATED NORMALLY****
TOTAL RUN TIME: 0 days 0 hours 9 minutes 40 seconds 702 msec
