                         Program Version 4.2.0 -  RELEASE  -
|  1> # ORCA input file
|  2> # SCF done       -164.488827116244          0.000523288690
|  3> ! CAM-B3LYP def2-SVP def2/J RIJCOSX Grid4 TightSCF
|  4> %maxcore 5000
|  5> %tddft
|  6>     Mode sTDDFT
|  7>     Ethresh 5.0
|  8>     maxcore 5000
|  9> end
| 10>
| 11> %pal
| 12>   nprocs 6
| 13>   end
| 14> * xyz 0 1
| 15>    C        0.46076         3.81009         8.90508
| 16>    C       -0.34987         2.95011         8.22822
| 17>    C       -0.58828         3.39839         6.91508
| 18>    C        0.06184         4.60594         6.63642
| 19>    S        0.95540         5.18269         7.97128
| 20>    C       -0.23341         4.98275         5.29424
| 21>    C       -1.06862         4.00751         4.73420
| 22>    C       -1.32544         2.98022         5.73604
| 23>    C       -2.10407         1.86998         5.59286
| 24>    C       -2.79225         1.58247         4.39465
| 25>    N       -3.36222         1.34857         3.42783
| 26>    C       -2.28658         0.94059         6.63875
| 27>    N       -2.43825         0.18004         7.48331
| 28>    C       -1.42162         4.28151         3.41154
| 29>    C       -0.85805         5.45988         2.96077
| 30>    S        0.11695         6.24198         4.19912
| 31>    C       -0.98671         6.08306         1.68914
| 32>    S       -0.58658         7.76607         1.50527
| 33>    C       -1.00445         7.75326        -0.17906
| 34>    C       -1.42877         6.48773        -0.56051
| 35>    C       -1.41227         5.54491         0.48161
| 36>    S       -1.73628         3.82217         0.30860
| 37>    C       -1.80987         3.45702        -1.42653
| 38>    O       -1.64848         2.31705        -1.75535
| 39>    C       -2.21209         4.49269        -2.45419
| 40>    O       -2.67879         4.13768        -3.50089
| 41>    S       -2.01249         6.22608        -2.20009
| 42>    C       -0.91722         8.90485        -1.00347
| 43>    C       -0.46754        10.10600        -0.58194
| 44>    C       -0.37931        11.29355        -1.38000
| 45>    C       -0.89835        11.44538        -2.66243
| 46>    N       -0.78244        12.52735        -3.42529
| 47>    C       -0.15317        13.59971        -2.99322
| 48>    C        0.35051        13.63371        -1.66732
| 49>    C        0.25403        12.45255        -0.85909
| 50>    N        0.78819        12.63043         0.34882
| 51>    S        1.33593        14.13779         0.45019
| 52>    N        0.92256        14.64432        -1.01418
| 53>    C        0.01632        14.72513        -3.88331
| 54>    C       -0.80906        15.13491        -4.89718
| 55>    O       -0.33486        16.24321        -5.47440
| 56>    C        0.80642        16.56863        -4.84730
| 57>    C        1.08618        15.67861        -3.85075
| 58>    C        2.31146        15.59829        -3.02032
| 59>    O        2.98337        14.58508        -2.96177
| 60>    C        2.66779        16.82282        -2.32895
| 61>    C        1.95986        17.99105        -2.17233
| 62>    C        2.63753        18.94585        -1.41055
| 63>    C        3.86670        18.51715        -0.96376
| 64>    S        4.18465        16.89521        -1.49467
| 65>    C        4.83452        19.31418        -0.23183
| 66>    C        5.70207        18.78458         0.67715
| 67>    O        6.62210        19.50712         1.33730
| 68>    C        6.74663        20.83443         1.09697
| 69>    C        7.73965        21.53070         1.78663
| 70>    C        7.89419        22.88205         1.56908
| 71>    C        7.06881        23.55383         0.67003
| 72>    C        6.08833        22.86766        -0.00826
| 73>    C        5.91235        21.49606         0.19538
| 74>    C        4.86442        20.76069        -0.52739
| 75>    O        4.10738        21.31397        -1.30548
| 76>    C        5.75113        17.35068         1.09574
| 77>    H        0.80916         3.72607         9.91494
| 78>    H       -0.75012         2.04757         8.65242
| 79>    H       -2.07569         3.67093         2.81882
| 80>    H       -1.23606         8.75953        -2.02611
| 81>    H       -0.12421        10.21420         0.43981
| 82>    H       -1.44640        10.63889        -3.12889
| 83>    H       -1.73266        14.72758        -5.25562
| 84>    H        1.34622        17.42205        -5.20779
| 85>    H        0.98048        18.14408        -2.58716
| 86>    H        2.24903        19.92335        -1.19494
| 87>    H        8.36918        20.99272         2.47759
| 88>    H        8.66261        23.42290         2.10014
| 89>    H        7.20128        24.61239         0.50825
| 90>    H        5.43206        23.35800        -0.71099
| 91>    H        6.28755        16.75793         0.35639
| 92>    H        4.75150        16.93794         1.19997
| 93>    H        6.28077        17.28093         2.04289
| 94> *
| 95>
| 96>                          ****END OF INPUT****

CARTESIAN COORDINATES (ANGSTROEM)
---------------------------------
  C      0.460760    3.810090    8.905080
  C     -0.349870    2.950110    8.228220
  C     -0.588280    3.398390    6.915080
  C      0.061840    4.605940    6.636420
  S      0.955400    5.182690    7.971280
  C     -0.233410    4.982750    5.294240
  C     -1.068620    4.007510    4.734200
  C     -1.325440    2.980220    5.736040
  C     -2.104070    1.869980    5.592860
  C     -2.792250    1.582470    4.394650
  N     -3.362220    1.348570    3.427830
  C     -2.286580    0.940590    6.638750
  N     -2.438250    0.180040    7.483310
  C     -1.421620    4.281510    3.411540
  C     -0.858050    5.459880    2.960770
  S      0.116950    6.241980    4.199120
  C     -0.986710    6.083060    1.689140
  S     -0.586580    7.766070    1.505270
  C     -1.004450    7.753260   -0.179060
  C     -1.428770    6.487730   -0.560510
  C     -1.412270    5.544910    0.481610
  S     -1.736280    3.822170    0.308600
  C     -1.809870    3.457020   -1.426530
  O     -1.648480    2.317050   -1.755350
  C     -2.212090    4.492690   -2.454190
  O     -2.678790    4.137680   -3.500890
  S     -2.012490    6.226080   -2.200090
  C     -0.917220    8.904850   -1.003470
  C     -0.467540   10.106000   -0.581940
  C     -0.379310   11.293550   -1.380000
  C     -0.898350   11.445380   -2.662430
  N     -0.782440   12.527350   -3.425290
  C     -0.153170   13.599710   -2.993220
  C      0.350510   13.633710   -1.667320
  C      0.254030   12.452550   -0.859090
  N      0.788190   12.630430    0.348820
  S      1.335930   14.137790    0.450190
  N      0.922560   14.644320   -1.014180
  C      0.016320   14.725130   -3.883310
  C     -0.809060   15.134910   -4.897180
  O     -0.334860   16.243210   -5.474400
  C      0.806420   16.568630   -4.847300
  C      1.086180   15.678610   -3.850750
  C      2.311460   15.598290   -3.020320
  O      2.983370   14.585080   -2.961770
  C      2.667790   16.822820   -2.328950
  C      1.959860   17.991050   -2.172330
  C      2.637530   18.945850   -1.410550
  C      3.866700   18.517150   -0.963760
  S      4.184650   16.895210   -1.494670
  C      4.834520   19.314180   -0.231830
  C      5.702070   18.784580    0.677150
  O      6.622100   19.507120    1.337300
  C      6.746630   20.834430    1.096970
  C      7.739650   21.530700    1.786630
  C      7.894190   22.882050    1.569080
  C      7.068810   23.553830    0.670030
  C      6.088330   22.867660   -0.008260
  C      5.912350   21.496060    0.195380
  C      4.864420   20.760690   -0.527390
  O      4.107380   21.313970   -1.305480
  C      5.751130   17.350680    1.095740
  H      0.809160    3.726070    9.914940
  H     -0.750120    2.047570    8.652420
  H     -2.075690    3.670930    2.818820
  H     -1.236060    8.759530   -2.026110
  H     -0.124210   10.214200    0.439810
  H     -1.446400   10.638890   -3.128890
  H     -1.732660   14.727580   -5.255620
  H      1.346220   17.422050   -5.207790
  H      0.980480   18.144080   -2.587160
  H      2.249030   19.923350   -1.194940
  H      8.369180   20.992720    2.477590
  H      8.662610   23.422900    2.100140
  H      7.201280   24.612390    0.508250
  H      5.432060   23.358000   -0.710990
  H      6.287550   16.757930    0.356390
  H      4.751500   16.937940    1.199970
  H      6.280770   17.280930    2.042890

 Total Charge           Charge          ....    0
 Multiplicity           Mult            ....    1
 Number of Electrons    NEL             ....  476
 Basis Dimension        Dim             ....  981

ORBITAL ENERGIES
----------------

  NO   OCC          E(Eh)            E(eV)
   0   2.0000     -89.034008     -2422.7385
   1   2.0000     -88.992520     -2421.6096
   2   2.0000     -88.988569     -2421.5021
   3   2.0000     -88.979424     -2421.2532
   4   2.0000     -88.970614     -2421.0135
   5   2.0000     -88.969175     -2420.9743
   6   2.0000     -88.955693     -2420.6075
   7   2.0000     -19.304554      -525.3036
   8   2.0000     -19.300359      -525.1895
   9   2.0000     -19.243329      -523.6376
  10   2.0000     -19.239721      -523.5394
  11   2.0000     -19.195000      -522.3225
  12   2.0000     -19.191267      -522.2209
  13   2.0000     -14.449116      -393.1804
  14   2.0000     -14.444194      -393.0465
  15   2.0000     -14.428685      -392.6245
  16   2.0000     -14.428292      -392.6138
  17   2.0000     -14.414140      -392.2287
  18   2.0000     -10.405378      -283.1447
  19   2.0000     -10.404882      -283.1312
  20   2.0000     -10.372576      -282.2521
  21   2.0000     -10.363525      -282.0059
  22   2.0000     -10.361298      -281.9453
  23   2.0000     -10.356849      -281.8242
  24   2.0000     -10.356327      -281.8100
  25   2.0000     -10.350587      -281.6538
  26   2.0000     -10.335200      -281.2351
  27   2.0000     -10.334546      -281.2173
  28   2.0000     -10.333605      -281.1917
  29   2.0000     -10.333394      -281.1859
  30   2.0000     -10.331882      -281.1448
  31   2.0000     -10.331565      -281.1362
  32   2.0000     -10.331031      -281.1216
  33   2.0000     -10.330803      -281.1154
  34   2.0000     -10.330439      -281.1055
  35   2.0000     -10.330241      -281.1001
  36   2.0000     -10.328891      -281.0634
  37   2.0000     -10.328364      -281.0491
  38   2.0000     -10.326902      -281.0093
  39   2.0000     -10.326244      -280.9914
  40   2.0000     -10.314572      -280.6738
  41   2.0000     -10.312807      -280.6258
  42   2.0000     -10.306878      -280.4644
  43   2.0000     -10.303360      -280.3687
  44   2.0000     -10.302766      -280.3525
  45   2.0000     -10.300350      -280.2868
  46   2.0000     -10.298177      -280.2276
  47   2.0000     -10.297873      -280.2194
  48   2.0000     -10.297805      -280.2175
  49   2.0000     -10.293293      -280.0948
  50   2.0000     -10.290918      -280.0301
  51   2.0000     -10.290753      -280.0256
  52   2.0000     -10.289992      -280.0049
  53   2.0000     -10.287400      -279.9344
  54   2.0000     -10.286654      -279.9141
  55   2.0000     -10.285790      -279.8906
  56   2.0000     -10.284154      -279.8461
  57   2.0000     -10.281665      -279.7783
  58   2.0000     -10.280482      -279.7461
  59   2.0000     -10.278366      -279.6886
  60   2.0000     -10.277815      -279.6736
  61   2.0000     -10.266520      -279.3662
  62   2.0000      -8.125547      -221.1074
  63   2.0000      -8.087269      -220.0658
  64   2.0000      -8.083655      -219.9674
  65   2.0000      -8.074927      -219.7299
  66   2.0000      -8.067120      -219.5175
  67   2.0000      -8.065424      -219.4713
  68   2.0000      -8.050829      -219.0742
  69   2.0000      -6.096672      -165.8989
  70   2.0000      -6.088923      -165.6880
  71   2.0000      -6.088172      -165.6676
  72   2.0000      -6.056575      -164.8078
  73   2.0000      -6.052900      -164.7078
  74   2.0000      -6.052353      -164.6929
  75   2.0000      -6.049536      -164.6162
  76   2.0000      -6.048461      -164.5870
  77   2.0000      -6.046251      -164.5269
  78   2.0000      -6.044281      -164.4733
  79   2.0000      -6.040329      -164.3657
  80   2.0000      -6.036976      -164.2745
  81   2.0000      -6.036645      -164.2655
  82   2.0000      -6.035369      -164.2308
  83   2.0000      -6.032447      -164.1512
  84   2.0000      -6.030762      -164.1054
  85   2.0000      -6.027967      -164.0293
  86   2.0000      -6.026147      -163.9798
  87   2.0000      -6.020065      -163.8143
  88   2.0000      -6.015765      -163.6973
  89   2.0000      -6.013261      -163.6292
  90   2.0000      -1.220160       -33.2022
  91   2.0000      -1.218774       -33.1645
  92   2.0000      -1.179086       -32.0846
  93   2.0000      -1.147551       -31.2265
  94   2.0000      -1.133643       -30.8480
  95   2.0000      -1.113964       -30.3125
  96   2.0000      -1.111715       -30.2513
  97   2.0000      -1.048242       -28.5241
  98   2.0000      -1.044602       -28.4251
  99   2.0000      -1.025756       -27.9122
 100   2.0000      -1.019434       -27.7402
 101   2.0000      -1.006013       -27.3750
 102   2.0000      -0.994632       -27.0653
 103   2.0000      -0.987700       -26.8767
 104   2.0000      -0.982856       -26.7449
 105   2.0000      -0.967492       -26.3268
 106   2.0000      -0.957516       -26.0553
 107   2.0000      -0.938998       -25.5514
 108   2.0000      -0.930749       -25.3270
 109   2.0000      -0.923586       -25.1320
 110   2.0000      -0.918599       -24.9964
 111   2.0000      -0.913005       -24.8441
 112   2.0000      -0.902365       -24.5546
 113   2.0000      -0.886075       -24.1113
 114   2.0000      -0.877795       -23.8860
 115   2.0000      -0.868680       -23.6380
 116   2.0000      -0.867227       -23.5985
 117   2.0000      -0.857417       -23.3315
 118   2.0000      -0.854468       -23.2513
 119   2.0000      -0.847020       -23.0486
 120   2.0000      -0.837478       -22.7889
 121   2.0000      -0.832061       -22.6415
 122   2.0000      -0.823392       -22.4056
 123   2.0000      -0.823303       -22.4032
 124   2.0000      -0.809406       -22.0251
 125   2.0000      -0.791498       -21.5378
 126   2.0000      -0.776661       -21.1340
 127   2.0000      -0.767781       -20.8924
 128   2.0000      -0.758324       -20.6350
 129   2.0000      -0.750755       -20.4291
 130   2.0000      -0.741479       -20.1767
 131   2.0000      -0.731465       -19.9042
 132   2.0000      -0.727937       -19.8082
 133   2.0000      -0.720143       -19.5961
 134   2.0000      -0.714132       -19.4325
 135   2.0000      -0.702581       -19.1182
 136   2.0000      -0.692172       -18.8350
 137   2.0000      -0.687875       -18.7180
 138   2.0000      -0.678990       -18.4763
 139   2.0000      -0.673246       -18.3200
 140   2.0000      -0.668403       -18.1882
 141   2.0000      -0.660094       -17.9621
 142   2.0000      -0.650756       -17.7080
 143   2.0000      -0.645867       -17.5749
 144   2.0000      -0.640993       -17.4423
 145   2.0000      -0.638997       -17.3880
 146   2.0000      -0.632152       -17.2017
 147   2.0000      -0.626640       -17.0517
 148   2.0000      -0.619549       -16.8588
 149   2.0000      -0.615090       -16.7375
 150   2.0000      -0.611503       -16.6398
 151   2.0000      -0.609383       -16.5822
 152   2.0000      -0.599775       -16.3207
 153   2.0000      -0.596376       -16.2282
 154   2.0000      -0.585136       -15.9224
 155   2.0000      -0.583989       -15.8911
 156   2.0000      -0.578892       -15.7525
 157   2.0000      -0.572630       -15.5821
 158   2.0000      -0.565664       -15.3925
 159   2.0000      -0.561199       -15.2710
 160   2.0000      -0.558764       -15.2047
 161   2.0000      -0.557071       -15.1587
 162   2.0000      -0.554016       -15.0755
 163   2.0000      -0.552047       -15.0220
 164   2.0000      -0.547342       -14.8939
 165   2.0000      -0.546150       -14.8615
 166   2.0000      -0.542266       -14.7558
 167   2.0000      -0.530348       -14.4315
 168   2.0000      -0.527583       -14.3563
 169   2.0000      -0.525350       -14.2955
 170   2.0000      -0.523040       -14.2326
 171   2.0000      -0.521834       -14.1998
 172   2.0000      -0.519050       -14.1241
 173   2.0000      -0.516047       -14.0423
 174   2.0000      -0.513258       -13.9665
 175   2.0000      -0.510586       -13.8938
 176   2.0000      -0.509903       -13.8752
 177   2.0000      -0.508917       -13.8483
 178   2.0000      -0.503862       -13.7108
 179   2.0000      -0.501465       -13.6455
 180   2.0000      -0.498166       -13.5558
 181   2.0000      -0.496432       -13.5086
 182   2.0000      -0.493197       -13.4206
 183   2.0000      -0.492698       -13.4070
 184   2.0000      -0.490461       -13.3461
 185   2.0000      -0.486633       -13.2420
 186   2.0000      -0.485230       -13.2038
 187   2.0000      -0.483696       -13.1621
 188   2.0000      -0.481100       -13.0914
 189   2.0000      -0.480020       -13.0620
 190   2.0000      -0.476704       -12.9718
 191   2.0000      -0.474949       -12.9240
 192   2.0000      -0.468873       -12.7587
 193   2.0000      -0.466673       -12.6988
 194   2.0000      -0.463944       -12.6246
 195   2.0000      -0.459589       -12.5060
 196   2.0000      -0.459419       -12.5014
 197   2.0000      -0.458763       -12.4836
 198   2.0000      -0.455867       -12.4048
 199   2.0000      -0.451963       -12.2985
 200   2.0000      -0.448101       -12.1935
 201   2.0000      -0.445974       -12.1356
 202   2.0000      -0.442654       -12.0452
 203   2.0000      -0.440488       -11.9863
 204   2.0000      -0.438816       -11.9408
 205   2.0000      -0.438402       -11.9295
 206   2.0000      -0.436689       -11.8829
 207   2.0000      -0.433413       -11.7938
 208   2.0000      -0.427630       -11.6364
 209   2.0000      -0.426086       -11.5944
 210   2.0000      -0.423862       -11.5339
 211   2.0000      -0.420164       -11.4332
 212   2.0000      -0.416126       -11.3234
 213   2.0000      -0.410485       -11.1699
 214   2.0000      -0.406811       -11.0699
 215   2.0000      -0.398332       -10.8392
 216   2.0000      -0.391801       -10.6614
 217   2.0000      -0.378362       -10.2957
 218   2.0000      -0.372759       -10.1433
 219   2.0000      -0.367729       -10.0064
 220   2.0000      -0.364420        -9.9164
 221   2.0000      -0.358198        -9.7471
 222   2.0000      -0.352953        -9.6043
 223   2.0000      -0.348100        -9.4723
 224   2.0000      -0.341104        -9.2819
 225   2.0000      -0.338740        -9.2176
 226   2.0000      -0.336302        -9.1512
 227   2.0000      -0.330912        -9.0046
 228   2.0000      -0.328932        -8.9507
 229   2.0000      -0.325723        -8.8634
 230   2.0000      -0.321504        -8.7486
 231   2.0000      -0.320580        -8.7234
 232   2.0000      -0.316366        -8.6088
 233   2.0000      -0.310287        -8.4433
 234   2.0000      -0.305330        -8.3085
 235   2.0000      -0.283823        -7.7232
 236   2.0000      -0.279107        -7.5949
 237   2.0000      -0.247713        -6.7406
 238   0.0000      -0.103214        -2.8086
 239   0.0000      -0.082598        -2.2476
 240   0.0000      -0.056430        -1.5355
 241   0.0000      -0.044076        -1.1994
 242   0.0000      -0.036013        -0.9800

MULLIKEN ATOMIC CHARGES
-----------------------
   0 C :   -0.081423
   1 C :    0.038644
   2 C :   -0.030143
   3 C :   -0.119773
   4 S :    0.181355
   5 C :   -0.097165
   6 C :    0.000635
   7 C :    0.299317
   8 C :   -0.295690
   9 C :   -0.186002
  10 N :    0.175044
  11 C :   -0.188509
  12 N :    0.173907
  13 C :   -0.047602
  14 C :   -0.087175
  15 S :    0.185256
  16 C :   -0.094762
  17 S :    0.145227
  18 C :   -0.085407
  19 C :   -0.045060
  20 C :   -0.018315
  21 S :    0.076831
  22 C :    0.082361
  23 O :   -0.117560
  24 C :    0.086741
  25 O :   -0.133880
  26 S :    0.079535
  27 C :    0.008054
  28 C :   -0.015460
  29 C :    0.026971
  30 C :   -0.032318
  31 N :   -0.029977
  32 C :   -0.054590
  33 C :    0.037183
  34 C :    0.041397
  35 N :   -0.288111
  36 S :    0.526967
  37 N :   -0.255457
  38 C :    0.051198
  39 C :    0.080150
  40 O :   -0.163954
  41 C :    0.067843
  42 C :   -0.044435
  43 C :    0.196474
  44 O :   -0.187265
  45 C :   -0.159511
  46 C :    0.041240
  47 C :    0.041946
  48 C :   -0.144225
  49 S :    0.132198
  50 C :    0.020892
  51 C :   -0.061630
  52 O :   -0.200533
  53 C :    0.176115
  54 C :   -0.028804
  55 C :    0.038112
  56 C :    0.037475
  57 C :   -0.008059
  58 C :   -0.056664
  59 C :    0.160694
  60 O :   -0.188664
  61 C :    0.099241
  62 H :    0.036883
  63 H :    0.012719
  64 H :    0.028215
  65 H :    0.011844
  66 H :    0.003538
  67 H :   -0.000108
  68 H :    0.014282
  69 H :    0.018510
  70 H :   -0.007247
  71 H :   -0.001221
  72 H :   -0.014817
  73 H :   -0.001281
  74 H :   -0.006000
  75 H :    0.001123
  76 H :    0.061808
  77 H :    0.047333
  78 H :    0.033533
Sum of atomic charges:   -0.0000000

LOEWDIN ATOMIC CHARGES
----------------------
   0 C :   -0.176712
   1 C :   -0.033676
   2 C :   -0.074416
   3 C :   -0.186179
   4 S :    0.477858
   5 C :   -0.177624
   6 C :   -0.070028
   7 C :    0.081801
   8 C :   -0.100071
   9 C :   -0.017996
  10 N :   -0.028414
  11 C :   -0.016562
  12 N :   -0.031772
  13 C :   -0.033729
  14 C :   -0.189186
  15 S :    0.469468
  16 C :   -0.200771
  17 S :    0.451015
  18 C :   -0.181320
  19 C :   -0.216938
  20 C :   -0.215570
  21 S :    0.393187
  22 C :   -0.106435
  23 O :   -0.090031
  24 C :   -0.112464
  25 O :   -0.103843
  26 S :    0.387090
  27 C :   -0.040760
  28 C :   -0.007819
  29 C :   -0.059327
  30 C :    0.026529
  31 N :   -0.065063
  32 C :    0.028980
  33 C :   -0.060326
  34 C :   -0.034030
  35 N :   -0.292965
  36 S :    0.662358
  37 N :   -0.255754
  38 C :   -0.067807
  39 C :    0.068353
  40 O :    0.038486
  41 C :    0.044963
  42 C :   -0.084443
  43 C :    0.057424
  44 O :   -0.173308
  45 C :   -0.220819
  46 C :   -0.028249
  47 C :   -0.046699
  48 C :   -0.153172
  49 S :    0.469305
  50 C :   -0.134647
  51 C :    0.088447
  52 O :    0.001513
  53 C :    0.061946
  54 C :   -0.038856
  55 C :    0.001156
  56 C :   -0.029013
  57 C :    0.022739
  58 C :   -0.085638
  59 C :    0.076657
  60 O :   -0.176012
  61 C :   -0.062368
  62 H :    0.028027
  63 H :    0.042900
  64 H :    0.029764
  65 H :    0.028528
  66 H :    0.028555
  67 H :    0.023462
  68 H :    0.029536
  69 H :    0.027698
  70 H :    0.032435
  71 H :    0.033159
  72 H :    0.036053
  73 H :    0.034144
  74 H :    0.032035
  75 H :    0.039011
  76 H :    0.045368
  77 H :    0.039297
  78 H :    0.041568

  Mayer bond orders larger than 0.100000
B(  0-C ,  1-C ) :   1.5472 B(  0-C ,  4-S ) :   1.1520 B(  0-C , 62-H ) :   0.9641
B(  1-C ,  2-C ) :   1.2784 B(  1-C , 63-H ) :   0.9962 B(  2-C ,  3-C ) :   1.4601
B(  2-C ,  7-C ) :   1.0132 B(  3-C ,  4-S ) :   1.1349 B(  3-C ,  5-C ) :   1.1826
B(  5-C ,  6-C ) :   1.4592 B(  5-C , 15-S ) :   1.1264 B(  6-C ,  7-C ) :   0.9943
B(  6-C , 13-C ) :   1.3018 B(  7-C ,  8-C ) :   1.7142 B(  8-C ,  9-C ) :   1.1332
B(  8-C , 11-C ) :   1.1293 B(  9-C , 10-N ) :   2.9854 B( 11-C , 12-N ) :   3.0021
B( 13-C , 14-C ) :   1.4775 B( 13-C , 64-H ) :   0.9759 B( 14-C , 15-S ) :   1.0972
B( 14-C , 16-C ) :   1.1284 B( 16-C , 17-S ) :   1.1220 B( 16-C , 18-C ) :   0.1170
B( 16-C , 20-C ) :   1.5909 B( 17-S , 18-C ) :   1.1077 B( 18-C , 19-C ) :   1.5564
B( 18-C , 27-C ) :   1.1611 B( 19-C , 20-C ) :   1.2781 B( 19-C , 26-S ) :   0.9721
B( 20-C , 21-S ) :   0.9715 B( 21-S , 22-C ) :   1.0401 B( 21-S , 23-O ) :   0.1297
B( 22-C , 23-O ) :   2.1762 B( 22-C , 24-C ) :   0.7685 B( 24-C , 25-O ) :   2.1532
B( 24-C , 26-S ) :   1.0510 B( 25-O , 26-S ) :   0.1381 B( 27-C , 28-C ) :   1.6550
B( 27-C , 65-H ) :   0.9577 B( 28-C , 29-C ) :   1.1109 B( 28-C , 66-H ) :   0.9808
B( 29-C , 30-C ) :   1.4262 B( 29-C , 32-C ) :   0.1104 B( 29-C , 34-C ) :   1.1811
B( 30-C , 31-N ) :   1.4318 B( 30-C , 67-H ) :   0.9782 B( 31-N , 32-C ) :   1.7147
B( 32-C , 33-C ) :   1.1580 B( 32-C , 38-C ) :   1.0193 B( 33-C , 34-C ) :   1.1866
B( 33-C , 37-N ) :   1.5226 B( 34-C , 35-N ) :   1.5312 B( 35-N , 36-S ) :   1.2679
B( 35-N , 37-N ) :   0.1519 B( 36-S , 37-N ) :   1.2878 B( 38-C , 39-C ) :   1.5056
B( 38-C , 42-C ) :   1.2879 B( 39-C , 40-O ) :   1.1735 B( 39-C , 68-H ) :   1.0088
B( 40-O , 41-C ) :   1.1564 B( 41-C , 42-C ) :   1.5509 B( 41-C , 69-H ) :   1.0084
B( 42-C , 43-C ) :   0.9019 B( 43-C , 44-O ) :   2.2369 B( 43-C , 45-C ) :   0.9839
B( 45-C , 46-C ) :   1.5159 B( 45-C , 48-C ) :   0.1170 B( 45-C , 49-S ) :   1.1140
B( 46-C , 47-C ) :   1.2544 B( 46-C , 70-H ) :   0.9850 B( 47-C , 48-C ) :   1.5436
B( 47-C , 71-H ) :   0.9953 B( 48-C , 49-S ) :   1.1486 B( 48-C , 50-C ) :   1.0050
B( 50-C , 51-C ) :   1.5541 B( 50-C , 59-C ) :   1.0112 B( 51-C , 52-O ) :   1.1515
B( 51-C , 61-C ) :   1.1128 B( 52-O , 53-C ) :   1.0802 B( 53-C , 54-C ) :   1.3510
B( 53-C , 58-C ) :   1.3340 B( 54-C , 55-C ) :   1.4149 B( 54-C , 72-H ) :   0.9952
B( 55-C , 56-C ) :   1.3258 B( 55-C , 73-H ) :   0.9907 B( 56-C , 57-C ) :   1.4020
B( 56-C , 74-H ) :   0.9938 B( 57-C , 58-C ) :   1.3384 B( 57-C , 75-H ) :   0.9977
B( 58-C , 59-C ) :   0.9844 B( 59-C , 60-O ) :   2.1651 B( 61-C , 76-H ) :   0.9364
B( 61-C , 77-H ) :   0.9414 B( 61-C , 78-H ) :   0.9341

-----------------------------------------------------------------------------
         ABSORPTION SPECTRUM VIA TRANSITION ELECTRIC DIPOLE MOMENTS
-----------------------------------------------------------------------------
State   Energy  Wavelength   fosc         T2         TX        TY        TZ
        (cm-1)    (nm)                  (au**2)     (au)      (au)      (au)
-----------------------------------------------------------------------------
   0   14056.0    711.4   0.113780426   2.66491   0.12641  -0.84477   1.39114
   1   20578.3    485.9   1.095759914  17.52995   0.42367   3.50337  -2.25319
   2   24187.7    413.4   0.014211866   0.19343   0.01852  -0.26394   0.35132
   3   24965.7    400.6   0.021808752   0.28758  -0.00352  -0.13379   0.51930
   4   27353.8    365.6   0.002230154   0.02684   0.04652  -0.02783   0.15460
   5   27548.2    363.0   0.273605618   3.26970   0.02617   0.90631  -1.56448
   6   28368.3    352.5   0.134247575   1.55793  -0.15383  -1.19645   0.32059
   7   29093.4    343.7   0.180594464   2.04355   0.04770   0.93565  -1.07974
   8   29818.8    335.4   0.013393220   0.14787   0.05429   0.11989   0.36131
   9   30757.3    325.1   0.035843463   0.38365   0.18052   0.59149  -0.03467
  10   31569.6    316.8   0.033260023   0.34684  -0.04754  -0.41139  -0.41873
  11   31776.4    314.7   0.340652698   3.52925  -1.23255  -1.40402  -0.19693
  12   32016.8    312.3   0.335608678   3.45089  -0.94211  -1.39775  -0.78077
  13   32124.8    311.3   0.002982572   0.03057  -0.06464  -0.10808  -0.12126
  14   33064.3    302.4   0.100962886   1.00526  -0.43827  -0.69295  -0.57707
  15   33337.8    300.0   0.141580081   1.39811   0.03818  -0.43764   1.09778
  16   33592.5    297.7   0.030918496   0.30301  -0.02992  -0.37700  -0.39998
  17   33912.0    294.9   0.108505338   1.05335  -0.38862  -0.94989   0.00656
  18   34380.0    290.9   0.802244679   7.68203   1.14207   1.57471   1.97433
  19   34515.8    289.7   0.278935849   2.66049   1.05280   1.10802   0.56956
  20   35428.3    282.3   0.083015809   0.77141   0.29179   0.18902   0.80656
  21   35537.8    281.4   0.002068800   0.01916  -0.07064  -0.07491  -0.09254
  22   35969.2    278.0   0.052837348   0.48360  -0.19813   0.17699  -0.64267
  23   36223.5    276.1   0.104126395   0.94634  -0.33931   0.76150  -0.50132
  24   36598.7    273.2   0.002919234   0.02626  -0.06915   0.09034  -0.11540
  25   37211.6    268.7   0.013301764   0.11768   0.10874  -0.28257   0.16129
  26   37448.0    267.0   0.169175049   1.48725   0.39171   0.77429   0.85690
  27   37581.6    266.1   0.045883210   0.40193  -0.25286  -0.52593  -0.24777
  28   37849.1    264.2   0.004402218   0.03829   0.00685  -0.03868   0.19170
  29   38237.2    261.5   0.002537381   0.02185  -0.12924  -0.03330  -0.06352
  30   38869.3    257.3   0.075615534   0.64044   0.37083   0.29444   0.64516
  31   39223.9    254.9   0.001654974   0.01389   0.07511   0.08828  -0.02135
  32   39533.3    253.0   0.008376778   0.06976   0.05438   0.11073  -0.23353
  33   40061.5    249.6   0.041749511   0.34308  -0.13635  -0.50391  -0.26563
  34   40167.3    249.0   0.024305644   0.19921   0.25836   0.17519   0.31900
  35   40276.8    248.3   0.019338110   0.15806   0.20329   0.27218   0.20653

FINAL SINGLE POINT ENERGY     -5195.419061085412

DIPOLE MOMENT
-------------
                                X             Y             Z
Electronic contribution:    -25.77098     -59.66197       4.73357
Nuclear contribution   :     28.06693      63.68940      -1.72940
                        -----------------------------------------
Total Dipole Moment    :      2.29595       4.02743       3.00417
                        -----------------------------------------
Magnitude (a.u.)       :      5.52418
Magnitude (Debye)      :     14.04136

Rotational constants in cm-1:     0.001617     0.000321     0.000273
Rotational constants in MHz :    48.474623     9.638041     8.182064

                             ****ORCA TERMINATED NORMALLY****
TOTAL RUN TIME: 0 days 0 hours 7 minutes 32 seconds 390 msec
