                         Program Version 4.2.0 -  RELEASE  -
|  1> # ORCA input file
|  2> # SCF done       -187.406150525385          0.000784661949
|  3> ! CAM-B3LYP def2-SVP def2/J RIJCOSX Grid4 TightSCF
|  4> %maxcore 5000
|  5> %tddft
|  6>     Mode sTDDFT
|  7>     Ethresh 5.0
|  8>     maxcore 5000
|  9> end
| 10>
| 11> %pal
| 12>   nprocs 6
| 13>   end
| 14> * xyz 0 1
| 15>    C       -7.83296        16.04458         2.53862
| 16>    C       -7.00344        16.39804         1.52006
| 17>    C       -6.04497        15.39701         1.26511
| 18>    C       -6.18551        14.29377         2.12003
| 19>    S       -7.47814        14.48839         3.22004
| 20>    C       -5.18626        13.33958         1.79639
| 21>    C       -4.41638        13.84220         0.73769
| 22>    C       -4.93400        15.15721         0.37086
| 23>    C       -4.45698        15.98031        -0.61057
| 24>    C       -3.35381        15.62711        -1.41296
| 25>    N       -2.45555        15.34060        -2.06642
| 26>    C       -5.03397        17.23721        -0.88130
| 27>    N       -5.49911        18.26141        -1.10583
| 28>    C       -3.40087        12.97583         0.34040
| 29>    C       -3.38412        11.81003         1.08788
| 30>    S       -4.65814        11.79524         2.30587
| 31>    C       -2.49179        10.70940         0.96398
| 32>    C       -2.55672         9.60120         1.77730
| 33>    C       -1.71037         8.50092         1.69684
| 34>    C       -0.64032         8.44101         0.69943
| 35>    C       -0.38607         9.41592        -0.19961
| 36>    S       -1.28709        10.87277        -0.31133
| 37>    C        0.00995         7.19645         0.92297
| 38>    C       -0.59354         6.51832         1.98396
| 39>    C        0.03442         5.27309         2.22002
| 40>    C        1.07130         5.05849         1.36884
| 41>    S        1.33004         6.33871         0.23937
| 42>    C       -1.67840         7.32976         2.48991
| 43>    C       -2.55076         7.07001         3.56245
| 44>    C       -2.41108         6.02622         4.43450
| 45>    C       -3.20665         5.67214         5.53544
| 46>    C       -4.47849         6.07120         6.01305
| 47>    C       -4.83560         5.41992         7.23254
| 48>    C       -6.06644         5.70479         7.84490
| 49>    C       -6.92390         6.59624         7.25738
| 50>    C       -6.59092         7.21412         6.04329
| 51>    C       -5.39483         6.95886         5.42509
| 52>    C       -3.85877         4.50957         7.69311
| 53>    S       -2.51893         4.47470         6.59054
| 54>    C       -3.84582         3.71537         8.84975
| 55>    C       -2.78363         2.89932         9.11997
| 56>    C       -2.51621         2.09105        10.24019
| 57>    C       -1.29905         1.42633        10.27537
| 58>    C       -0.80035         0.70723        11.34250
| 59>    C       -1.64977         0.38633        12.49126
| 60>    C       -2.89351         0.89176        12.66188
| 61>    S       -3.64807         1.99306        11.57604
| 62>    C       -0.88130        -0.51601        13.28123
| 63>    C        0.36550        -0.72784        12.68839
| 64>    C        1.17428        -1.60147        13.44707
| 65>    C        0.53521        -2.02550        14.56868
| 66>    S       -1.06154        -1.38211        14.75515
| 67>    C        0.46200         0.06431        11.48989
| 68>    C        1.57951         0.19627        10.65238
| 69>    C        1.72650         1.24023         9.76656
| 70>    C        2.68441         1.33759         8.75744
| 71>    C        2.63226         2.32351         7.78485
| 72>    C        3.59979         2.58493         6.74850
| 73>    C        4.76527         1.89530         6.50291
| 74>    C        5.65410         2.20058         5.45482
| 75>    N        6.41552         2.39236         4.61565
| 76>    C        5.23284         0.79085         7.23967
| 77>    N        5.68446        -0.11200         7.78983
| 78>    C        3.14346         3.74949         5.98667
| 79>    C        1.89496         4.17014         6.52253
| 80>    C        1.50972         3.26375         7.61750
| 81>    O        0.43778         3.28645         8.20393
| 82>    C        1.23423         5.26855         6.05787
| 83>    C        1.81299         6.02915         5.01684
| 84>    C        3.04705         5.60050         4.45133
| 85>    C        3.70090         4.44665         4.94904
| 86>    C        3.61146         6.36236         3.40935
| 87>    C        3.00402         7.50691         2.96728
| 88>    C        1.80089         7.93896         3.54190
| 89>    C        1.21262         7.20939         4.53924
| 90>    H       -8.64980        16.60506         2.94701
| 91>    H       -7.07847        17.32640         0.98395
| 92>    H       -2.70021        13.17030        -0.45156
| 93>    H       -3.33226         9.60732         2.53233
| 94>    H        0.41287         9.34886        -0.92078
| 95>    H       -0.24654         4.55197         2.96506
| 96>    H        1.71875         4.20451         1.33087
| 97>    H       -3.34690         7.78330         3.71152
| 98>    H       -1.53637         5.40265         4.31528
| 99>    H       -6.33025         5.21440         8.76917
|100>    H       -7.87269         6.81986         7.72127
|101>    H       -7.29391         7.89615         5.58901
|102>    H       -5.17112         7.42341         4.47932
|103>    H       -4.68720         3.77502         9.52602
|104>    H       -1.97451         2.90484         8.39929
|105>    H       -0.71119         1.50938         9.37558
|106>    H       -3.50448         0.65367        13.51813
|107>    H        2.17092        -1.90342        13.18125
|108>    H        0.90435        -2.69220        15.32331
|109>    H        2.35205        -0.56072        10.71778
|110>    H        1.04110         2.06597         9.84914
|111>    H        3.47325         0.59798         8.72029
|112>    H        0.29146         5.56670         6.49323
|113>    H        4.63964         4.15854         4.50330
|114>    H        4.54195         6.03101         2.97182
|115>    H        3.45053         8.08650         2.17290
|116>    H        1.33866         8.84933         3.18864
|117>    H        0.27988         7.53172         4.97954
|118> *
|119>
|120>                          ****END OF INPUT****

CARTESIAN COORDINATES (ANGSTROEM)
---------------------------------
  C     -7.832960   16.044580    2.538620
  C     -7.003440   16.398040    1.520060
  C     -6.044970   15.397010    1.265110
  C     -6.185510   14.293770    2.120030
  S     -7.478140   14.488390    3.220040
  C     -5.186260   13.339580    1.796390
  C     -4.416380   13.842200    0.737690
  C     -4.934000   15.157210    0.370860
  C     -4.456980   15.980310   -0.610570
  C     -3.353810   15.627110   -1.412960
  N     -2.455550   15.340600   -2.066420
  C     -5.033970   17.237210   -0.881300
  N     -5.499110   18.261410   -1.105830
  C     -3.400870   12.975830    0.340400
  C     -3.384120   11.810030    1.087880
  S     -4.658140   11.795240    2.305870
  C     -2.491790   10.709400    0.963980
  C     -2.556720    9.601200    1.777300
  C     -1.710370    8.500920    1.696840
  C     -0.640320    8.441010    0.699430
  C     -0.386070    9.415920   -0.199610
  S     -1.287090   10.872770   -0.311330
  C      0.009950    7.196450    0.922970
  C     -0.593540    6.518320    1.983960
  C      0.034420    5.273090    2.220020
  C      1.071300    5.058490    1.368840
  S      1.330040    6.338710    0.239370
  C     -1.678400    7.329760    2.489910
  C     -2.550760    7.070010    3.562450
  C     -2.411080    6.026220    4.434500
  C     -3.206650    5.672140    5.535440
  C     -4.478490    6.071200    6.013050
  C     -4.835600    5.419920    7.232540
  C     -6.066440    5.704790    7.844900
  C     -6.923900    6.596240    7.257380
  C     -6.590920    7.214120    6.043290
  C     -5.394830    6.958860    5.425090
  C     -3.858770    4.509570    7.693110
  S     -2.518930    4.474700    6.590540
  C     -3.845820    3.715370    8.849750
  C     -2.783630    2.899320    9.119970
  C     -2.516210    2.091050   10.240190
  C     -1.299050    1.426330   10.275370
  C     -0.800350    0.707230   11.342500
  C     -1.649770    0.386330   12.491260
  C     -2.893510    0.891760   12.661880
  S     -3.648070    1.993060   11.576040
  C     -0.881300   -0.516010   13.281230
  C      0.365500   -0.727840   12.688390
  C      1.174280   -1.601470   13.447070
  C      0.535210   -2.025500   14.568680
  S     -1.061540   -1.382110   14.755150
  C      0.462000    0.064310   11.489890
  C      1.579510    0.196270   10.652380
  C      1.726500    1.240230    9.766560
  C      2.684410    1.337590    8.757440
  C      2.632260    2.323510    7.784850
  C      3.599790    2.584930    6.748500
  C      4.765270    1.895300    6.502910
  C      5.654100    2.200580    5.454820
  N      6.415520    2.392360    4.615650
  C      5.232840    0.790850    7.239670
  N      5.684460   -0.112000    7.789830
  C      3.143460    3.749490    5.986670
  C      1.894960    4.170140    6.522530
  C      1.509720    3.263750    7.617500
  O      0.437780    3.286450    8.203930
  C      1.234230    5.268550    6.057870
  C      1.812990    6.029150    5.016840
  C      3.047050    5.600500    4.451330
  C      3.700900    4.446650    4.949040
  C      3.611460    6.362360    3.409350
  C      3.004020    7.506910    2.967280
  C      1.800890    7.938960    3.541900
  C      1.212620    7.209390    4.539240
  H     -8.649800   16.605060    2.947010
  H     -7.078470   17.326400    0.983950
  H     -2.700210   13.170300   -0.451560
  H     -3.332260    9.607320    2.532330
  H      0.412870    9.348860   -0.920780
  H     -0.246540    4.551970    2.965060
  H      1.718750    4.204510    1.330870
  H     -3.346900    7.783300    3.711520
  H     -1.536370    5.402650    4.315280
  H     -6.330250    5.214400    8.769170
  H     -7.872690    6.819860    7.721270
  H     -7.293910    7.896150    5.589010
  H     -5.171120    7.423410    4.479320
  H     -4.687200    3.775020    9.526020
  H     -1.974510    2.904840    8.399290
  H     -0.711190    1.509380    9.375580
  H     -3.504480    0.653670   13.518130
  H      2.170920   -1.903420   13.181250
  H      0.904350   -2.692200   15.323310
  H      2.352050   -0.560720   10.717780
  H      1.041100    2.065970    9.849140
  H      3.473250    0.597980    8.720290
  H      0.291460    5.566700    6.493230
  H      4.639640    4.158540    4.503300
  H      4.541950    6.031010    2.971820
  H      3.450530    8.086500    2.172900
  H      1.338660    8.849330    3.188640
  H      0.279880    7.531720    4.979540

 Total Charge           Charge          ....    0
 Multiplicity           Mult            ....    1
 Number of Electrons    NEL             ....  554
 Basis Dimension        Dim             .... 1218

ORBITAL ENERGIES
----------------

  NO   OCC          E(Eh)            E(eV)
   0   2.0000     -88.994444     -2421.6619
   1   2.0000     -88.990746     -2421.5613
   2   2.0000     -88.981731     -2421.3160
   3   2.0000     -88.981641     -2421.3136
   4   2.0000     -88.964649     -2420.8512
   5   2.0000     -88.959219     -2420.7034
   6   2.0000     -88.957514     -2420.6570
   7   2.0000     -19.199892      -522.4556
   8   2.0000     -14.432096      -392.7173
   9   2.0000     -14.431317      -392.6961
  10   2.0000     -14.395747      -391.7282
  11   2.0000     -14.393963      -391.6797
  12   2.0000     -10.365923      -282.0711
  13   2.0000     -10.353310      -281.7279
  14   2.0000     -10.349739      -281.6307
  15   2.0000     -10.335319      -281.2383
  16   2.0000     -10.333823      -281.1976
  17   2.0000     -10.332855      -281.1713
  18   2.0000     -10.332836      -281.1708
  19   2.0000     -10.332446      -281.1601
  20   2.0000     -10.331602      -281.1372
  21   2.0000     -10.331510      -281.1347
  22   2.0000     -10.330892      -281.1179
  23   2.0000     -10.327396      -281.0227
  24   2.0000     -10.319543      -280.8090
  25   2.0000     -10.316193      -280.7179
  26   2.0000     -10.314322      -280.6670
  27   2.0000     -10.312874      -280.6276
  28   2.0000     -10.305327      -280.4222
  29   2.0000     -10.305300      -280.4215
  30   2.0000     -10.304850      -280.4092
  31   2.0000     -10.304195      -280.3914
  32   2.0000     -10.303259      -280.3659
  33   2.0000     -10.303259      -280.3659
  34   2.0000     -10.301620      -280.3213
  35   2.0000     -10.300156      -280.2815
  36   2.0000     -10.299882      -280.2740
  37   2.0000     -10.298574      -280.2385
  38   2.0000     -10.297694      -280.2145
  39   2.0000     -10.297558      -280.2108
  40   2.0000     -10.295339      -280.1504
  41   2.0000     -10.295107      -280.1441
  42   2.0000     -10.293531      -280.1012
  43   2.0000     -10.292697      -280.0785
  44   2.0000     -10.292491      -280.0729
  45   2.0000     -10.290368      -280.0151
  46   2.0000     -10.288605      -279.9672
  47   2.0000     -10.288521      -279.9649
  48   2.0000     -10.287509      -279.9373
  49   2.0000     -10.286835      -279.9190
  50   2.0000     -10.286406      -279.9073
  51   2.0000     -10.285871      -279.8928
  52   2.0000     -10.284358      -279.8516
  53   2.0000     -10.282777      -279.8086
  54   2.0000     -10.282613      -279.8041
  55   2.0000     -10.282331      -279.7965
  56   2.0000     -10.281535      -279.7748
  57   2.0000     -10.281245      -279.7669
  58   2.0000     -10.280770      -279.7540
  59   2.0000     -10.280688      -279.7517
  60   2.0000     -10.280579      -279.7488
  61   2.0000     -10.279230      -279.7121
  62   2.0000     -10.278813      -279.7007
  63   2.0000     -10.277338      -279.6606
  64   2.0000     -10.276667      -279.6423
  65   2.0000     -10.276027      -279.6249
  66   2.0000     -10.275823      -279.6193
  67   2.0000     -10.275148      -279.6010
  68   2.0000     -10.273404      -279.5535
  69   2.0000     -10.273061      -279.5442
  70   2.0000     -10.272116      -279.5185
  71   2.0000     -10.272001      -279.5154
  72   2.0000     -10.271973      -279.5146
  73   2.0000     -10.271915      -279.5130
  74   2.0000     -10.259544      -279.1764
  75   2.0000      -8.088502      -220.0993
  76   2.0000      -8.085606      -220.0205
  77   2.0000      -8.076799      -219.7809
  78   2.0000      -8.076723      -219.7788
  79   2.0000      -8.059342      -219.3058
  80   2.0000      -8.054310      -219.1689
  81   2.0000      -8.052944      -219.1317
  82   2.0000      -6.057817      -164.8416
  83   2.0000      -6.054860      -164.7611
  84   2.0000      -6.053722      -164.7302
  85   2.0000      -6.050803      -164.6507
  86   2.0000      -6.050432      -164.6406
  87   2.0000      -6.048251      -164.5813
  88   2.0000      -6.046480      -164.5331
  89   2.0000      -6.046016      -164.5205
  90   2.0000      -6.041854      -164.4072
  91   2.0000      -6.041717      -164.4035
  92   2.0000      -6.039009      -164.3298
  93   2.0000      -6.038558      -164.3175
  94   2.0000      -6.028281      -164.0379
  95   2.0000      -6.024230      -163.9276
  96   2.0000      -6.023754      -163.9147
  97   2.0000      -6.022371      -163.8770
  98   2.0000      -6.022187      -163.8720
  99   2.0000      -6.019505      -163.7990
 100   2.0000      -6.018153      -163.7623
 101   2.0000      -6.016382      -163.7141
 102   2.0000      -6.014968      -163.6756
 103   2.0000      -1.112229       -30.2653
 104   2.0000      -1.045807       -28.4579
 105   2.0000      -1.023450       -27.8495
 106   2.0000      -1.012408       -27.5490
 107   2.0000      -1.008995       -27.4562
 108   2.0000      -1.008357       -27.4388
 109   2.0000      -0.999844       -27.2071
 110   2.0000      -0.998796       -27.1786
 111   2.0000      -0.997869       -27.1534
 112   2.0000      -0.981092       -26.6969
 113   2.0000      -0.975113       -26.5342
 114   2.0000      -0.974795       -26.5255
 115   2.0000      -0.973788       -26.4981
 116   2.0000      -0.957069       -26.0432
 117   2.0000      -0.954449       -25.9719
 118   2.0000      -0.937641       -25.5145
 119   2.0000      -0.934793       -25.4370
 120   2.0000      -0.931461       -25.3463
 121   2.0000      -0.918304       -24.9883
 122   2.0000      -0.913836       -24.8667
 123   2.0000      -0.908527       -24.7223
 124   2.0000      -0.899119       -24.4663
 125   2.0000      -0.891607       -24.2619
 126   2.0000      -0.887976       -24.1630
 127   2.0000      -0.873365       -23.7655
 128   2.0000      -0.870339       -23.6831
 129   2.0000      -0.867469       -23.6050
 130   2.0000      -0.865333       -23.5469
 131   2.0000      -0.854565       -23.2539
 132   2.0000      -0.851288       -23.1647
 133   2.0000      -0.849996       -23.1296
 134   2.0000      -0.839459       -22.8428
 135   2.0000      -0.832159       -22.6442
 136   2.0000      -0.828663       -22.5491
 137   2.0000      -0.824365       -22.4321
 138   2.0000      -0.814141       -22.1539
 139   2.0000      -0.812953       -22.1216
 140   2.0000      -0.801025       -21.7970
 141   2.0000      -0.794285       -21.6136
 142   2.0000      -0.785619       -21.3778
 143   2.0000      -0.780496       -21.2384
 144   2.0000      -0.772749       -21.0276
 145   2.0000      -0.758062       -20.6279
 146   2.0000      -0.743311       -20.2265
 147   2.0000      -0.738106       -20.0849
 148   2.0000      -0.732352       -19.9283
 149   2.0000      -0.725582       -19.7441
 150   2.0000      -0.716823       -19.5058
 151   2.0000      -0.709975       -19.3194
 152   2.0000      -0.705041       -19.1851
 153   2.0000      -0.696712       -18.9585
 154   2.0000      -0.692545       -18.8451
 155   2.0000      -0.689012       -18.7490
 156   2.0000      -0.680151       -18.5079
 157   2.0000      -0.679145       -18.4805
 158   2.0000      -0.675045       -18.3689
 159   2.0000      -0.671978       -18.2854
 160   2.0000      -0.663573       -18.0567
 161   2.0000      -0.656392       -17.8613
 162   2.0000      -0.654627       -17.8133
 163   2.0000      -0.650093       -17.6899
 164   2.0000      -0.640693       -17.4341
 165   2.0000      -0.635684       -17.2978
 166   2.0000      -0.632713       -17.2170
 167   2.0000      -0.626558       -17.0495
 168   2.0000      -0.622803       -16.9473
 169   2.0000      -0.620929       -16.8963
 170   2.0000      -0.619008       -16.8441
 171   2.0000      -0.616070       -16.7641
 172   2.0000      -0.604785       -16.4570
 173   2.0000      -0.603815       -16.4306
 174   2.0000      -0.595230       -16.1970
 175   2.0000      -0.591288       -16.0898
 176   2.0000      -0.583226       -15.8704
 177   2.0000      -0.579852       -15.7786
 178   2.0000      -0.576647       -15.6914
 179   2.0000      -0.571014       -15.5381
 180   2.0000      -0.568837       -15.4789
 181   2.0000      -0.566614       -15.4184
 182   2.0000      -0.558065       -15.1857
 183   2.0000      -0.556537       -15.1441
 184   2.0000      -0.551933       -15.0189
 185   2.0000      -0.548317       -14.9205
 186   2.0000      -0.546843       -14.8804
 187   2.0000      -0.541832       -14.7440
 188   2.0000      -0.540124       -14.6975
 189   2.0000      -0.532923       -14.5016
 190   2.0000      -0.530303       -14.4303
 191   2.0000      -0.528619       -14.3845
 192   2.0000      -0.524218       -14.2647
 193   2.0000      -0.522034       -14.2053
 194   2.0000      -0.519736       -14.1427
 195   2.0000      -0.519432       -14.1344
 196   2.0000      -0.517187       -14.0734
 197   2.0000      -0.515985       -14.0407
 198   2.0000      -0.513270       -13.9668
 199   2.0000      -0.512869       -13.9559
 200   2.0000      -0.507203       -13.8017
 201   2.0000      -0.506358       -13.7787
 202   2.0000      -0.505762       -13.7625
 203   2.0000      -0.502818       -13.6824
 204   2.0000      -0.500138       -13.6094
 205   2.0000      -0.498950       -13.5771
 206   2.0000      -0.496941       -13.5225
 207   2.0000      -0.494494       -13.4559
 208   2.0000      -0.492608       -13.4046
 209   2.0000      -0.491199       -13.3662
 210   2.0000      -0.488590       -13.2952
 211   2.0000      -0.487411       -13.2631
 212   2.0000      -0.478929       -13.0323
 213   2.0000      -0.477435       -12.9917
 214   2.0000      -0.474792       -12.9197
 215   2.0000      -0.472780       -12.8650
 216   2.0000      -0.470529       -12.8037
 217   2.0000      -0.469564       -12.7775
 218   2.0000      -0.466244       -12.6871
 219   2.0000      -0.462954       -12.5976
 220   2.0000      -0.459800       -12.5118
 221   2.0000      -0.457908       -12.4603
 222   2.0000      -0.457439       -12.4476
 223   2.0000      -0.455892       -12.4054
 224   2.0000      -0.452426       -12.3111
 225   2.0000      -0.450734       -12.2651
 226   2.0000      -0.449589       -12.2339
 227   2.0000      -0.446026       -12.1370
 228   2.0000      -0.444406       -12.0929
 229   2.0000      -0.441704       -12.0194
 230   2.0000      -0.441364       -12.0101
 231   2.0000      -0.438311       -11.9270
 232   2.0000      -0.436468       -11.8769
 233   2.0000      -0.435647       -11.8546
 234   2.0000      -0.431901       -11.7526
 235   2.0000      -0.431072       -11.7301
 236   2.0000      -0.430412       -11.7121
 237   2.0000      -0.429583       -11.6895
 238   2.0000      -0.428516       -11.6605
 239   2.0000      -0.426674       -11.6104
 240   2.0000      -0.425295       -11.5729
 241   2.0000      -0.423884       -11.5345
 242   2.0000      -0.421164       -11.4605
 243   2.0000      -0.419631       -11.4188
 244   2.0000      -0.418874       -11.3981
 245   2.0000      -0.417122       -11.3505
 246   2.0000      -0.415216       -11.2986
 247   2.0000      -0.413811       -11.2604
 248   2.0000      -0.411551       -11.1989
 249   2.0000      -0.410112       -11.1597
 250   2.0000      -0.407783       -11.0963
 251   2.0000      -0.404600       -11.0097
 252   2.0000      -0.401463       -10.9244
 253   2.0000      -0.398112       -10.8332
 254   2.0000      -0.394110       -10.7243
 255   2.0000      -0.390191       -10.6176
 256   2.0000      -0.387181       -10.5357
 257   2.0000      -0.371389       -10.1060
 258   2.0000      -0.361229        -9.8295
 259   2.0000      -0.359392        -9.7795
 260   2.0000      -0.355274        -9.6675
 261   2.0000      -0.349669        -9.5150
 262   2.0000      -0.339731        -9.2446
 263   2.0000      -0.331403        -9.0179
 264   2.0000      -0.329288        -8.9604
 265   2.0000      -0.323247        -8.7960
 266   2.0000      -0.322724        -8.7818
 267   2.0000      -0.317100        -8.6287
 268   2.0000      -0.307910        -8.3787
 269   2.0000      -0.298376        -8.1192
 270   2.0000      -0.296571        -8.0701
 271   2.0000      -0.288166        -7.8414
 272   2.0000      -0.280147        -7.6232
 273   2.0000      -0.273141        -7.4325
 274   2.0000      -0.258534        -7.0351
 275   2.0000      -0.235307        -6.4030
 276   2.0000      -0.206557        -5.6207
 277   0.0000      -0.107484        -2.9248
 278   0.0000      -0.098203        -2.6722
 279   0.0000      -0.072497        -1.9727
 280   0.0000      -0.050130        -1.3641
 281   0.0000      -0.040770        -1.1094

MULLIKEN ATOMIC CHARGES
-----------------------
   0 C :   -0.082082
   1 C :    0.042814
   2 C :   -0.036347
   3 C :   -0.114870
   4 S :    0.179661
   5 C :   -0.094870
   6 C :    0.016350
   7 C :    0.296727
   8 C :   -0.293835
   9 C :   -0.185895
  10 N :    0.168365
  11 C :   -0.189557
  12 N :    0.176773
  13 C :   -0.057362
  14 C :   -0.066065
  15 S :    0.160762
  16 C :   -0.016897
  17 C :   -0.098829
  18 C :    0.056876
  19 C :    0.068420
  20 C :   -0.130231
  21 S :    0.131807
  22 C :   -0.115175
  23 C :    0.055528
  24 C :    0.014166
  25 C :   -0.057375
  26 S :    0.121452
  27 C :    0.072500
  28 C :   -0.024632
  29 C :    0.030187
  30 C :   -0.094672
  31 C :    0.117250
  32 C :    0.113556
  33 C :   -0.038693
  34 C :    0.033126
  35 C :    0.022425
  36 C :   -0.037340
  37 C :   -0.117262
  38 S :    0.140212
  39 C :    0.028634
  40 C :   -0.041596
  41 C :   -0.030431
  42 C :   -0.064630
  43 C :    0.076722
  44 C :    0.068798
  45 C :   -0.134322
  46 S :    0.140751
  47 C :   -0.116091
  48 C :    0.073156
  49 C :    0.009844
  50 C :   -0.069648
  51 S :    0.128317
  52 C :    0.063168
  53 C :    0.007564
  54 C :   -0.044023
  55 C :    0.000094
  56 C :   -0.118718
  57 C :    0.336089
  58 C :   -0.370260
  59 C :   -0.184755
  60 N :    0.128287
  61 C :   -0.190584
  62 N :    0.131320
  63 C :    0.049388
  64 C :    0.012014
  65 C :    0.148499
  66 O :   -0.195443
  67 C :   -0.105665
  68 C :    0.093308
  69 C :    0.099962
  70 C :   -0.096261
  71 C :   -0.031734
  72 C :    0.044803
  73 C :    0.059199
  74 C :   -0.015497
  75 H :    0.036708
  76 H :    0.012243
  77 H :    0.021182
  78 H :   -0.010495
  79 H :    0.038950
  80 H :   -0.001531
  81 H :    0.030360
  82 H :   -0.048491
  83 H :   -0.043241
  84 H :   -0.028892
  85 H :   -0.014406
  86 H :   -0.017022
  87 H :   -0.034577
  88 H :   -0.008731
  89 H :    0.032274
  90 H :    0.007211
  91 H :    0.037377
  92 H :   -0.013396
  93 H :    0.029233
  94 H :   -0.003917
  95 H :    0.030323
  96 H :    0.007852
  97 H :   -0.031968
  98 H :   -0.015735
  99 H :   -0.017527
 100 H :   -0.014674
 101 H :   -0.014501
 102 H :   -0.021839
Sum of atomic charges:   -0.0000000

LOEWDIN ATOMIC CHARGES
----------------------
   0 C :   -0.177063
   1 C :   -0.032747
   2 C :   -0.078014
   3 C :   -0.182633
   4 S :    0.474948
   5 C :   -0.180301
   6 C :   -0.067467
   7 C :    0.083300
   8 C :   -0.102119
   9 C :   -0.016105
  10 N :   -0.033823
  11 C :   -0.017179
  12 N :   -0.031578
  13 C :   -0.040587
  14 C :   -0.180166
  15 S :    0.470578
  16 C :   -0.180659
  17 C :   -0.034084
  18 C :   -0.021882
  19 C :   -0.050693
  20 C :   -0.141953
  21 S :    0.460321
  22 C :   -0.200693
  23 C :   -0.035002
  24 C :   -0.060412
  25 C :   -0.155012
  26 S :    0.434611
  27 C :   -0.047778
  28 C :   -0.017238
  29 C :   -0.066224
  30 C :   -0.153011
  31 C :   -0.050321
  32 C :   -0.034333
  33 C :   -0.015974
  34 C :   -0.020841
  35 C :   -0.028544
  36 C :   -0.014460
  37 C :   -0.182089
  38 S :    0.501276
  39 C :   -0.029295
  40 C :   -0.061792
  41 C :   -0.144387
  42 C :   -0.015506
  43 C :    0.014037
  44 C :   -0.046031
  45 C :   -0.144534
  46 S :    0.461988
  47 C :   -0.208460
  48 C :   -0.035344
  49 C :   -0.061577
  50 C :   -0.162659
  51 S :    0.421691
  52 C :   -0.067344
  53 C :    0.044879
  54 C :   -0.060914
  55 C :    0.063332
  56 C :   -0.120053
  57 C :    0.074816
  58 C :   -0.160324
  59 C :   -0.017574
  60 N :   -0.074132
  61 C :   -0.019952
  62 N :   -0.070300
  63 C :   -0.023638
  64 C :   -0.052805
  65 C :    0.087734
  66 O :   -0.181597
  67 C :    0.013969
  68 C :   -0.012778
  69 C :   -0.009744
  70 C :    0.011757
  71 C :   -0.011460
  72 C :   -0.019168
  73 C :   -0.010373
  74 C :   -0.009530
  75 H :    0.027865
  76 H :    0.042923
  77 H :    0.034840
  78 H :    0.024549
  79 H :    0.037756
  80 H :    0.030272
  81 H :    0.026100
  82 H :    0.022739
  83 H :    0.025230
  84 H :    0.027190
  85 H :    0.029455
  86 H :    0.028112
  87 H :    0.024982
  88 H :    0.027736
  89 H :    0.030030
  90 H :    0.043392
  91 H :    0.036313
  92 H :    0.032509
  93 H :    0.024372
  94 H :    0.034341
  95 H :    0.031589
  96 H :    0.039595
  97 H :    0.026272
  98 H :    0.036960
  99 H :    0.031398
 100 H :    0.027192
 101 H :    0.029731
 102 H :    0.029575

  Mayer bond orders larger than 0.100000
B(  0-C ,  1-C ) :   1.5500 B(  0-C ,  4-S ) :   1.1459 B(  0-C , 75-H ) :   0.9644
B(  1-C ,  2-C ) :   1.2768 B(  1-C , 76-H ) :   0.9954 B(  2-C ,  3-C ) :   1.4506
B(  2-C ,  7-C ) :   1.0216 B(  3-C ,  4-S ) :   1.1353 B(  3-C ,  5-C ) :   1.1873
B(  5-C ,  6-C ) :   1.4641 B(  5-C , 15-S ) :   1.1184 B(  6-C ,  7-C ) :   0.9918
B(  6-C , 13-C ) :   1.3028 B(  7-C ,  8-C ) :   1.7087 B(  8-C ,  9-C ) :   1.1330
B(  8-C , 11-C ) :   1.1309 B(  9-C , 10-N ) :   2.9868 B( 11-C , 12-N ) :   3.0017
B( 13-C , 14-C ) :   1.4545 B( 13-C , 77-H ) :   0.9802 B( 14-C , 15-S ) :   1.1058
B( 14-C , 16-C ) :   1.1699 B( 16-C , 17-C ) :   1.5177 B( 16-C , 21-S ) :   1.0567
B( 17-C , 18-C ) :   1.2622 B( 17-C , 78-H ) :   0.9595 B( 18-C , 19-C ) :   1.0504
B( 18-C , 27-C ) :   1.3453 B( 19-C , 20-C ) :   1.6065 B( 19-C , 22-C ) :   1.1704
B( 20-C , 21-S ) :   1.1311 B( 20-C , 79-H ) :   0.9425 B( 22-C , 23-C ) :   1.4565
B( 22-C , 26-S ) :   1.0835 B( 23-C , 24-C ) :   1.2096 B( 23-C , 27-C ) :   1.0634
B( 24-C , 25-C ) :   1.5927 B( 24-C , 80-H ) :   0.9937 B( 25-C , 26-S ) :   1.1526
B( 25-C , 81-H ) :   0.9619 B( 27-C , 28-C ) :   1.2270 B( 28-C , 29-C ) :   1.5589
B( 28-C , 82-H ) :   0.9555 B( 29-C , 30-C ) :   1.2047 B( 29-C , 83-H ) :   0.9447
B( 30-C , 31-C ) :   1.2722 B( 30-C , 38-S ) :   1.1694 B( 31-C , 32-C ) :   1.2323
B( 31-C , 36-C ) :   1.2245 B( 32-C , 33-C ) :   1.2383 B( 32-C , 37-C ) :   1.2563
B( 33-C , 34-C ) :   1.5252 B( 33-C , 84-H ) :   0.9929 B( 34-C , 35-C ) :   1.2355
B( 34-C , 85-H ) :   0.9857 B( 35-C , 36-C ) :   1.5254 B( 35-C , 86-H ) :   0.9850
B( 36-C , 87-H ) :   0.9944 B( 37-C , 38-S ) :   1.1306 B( 37-C , 39-C ) :   1.2593
B( 39-C , 40-C ) :   1.5364 B( 39-C , 88-H ) :   0.9629 B( 40-C , 41-C ) :   1.2238
B( 40-C , 89-H ) :   0.9642 B( 41-C , 42-C ) :   1.4167 B( 41-C , 46-S ) :   1.0676
B( 42-C , 43-C ) :   1.2857 B( 42-C , 90-H ) :   0.9733 B( 43-C , 44-C ) :   1.0797
B( 43-C , 52-C ) :   1.2755 B( 44-C , 45-C ) :   1.5904 B( 44-C , 47-C ) :   1.1636
B( 45-C , 46-S ) :   1.1457 B( 45-C , 91-H ) :   0.9406 B( 47-C , 48-C ) :   1.4494
B( 47-C , 51-S ) :   1.0764 B( 48-C , 49-C ) :   1.2294 B( 48-C , 52-C ) :   1.0777
B( 49-C , 50-C ) :   1.5797 B( 49-C , 92-H ) :   0.9997 B( 50-C , 51-S ) :   1.1583
B( 50-C , 93-H ) :   0.9666 B( 52-C , 53-C ) :   1.2537 B( 53-C , 54-C ) :   1.4243
B( 53-C , 94-H ) :   0.9746 B( 54-C , 55-C ) :   1.2830 B( 54-C , 95-H ) :   0.9782
B( 55-C , 56-C ) :   1.4104 B( 55-C , 96-H ) :   0.9624 B( 56-C , 57-C ) :   1.1074
B( 56-C , 65-C ) :   0.9944 B( 57-C , 58-C ) :   1.5839 B( 57-C , 63-C ) :   0.9730
B( 58-C , 59-C ) :   1.1556 B( 58-C , 61-C ) :   1.1529 B( 59-C , 60-N ) :   2.9542
B( 61-C , 62-N ) :   2.9560 B( 63-C , 64-C ) :   1.2165 B( 63-C , 70-C ) :   1.4594
B( 64-C , 65-C ) :   0.9480 B( 64-C , 67-C ) :   1.4695 B( 65-C , 66-O ) :   2.0861
B( 67-C , 68-C ) :   1.1659 B( 67-C , 97-H ) :   1.0151 B( 68-C , 69-C ) :   1.2652
B( 68-C , 74-C ) :   1.2475 B( 69-C , 70-C ) :   1.1923 B( 69-C , 71-C ) :   1.2430
B( 70-C , 98-H ) :   0.9907 B( 71-C , 72-C ) :   1.4719 B( 71-C , 99-H ) :   0.9994
B( 72-C , 73-C ) :   1.2728 B( 72-C ,100-H ) :   0.9853 B( 73-C , 74-C ) :   1.4749
B( 73-C ,101-H ) :   0.9829 B( 74-C ,102-H ) :   0.9989

-----------------------------------------------------------------------------
         ABSORPTION SPECTRUM VIA TRANSITION ELECTRIC DIPOLE MOMENTS
-----------------------------------------------------------------------------
State   Energy  Wavelength   fosc         T2         TX        TY        TZ
        (cm-1)    (nm)                  (au**2)     (au)      (au)      (au)
-----------------------------------------------------------------------------
   0    8729.1   1145.6   0.587787192  22.16805  -2.56061   3.25754  -2.23601
   1   10040.6    996.0   0.021804424   0.71492  -0.73331  -0.22515  -0.35564
   2   15595.1    641.2   0.002057143   0.04343   0.03572   0.03338   0.20257
   3   15978.6    625.8   1.390770442  28.65441   1.76737   3.29759  -3.82841
   4   16576.3    603.3   0.074570926   1.48101   1.01814  -0.23846  -0.62253
   5   19924.6    501.9   0.134979401   2.23025   0.83567   0.16169  -1.22709
   6   20455.6    488.9   0.009420281   0.15161  -0.16244   0.31535  -0.16056
   7   20558.4    486.4   0.051882669   0.83082   0.36141   0.15848  -0.82164
   8   20917.4    478.1   0.043877716   0.69058  -0.46860  -0.02047   0.68598
   9   21280.9    469.9   0.474360208   7.33829  -0.97387  -1.11426   2.26899
  10   22497.3    444.5   0.069781540   1.02114   0.50505   0.06625  -0.87274
  11   22663.8    441.2   0.082431738   1.19739   0.58648  -0.67981  -0.62554
  12   23644.5    422.9   0.018314771   0.25500  -0.16600   0.28278   0.38404
  13   24880.5    401.9   0.157343924   2.08193   0.73514  -1.21702   0.24567
  14   25269.0    395.7   0.011088627   0.14447   0.36276  -0.00091  -0.11344
  15   25617.2    390.4   0.134714429   1.73124  -1.13553   0.62122   0.23642
  16   25838.1    387.0   0.039658781   0.50531  -0.32435   0.56760  -0.27916
  17   26065.6    383.6   0.002360414   0.02981   0.04275  -0.11398   0.12245
  18   26684.7    374.7   0.000232100   0.00286  -0.00711   0.03004   0.04371
  19   26880.7    372.0   0.150700274   1.84565   0.45439  -1.12699   0.60752
  20   27105.0    368.9   0.096259889   1.16915   0.92452  -0.54285  -0.14050
  21   28139.5    355.4   0.022037229   0.25782   0.46176  -0.12891  -0.16728
  22   28556.7    350.2   0.098835914   1.13942  -0.77401   0.69220  -0.24738
  23   28873.8    346.3   0.014431310   0.16454   0.10860  -0.09485  -0.37915
  24   29313.5    341.1   0.007205189   0.08092   0.09895  -0.04364  -0.26310
  25   29484.9    339.2   0.127081719   1.41893   0.81602  -0.86773  -0.00844
  26   29970.3    333.7   0.395035890   4.33932  -0.81878   1.58098  -1.08140
  27   30357.8    329.4   0.189816755   2.05845  -0.16444   1.18243  -0.79578
  28   30886.2    323.8   0.155651255   1.65907   0.65503  -1.07214   0.28378
  29   31121.9    321.3   0.051632899   0.54618   0.10502   0.29965  -0.66736
  30   31273.8    319.8   0.457524706   4.81626   0.52311   1.51787  -1.49622
  31   31422.2    318.2   0.177104279   1.85553   0.88595   0.09940  -1.02993
  32   31861.8    313.9   0.227087403   2.34638  -1.38027   0.60280   0.27903
  33   31998.2    312.5   0.023544580   0.24224  -0.14122  -0.20065   0.42665
  34   32253.5    310.0   0.039929628   0.40756  -0.30166   0.07219   0.55799
  35   32392.5    308.7   0.035927290   0.36514  -0.50110   0.13743   0.30847
  36   32945.5    303.5   0.151755973   1.51644  -0.37450   0.98590  -0.63577
  37   33228.2    300.9   0.095729604   0.94845  -0.26779   0.77065  -0.53183
  38   33370.2    299.7   0.022887781   0.22580  -0.07368  -0.32101   0.34253
  39   33471.5    298.8   0.157432821   1.54844  -1.10014   0.04858   0.57946
  40   33599.2    297.6   0.268341608   2.62927   0.64941  -1.41506   0.45292
  41   33657.9    297.1   0.153836840   1.50470  -0.80864   0.90384  -0.18402
  42   33913.1    294.9   0.111457468   1.08198   0.15876   0.41898  -0.93874
  43   34533.8    289.6   0.010389133   0.09904   0.15546  -0.24424  -0.12336
  44   34695.1    288.2   0.581304510   5.51583  -1.21699   1.97822  -0.34843
  45   34986.4    285.8   0.043453382   0.40888  -0.09200   0.27831  -0.56830
  46   35022.9    285.5   0.143062527   1.34477  -0.97936  -0.13397   0.60637
  47   35044.9    285.3   0.012233840   0.11492  -0.19016   0.10226  -0.26136
  48   35545.5    281.3   0.073983846   0.68522   0.23602  -0.77419   0.17363
  49   35847.5    279.0   0.208694567   1.91658   0.50098  -1.08470   0.69930
  50   35982.3    277.9   0.302115449   2.76414   1.26923  -1.02829   0.30951
  51   36278.3    275.6   0.037864462   0.34361  -0.46913   0.35089  -0.02004
  52   36385.2    274.8   0.270241490   2.44514   1.30842  -0.71093  -0.47724
  53   36507.4    273.9   0.000214643   0.00194  -0.01839  -0.01174   0.03820
  54   36574.6    273.4   0.002097347   0.01888  -0.07877   0.05113   0.10029
  55   36940.9    270.7   0.010711700   0.09546  -0.15258   0.11975   0.24050
  56   37123.5    269.4   0.124254203   1.10189  -0.89941   0.18678   0.50800
  57   37383.0    267.5   0.066138268   0.58244  -0.08632  -0.70848   0.27027
  58   37704.5    265.2   0.074146479   0.64740  -0.24838   0.62321  -0.44420
  59   37744.0    264.9   0.043017691   0.37521  -0.21337   0.48424  -0.30854
  60   37914.2    263.8   0.140377687   1.21891  -0.62415   0.90149  -0.12906
  61   38077.5    262.6   0.024796834   0.21439  -0.37312   0.20993  -0.17636
  62   38127.7    262.3   0.034623931   0.29896   0.46756  -0.22169  -0.17664
  63   38432.7    260.2   0.023769197   0.20361  -0.36311   0.21293   0.16252
  64   38523.9    259.6   0.005165318   0.04414   0.06311  -0.18387   0.07968
  65   38546.5    259.4   0.032309902   0.27595  -0.39272   0.34288  -0.06441
  66   38583.8    259.2   0.040293006   0.34380   0.36169  -0.46018  -0.03483
  67   38868.3    257.3   0.050057330   0.42398   0.57687  -0.28466   0.10086
  68   39169.1    255.3   0.039969921   0.33594  -0.45079   0.05101   0.36074
  69   39204.9    255.1   0.178787405   1.50132  -0.79260   0.83066  -0.42792
  70   39396.6    253.8   0.115264253   0.96319  -0.63556  -0.11326   0.73920
  71   39669.0    252.1   0.030742687   0.25513   0.16654  -0.26925   0.39358
  72   40103.3    249.4   0.079317894   0.65113   0.15733  -0.46160   0.64288
  73   40249.3    248.5   0.033970869   0.27786   0.38716  -0.02744  -0.35667

FINAL SINGLE POINT ENERGY     -5494.635756848312

DIPOLE MOMENT
-------------
                                X             Y             Z
Electronic contribution:     -6.17314      20.79597     -14.68937
Nuclear contribution   :      1.66966     -19.81150      16.35296
                        -----------------------------------------
Total Dipole Moment    :     -4.50348       0.98447       1.66360
                        -----------------------------------------
Magnitude (a.u.)       :      4.90082
Magnitude (Debye)      :     12.45690

Rotational constants in cm-1:     0.001263     0.000321     0.000265
Rotational constants in MHz :    37.864068     9.626998     7.947028

                             ****ORCA TERMINATED NORMALLY****
TOTAL RUN TIME: 0 days 0 hours 13 minutes 30 seconds 485 msec
