                         Program Version 4.2.0 -  RELEASE  -
|  1> # ORCA input file
|  2> # SCF done       -180.335218967451          0.000343042002
|  3> ! CAM-B3LYP def2-SVP def2/J RIJCOSX Grid4 TightSCF
|  4> %maxcore 5000
|  5> %tddft
|  6>     Mode sTDDFT
|  7>     Ethresh 5.0
|  8>     maxcore 5000
|  9> end
| 10>
| 11> %pal
| 12>   nprocs 6
| 13>   end
| 14> * xyz 0 1
| 15>    C       -0.47348        -3.94728         1.49292
| 16>    C        0.21806        -3.57296         0.38207
| 17>    C        0.15243        -2.18006         0.18196
| 18>    C       -0.60261        -1.53420         1.16926
| 19>    S       -1.22230        -2.62386         2.32733
| 20>    C       -0.61718        -0.13903         0.89053
| 21>    C        0.12913         0.08943        -0.27246
| 22>    C        0.63893        -1.18929        -0.75699
| 23>    C        1.40946        -1.39841        -1.86396
| 24>    C        1.81909        -0.34338        -2.70498
| 25>    N        2.15451         0.51015        -3.39386
| 26>    C        1.84691        -2.68427        -2.24343
| 27>    N        2.20533        -3.72698        -2.55935
| 28>    C        0.17323         1.43538        -0.63664
| 29>    C       -0.53823         2.23468         0.23977
| 30>    S       -1.26749         1.29885         1.54126
| 31>    C       -0.71755         3.64841         0.18788
| 32>    C       -1.49073         4.32488         1.09809
| 33>    C       -1.70944         5.70202         1.10174
| 34>    C       -1.19022         6.54236         0.01192
| 35>    C       -0.38993         6.09033        -0.97730
| 36>    S        0.12947         4.46152        -1.12392
| 37>    C       -1.71608         7.84119         0.25352
| 38>    C       -2.50045         7.82041         1.40695
| 39>    C       -3.04892         9.08814         1.70114
| 40>    C       -2.67783        10.01709         0.78188
| 41>    S       -1.65009         9.39955        -0.46886
| 42>    C       -2.48342         6.49490         1.96850
| 43>    C       -3.14831         6.14487         3.17251
| 44>    C       -2.83915         5.07796         3.95182
| 45>    C       -3.50297         4.63001         5.13403
| 46>    C       -4.71535         5.08656         5.66140
| 47>    O       -5.33245         6.09420         4.99551
| 48>    C       -6.74754         6.14596         4.91884
| 49>    C       -5.26115         4.55797         6.87886
| 50>    O       -6.31981         5.26455         7.38026
| 51>    C       -6.39355         5.48833         8.77300
| 52>    C       -4.73036         3.44041         7.52006
| 53>    C       -3.49135         2.97748         7.01585
| 54>    C       -2.88645         3.57172         5.85596
| 55>    N       -1.77007         2.91515         5.61916
| 56>    O       -1.67779         1.97627         6.56282
| 57>    N       -2.70909         1.99578         7.41404
| 58>    C       -5.40425         2.69051         8.56102
| 59>    C       -6.76159         2.50744         8.53048
| 60>    C       -7.49401         1.74057         9.44303
| 61>    C       -6.81537         1.12684        10.59290
| 62>    C       -5.47717         1.16112        10.79222
| 63>    S       -4.36316         1.94211         9.75223
| 64>    C       -7.84320         0.51905        11.36184
| 65>    C       -9.07367         0.72798        10.74089
| 66>    C      -10.13923         0.13767        11.45538
| 67>    C       -9.69890        -0.48749        12.57839
| 68>    S       -7.98542        -0.39247        12.81383
| 69>    C       -8.87137         1.47148         9.52283
| 70>    C       -9.94839         1.80359         8.65699
| 71>    C       -9.84943         2.22460         7.37396
| 72>    C      -10.91965         2.59018         6.48523
| 73>    C      -10.58772         3.17853         5.24950
| 74>    F       -9.28732         3.39611         4.96332
| 75>    C      -11.54226         3.55618         4.32348
| 76>    F      -11.16286         4.11842         3.16575
| 77>    C      -12.89026         3.36522         4.57495
| 78>    C      -13.24549         2.78967         5.78211
| 79>    C      -12.29387         2.41211         6.71705
| 80>    F      -12.72633         1.85019         7.85900
| 81>    F      -14.54453         2.59210         6.05049
| 82>    H       -0.59704        -4.93545         1.88844
| 83>    H        0.74352        -4.26106        -0.25445
| 84>    H        0.69071         1.82493        -1.49482
| 85>    H       -1.98779         3.72379         1.84636
| 86>    H       -0.00812         6.73303        -1.75489
| 87>    H       -3.68224         9.30440         2.54224
| 88>    H       -2.94413        11.05562         0.75158
| 89>    H       -3.92547         6.82268         3.49140
| 90>    H       -1.96294         4.48949         3.72028
| 91>    H       -6.97022         6.61312         3.95854
| 92>    H       -7.16861         6.75150         5.72319
| 93>    H       -7.19093         5.15024         4.94579
| 94>    H       -5.41397         5.39938         9.24722
| 95>    H       -7.08894         4.79419         9.25347
| 96>    H       -6.76536         6.50681         8.89556
| 97>    H       -7.28589         2.99247         7.72089
| 98>    H       -5.01243         0.67208        11.63413
| 99>    H      -11.17282         0.16947        11.16183
|100>    H      -10.28187        -1.01597        13.30721
|101>    H      -10.92348         1.66880         9.10101
|102>    H       -8.87371         2.29898         6.92158
|103>    H      -13.63729         3.65403         3.85598
|104> *
|105>
|106>                          ****END OF INPUT****

CARTESIAN COORDINATES (ANGSTROEM)
---------------------------------
  C     -0.473480   -3.947280    1.492920
  C      0.218060   -3.572960    0.382070
  C      0.152430   -2.180060    0.181960
  C     -0.602610   -1.534200    1.169260
  S     -1.222300   -2.623860    2.327330
  C     -0.617180   -0.139030    0.890530
  C      0.129130    0.089430   -0.272460
  C      0.638930   -1.189290   -0.756990
  C      1.409460   -1.398410   -1.863960
  C      1.819090   -0.343380   -2.704980
  N      2.154510    0.510150   -3.393860
  C      1.846910   -2.684270   -2.243430
  N      2.205330   -3.726980   -2.559350
  C      0.173230    1.435380   -0.636640
  C     -0.538230    2.234680    0.239770
  S     -1.267490    1.298850    1.541260
  C     -0.717550    3.648410    0.187880
  C     -1.490730    4.324880    1.098090
  C     -1.709440    5.702020    1.101740
  C     -1.190220    6.542360    0.011920
  C     -0.389930    6.090330   -0.977300
  S      0.129470    4.461520   -1.123920
  C     -1.716080    7.841190    0.253520
  C     -2.500450    7.820410    1.406950
  C     -3.048920    9.088140    1.701140
  C     -2.677830   10.017090    0.781880
  S     -1.650090    9.399550   -0.468860
  C     -2.483420    6.494900    1.968500
  C     -3.148310    6.144870    3.172510
  C     -2.839150    5.077960    3.951820
  C     -3.502970    4.630010    5.134030
  C     -4.715350    5.086560    5.661400
  O     -5.332450    6.094200    4.995510
  C     -6.747540    6.145960    4.918840
  C     -5.261150    4.557970    6.878860
  O     -6.319810    5.264550    7.380260
  C     -6.393550    5.488330    8.773000
  C     -4.730360    3.440410    7.520060
  C     -3.491350    2.977480    7.015850
  C     -2.886450    3.571720    5.855960
  N     -1.770070    2.915150    5.619160
  O     -1.677790    1.976270    6.562820
  N     -2.709090    1.995780    7.414040
  C     -5.404250    2.690510    8.561020
  C     -6.761590    2.507440    8.530480
  C     -7.494010    1.740570    9.443030
  C     -6.815370    1.126840   10.592900
  C     -5.477170    1.161120   10.792220
  S     -4.363160    1.942110    9.752230
  C     -7.843200    0.519050   11.361840
  C     -9.073670    0.727980   10.740890
  C    -10.139230    0.137670   11.455380
  C     -9.698900   -0.487490   12.578390
  S     -7.985420   -0.392470   12.813830
  C     -8.871370    1.471480    9.522830
  C     -9.948390    1.803590    8.656990
  C     -9.849430    2.224600    7.373960
  C    -10.919650    2.590180    6.485230
  C    -10.587720    3.178530    5.249500
  F     -9.287320    3.396110    4.963320
  C    -11.542260    3.556180    4.323480
  F    -11.162860    4.118420    3.165750
  C    -12.890260    3.365220    4.574950
  C    -13.245490    2.789670    5.782110
  C    -12.293870    2.412110    6.717050
  F    -12.726330    1.850190    7.859000
  F    -14.544530    2.592100    6.050490
  H     -0.597040   -4.935450    1.888440
  H      0.743520   -4.261060   -0.254450
  H      0.690710    1.824930   -1.494820
  H     -1.987790    3.723790    1.846360
  H     -0.008120    6.733030   -1.754890
  H     -3.682240    9.304400    2.542240
  H     -2.944130   11.055620    0.751580
  H     -3.925470    6.822680    3.491400
  H     -1.962940    4.489490    3.720280
  H     -6.970220    6.613120    3.958540
  H     -7.168610    6.751500    5.723190
  H     -7.190930    5.150240    4.945790
  H     -5.413970    5.399380    9.247220
  H     -7.088940    4.794190    9.253470
  H     -6.765360    6.506810    8.895560
  H     -7.285890    2.992470    7.720890
  H     -5.012430    0.672080   11.634130
  H    -11.172820    0.169470   11.161830
  H    -10.281870   -1.015970   13.307210
  H    -10.923480    1.668800    9.101010
  H     -8.873710    2.298980    6.921580
  H    -13.637290    3.654030    3.855980

 Total Charge           Charge          ....    0
 Multiplicity           Mult            ....    1
 Number of Electrons    NEL             ....  506
 Basis Dimension        Dim             .... 1072

ORBITAL ENERGIES
----------------

  NO   OCC          E(Eh)            E(eV)
   0   2.0000     -88.982987     -2421.3502
   1   2.0000     -88.981180     -2421.3010
   2   2.0000     -88.973740     -2421.0986
   3   2.0000     -88.972252     -2421.0581
   4   2.0000     -88.952212     -2420.5127
   5   2.0000     -88.951740     -2420.4999
   6   2.0000     -24.798664      -674.8059
   7   2.0000     -24.795748      -674.7266
   8   2.0000     -24.792101      -674.6274
   9   2.0000     -24.790282      -674.5779
  10   2.0000     -19.343524      -526.3641
  11   2.0000     -19.264317      -524.2087
  12   2.0000     -19.252870      -523.8972
  13   2.0000     -14.471007      -393.7761
  14   2.0000     -14.470514      -393.7627
  15   2.0000     -14.423822      -392.4922
  16   2.0000     -14.423266      -392.4770
  17   2.0000     -10.373682      -282.2822
  18   2.0000     -10.373060      -282.2653
  19   2.0000     -10.370784      -282.2034
  20   2.0000     -10.370288      -282.1899
  21   2.0000     -10.363463      -282.0042
  22   2.0000     -10.356626      -281.8181
  23   2.0000     -10.351853      -281.6883
  24   2.0000     -10.344660      -281.4925
  25   2.0000     -10.330812      -281.1157
  26   2.0000     -10.324701      -280.9494
  27   2.0000     -10.324466      -280.9430
  28   2.0000     -10.324137      -280.9341
  29   2.0000     -10.324136      -280.9340
  30   2.0000     -10.323790      -280.9246
  31   2.0000     -10.323784      -280.9244
  32   2.0000     -10.323604      -280.9195
  33   2.0000     -10.323197      -280.9085
  34   2.0000     -10.321328      -280.8576
  35   2.0000     -10.320656      -280.8393
  36   2.0000     -10.318701      -280.7861
  37   2.0000     -10.317856      -280.7631
  38   2.0000     -10.310917      -280.5743
  39   2.0000     -10.306544      -280.4553
  40   2.0000     -10.305377      -280.4236
  41   2.0000     -10.295815      -280.1634
  42   2.0000     -10.295784      -280.1625
  43   2.0000     -10.294996      -280.1411
  44   2.0000     -10.294738      -280.1341
  45   2.0000     -10.294101      -280.1167
  46   2.0000     -10.293827      -280.1093
  47   2.0000     -10.293293      -280.0948
  48   2.0000     -10.293235      -280.0932
  49   2.0000     -10.292523      -280.0738
  50   2.0000     -10.292292      -280.0675
  51   2.0000     -10.291650      -280.0500
  52   2.0000     -10.291461      -280.0449
  53   2.0000     -10.284685      -279.8605
  54   2.0000     -10.281371      -279.7703
  55   2.0000     -10.281323      -279.7690
  56   2.0000     -10.281119      -279.7635
  57   2.0000     -10.280787      -279.7544
  58   2.0000     -10.275963      -279.6232
  59   2.0000     -10.271035      -279.4891
  60   2.0000     -10.270974      -279.4874
  61   2.0000     -10.270338      -279.4701
  62   2.0000     -10.270041      -279.4620
  63   2.0000     -10.268644      -279.4240
  64   2.0000     -10.268323      -279.4153
  65   2.0000     -10.268182      -279.4114
  66   2.0000     -10.267461      -279.3918
  67   2.0000      -8.077186      -219.7914
  68   2.0000      -8.076209      -219.7648
  69   2.0000      -8.068653      -219.5592
  70   2.0000      -8.067475      -219.5272
  71   2.0000      -8.047636      -218.9873
  72   2.0000      -8.047183      -218.9750
  73   2.0000      -6.046489      -164.5333
  74   2.0000      -6.045444      -164.5049
  75   2.0000      -6.042318      -164.4198
  76   2.0000      -6.041015      -164.3844
  77   2.0000      -6.039479      -164.3426
  78   2.0000      -6.038824      -164.3247
  79   2.0000      -6.038154      -164.3065
  80   2.0000      -6.037102      -164.2779
  81   2.0000      -6.033399      -164.1771
  82   2.0000      -6.032538      -164.1537
  83   2.0000      -6.030824      -164.1071
  84   2.0000      -6.029244      -164.0641
  85   2.0000      -6.017129      -163.7344
  86   2.0000      -6.016649      -163.7213
  87   2.0000      -6.012877      -163.6187
  88   2.0000      -6.012405      -163.6058
  89   2.0000      -6.009570      -163.5287
  90   2.0000      -6.009154      -163.5174
  91   2.0000      -1.316908       -35.8349
  92   2.0000      -1.315828       -35.8055
  93   2.0000      -1.300965       -35.4010
  94   2.0000      -1.299379       -35.3579
  95   2.0000      -1.295618       -35.2555
  96   2.0000      -1.174762       -31.9669
  97   2.0000      -1.147271       -31.2188
  98   2.0000      -1.036370       -28.2011
  99   2.0000      -1.015134       -27.6232
 100   2.0000      -1.008277       -27.4366
 101   2.0000      -1.002464       -27.2784
 102   2.0000      -1.001070       -27.2405
 103   2.0000      -1.000857       -27.2347
 104   2.0000      -0.995048       -27.0766
 105   2.0000      -0.990058       -26.9408
 106   2.0000      -0.981117       -26.6975
 107   2.0000      -0.965858       -26.2823
 108   2.0000      -0.965836       -26.2817
 109   2.0000      -0.947995       -25.7963
 110   2.0000      -0.926296       -25.2058
 111   2.0000      -0.923508       -25.1299
 112   2.0000      -0.912083       -24.8191
 113   2.0000      -0.908106       -24.7108
 114   2.0000      -0.903164       -24.5764
 115   2.0000      -0.895529       -24.3686
 116   2.0000      -0.882204       -24.0060
 117   2.0000      -0.874389       -23.7933
 118   2.0000      -0.859738       -23.3947
 119   2.0000      -0.855091       -23.2682
 120   2.0000      -0.850941       -23.1553
 121   2.0000      -0.846708       -23.0401
 122   2.0000      -0.843511       -22.9531
 123   2.0000      -0.832671       -22.6581
 124   2.0000      -0.828192       -22.5363
 125   2.0000      -0.820373       -22.3235
 126   2.0000      -0.813806       -22.1448
 127   2.0000      -0.803560       -21.8660
 128   2.0000      -0.798307       -21.7231
 129   2.0000      -0.785218       -21.3669
 130   2.0000      -0.779107       -21.2006
 131   2.0000      -0.771907       -21.0046
 132   2.0000      -0.762609       -20.7517
 133   2.0000      -0.752770       -20.4839
 134   2.0000      -0.739519       -20.1233
 135   2.0000      -0.726867       -19.7791
 136   2.0000      -0.723514       -19.6878
 137   2.0000      -0.722685       -19.6652
 138   2.0000      -0.717050       -19.5119
 139   2.0000      -0.714244       -19.4356
 140   2.0000      -0.702892       -19.1267
 141   2.0000      -0.696034       -18.9400
 142   2.0000      -0.684838       -18.6354
 143   2.0000      -0.674334       -18.3496
 144   2.0000      -0.669974       -18.2309
 145   2.0000      -0.664024       -18.0690
 146   2.0000      -0.659253       -17.9392
 147   2.0000      -0.656740       -17.8708
 148   2.0000      -0.652369       -17.7519
 149   2.0000      -0.644898       -17.5486
 150   2.0000      -0.642594       -17.4859
 151   2.0000      -0.640545       -17.4301
 152   2.0000      -0.633755       -17.2454
 153   2.0000      -0.625669       -17.0253
 154   2.0000      -0.624189       -16.9851
 155   2.0000      -0.620028       -16.8718
 156   2.0000      -0.613384       -16.6910
 157   2.0000      -0.611151       -16.6303
 158   2.0000      -0.610224       -16.6050
 159   2.0000      -0.605985       -16.4897
 160   2.0000      -0.602617       -16.3981
 161   2.0000      -0.597950       -16.2710
 162   2.0000      -0.590797       -16.0764
 163   2.0000      -0.590464       -16.0673
 164   2.0000      -0.588778       -16.0215
 165   2.0000      -0.585265       -15.9259
 166   2.0000      -0.578020       -15.7287
 167   2.0000      -0.572568       -15.5804
 168   2.0000      -0.569756       -15.5038
 169   2.0000      -0.564293       -15.3552
 170   2.0000      -0.563592       -15.3361
 171   2.0000      -0.556330       -15.1385
 172   2.0000      -0.554271       -15.0825
 173   2.0000      -0.551587       -15.0094
 174   2.0000      -0.550282       -14.9739
 175   2.0000      -0.546276       -14.8649
 176   2.0000      -0.544766       -14.8238
 177   2.0000      -0.542006       -14.7487
 178   2.0000      -0.541387       -14.7319
 179   2.0000      -0.538883       -14.6638
 180   2.0000      -0.538677       -14.6581
 181   2.0000      -0.532993       -14.5035
 182   2.0000      -0.530504       -14.4358
 183   2.0000      -0.520364       -14.1598
 184   2.0000      -0.517218       -14.0742
 185   2.0000      -0.516787       -14.0625
 186   2.0000      -0.514715       -14.0061
 187   2.0000      -0.510959       -13.9039
 188   2.0000      -0.507821       -13.8185
 189   2.0000      -0.506435       -13.7808
 190   2.0000      -0.504996       -13.7416
 191   2.0000      -0.503720       -13.7069
 192   2.0000      -0.497353       -13.5337
 193   2.0000      -0.496426       -13.5084
 194   2.0000      -0.488390       -13.2898
 195   2.0000      -0.487487       -13.2652
 196   2.0000      -0.485173       -13.2022
 197   2.0000      -0.483645       -13.1607
 198   2.0000      -0.480559       -13.0767
 199   2.0000      -0.480260       -13.0685
 200   2.0000      -0.477700       -12.9989
 201   2.0000      -0.470042       -12.7905
 202   2.0000      -0.465080       -12.6555
 203   2.0000      -0.462603       -12.5881
 204   2.0000      -0.460883       -12.5413
 205   2.0000      -0.457854       -12.4588
 206   2.0000      -0.455276       -12.3887
 207   2.0000      -0.452331       -12.3085
 208   2.0000      -0.451329       -12.2813
 209   2.0000      -0.450877       -12.2690
 210   2.0000      -0.450033       -12.2460
 211   2.0000      -0.446972       -12.1627
 212   2.0000      -0.445400       -12.1199
 213   2.0000      -0.443454       -12.0670
 214   2.0000      -0.439099       -11.9485
 215   2.0000      -0.438516       -11.9326
 216   2.0000      -0.434555       -11.8248
 217   2.0000      -0.433902       -11.8071
 218   2.0000      -0.433464       -11.7951
 219   2.0000      -0.433209       -11.7882
 220   2.0000      -0.427776       -11.6404
 221   2.0000      -0.426796       -11.6137
 222   2.0000      -0.421720       -11.4756
 223   2.0000      -0.418873       -11.3981
 224   2.0000      -0.416742       -11.3401
 225   2.0000      -0.415803       -11.3146
 226   2.0000      -0.414691       -11.2843
 227   2.0000      -0.411392       -11.1946
 228   2.0000      -0.406745       -11.0681
 229   2.0000      -0.404985       -11.0202
 230   2.0000      -0.403488       -10.9795
 231   2.0000      -0.400480       -10.8976
 232   2.0000      -0.395144       -10.7524
 233   2.0000      -0.388773       -10.5790
 234   2.0000      -0.386295       -10.5116
 235   2.0000      -0.380427       -10.3519
 236   2.0000      -0.375726       -10.2240
 237   2.0000      -0.373940       -10.1754
 238   2.0000      -0.358380        -9.7520
 239   2.0000      -0.350833        -9.5466
 240   2.0000      -0.340000        -9.2519
 241   2.0000      -0.336554        -9.1581
 242   2.0000      -0.328731        -8.9452
 243   2.0000      -0.316291        -8.6067
 244   2.0000      -0.314138        -8.5481
 245   2.0000      -0.313661        -8.5352
 246   2.0000      -0.309617        -8.4251
 247   2.0000      -0.293435        -7.9848
 248   2.0000      -0.288422        -7.8484
 249   2.0000      -0.274720        -7.4755
 250   2.0000      -0.261588        -7.1182
 251   2.0000      -0.235099        -6.3974
 252   2.0000      -0.218031        -5.9329
 253   0.0000      -0.096540        -2.6270
 254   0.0000      -0.076211        -2.0738
 255   0.0000      -0.052649        -1.4327
 256   0.0000      -0.037821        -1.0292
 257   0.0000      -0.023453        -0.6382

MULLIKEN ATOMIC CHARGES
-----------------------
   0 C :   -0.084660
   1 C :    0.040195
   2 C :   -0.037549
   3 C :   -0.115192
   4 S :    0.184835
   5 C :   -0.095215
   6 C :    0.015582
   7 C :    0.300180
   8 C :   -0.300882
   9 C :   -0.186970
  10 N :    0.167221
  11 C :   -0.189610
  12 N :    0.173509
  13 C :   -0.059410
  14 C :   -0.062627
  15 S :    0.180586
  16 C :   -0.022040
  17 C :   -0.095636
  18 C :    0.052135
  19 C :    0.056210
  20 C :   -0.123419
  21 S :    0.131707
  22 C :   -0.108755
  23 C :    0.053439
  24 C :    0.007916
  25 C :   -0.070021
  26 S :    0.124977
  27 C :    0.081622
  28 C :   -0.005356
  29 C :   -0.102253
  30 C :    0.063877
  31 C :    0.116103
  32 O :   -0.322881
  33 C :    0.207967
  34 C :    0.058810
  35 O :   -0.342684
  36 C :    0.189619
  37 C :    0.059536
  38 C :   -0.059378
  39 C :   -0.050243
  40 N :    0.036666
  41 O :   -0.107899
  42 N :    0.029260
  43 C :   -0.166635
  44 C :   -0.055376
  45 C :    0.043424
  46 C :    0.062542
  47 C :   -0.137528
  48 S :    0.194742
  49 C :   -0.109099
  50 C :    0.048371
  51 C :    0.003486
  52 C :   -0.068121
  53 S :    0.122175
  54 C :    0.061802
  55 C :    0.006339
  56 C :   -0.066459
  57 C :   -0.016527
  58 C :    0.163498
  59 F :   -0.184781
  60 C :    0.254947
  61 F :   -0.181166
  62 C :   -0.165128
  63 C :    0.256698
  64 C :    0.168768
  65 F :   -0.177068
  66 F :   -0.180749
  67 H :    0.034471
  68 H :    0.011228
  69 H :    0.017699
  70 H :   -0.003019
  71 H :    0.036858
  72 H :   -0.018536
  73 H :    0.024398
  74 H :   -0.003502
  75 H :   -0.002697
  76 H :    0.029710
  77 H :    0.027991
  78 H :    0.019599
  79 H :    0.033894
  80 H :    0.047374
  81 H :    0.034884
  82 H :    0.001603
  83 H :    0.035595
  84 H :   -0.013891
  85 H :    0.025692
  86 H :   -0.011194
  87 H :   -0.008047
  88 H :    0.012465
Sum of atomic charges:   -0.0000000

LOEWDIN ATOMIC CHARGES
----------------------
   0 C :   -0.179125
   1 C :   -0.034323
   2 C :   -0.078752
   3 C :   -0.181987
   4 S :    0.479732
   5 C :   -0.179502
   6 C :   -0.070289
   7 C :    0.084913
   8 C :   -0.105904
   9 C :   -0.016168
  10 N :   -0.036746
  11 C :   -0.016744
  12 N :   -0.035717
  13 C :   -0.041892
  14 C :   -0.179142
  15 S :    0.487301
  16 C :   -0.180684
  17 C :   -0.031660
  18 C :   -0.017245
  19 C :   -0.047383
  20 C :   -0.139916
  21 S :    0.459443
  22 C :   -0.205618
  23 C :   -0.038871
  24 C :   -0.064176
  25 C :   -0.166693
  26 S :    0.418212
  27 C :   -0.053083
  28 C :    0.002845
  29 C :   -0.042862
  30 C :   -0.048525
  31 C :    0.044508
  32 O :   -0.092528
  33 C :    0.082271
  34 C :    0.049354
  35 O :   -0.099283
  36 C :    0.083297
  37 C :   -0.101838
  38 C :   -0.061106
  39 C :   -0.051344
  40 N :   -0.033431
  41 O :    0.061727
  42 N :   -0.049795
  43 C :   -0.168185
  44 C :   -0.022743
  45 C :   -0.018205
  46 C :   -0.049854
  47 C :   -0.144572
  48 S :    0.498306
  49 C :   -0.208156
  50 C :   -0.038747
  51 C :   -0.065508
  52 C :   -0.165244
  53 S :    0.414807
  54 C :   -0.064676
  55 C :    0.008751
  56 C :   -0.057251
  57 C :   -0.054030
  58 C :    0.051373
  59 F :   -0.059906
  60 C :    0.056903
  61 F :   -0.056696
  62 C :   -0.072108
  63 C :    0.059828
  64 C :    0.053038
  65 F :   -0.049338
  66 F :   -0.055114
  67 H :    0.026976
  68 H :    0.042086
  69 H :    0.034143
  70 H :    0.027860
  71 H :    0.037057
  72 H :    0.030119
  73 H :    0.022387
  74 H :    0.028935
  75 H :    0.029622
  76 H :    0.022736
  77 H :    0.016384
  78 H :    0.015926
  79 H :    0.022446
  80 H :    0.022523
  81 H :    0.025387
  82 H :    0.036550
  83 H :    0.036214
  84 H :    0.031120
  85 H :    0.022811
  86 H :    0.027293
  87 H :    0.025533
  88 H :    0.051947

  Mayer bond orders larger than 0.100000
B(  0-C ,  1-C ) :   1.5480 B(  0-C ,  4-S ) :   1.1491 B(  0-C , 67-H ) :   0.9650
B(  1-C ,  2-C ) :   1.2762 B(  1-C , 68-H ) :   0.9960 B(  2-C ,  3-C ) :   1.4548
B(  2-C ,  7-C ) :   1.0177 B(  3-C ,  4-S ) :   1.1385 B(  3-C ,  5-C ) :   1.1806
B(  5-C ,  6-C ) :   1.4620 B(  5-C , 15-S ) :   1.1297 B(  6-C ,  7-C ) :   0.9957
B(  6-C , 13-C ) :   1.2974 B(  7-C ,  8-C ) :   1.7075 B(  8-C ,  9-C ) :   1.1334
B(  8-C , 11-C ) :   1.1298 B(  9-C , 10-N ) :   2.9894 B( 11-C , 12-N ) :   3.0036
B( 13-C , 14-C ) :   1.4641 B( 13-C , 69-H ) :   0.9808 B( 14-C , 15-S ) :   1.1097
B( 14-C , 16-C ) :   1.1620 B( 16-C , 17-C ) :   1.5263 B( 16-C , 21-S ) :   1.0565
B( 17-C , 18-C ) :   1.2449 B( 17-C , 70-H ) :   0.9575 B( 18-C , 19-C ) :   1.0544
B( 18-C , 27-C ) :   1.3939 B( 19-C , 20-C ) :   1.6116 B( 19-C , 22-C ) :   1.1744
B( 20-C , 21-S ) :   1.1352 B( 20-C , 71-H ) :   0.9408 B( 22-C , 23-C ) :   1.4439
B( 22-C , 26-S ) :   1.0722 B( 23-C , 24-C ) :   1.2212 B( 23-C , 27-C ) :   1.0975
B( 24-C , 25-C ) :   1.5824 B( 24-C , 72-H ) :   0.9983 B( 25-C , 26-S ) :   1.1550
B( 25-C , 73-H ) :   0.9665 B( 27-C , 28-C ) :   1.1295 B( 28-C , 29-C ) :   1.5891
B( 28-C , 74-H ) :   0.9647 B( 29-C , 30-C ) :   1.1738 B( 29-C , 75-H ) :   0.9664
B( 30-C , 31-C ) :   1.4314 B( 30-C , 37-C ) :   0.1013 B( 30-C , 39-C ) :   1.1160
B( 31-C , 32-O ) :   1.1853 B( 31-C , 34-C ) :   1.1336 B( 32-O , 33-C ) :   0.9173
B( 33-C , 76-H ) :   0.9771 B( 33-C , 77-H ) :   0.9752 B( 33-C , 78-H ) :   0.9699
B( 34-C , 35-O ) :   1.1453 B( 34-C , 37-C ) :   1.4259 B( 35-O , 36-C ) :   0.9293
B( 36-C , 79-H ) :   0.9634 B( 36-C , 80-H ) :   0.9664 B( 36-C , 81-H ) :   0.9768
B( 37-C , 38-C ) :   1.1306 B( 37-C , 43-C ) :   1.0226 B( 38-C , 39-C ) :   1.1416
B( 38-C , 42-N ) :   1.6062 B( 39-C , 40-N ) :   1.6292 B( 40-N , 41-O ) :   1.0528
B( 40-N , 42-N ) :   0.1757 B( 41-O , 42-N ) :   1.0502 B( 43-C , 44-C ) :   1.5442
B( 43-C , 48-S ) :   1.0936 B( 44-C , 45-C ) :   1.2264 B( 44-C , 82-H ) :   0.9652
B( 45-C , 46-C ) :   1.0695 B( 45-C , 54-C ) :   1.3845 B( 46-C , 47-C ) :   1.5783
B( 46-C , 49-C ) :   1.1824 B( 47-C , 48-S ) :   1.1569 B( 47-C , 83-H ) :   0.9405
B( 49-C , 50-C ) :   1.4434 B( 49-C , 53-S ) :   1.0670 B( 50-C , 51-C ) :   1.2155
B( 50-C , 54-C ) :   1.1035 B( 51-C , 52-C ) :   1.5874 B( 51-C , 84-H ) :   0.9979
B( 52-C , 53-S ) :   1.1533 B( 52-C , 85-H ) :   0.9660 B( 54-C , 55-C ) :   1.1503
B( 55-C , 56-C ) :   1.6309 B( 55-C , 86-H ) :   0.9597 B( 56-C , 57-C ) :   1.1151
B( 56-C , 87-H ) :   0.9754 B( 57-C , 58-C ) :   1.2801 B( 57-C , 62-C ) :   0.1225
B( 57-C , 64-C ) :   1.2616 B( 58-C , 59-F ) :   1.1016 B( 58-C , 60-C ) :   1.3215
B( 60-C , 61-F ) :   1.1197 B( 60-C , 62-C ) :   1.3071 B( 62-C , 63-C ) :   1.3181
B( 62-C , 88-H ) :   1.0200 B( 63-C , 64-C ) :   1.3224 B( 63-C , 66-F ) :   1.1135
B( 64-C , 65-F ) :   1.1188

-----------------------------------------------------------------------------
         ABSORPTION SPECTRUM VIA TRANSITION ELECTRIC DIPOLE MOMENTS
-----------------------------------------------------------------------------
State   Energy  Wavelength   fosc         T2         TX        TY        TZ
        (cm-1)    (nm)                  (au**2)     (au)      (au)      (au)
-----------------------------------------------------------------------------
   0   11454.8    873.0   0.091634121   2.63356  -0.75508   1.25848   0.69256
   1   15488.1    645.7   0.760646861  16.16815   2.84895   0.11257  -2.83531
   2   18313.2    546.1   0.014095617   0.25339  -0.07278  -0.49809   0.00219
   3   19608.2    510.0   0.234497076   3.93708  -1.28937  -1.39383  -0.57604
   4   20945.9    477.4   0.070892315   1.11423   0.48680   0.93216   0.09130
   5   21881.7    457.0   0.049567550   0.74575   0.36973  -0.52321   0.57905
   6   22044.4    453.6   0.048811584   0.72896  -0.47240   0.56512  -0.43177
   7   24481.9    408.5   0.336726530   4.52802   0.39375  -2.07186  -0.28352
   8   25379.2    394.0   0.149433060   1.93840   0.63149   0.32933  -1.19631
   9   25772.7    388.0   0.301225531   3.84776   0.02052   1.36398  -1.40957
  10   26948.9    371.1   0.026759697   0.32690  -0.21767  -0.03345   0.52764
  11   27313.4    366.1   0.201168944   2.42471   1.08948  -0.39140   1.04142
  12   28319.7    353.1   0.330014305   3.83636   1.30155  -0.66431   1.30423
  13   29360.5    340.6   0.110545201   1.23952  -0.99360   0.23657  -0.44308
  14   30050.9    332.8   0.059570225   0.65260  -0.29107  -0.72109  -0.21889
  15   30933.9    323.3   0.195333274   2.07882  -1.07489   0.70547   0.65249
  16   31332.5    319.2   0.157255677   1.65229  -0.37164   0.96460   0.76402
  17   31516.5    317.3   0.475575614   4.96773   1.19570   0.06938  -1.87969
  18   32113.2    311.4   0.098508543   1.00987   0.81249   0.22643   0.54632
  19   32302.3    309.6   0.013217885   0.13471  -0.36439   0.02430  -0.03663
  20   32705.1    305.8   0.248692812   2.50336  -0.80961  -0.72825   1.14784
  21   33110.4    302.0   0.004714886   0.04688  -0.11054  -0.17467   0.06441
  22   33391.7    299.5   0.168276070   1.65905  -0.27805   1.21969   0.30676
  23   33950.0    294.6   0.431501068   4.18425   0.36643  -1.58095   1.24522
  24   34006.6    294.1   0.128406759   1.24308  -0.81912  -0.41104   0.63495
  25   34663.3    288.5   0.437196219   4.15224  -0.31872   1.96984   0.41280
  26   35462.3    282.0   0.195357750   1.81359  -0.39398  -0.72384   1.06509
  27   35960.2    278.1   0.267324294   2.44733  -0.72538   1.11368  -0.82515
  28   36365.1    275.0   0.155425347   1.40706   0.12464   0.48896  -1.07352
  29   36438.0    274.4   0.081609954   0.73733  -0.28157  -0.78360  -0.20984
  30   36563.8    273.5   0.105419936   0.94918   0.00530   0.96759   0.11367
  31   36611.3    273.1   0.182697595   1.64283   0.77357  -0.97889   0.29361
  32   37084.7    269.7   0.088834080   0.78861  -0.26986   0.84159  -0.08663
  33   37439.0    267.1   0.012928717   0.11369   0.24778  -0.21971   0.06336
  34   37888.7    263.9   0.035474043   0.30823  -0.27249   0.20880   0.43633
  35   38195.0    261.8   0.034325730   0.29586   0.33403   0.34869  -0.25041
  36   38558.1    259.3   0.042488329   0.36277   0.26279  -0.13764  -0.52418
  37   38872.1    257.3   0.043401400   0.36757   0.06285   0.11174  -0.59257
  38   38965.2    256.6   0.018179339   0.15359  -0.37331   0.11800   0.01760
  39   39546.8    252.9   0.001378491   0.01148  -0.04424   0.05004  -0.08375
  40   39677.1    252.0   0.203760006   1.69065   0.66795   0.70325  -0.86599
  41   39868.7    250.8   0.180432013   1.48990  -0.77406  -0.52747   0.78263

FINAL SINGLE POINT ENERGY     -5147.386038059713

DIPOLE MOMENT
-------------
                                X             Y             Z
Electronic contribution:     -8.16503     -18.61932     -13.40112
Nuclear contribution   :      6.41314      19.89171      15.43735
                        -----------------------------------------
Total Dipole Moment    :     -1.75189       1.27239       2.03623
                        -----------------------------------------
Magnitude (a.u.)       :      2.97226
Magnitude (Debye)      :      7.55488

Rotational constants in cm-1:     0.001063     0.000451     0.000390
Rotational constants in MHz :    31.875651    13.518645    11.678962

                             ****ORCA TERMINATED NORMALLY****
TOTAL RUN TIME: 0 days 0 hours 8 minutes 38 seconds 32 msec
