                         Program Version 4.2.0 -  RELEASE  -
|  1> # ORCA input file
|  2> # SCF done       -231.268595355516          0.000593646497
|  3> ! CAM-B3LYP def2-SVP def2/J RIJCOSX Grid4 TightSCF
|  4> %maxcore 5000
|  5> %tddft
|  6>     Mode sTDDFT
|  7>     Ethresh 5.0
|  8>     maxcore 5000
|  9> end
| 10>
| 11> %pal
| 12>   nprocs 6
| 13>   end
| 14> * xyz 0 1
| 15>    C       -0.13161         2.69464        10.50407
| 16>    C       -1.09345         2.79522         9.54587
| 17>    C       -0.60180         3.43555         8.39181
| 18>    C        0.74192         3.80510         8.51751
| 19>    S        1.39350         3.37231        10.03328
| 20>    C        1.15271         4.44506         7.31179
| 21>    C        0.06347         4.47319         6.43223
| 22>    C       -1.07737         3.84082         7.08181
| 23>    C       -2.32922         3.67488         6.56451
| 24>    C       -2.67611         4.12787         5.27477
| 25>    N       -2.96815         4.49849         4.22945
| 26>    C       -3.36391         3.04497         7.28668
| 27>    N       -4.21037         2.53433         7.86821
| 28>    C        0.36959         5.07739         5.21135
| 29>    C        1.68864         5.48018         5.14741
| 30>    S        2.54871         5.15858         6.64667
| 31>    C        2.27947         6.23392         4.08791
| 32>    S        1.28471         7.47709         3.40264
| 33>    C        2.58433         8.14422         2.47999
| 34>    C        3.75875         7.40006         2.67890
| 35>    C        3.57317         6.27654         3.55602
| 36>    C        4.65153         5.35961         3.70767
| 37>    C        4.53392         3.99166         4.31051
| 38>    F        3.30149         3.46393         4.26195
| 39>    F        5.31894         3.10812         3.66276
| 40>    F        4.93175         3.92700         5.59965
| 41>    C        5.87687         5.67607         3.17513
| 42>    C        6.08904         6.83700         2.42834
| 43>    C        5.04052         7.67485         2.11968
| 44>    O        5.14095         8.74202         1.30212
| 45>    C        6.40579         9.09927         0.79175
| 46>    C        2.38928         9.29991         1.69543
| 47>    C        1.17596         9.85914         1.44605
| 48>    C        0.98285        11.01935         0.65875
| 49>    S       -0.44185        11.08576        -0.32639
| 50>    C        0.10422        12.47774        -1.20357
| 51>    C        1.38657        12.85990        -0.76625
| 52>    C        1.82625        12.11159         0.38033
| 53>    C        2.93966        12.60564         1.11199
| 54>    C        3.28666        12.20423         2.51940
| 55>    F        4.32343        11.34155         2.60064
| 56>    F        3.68116        13.27737         3.23416
| 57>    F        2.28114        11.66746         3.21939
| 58>    C        3.69598        13.62498         0.58197
| 59>    C        3.41350        14.15782        -0.67834
| 60>    C        2.27419        13.80001        -1.35860
| 61>    O        2.05380        14.38422        -2.57709
| 62>    C        2.00870        13.50771        -3.68570
| 63>    C       -0.79310        13.08074        -2.11337
| 64>    C       -0.80024        14.39874        -2.46066
| 65>    C       -1.68188        14.93661        -3.42108
| 66>    S       -2.42539        13.84950        -4.55375
| 67>    C       -3.15304        15.12593        -5.46793
| 68>    C       -2.85514        16.37224        -4.88542
| 69>    C       -2.03863        16.26805        -3.71141
| 70>    C       -1.74003        17.45308        -2.98762
| 71>    C       -1.03067        17.45097        -1.66613
| 72>    F        0.29413        17.21504        -1.76123
| 73>    F       -1.13083        18.63160        -1.03307
| 74>    F       -1.52061        16.54260        -0.80174
| 75>    C       -2.16091        18.66502        -3.47785
| 76>    C       -2.90019        18.77155        -4.65745
| 77>    C       -3.27553        17.64821        -5.35916
| 78>    O       -4.02937        17.67397        -6.48011
| 79>    C       -4.47698        18.91528        -6.97868
| 80>    C       -3.89703        14.84078        -6.62949
| 81>    C       -4.09989        13.58972        -7.12441
| 82>    C       -4.81570        13.30512        -8.30681
| 83>    C       -5.01156        12.05369        -8.87448
| 84>    C       -5.74226        12.11913       -10.05747
| 85>    C       -6.11568        13.42795       -10.39939
| 86>    S       -5.56336        14.58001        -9.26472
| 87>    C       -6.84871        13.38313       -11.61524
| 88>    C       -6.93523        12.04975       -12.03958
| 89>    C       -6.24532        11.20972       -11.08320
| 90>    C       -6.08450         9.85458       -11.12747
| 91>    C       -6.60924         9.06971       -12.17484
| 92>    N       -7.03325         8.42668       -13.02454
| 93>    C       -5.37708         9.14949       -10.13242
| 94>    N       -4.79975         8.57224        -9.32652
| 95>    C       -7.64772        11.91549       -13.24744
| 96>    C       -8.07906        13.12153       -13.70649
| 97>    S       -7.63408        14.45458       -12.68858
| 98>    H       -0.21748         2.25666        11.47821
| 99>    H       -2.09653         2.42860         9.66549
|100>    H       -0.31293         5.19915         4.38991
|101>    H        6.70193         4.99261         3.30460
|102>    H        7.07985         7.02446         2.05144
|103>    H        6.81348         8.31464         0.14745
|104>    H        7.11074         9.32191         1.59682
|105>    H        6.23671         9.99982         0.20379
|106>    H        3.27266         9.73005         1.25464
|107>    H        0.28055         9.34076         1.76681
|108>    H        4.53579        14.01171         1.13821
|109>    H        4.07162        14.88851        -1.11932
|110>    H        1.25538        12.72475        -3.56998
|111>    H        2.98811        13.04380        -3.84597
|112>    H        1.75637        14.12788        -4.54335
|113>    H       -1.59302        12.44447        -2.47434
|114>    H       -0.08297        15.05391        -2.00001
|115>    H       -1.93211        19.56931        -2.93647
|116>    H       -3.19075        19.75467        -4.98645
|117>    H       -5.06034        18.67728        -7.86676
|118>    H       -3.63876        19.55999        -7.25758
|119>    H       -5.11328        19.43102        -6.25405
|120>    H       -4.31418        15.68482        -7.15636
|121>    H       -3.68665        12.73316        -6.60684
|122>    H       -4.62820        11.15213        -8.43230
|123>    H       -7.83274        10.98428       -13.75091
|124>    H       -8.64196        13.32483       -14.59526
|125> *
|126>
|127>                          ****END OF INPUT****

CARTESIAN COORDINATES (ANGSTROEM)
---------------------------------
  C     -0.131610    2.694640   10.504070
  C     -1.093450    2.795220    9.545870
  C     -0.601800    3.435550    8.391810
  C      0.741920    3.805100    8.517510
  S      1.393500    3.372310   10.033280
  C      1.152710    4.445060    7.311790
  C      0.063470    4.473190    6.432230
  C     -1.077370    3.840820    7.081810
  C     -2.329220    3.674880    6.564510
  C     -2.676110    4.127870    5.274770
  N     -2.968150    4.498490    4.229450
  C     -3.363910    3.044970    7.286680
  N     -4.210370    2.534330    7.868210
  C      0.369590    5.077390    5.211350
  C      1.688640    5.480180    5.147410
  S      2.548710    5.158580    6.646670
  C      2.279470    6.233920    4.087910
  S      1.284710    7.477090    3.402640
  C      2.584330    8.144220    2.479990
  C      3.758750    7.400060    2.678900
  C      3.573170    6.276540    3.556020
  C      4.651530    5.359610    3.707670
  C      4.533920    3.991660    4.310510
  F      3.301490    3.463930    4.261950
  F      5.318940    3.108120    3.662760
  F      4.931750    3.927000    5.599650
  C      5.876870    5.676070    3.175130
  C      6.089040    6.837000    2.428340
  C      5.040520    7.674850    2.119680
  O      5.140950    8.742020    1.302120
  C      6.405790    9.099270    0.791750
  C      2.389280    9.299910    1.695430
  C      1.175960    9.859140    1.446050
  C      0.982850   11.019350    0.658750
  S     -0.441850   11.085760   -0.326390
  C      0.104220   12.477740   -1.203570
  C      1.386570   12.859900   -0.766250
  C      1.826250   12.111590    0.380330
  C      2.939660   12.605640    1.111990
  C      3.286660   12.204230    2.519400
  F      4.323430   11.341550    2.600640
  F      3.681160   13.277370    3.234160
  F      2.281140   11.667460    3.219390
  C      3.695980   13.624980    0.581970
  C      3.413500   14.157820   -0.678340
  C      2.274190   13.800010   -1.358600
  O      2.053800   14.384220   -2.577090
  C      2.008700   13.507710   -3.685700
  C     -0.793100   13.080740   -2.113370
  C     -0.800240   14.398740   -2.460660
  C     -1.681880   14.936610   -3.421080
  S     -2.425390   13.849500   -4.553750
  C     -3.153040   15.125930   -5.467930
  C     -2.855140   16.372240   -4.885420
  C     -2.038630   16.268050   -3.711410
  C     -1.740030   17.453080   -2.987620
  C     -1.030670   17.450970   -1.666130
  F      0.294130   17.215040   -1.761230
  F     -1.130830   18.631600   -1.033070
  F     -1.520610   16.542600   -0.801740
  C     -2.160910   18.665020   -3.477850
  C     -2.900190   18.771550   -4.657450
  C     -3.275530   17.648210   -5.359160
  O     -4.029370   17.673970   -6.480110
  C     -4.476980   18.915280   -6.978680
  C     -3.897030   14.840780   -6.629490
  C     -4.099890   13.589720   -7.124410
  C     -4.815700   13.305120   -8.306810
  C     -5.011560   12.053690   -8.874480
  C     -5.742260   12.119130  -10.057470
  C     -6.115680   13.427950  -10.399390
  S     -5.563360   14.580010   -9.264720
  C     -6.848710   13.383130  -11.615240
  C     -6.935230   12.049750  -12.039580
  C     -6.245320   11.209720  -11.083200
  C     -6.084500    9.854580  -11.127470
  C     -6.609240    9.069710  -12.174840
  N     -7.033250    8.426680  -13.024540
  C     -5.377080    9.149490  -10.132420
  N     -4.799750    8.572240   -9.326520
  C     -7.647720   11.915490  -13.247440
  C     -8.079060   13.121530  -13.706490
  S     -7.634080   14.454580  -12.688580
  H     -0.217480    2.256660   11.478210
  H     -2.096530    2.428600    9.665490
  H     -0.312930    5.199150    4.389910
  H      6.701930    4.992610    3.304600
  H      7.079850    7.024460    2.051440
  H      6.813480    8.314640    0.147450
  H      7.110740    9.321910    1.596820
  H      6.236710    9.999820    0.203790
  H      3.272660    9.730050    1.254640
  H      0.280550    9.340760    1.766810
  H      4.535790   14.011710    1.138210
  H      4.071620   14.888510   -1.119320
  H      1.255380   12.724750   -3.569980
  H      2.988110   13.043800   -3.845970
  H      1.756370   14.127880   -4.543350
  H     -1.593020   12.444470   -2.474340
  H     -0.082970   15.053910   -2.000010
  H     -1.932110   19.569310   -2.936470
  H     -3.190750   19.754670   -4.986450
  H     -5.060340   18.677280   -7.866760
  H     -3.638760   19.559990   -7.257580
  H     -5.113280   19.431020   -6.254050
  H     -4.314180   15.684820   -7.156360
  H     -3.686650   12.733160   -6.606840
  H     -4.628200   11.152130   -8.432300
  H     -7.832740   10.984280  -13.750910
  H     -8.641960   13.324830  -14.595260

 Total Charge           Charge          ....    0
 Multiplicity           Mult            ....    1
 Number of Electrons    NEL             ....  632
 Basis Dimension        Dim             .... 1325

ORBITAL ENERGIES
----------------

  NO   OCC          E(Eh)            E(eV)
   0   2.0000     -88.984978     -2421.4044
   1   2.0000     -88.983173     -2421.3552
   2   2.0000     -88.974982     -2421.1323
   3   2.0000     -88.971798     -2421.0457
   4   2.0000     -88.968207     -2420.9480
   5   2.0000     -88.964901     -2420.8580
   6   2.0000     -88.964547     -2420.8484
   7   2.0000     -24.792524      -674.6389
   8   2.0000     -24.790608      -674.5868
   9   2.0000     -24.790337      -674.5794
  10   2.0000     -24.789988      -674.5699
  11   2.0000     -24.789407      -674.5541
  12   2.0000     -24.787108      -674.4915
  13   2.0000     -24.784506      -674.4207
  14   2.0000     -24.783561      -674.3950
  15   2.0000     -24.783314      -674.3883
  16   2.0000     -19.272339      -524.4270
  17   2.0000     -19.263587      -524.1889
  18   2.0000     -19.239414      -523.5311
  19   2.0000     -14.426250      -392.5582
  20   2.0000     -14.426022      -392.5520
  21   2.0000     -14.416416      -392.2906
  22   2.0000     -14.416308      -392.2877
  23   2.0000     -10.510780      -286.0129
  24   2.0000     -10.508339      -285.9465
  25   2.0000     -10.506003      -285.8829
  26   2.0000     -10.359576      -281.8984
  27   2.0000     -10.358160      -281.8599
  28   2.0000     -10.351934      -281.6905
  29   2.0000     -10.348431      -281.5951
  30   2.0000     -10.347275      -281.5637
  31   2.0000     -10.342144      -281.4240
  32   2.0000     -10.340392      -281.3764
  33   2.0000     -10.337237      -281.2905
  34   2.0000     -10.332743      -281.1682
  35   2.0000     -10.327096      -281.0146
  36   2.0000     -10.326806      -281.0067
  37   2.0000     -10.326488      -280.9980
  38   2.0000     -10.325437      -280.9694
  39   2.0000     -10.317539      -280.7545
  40   2.0000     -10.317294      -280.7478
  41   2.0000     -10.317228      -280.7460
  42   2.0000     -10.317172      -280.7445
  43   2.0000     -10.316227      -280.7188
  44   2.0000     -10.315527      -280.6997
  45   2.0000     -10.313308      -280.6394
  46   2.0000     -10.311784      -280.5979
  47   2.0000     -10.310713      -280.5688
  48   2.0000     -10.309437      -280.5340
  49   2.0000     -10.308825      -280.5174
  50   2.0000     -10.308803      -280.5168
  51   2.0000     -10.308013      -280.4953
  52   2.0000     -10.307000      -280.4677
  53   2.0000     -10.300942      -280.3029
  54   2.0000     -10.298603      -280.2392
  55   2.0000     -10.297541      -280.2103
  56   2.0000     -10.297264      -280.2028
  57   2.0000     -10.296722      -280.1880
  58   2.0000     -10.296377      -280.1787
  59   2.0000     -10.295611      -280.1578
  60   2.0000     -10.294880      -280.1379
  61   2.0000     -10.294650      -280.1317
  62   2.0000     -10.293434      -280.0986
  63   2.0000     -10.293163      -280.0912
  64   2.0000     -10.292640      -280.0770
  65   2.0000     -10.291364      -280.0422
  66   2.0000     -10.289661      -279.9959
  67   2.0000     -10.289296      -279.9860
  68   2.0000     -10.288544      -279.9655
  69   2.0000     -10.286898      -279.9207
  70   2.0000     -10.286860      -279.9197
  71   2.0000     -10.286636      -279.9136
  72   2.0000     -10.285168      -279.8737
  73   2.0000     -10.284963      -279.8681
  74   2.0000     -10.284796      -279.8635
  75   2.0000     -10.283103      -279.8175
  76   2.0000     -10.282761      -279.8082
  77   2.0000     -10.281164      -279.7647
  78   2.0000     -10.280462      -279.7456
  79   2.0000     -10.279875      -279.7296
  80   2.0000     -10.274749      -279.5901
  81   2.0000     -10.273048      -279.5438
  82   2.0000     -10.272061      -279.5170
  83   2.0000      -8.080020      -219.8685
  84   2.0000      -8.077713      -219.8057
  85   2.0000      -8.069903      -219.5932
  86   2.0000      -8.066361      -219.4968
  87   2.0000      -8.063486      -219.4186
  88   2.0000      -8.060678      -219.3422
  89   2.0000      -8.059826      -219.3190
  90   2.0000      -6.049286      -164.6094
  91   2.0000      -6.046902      -164.5446
  92   2.0000      -6.044846      -164.4886
  93   2.0000      -6.042878      -164.4351
  94   2.0000      -6.042608      -164.4277
  95   2.0000      -6.040086      -164.3591
  96   2.0000      -6.039165      -164.3340
  97   2.0000      -6.035567      -164.2361
  98   2.0000      -6.034710      -164.2128
  99   2.0000      -6.032570      -164.1546
 100   2.0000      -6.032411      -164.1503
 101   2.0000      -6.031411      -164.1230
 102   2.0000      -6.029537      -164.0721
 103   2.0000      -6.028820      -164.0525
 104   2.0000      -6.028712      -164.0496
 105   2.0000      -6.028416      -164.0416
 106   2.0000      -6.026221      -163.9818
 107   2.0000      -6.025530      -163.9630
 108   2.0000      -6.024661      -163.9394
 109   2.0000      -6.023483      -163.9073
 110   2.0000      -6.022531      -163.8814
 111   2.0000      -1.381353       -37.5885
 112   2.0000      -1.378127       -37.5007
 113   2.0000      -1.376150       -37.4469
 114   2.0000      -1.282851       -34.9081
 115   2.0000      -1.281685       -34.8764
 116   2.0000      -1.281607       -34.8743
 117   2.0000      -1.279706       -34.8226
 118   2.0000      -1.275326       -34.7034
 119   2.0000      -1.273835       -34.6628
 120   2.0000      -1.176782       -32.0219
 121   2.0000      -1.169101       -31.8129
 122   2.0000      -1.144532       -31.1443
 123   2.0000      -1.038393       -28.2561
 124   2.0000      -1.028336       -27.9824
 125   2.0000      -1.017333       -27.6830
 126   2.0000      -1.008250       -27.4359
 127   2.0000      -1.005349       -27.3570
 128   2.0000      -1.003611       -27.3096
 129   2.0000      -1.001901       -27.2631
 130   2.0000      -0.998446       -27.1691
 131   2.0000      -0.994121       -27.0514
 132   2.0000      -0.989830       -26.9347
 133   2.0000      -0.977304       -26.5938
 134   2.0000      -0.953695       -25.9514
 135   2.0000      -0.947830       -25.7918
 136   2.0000      -0.944148       -25.6916
 137   2.0000      -0.942123       -25.6365
 138   2.0000      -0.939480       -25.5646
 139   2.0000      -0.921165       -25.0662
 140   2.0000      -0.910694       -24.7812
 141   2.0000      -0.903829       -24.5945
 142   2.0000      -0.894614       -24.3437
 143   2.0000      -0.882497       -24.0140
 144   2.0000      -0.880187       -23.9511
 145   2.0000      -0.872556       -23.7435
 146   2.0000      -0.868354       -23.6291
 147   2.0000      -0.860450       -23.4140
 148   2.0000      -0.853122       -23.2146
 149   2.0000      -0.847526       -23.0624
 150   2.0000      -0.844777       -22.9875
 151   2.0000      -0.840896       -22.8819
 152   2.0000      -0.838131       -22.8067
 153   2.0000      -0.835210       -22.7272
 154   2.0000      -0.834732       -22.7142
 155   2.0000      -0.821222       -22.3466
 156   2.0000      -0.815408       -22.1884
 157   2.0000      -0.811165       -22.0729
 158   2.0000      -0.796816       -21.6825
 159   2.0000      -0.795408       -21.6442
 160   2.0000      -0.779136       -21.2014
 161   2.0000      -0.771578       -20.9957
 162   2.0000      -0.767797       -20.8928
 163   2.0000      -0.763023       -20.7629
 164   2.0000      -0.760807       -20.7026
 165   2.0000      -0.757598       -20.6153
 166   2.0000      -0.750645       -20.4261
 167   2.0000      -0.738390       -20.0926
 168   2.0000      -0.725638       -19.7456
 169   2.0000      -0.716213       -19.4892
 170   2.0000      -0.711015       -19.3477
 171   2.0000      -0.708210       -19.2714
 172   2.0000      -0.704878       -19.1807
 173   2.0000      -0.704258       -19.1638
 174   2.0000      -0.699117       -19.0239
 175   2.0000      -0.688751       -18.7419
 176   2.0000      -0.687013       -18.6946
 177   2.0000      -0.679712       -18.4959
 178   2.0000      -0.677554       -18.4372
 179   2.0000      -0.674843       -18.3634
 180   2.0000      -0.670842       -18.2545
 181   2.0000      -0.667278       -18.1576
 182   2.0000      -0.663862       -18.0646
 183   2.0000      -0.662818       -18.0362
 184   2.0000      -0.661435       -17.9986
 185   2.0000      -0.658919       -17.9301
 186   2.0000      -0.658081       -17.9073
 187   2.0000      -0.657852       -17.9011
 188   2.0000      -0.655165       -17.8279
 189   2.0000      -0.648613       -17.6497
 190   2.0000      -0.638859       -17.3842
 191   2.0000      -0.633980       -17.2515
 192   2.0000      -0.629479       -17.1290
 193   2.0000      -0.627041       -17.0627
 194   2.0000      -0.626048       -17.0356
 195   2.0000      -0.620700       -16.8901
 196   2.0000      -0.613584       -16.6965
 197   2.0000      -0.610295       -16.6070
 198   2.0000      -0.608699       -16.5635
 199   2.0000      -0.603161       -16.4129
 200   2.0000      -0.600293       -16.3348
 201   2.0000      -0.597194       -16.2505
 202   2.0000      -0.591248       -16.0887
 203   2.0000      -0.588050       -16.0017
 204   2.0000      -0.581994       -15.8369
 205   2.0000      -0.577655       -15.7188
 206   2.0000      -0.576059       -15.6754
 207   2.0000      -0.575563       -15.6619
 208   2.0000      -0.567653       -15.4466
 209   2.0000      -0.566404       -15.4126
 210   2.0000      -0.560629       -15.2555
 211   2.0000      -0.556569       -15.1450
 212   2.0000      -0.548381       -14.9222
 213   2.0000      -0.547293       -14.8926
 214   2.0000      -0.546639       -14.8748
 215   2.0000      -0.543121       -14.7791
 216   2.0000      -0.541841       -14.7443
 217   2.0000      -0.541037       -14.7224
 218   2.0000      -0.540701       -14.7132
 219   2.0000      -0.537796       -14.6342
 220   2.0000      -0.536707       -14.6045
 221   2.0000      -0.536231       -14.5916
 222   2.0000      -0.533627       -14.5207
 223   2.0000      -0.532363       -14.4863
 224   2.0000      -0.528189       -14.3727
 225   2.0000      -0.526688       -14.3319
 226   2.0000      -0.524378       -14.2691
 227   2.0000      -0.520622       -14.1668
 228   2.0000      -0.519008       -14.1229
 229   2.0000      -0.516677       -14.0595
 230   2.0000      -0.515006       -14.0140
 231   2.0000      -0.514512       -14.0006
 232   2.0000      -0.512163       -13.9367
 233   2.0000      -0.508634       -13.8406
 234   2.0000      -0.504994       -13.7416
 235   2.0000      -0.504039       -13.7156
 236   2.0000      -0.501320       -13.6416
 237   2.0000      -0.500011       -13.6060
 238   2.0000      -0.498991       -13.5782
 239   2.0000      -0.496992       -13.5238
 240   2.0000      -0.496011       -13.4971
 241   2.0000      -0.494213       -13.4482
 242   2.0000      -0.492225       -13.3941
 243   2.0000      -0.490901       -13.3581
 244   2.0000      -0.489233       -13.3127
 245   2.0000      -0.486841       -13.2476
 246   2.0000      -0.485705       -13.2167
 247   2.0000      -0.484583       -13.1862
 248   2.0000      -0.483868       -13.1667
 249   2.0000      -0.480521       -13.0756
 250   2.0000      -0.479923       -13.0594
 251   2.0000      -0.478567       -13.0225
 252   2.0000      -0.477944       -13.0055
 253   2.0000      -0.477096       -12.9824
 254   2.0000      -0.476796       -12.9743
 255   2.0000      -0.475254       -12.9323
 256   2.0000      -0.472866       -12.8673
 257   2.0000      -0.470467       -12.8021
 258   2.0000      -0.465212       -12.6591
 259   2.0000      -0.462832       -12.5943
 260   2.0000      -0.462568       -12.5871
 261   2.0000      -0.458677       -12.4812
 262   2.0000      -0.457693       -12.4545
 263   2.0000      -0.457165       -12.4401
 264   2.0000      -0.455142       -12.3850
 265   2.0000      -0.453528       -12.3411
 266   2.0000      -0.452054       -12.3010
 267   2.0000      -0.449772       -12.2389
 268   2.0000      -0.448584       -12.2066
 269   2.0000      -0.447606       -12.1800
 270   2.0000      -0.444739       -12.1020
 271   2.0000      -0.444232       -12.0882
 272   2.0000      -0.443158       -12.0589
 273   2.0000      -0.441854       -12.0235
 274   2.0000      -0.438946       -11.9443
 275   2.0000      -0.436532       -11.8786
 276   2.0000      -0.435468       -11.8497
 277   2.0000      -0.434722       -11.8294
 278   2.0000      -0.434381       -11.8201
 279   2.0000      -0.433936       -11.8080
 280   2.0000      -0.429620       -11.6905
 281   2.0000      -0.427252       -11.6261
 282   2.0000      -0.427130       -11.6228
 283   2.0000      -0.426153       -11.5962
 284   2.0000      -0.425068       -11.5667
 285   2.0000      -0.422132       -11.4868
 286   2.0000      -0.421311       -11.4645
 287   2.0000      -0.420129       -11.4323
 288   2.0000      -0.414755       -11.2861
 289   2.0000      -0.413570       -11.2538
 290   2.0000      -0.411874       -11.2077
 291   2.0000      -0.411219       -11.1898
 292   2.0000      -0.405566       -11.0360
 293   2.0000      -0.400997       -10.9117
 294   2.0000      -0.400275       -10.8920
 295   2.0000      -0.395343       -10.7578
 296   2.0000      -0.388643       -10.5755
 297   2.0000      -0.374789       -10.1985
 298   2.0000      -0.369108       -10.0440
 299   2.0000      -0.357072        -9.7164
 300   2.0000      -0.345287        -9.3957
 301   2.0000      -0.343172        -9.3382
 302   2.0000      -0.332247        -9.0409
 303   2.0000      -0.330507        -8.9935
 304   2.0000      -0.329326        -8.9614
 305   2.0000      -0.322571        -8.7776
 306   2.0000      -0.321242        -8.7414
 307   2.0000      -0.318024        -8.6539
 308   2.0000      -0.316751        -8.6192
 309   2.0000      -0.315891        -8.5958
 310   2.0000      -0.305957        -8.3255
 311   2.0000      -0.286833        -7.8051
 312   2.0000      -0.279364        -7.6019
 313   2.0000      -0.260769        -7.0959
 314   2.0000      -0.234535        -6.3820
 315   2.0000      -0.209380        -5.6975
 316   0.0000      -0.101716        -2.7678
 317   0.0000      -0.088148        -2.3986
 318   0.0000      -0.081852        -2.2273
 319   0.0000      -0.058946        -1.6040
 320   0.0000      -0.033546        -0.9128

MULLIKEN ATOMIC CHARGES
-----------------------
   0 C :   -0.084235
   1 C :    0.037807
   2 C :   -0.036859
   3 C :   -0.114775
   4 S :    0.176541
   5 C :   -0.116752
   6 C :    0.017086
   7 C :    0.301276
   8 C :   -0.306671
   9 C :   -0.189780
  10 N :    0.170885
  11 C :   -0.192105
  12 N :    0.168208
  13 C :   -0.042007
  14 C :   -0.092199
  15 S :    0.216840
  16 C :   -0.181063
  17 S :    0.175991
  18 C :   -0.153010
  19 C :    0.088199
  20 C :    0.168054
  21 C :   -0.163595
  22 C :    0.510263
  23 F :   -0.155159
  24 F :   -0.170253
  25 F :   -0.174480
  26 C :    0.013585
  27 C :   -0.119963
  28 C :    0.213083
  29 O :   -0.303865
  30 C :    0.180166
  31 C :    0.032215
  32 C :    0.012398
  33 C :   -0.162273
  34 S :    0.175691
  35 C :   -0.166172
  36 C :    0.079339
  37 C :    0.114078
  38 C :   -0.138160
  39 C :    0.517555
  40 F :   -0.175859
  41 F :   -0.170990
  42 F :   -0.149519
  43 C :    0.006618
  44 C :   -0.011395
  45 C :    0.117625
  46 O :   -0.338956
  47 C :    0.209332
  48 C :   -0.023484
  49 C :    0.011313
  50 C :   -0.151828
  51 S :    0.124847
  52 C :   -0.123873
  53 C :    0.096118
  54 C :    0.160483
  55 C :   -0.148359
  56 C :    0.511365
  57 F :   -0.163205
  58 F :   -0.159869
  59 F :   -0.164340
  60 C :    0.005008
  61 C :   -0.124476
  62 C :    0.212326
  63 O :   -0.310352
  64 C :    0.177970
  65 C :   -0.012715
  66 C :    0.005789
  67 C :   -0.040772
  68 C :   -0.043616
  69 C :    0.017422
  70 C :   -0.099994
  71 S :    0.155014
  72 C :   -0.114208
  73 C :   -0.032404
  74 C :    0.298383
  75 C :   -0.298068
  76 C :   -0.190201
  77 N :    0.171918
  78 C :   -0.186414
  79 N :    0.169420
  80 C :    0.035255
  81 C :   -0.082539
  82 S :    0.174361
  83 H :    0.031281
  84 H :    0.008952
  85 H :    0.006591
  86 H :    0.002103
  87 H :   -0.028197
  88 H :    0.030754
  89 H :    0.033004
  90 H :    0.042562
  91 H :    0.015864
  92 H :   -0.006685
  93 H :    0.000751
  94 H :   -0.018024
  95 H :    0.029635
  96 H :    0.012241
  97 H :    0.032089
  98 H :   -0.009520
  99 H :    0.033254
 100 H :   -0.000929
 101 H :   -0.027675
 102 H :    0.041215
 103 H :    0.033421
 104 H :    0.034828
 105 H :    0.004233
 106 H :   -0.000835
 107 H :    0.003898
 108 H :    0.011300
 109 H :    0.034876
Sum of atomic charges:   -0.0000000

LOEWDIN ATOMIC CHARGES
----------------------
   0 C :   -0.182905
   1 C :   -0.034938
   2 C :   -0.080490
   3 C :   -0.180527
   4 S :    0.474368
   5 C :   -0.186509
   6 C :   -0.073222
   7 C :    0.086466
   8 C :   -0.109928
   9 C :   -0.016093
  10 N :   -0.039744
  11 C :   -0.016514
  12 N :   -0.039967
  13 C :   -0.040181
  14 C :   -0.189807
  15 S :    0.496471
  16 C :   -0.204693
  17 S :    0.502302
  18 C :   -0.156632
  19 C :   -0.058406
  20 C :   -0.034903
  21 C :   -0.114707
  22 C :    0.165433
  23 F :   -0.053274
  24 F :   -0.066840
  25 F :   -0.077534
  26 C :    0.018908
  27 C :   -0.100455
  28 C :    0.086318
  29 O :   -0.075125
  30 C :    0.081910
  31 C :   -0.038235
  32 C :   -0.056389
  33 C :   -0.177392
  34 S :    0.489543
  35 C :   -0.176790
  36 C :   -0.065170
  37 C :   -0.034391
  38 C :   -0.095859
  39 C :    0.174132
  40 F :   -0.071247
  41 F :   -0.066854
  42 F :   -0.044669
  43 C :    0.004982
  44 C :   -0.051724
  45 C :    0.066499
  46 O :   -0.114780
  47 C :    0.080357
  48 C :   -0.074394
  49 C :   -0.030531
  50 C :   -0.171465
  51 S :    0.481011
  52 C :   -0.159878
  53 C :   -0.059206
  54 C :   -0.029476
  55 C :   -0.101491
  56 C :    0.173634
  57 F :   -0.063890
  58 F :   -0.058461
  59 F :   -0.058482
  60 C :    0.012258
  61 C :   -0.097576
  62 C :    0.081857
  63 O :   -0.082899
  64 C :    0.081651
  65 C :   -0.051322
  66 C :   -0.046760
  67 C :   -0.157673
  68 C :   -0.030186
  69 C :   -0.070405
  70 C :   -0.184061
  71 S :    0.462917
  72 C :   -0.181184
  73 C :   -0.079518
  74 C :    0.084203
  75 C :   -0.104952
  76 C :   -0.016791
  77 N :   -0.034798
  78 C :   -0.016049
  79 N :   -0.035996
  80 C :   -0.033644
  81 C :   -0.180112
  82 S :    0.470830
  83 H :    0.025637
  84 H :    0.041376
  85 H :    0.036179
  86 H :    0.036684
  87 H :    0.029539
  88 H :    0.018920
  89 H :    0.020845
  90 H :    0.031144
  91 H :    0.029717
  92 H :    0.020089
  93 H :    0.035188
  94 H :    0.035679
  95 H :    0.014196
  96 H :    0.012660
  97 H :    0.027234
  98 H :    0.017785
  99 H :    0.029058
 100 H :    0.035913
 101 H :    0.029882
 102 H :    0.030435
 103 H :    0.020372
 104 H :    0.020885
 105 H :    0.023934
 106 H :    0.028946
 107 H :    0.040465
 108 H :    0.042422
 109 H :    0.026860

  Mayer bond orders larger than 0.100000
B(  0-C ,  1-C ) :   1.5509 B(  0-C ,  4-S ) :   1.1463 B(  0-C , 83-H ) :   0.9642
B(  1-C ,  2-C ) :   1.2777 B(  1-C , 84-H ) :   0.9953 B(  2-C ,  3-C ) :   1.4619
B(  2-C ,  7-C ) :   1.0152 B(  3-C ,  4-S ) :   1.1397 B(  3-C ,  5-C ) :   1.1810
B(  5-C ,  6-C ) :   1.4490 B(  5-C , 15-S ) :   1.1422 B(  6-C ,  7-C ) :   0.9923
B(  6-C , 13-C ) :   1.2788 B(  7-C ,  8-C ) :   1.7058 B(  8-C ,  9-C ) :   1.1366
B(  8-C , 11-C ) :   1.1302 B(  9-C , 10-N ) :   2.9946 B( 11-C , 12-N ) :   3.0033
B( 13-C , 14-C ) :   1.4673 B( 13-C , 85-H ) :   0.9970 B( 14-C , 15-S ) :   1.1243
B( 14-C , 16-C ) :   1.0876 B( 16-C , 17-S ) :   1.1625 B( 16-C , 18-C ) :   0.1123
B( 16-C , 20-C ) :   1.3998 B( 17-S , 18-C ) :   1.1542 B( 18-C , 19-C ) :   1.3427
B( 18-C , 31-C ) :   1.2266 B( 19-C , 20-C ) :   1.2149 B( 19-C , 28-C ) :   1.1766
B( 20-C , 21-C ) :   1.1901 B( 21-C , 22-C ) :   0.9621 B( 21-C , 26-C ) :   1.5441
B( 22-C , 23-F ) :   1.1483 B( 22-C , 24-F ) :   1.1477 B( 22-C , 25-F ) :   1.1458
B( 26-C , 27-C ) :   1.2104 B( 26-C , 86-H ) :   0.9851 B( 27-C , 28-C ) :   1.4258
B( 27-C , 87-H ) :   0.9938 B( 28-C , 29-O ) :   1.1846 B( 29-O , 30-C ) :   0.9452
B( 30-C , 88-H ) :   0.9697 B( 30-C , 89-H ) :   0.9700 B( 30-C , 90-H ) :   0.9778
B( 31-C , 32-C ) :   1.6244 B( 31-C , 91-H ) :   0.9424 B( 32-C , 33-C ) :   1.1408
B( 32-C , 92-H ) :   0.9480 B( 33-C , 34-S ) :   1.1511 B( 33-C , 35-C ) :   0.1057
B( 33-C , 37-C ) :   1.3436 B( 34-S , 35-C ) :   1.1578 B( 35-C , 36-C ) :   1.3237
B( 35-C , 48-C ) :   1.1550 B( 36-C , 37-C ) :   1.2082 B( 36-C , 45-C ) :   1.1588
B( 37-C , 38-C ) :   1.2264 B( 38-C , 39-C ) :   0.9647 B( 38-C , 43-C ) :   1.5246
B( 39-C , 40-F ) :   1.1322 B( 39-C , 41-F ) :   1.1459 B( 39-C , 42-F ) :   1.1533
B( 43-C , 44-C ) :   1.1918 B( 43-C , 93-H ) :   0.9873 B( 44-C , 45-C ) :   1.5378
B( 44-C , 94-H ) :   0.9930 B( 45-C , 46-O ) :   1.1063 B( 46-O , 47-C ) :   0.9357
B( 47-C , 95-H ) :   0.9635 B( 47-C , 96-H ) :   0.9657 B( 47-C , 97-H ) :   0.9827
B( 48-C , 49-C ) :   1.6285 B( 48-C , 98-H ) :   0.9471 B( 49-C , 50-C ) :   1.2025
B( 49-C , 99-H ) :   0.9390 B( 50-C , 51-S ) :   1.1296 B( 50-C , 52-C ) :   0.1017
B( 50-C , 54-C ) :   1.3510 B( 51-S , 52-C ) :   1.1392 B( 52-C , 53-C ) :   1.3292
B( 52-C , 65-C ) :   1.2179 B( 53-C , 54-C ) :   1.2274 B( 53-C , 62-C ) :   1.1774
B( 54-C , 55-C ) :   1.1938 B( 55-C , 56-C ) :   0.9583 B( 55-C , 60-C ) :   1.5509
B( 56-C , 57-F ) :   1.1213 B( 56-C , 58-F ) :   1.1554 B( 56-C , 59-F ) :   1.1458
B( 60-C , 61-C ) :   1.1988 B( 60-C ,100-H ) :   0.9896 B( 61-C , 62-C ) :   1.4299
B( 61-C ,101-H ) :   0.9962 B( 62-C , 63-O ) :   1.1768 B( 63-O , 64-C ) :   0.9456
B( 64-C ,102-H ) :   0.9780 B( 64-C ,103-H ) :   0.9700 B( 64-C ,104-H ) :   0.9701
B( 65-C , 66-C ) :   1.5738 B( 65-C ,105-H ) :   0.9567 B( 66-C , 67-C ) :   1.1872
B( 66-C ,106-H ) :   0.9726 B( 67-C , 68-C ) :   1.4232 B( 67-C , 71-S ) :   1.0917
B( 68-C , 69-C ) :   1.2780 B( 68-C ,107-H ) :   1.0055 B( 69-C , 70-C ) :   1.4528
B( 69-C , 74-C ) :   0.9895 B( 70-C , 71-S ) :   1.1144 B( 70-C , 72-C ) :   1.1921
B( 72-C , 73-C ) :   1.4498 B( 72-C , 82-S ) :   1.1361 B( 73-C , 74-C ) :   1.0228
B( 73-C , 80-C ) :   1.2739 B( 74-C , 75-C ) :   1.7086 B( 75-C , 76-C ) :   1.1299
B( 75-C , 78-C ) :   1.1328 B( 76-C , 77-N ) :   3.0023 B( 78-C , 79-N ) :   2.9924
B( 80-C , 81-C ) :   1.5516 B( 80-C ,108-H ) :   0.9967 B( 81-C , 82-S ) :   1.1429
B( 81-C ,109-H ) :   0.9642

-----------------------------------------------------------------------------
         ABSORPTION SPECTRUM VIA TRANSITION ELECTRIC DIPOLE MOMENTS
-----------------------------------------------------------------------------
State   Energy  Wavelength   fosc         T2         TX        TY        TZ
        (cm-1)    (nm)                  (au**2)     (au)      (au)      (au)
-----------------------------------------------------------------------------
   0   10588.0    944.5   0.517337102  16.08557  -1.95618   0.77568  -3.41427
   1   12427.4    804.7   0.266881286   7.06989   0.18718  -1.71336   2.02466
   2   13736.3    728.0   0.917789954  21.99624   2.17829  -2.38231   3.40234
   3   17544.3    570.0   0.046581650   0.87409  -0.18592   0.55965  -0.72547
   4   18890.8    529.4   0.443419210   7.72751  -1.33287  -2.41749  -0.32662
   5   19374.6    516.1   0.120570961   2.04873  -0.72892  -1.22953  -0.07529
   6   20187.5    495.4   0.032559026   0.53096  -0.41680  -0.42153  -0.42373
   7   22529.8    443.9   0.030189744   0.44114  -0.31599  -0.11105   0.57355
   8   23066.5    433.5   0.008695176   0.12410   0.06349  -0.12848  -0.32181
   9   24117.3    414.6   0.096595587   1.31857  -0.26821   0.42193   1.03374
  10   24432.7    409.3   0.125231282   1.68740  -0.29826   0.62709   1.09782
  11   26943.9    371.1   0.014712632   0.17977  -0.00100   0.17619  -0.38564
  12   27850.1    359.1   0.003076519   0.03637  -0.06938   0.02368   0.17605
  13   28574.5    350.0   0.069799268   0.80417  -0.60131  -0.63292  -0.20496
  14   29060.6    344.1   0.172892613   1.95861   0.36584   1.15706   0.69712
  15   29414.1    340.0   0.124340062   1.39165  -0.47346  -0.97744  -0.46054
  16   30188.9    331.2   0.147142957   1.60460   0.07623   0.92465   0.86245
  17   30544.0    327.4   0.020940054   0.22570  -0.06454  -0.03222   0.46957
  18   31054.0    322.0   0.043616912   0.46239  -0.63736   0.21081  -0.10831
  19   31468.0    317.8   0.526588088   5.50906   0.43637  -2.29597   0.21713
  20   31557.0    316.9   0.194425455   2.02830  -0.90347   1.02730  -0.39585
  21   31674.3    315.7   0.729748849   7.58476   2.58168   0.66374   0.69221
  22   32154.5    311.0   0.033289846   0.34084  -0.29997   0.03267   0.49978
  23   32380.6    308.8   0.084527450   0.85939  -0.39399  -0.17968   0.81968
  24   32791.1    305.0   0.184652988   1.85386   0.75189  -0.00180   1.13513
  25   33131.0    301.8   0.053692910   0.53353   0.35508  -0.53793   0.34362
  26   33379.1    299.6   0.107493267   1.06019  -0.35876   0.30406   0.91598
  27   33538.2    298.2   0.219857375   2.15813   0.32617   0.88131  -1.12917
  28   34081.3    293.4   0.051319469   0.49573  -0.37180  -0.16773  -0.57390
  29   35303.8    283.3   0.143640194   1.33946  -0.51756   1.01422   0.20725
  30   35551.1    281.3   0.162082516   1.50093  -0.84100  -0.87892  -0.14541
  31   35645.9    280.5   0.000789086   0.00729  -0.01130   0.07426   0.04057
  32   35796.3    279.4   0.054393637   0.50025  -0.63564   0.25861   0.17126
  33   35998.5    277.8   0.051446956   0.47049   0.07471   0.11299  -0.67242
  34   36401.2    274.7   0.028070502   0.25387   0.18965  -0.15381  -0.44073
  35   36596.0    273.3   0.018168295   0.16344   0.39991   0.02049   0.05557
  36   37011.0    270.2   0.007739899   0.06885  -0.10650   0.04257  -0.23599
  37   37135.9    269.3   0.061075464   0.54144  -0.27310  -0.47571  -0.49047
  38   37263.6    268.4   0.045679647   0.40356  -0.47522   0.09469  -0.41081
  39   37619.9    265.8   0.053638441   0.46939   0.40370   0.50424   0.22838
  40   37709.5    265.2   0.058581971   0.51143  -0.15636  -0.68824  -0.11539
  41   38043.6    262.9   0.068436538   0.59222  -0.47115   0.43841   0.42194
  42   38336.3    260.8   0.049451781   0.42467  -0.53854   0.32963  -0.16122
  43   38627.2    258.9   0.008916197   0.07599  -0.20595   0.15324   0.10048
  44   38782.0    257.9   0.021027594   0.17850   0.10617   0.34519  -0.21926
  45   39113.3    255.7   0.007856189   0.06612   0.08885   0.06023   0.23367
  46   39407.3    253.8   0.028299106   0.23641   0.39340   0.15917   0.23730
  47   39473.6    253.3   0.008575857   0.07152   0.10073   0.13024   0.21075
  48   39610.8    252.5   0.009201447   0.07647   0.13990  -0.17502  -0.16208
  49   39821.3    251.1   0.046220285   0.38211  -0.06916  -0.33670  -0.51377
  50   40104.5    249.3   0.014542238   0.11938   0.11945  -0.03350  -0.32247
  51   40263.5    248.4   0.147846958   1.20886   1.08090  -0.10726  -0.17034

FINAL SINGLE POINT ENERGY     -6427.871805772520

DIPOLE MOMENT
-------------
                                X             Y             Z
Electronic contribution:     11.59715     -32.22093      56.75405
Nuclear contribution   :    -10.07953      36.72613     -59.33609
                        -----------------------------------------
Total Dipole Moment    :      1.51762       4.50520      -2.58204
                        -----------------------------------------
Magnitude (a.u.)       :      5.40989
Magnitude (Debye)      :     13.75085

Rotational constants in cm-1:     0.000799     0.000200     0.000178
Rotational constants in MHz :    23.946018     5.982445     5.342489

                             ****ORCA TERMINATED NORMALLY****
TOTAL RUN TIME: 0 days 0 hours 21 minutes 35 seconds 815 msec
