                         Program Version 4.2.0 -  RELEASE  -
|  1> # ORCA input file
|  2> # SCF done       -176.028433811678          0.000829487370
|  3> ! CAM-B3LYP def2-SVP def2/J RIJCOSX Grid4 TightSCF
|  4> %maxcore 5000
|  5> %tddft
|  6>     Mode sTDDFT
|  7>     Ethresh 5.0
|  8>     maxcore 5000
|  9> end
| 10>
| 11> %pal
| 12>   nprocs 6
| 13>   end
| 14> * xyz 0 1
| 15>    C      -10.82006         7.17883        -1.03644
| 16>    C      -10.15687         6.85858        -2.18180
| 17>    C       -8.83898         6.44317        -1.91038
| 18>    C       -8.54459         6.46310        -0.54163
| 19>    S       -9.86751         6.98668         0.39905
| 20>    C       -7.19975         6.03108        -0.35927
| 21>    C       -6.65286         5.74208        -1.61660
| 22>    C       -7.66676         5.99047        -2.63484
| 23>    C       -7.53326         5.82462        -3.98273
| 24>    C       -6.33279         5.37088        -4.56763
| 25>    N       -5.35881         5.00108        -5.04740
| 26>    C       -8.58631         6.09109        -4.88220
| 27>    N       -9.43825         6.30431        -5.61956
| 28>    C       -5.32910         5.30688        -1.54656
| 29>    C       -4.86811         5.25946        -0.24374
| 30>    S       -6.09580         5.76844         0.91161
| 31>    C       -3.57188         4.87029         0.21096
| 32>    C       -3.24686         4.82292         1.54368
| 33>    C       -2.00060         4.46429         2.05855
| 34>    C       -0.93314         3.99973         1.15868
| 35>    C       -1.03387         3.97350        -0.18852
| 36>    S       -2.42528         4.46864        -1.05831
| 37>    C        0.14012         3.61378         2.00659
| 38>    C       -0.22003         3.82199         3.33727
| 39>    C        0.80894         3.46084         4.23420
| 40>    C        1.90069         2.99448         3.57339
| 41>    S        1.72998         2.97828         1.84935
| 42>    C       -1.54839         4.37706         3.38775
| 43>    C       -2.16797         4.73971         4.61044
| 44>    C       -3.25013         5.53921         4.76976
| 45>    C       -3.86018         5.88158         6.01460
| 46>    C       -3.46612         5.51662         7.29914
| 47>    C       -2.38516         4.73623         7.69689
| 48>    N       -1.50081         4.09842         8.06425
| 49>    S       -4.50494         6.17419         8.53443
| 50>    C       -5.49687         6.95579         7.34718
| 51>    C       -5.02879         6.70372         6.06281
| 52>    C       -5.64318         7.14979         4.88376
| 53>    N       -6.10141         7.45126         3.87389
| 54>    C       -6.60314         7.75759         7.72813
| 55>    C       -7.14991         7.90525         8.99733
| 56>    C       -8.18596         8.85908         9.04705
| 57>    O       -8.92384         9.19080        10.12682
| 58>    C       -8.43379         8.77333        11.38832
| 59>    C       -8.11330         7.29178        11.41902
| 60>    S       -6.64362         6.96865        10.38902
| 61>    C       -8.45858         9.43504         7.80434
| 62>    S       -7.43412         8.75031         6.57245
| 63>    C       -9.41924        10.38987         7.41578
| 64>    C      -10.13392        11.30629         8.13223
| 65>    C      -11.35696        11.88556         7.50262
| 66>    O      -11.69451        11.77362         6.34672
| 67>    C      -12.07260        12.56924         8.59576
| 68>    C      -13.28994        13.18588         8.57318
| 69>    C      -13.78858        13.77098         9.75900
| 70>    C      -13.01174        13.69984        10.95180
| 71>    C      -13.51499        14.28263        12.13084
| 72>    C      -14.73233        14.90478        12.10555
| 73>    C      -15.51052        14.98635        10.94299
| 74>    C      -15.03746        14.42435         9.78976
| 75>    F      -15.21344        15.46304        13.23085
| 76>    C      -11.75031        13.05885        10.94348
| 77>    C      -11.28558        12.50618         9.78138
| 78>    C      -10.02559        11.83619         9.46592
| 79>    C       -8.88709        11.90249        10.23044
| 80>    C       -7.61846        11.50523         9.77344
| 81>    N       -6.56972        11.17828         9.43770
| 82>    C       -8.84097        12.40937        11.54349
| 83>    N       -8.74531        12.75797        12.63342
| 84>    H      -11.82962         7.52442        -0.93796
| 85>    H      -10.59291         6.91910        -3.16213
| 86>    H       -4.72431         5.03506        -2.39289
| 87>    H       -4.04427         5.06270         2.23196
| 88>    H       -0.22745         3.63973        -0.82240
| 89>    H        0.74857         3.53625         5.30483
| 90>    H        2.82479         2.64860         3.99364
| 91>    H       -1.68110         4.34958         5.49401
| 92>    H       -3.71093         6.00697         3.91300
| 93>    H       -9.23433         9.01424        12.09267
| 94>    H       -7.53796         9.35291        11.64903
| 95>    H       -8.94640         6.70139        11.03624
| 96>    H       -7.85667         6.96770        12.42469
| 97>    H       -9.67265        10.36592         6.35856
| 98>    H      -13.86532        13.23033         7.66066
| 99>    H      -12.94153        14.24236        13.04377
|100>    H      -16.46316        15.49016        10.98320
|101>    H      -15.61855        14.47479         8.88132
|102>    H      -11.18600        13.01796        11.86177
|103> *
|104>
|105>                          ****END OF INPUT****

CARTESIAN COORDINATES (ANGSTROEM)
---------------------------------
  C    -10.820060    7.178830   -1.036440
  C    -10.156870    6.858580   -2.181800
  C     -8.838980    6.443170   -1.910380
  C     -8.544590    6.463100   -0.541630
  S     -9.867510    6.986680    0.399050
  C     -7.199750    6.031080   -0.359270
  C     -6.652860    5.742080   -1.616600
  C     -7.666760    5.990470   -2.634840
  C     -7.533260    5.824620   -3.982730
  C     -6.332790    5.370880   -4.567630
  N     -5.358810    5.001080   -5.047400
  C     -8.586310    6.091090   -4.882200
  N     -9.438250    6.304310   -5.619560
  C     -5.329100    5.306880   -1.546560
  C     -4.868110    5.259460   -0.243740
  S     -6.095800    5.768440    0.911610
  C     -3.571880    4.870290    0.210960
  C     -3.246860    4.822920    1.543680
  C     -2.000600    4.464290    2.058550
  C     -0.933140    3.999730    1.158680
  C     -1.033870    3.973500   -0.188520
  S     -2.425280    4.468640   -1.058310
  C      0.140120    3.613780    2.006590
  C     -0.220030    3.821990    3.337270
  C      0.808940    3.460840    4.234200
  C      1.900690    2.994480    3.573390
  S      1.729980    2.978280    1.849350
  C     -1.548390    4.377060    3.387750
  C     -2.167970    4.739710    4.610440
  C     -3.250130    5.539210    4.769760
  C     -3.860180    5.881580    6.014600
  C     -3.466120    5.516620    7.299140
  C     -2.385160    4.736230    7.696890
  N     -1.500810    4.098420    8.064250
  S     -4.504940    6.174190    8.534430
  C     -5.496870    6.955790    7.347180
  C     -5.028790    6.703720    6.062810
  C     -5.643180    7.149790    4.883760
  N     -6.101410    7.451260    3.873890
  C     -6.603140    7.757590    7.728130
  C     -7.149910    7.905250    8.997330
  C     -8.185960    8.859080    9.047050
  O     -8.923840    9.190800   10.126820
  C     -8.433790    8.773330   11.388320
  C     -8.113300    7.291780   11.419020
  S     -6.643620    6.968650   10.389020
  C     -8.458580    9.435040    7.804340
  S     -7.434120    8.750310    6.572450
  C     -9.419240   10.389870    7.415780
  C    -10.133920   11.306290    8.132230
  C    -11.356960   11.885560    7.502620
  O    -11.694510   11.773620    6.346720
  C    -12.072600   12.569240    8.595760
  C    -13.289940   13.185880    8.573180
  C    -13.788580   13.770980    9.759000
  C    -13.011740   13.699840   10.951800
  C    -13.514990   14.282630   12.130840
  C    -14.732330   14.904780   12.105550
  C    -15.510520   14.986350   10.942990
  C    -15.037460   14.424350    9.789760
  F    -15.213440   15.463040   13.230850
  C    -11.750310   13.058850   10.943480
  C    -11.285580   12.506180    9.781380
  C    -10.025590   11.836190    9.465920
  C     -8.887090   11.902490   10.230440
  C     -7.618460   11.505230    9.773440
  N     -6.569720   11.178280    9.437700
  C     -8.840970   12.409370   11.543490
  N     -8.745310   12.757970   12.633420
  H    -11.829620    7.524420   -0.937960
  H    -10.592910    6.919100   -3.162130
  H     -4.724310    5.035060   -2.392890
  H     -4.044270    5.062700    2.231960
  H     -0.227450    3.639730   -0.822400
  H      0.748570    3.536250    5.304830
  H      2.824790    2.648600    3.993640
  H     -1.681100    4.349580    5.494010
  H     -3.710930    6.006970    3.913000
  H     -9.234330    9.014240   12.092670
  H     -7.537960    9.352910   11.649030
  H     -8.946400    6.701390   11.036240
  H     -7.856670    6.967700   12.424690
  H     -9.672650   10.365920    6.358560
  H    -13.865320   13.230330    7.660660
  H    -12.941530   14.242360   13.043770
  H    -16.463160   15.490160   10.983200
  H    -15.618550   14.474790    8.881320
  H    -11.186000   13.017960   11.861770

 Total Charge           Charge          ....    0
 Multiplicity           Mult            ....    1
 Number of Electrons    NEL             ....  516
 Basis Dimension        Dim             .... 1089

ORBITAL ENERGIES
----------------

  NO   OCC          E(Eh)            E(eV)
   0   2.0000     -88.993963     -2421.6488
   1   2.0000     -88.984509     -2421.3916
   2   2.0000     -88.982770     -2421.3443
   3   2.0000     -88.980883     -2421.2929
   4   2.0000     -88.979754     -2421.2622
   5   2.0000     -88.960559     -2420.7399
   6   2.0000     -88.952960     -2420.5331
   7   2.0000     -24.787934      -674.5140
   8   2.0000     -19.289362      -524.8902
   9   2.0000     -19.217063      -522.9229
  10   2.0000     -14.425549      -392.5392
  11   2.0000     -14.424722      -392.5167
  12   2.0000     -14.423690      -392.4885
  13   2.0000     -14.421452      -392.4277
  14   2.0000     -14.419583      -392.3768
  15   2.0000     -14.414733      -392.2448
  16   2.0000     -10.375480      -282.3312
  17   2.0000     -10.371707      -282.2285
  18   2.0000     -10.367506      -282.1142
  19   2.0000     -10.359376      -281.8930
  20   2.0000     -10.358280      -281.8631
  21   2.0000     -10.354235      -281.7531
  22   2.0000     -10.346581      -281.5448
  23   2.0000     -10.344423      -281.4861
  24   2.0000     -10.344032      -281.4754
  25   2.0000     -10.340357      -281.3754
  26   2.0000     -10.335853      -281.2529
  27   2.0000     -10.334719      -281.2220
  28   2.0000     -10.332294      -281.1560
  29   2.0000     -10.330801      -281.1154
  30   2.0000     -10.329040      -281.0675
  31   2.0000     -10.327562      -281.0272
  32   2.0000     -10.326783      -281.0061
  33   2.0000     -10.326647      -281.0023
  34   2.0000     -10.326206      -280.9903
  35   2.0000     -10.326017      -280.9852
  36   2.0000     -10.325266      -280.9648
  37   2.0000     -10.324625      -280.9473
  38   2.0000     -10.324228      -280.9365
  39   2.0000     -10.324161      -280.9347
  40   2.0000     -10.323302      -280.9113
  41   2.0000     -10.322496      -280.8894
  42   2.0000     -10.320922      -280.8466
  43   2.0000     -10.318255      -280.7740
  44   2.0000     -10.308141      -280.4988
  45   2.0000     -10.307450      -280.4800
  46   2.0000     -10.307231      -280.4740
  47   2.0000     -10.302772      -280.3527
  48   2.0000     -10.302208      -280.3373
  49   2.0000     -10.301162      -280.3089
  50   2.0000     -10.299745      -280.2703
  51   2.0000     -10.299586      -280.2660
  52   2.0000     -10.299434      -280.2619
  53   2.0000     -10.297954      -280.2216
  54   2.0000     -10.297394      -280.2063
  55   2.0000     -10.296874      -280.1922
  56   2.0000     -10.296114      -280.1715
  57   2.0000     -10.294870      -280.1376
  58   2.0000     -10.293105      -280.0896
  59   2.0000     -10.292941      -280.0852
  60   2.0000     -10.291300      -280.0405
  61   2.0000     -10.291109      -280.0353
  62   2.0000     -10.290985      -280.0319
  63   2.0000     -10.287999      -279.9507
  64   2.0000     -10.282970      -279.8138
  65   2.0000     -10.278326      -279.6875
  66   2.0000     -10.273831      -279.5652
  67   2.0000     -10.270443      -279.4729
  68   2.0000     -10.269861      -279.4571
  69   2.0000      -8.088479      -220.0987
  70   2.0000      -8.078654      -219.8313
  71   2.0000      -8.077790      -219.8078
  72   2.0000      -8.075844      -219.7549
  73   2.0000      -8.074952      -219.7306
  74   2.0000      -8.056136      -219.2186
  75   2.0000      -8.048348      -219.0067
  76   2.0000      -6.058009      -164.8468
  77   2.0000      -6.053476      -164.7235
  78   2.0000      -6.050464      -164.6415
  79   2.0000      -6.047931      -164.5726
  80   2.0000      -6.047038      -164.5483
  81   2.0000      -6.045350      -164.5023
  82   2.0000      -6.044537      -164.4802
  83   2.0000      -6.043696      -164.4573
  84   2.0000      -6.042558      -164.4264
  85   2.0000      -6.041235      -164.3904
  86   2.0000      -6.040982      -164.3835
  87   2.0000      -6.040420      -164.3682
  88   2.0000      -6.039911      -164.3543
  89   2.0000      -6.037365      -164.2851
  90   2.0000      -6.036872      -164.2716
  91   2.0000      -6.026547      -163.9907
  92   2.0000      -6.022465      -163.8796
  93   2.0000      -6.017799      -163.7526
  94   2.0000      -6.015649      -163.6941
  95   2.0000      -6.013586      -163.6380
  96   2.0000      -6.010338      -163.5496
  97   2.0000      -1.302946       -35.4550
  98   2.0000      -1.197807       -32.5940
  99   2.0000      -1.132384       -30.8137
 100   2.0000      -1.038577       -28.2611
 101   2.0000      -1.037510       -28.2321
 102   2.0000      -1.022652       -27.8278
 103   2.0000      -1.016980       -27.6734
 104   2.0000      -1.012232       -27.5442
 105   2.0000      -1.006774       -27.3957
 106   2.0000      -1.005211       -27.3532
 107   2.0000      -1.003474       -27.3059
 108   2.0000      -1.002738       -27.2859
 109   2.0000      -0.999448       -27.1964
 110   2.0000      -0.992797       -27.0154
 111   2.0000      -0.990474       -26.9522
 112   2.0000      -0.978272       -26.6201
 113   2.0000      -0.969913       -26.3927
 114   2.0000      -0.950238       -25.8573
 115   2.0000      -0.949743       -25.8438
 116   2.0000      -0.930002       -25.3066
 117   2.0000      -0.928820       -25.2745
 118   2.0000      -0.916535       -24.9402
 119   2.0000      -0.909528       -24.7495
 120   2.0000      -0.903291       -24.5798
 121   2.0000      -0.897959       -24.4347
 122   2.0000      -0.890162       -24.2225
 123   2.0000      -0.885504       -24.0958
 124   2.0000      -0.883404       -24.0386
 125   2.0000      -0.872991       -23.7553
 126   2.0000      -0.863925       -23.5086
 127   2.0000      -0.859964       -23.4008
 128   2.0000      -0.846877       -23.0447
 129   2.0000      -0.840109       -22.8605
 130   2.0000      -0.835914       -22.7464
 131   2.0000      -0.825823       -22.4718
 132   2.0000      -0.816603       -22.2209
 133   2.0000      -0.798949       -21.7405
 134   2.0000      -0.791649       -21.5419
 135   2.0000      -0.789167       -21.4743
 136   2.0000      -0.775197       -21.0942
 137   2.0000      -0.770309       -20.9612
 138   2.0000      -0.765472       -20.8295
 139   2.0000      -0.763724       -20.7820
 140   2.0000      -0.748633       -20.3713
 141   2.0000      -0.739069       -20.1111
 142   2.0000      -0.727089       -19.7851
 143   2.0000      -0.725737       -19.7483
 144   2.0000      -0.718810       -19.5598
 145   2.0000      -0.711322       -19.3561
 146   2.0000      -0.699421       -19.0322
 147   2.0000      -0.697579       -18.9821
 148   2.0000      -0.686638       -18.6844
 149   2.0000      -0.681988       -18.5578
 150   2.0000      -0.676418       -18.4063
 151   2.0000      -0.672167       -18.2906
 152   2.0000      -0.663146       -18.0451
 153   2.0000      -0.654815       -17.8184
 154   2.0000      -0.649837       -17.6830
 155   2.0000      -0.639851       -17.4112
 156   2.0000      -0.637289       -17.3415
 157   2.0000      -0.633964       -17.2510
 158   2.0000      -0.630893       -17.1675
 159   2.0000      -0.622430       -16.9372
 160   2.0000      -0.614387       -16.7183
 161   2.0000      -0.612494       -16.6668
 162   2.0000      -0.609347       -16.5812
 163   2.0000      -0.604748       -16.4560
 164   2.0000      -0.600893       -16.3511
 165   2.0000      -0.592772       -16.1301
 166   2.0000      -0.591117       -16.0851
 167   2.0000      -0.586819       -15.9682
 168   2.0000      -0.583638       -15.8816
 169   2.0000      -0.569031       -15.4841
 170   2.0000      -0.568116       -15.4592
 171   2.0000      -0.565776       -15.3956
 172   2.0000      -0.561113       -15.2687
 173   2.0000      -0.560143       -15.2423
 174   2.0000      -0.557875       -15.1806
 175   2.0000      -0.552197       -15.0260
 176   2.0000      -0.550208       -14.9719
 177   2.0000      -0.546619       -14.8743
 178   2.0000      -0.541050       -14.7227
 179   2.0000      -0.539959       -14.6930
 180   2.0000      -0.536810       -14.6073
 181   2.0000      -0.534624       -14.5479
 182   2.0000      -0.532454       -14.4888
 183   2.0000      -0.528924       -14.3928
 184   2.0000      -0.525764       -14.3068
 185   2.0000      -0.519796       -14.1444
 186   2.0000      -0.519105       -14.1256
 187   2.0000      -0.515193       -14.0191
 188   2.0000      -0.512635       -13.9495
 189   2.0000      -0.508623       -13.8403
 190   2.0000      -0.506051       -13.7704
 191   2.0000      -0.503241       -13.6939
 192   2.0000      -0.501781       -13.6542
 193   2.0000      -0.498856       -13.5746
 194   2.0000      -0.498680       -13.5698
 195   2.0000      -0.493737       -13.4353
 196   2.0000      -0.491611       -13.3774
 197   2.0000      -0.489606       -13.3229
 198   2.0000      -0.486933       -13.2501
 199   2.0000      -0.484170       -13.1749
 200   2.0000      -0.482887       -13.1400
 201   2.0000      -0.480912       -13.0863
 202   2.0000      -0.479405       -13.0453
 203   2.0000      -0.470591       -12.8054
 204   2.0000      -0.468554       -12.7500
 205   2.0000      -0.467867       -12.7313
 206   2.0000      -0.463203       -12.6044
 207   2.0000      -0.460537       -12.5318
 208   2.0000      -0.459274       -12.4975
 209   2.0000      -0.456939       -12.4339
 210   2.0000      -0.456456       -12.4208
 211   2.0000      -0.455735       -12.4012
 212   2.0000      -0.454415       -12.3653
 213   2.0000      -0.452303       -12.3078
 214   2.0000      -0.451097       -12.2750
 215   2.0000      -0.448534       -12.2052
 216   2.0000      -0.448307       -12.1991
 217   2.0000      -0.445928       -12.1343
 218   2.0000      -0.444991       -12.1088
 219   2.0000      -0.442991       -12.0544
 220   2.0000      -0.440597       -11.9892
 221   2.0000      -0.438518       -11.9327
 222   2.0000      -0.435582       -11.8528
 223   2.0000      -0.435566       -11.8524
 224   2.0000      -0.434359       -11.8195
 225   2.0000      -0.431164       -11.7326
 226   2.0000      -0.431053       -11.7296
 227   2.0000      -0.425995       -11.5919
 228   2.0000      -0.423575       -11.5261
 229   2.0000      -0.422574       -11.4988
 230   2.0000      -0.421812       -11.4781
 231   2.0000      -0.419080       -11.4037
 232   2.0000      -0.417229       -11.3534
 233   2.0000      -0.414538       -11.2802
 234   2.0000      -0.412964       -11.2373
 235   2.0000      -0.410830       -11.1793
 236   2.0000      -0.407196       -11.0804
 237   2.0000      -0.405052       -11.0220
 238   2.0000      -0.394652       -10.7390
 239   2.0000      -0.392126       -10.6703
 240   2.0000      -0.389325       -10.5941
 241   2.0000      -0.382839       -10.4176
 242   2.0000      -0.380275       -10.3478
 243   2.0000      -0.360375        -9.8063
 244   2.0000      -0.354262        -9.6399
 245   2.0000      -0.343362        -9.3434
 246   2.0000      -0.341736        -9.2991
 247   2.0000      -0.339445        -9.2368
 248   2.0000      -0.334124        -9.0920
 249   2.0000      -0.315695        -8.5905
 250   2.0000      -0.314788        -8.5658
 251   2.0000      -0.313825        -8.5396
 252   2.0000      -0.301523        -8.2049
 253   2.0000      -0.298207        -8.1146
 254   2.0000      -0.291059        -7.9201
 255   2.0000      -0.276747        -7.5307
 256   2.0000      -0.266888        -7.2624
 257   2.0000      -0.230821        -6.2810
 258   0.0000      -0.101058        -2.7499
 259   0.0000      -0.098016        -2.6671
 260   0.0000      -0.071849        -1.9551
 261   0.0000      -0.064370        -1.7516
 262   0.0000      -0.047722        -1.2986

MULLIKEN ATOMIC CHARGES
-----------------------
   0 C :   -0.078666
   1 C :    0.031574
   2 C :   -0.029553
   3 C :   -0.115103
   4 S :    0.192103
   5 C :   -0.096008
   6 C :    0.011026
   7 C :    0.300346
   8 C :   -0.300464
   9 C :   -0.185698
  10 N :    0.168992
  11 C :   -0.192365
  12 N :    0.171628
  13 C :   -0.055005
  14 C :   -0.071848
  15 S :    0.204793
  16 C :   -0.013342
  17 C :   -0.100483
  18 C :    0.061708
  19 C :    0.052500
  20 C :   -0.122488
  21 S :    0.142093
  22 C :   -0.107440
  23 C :    0.051881
  24 C :    0.002452
  25 C :   -0.066069
  26 S :    0.125166
  27 C :    0.072784
  28 C :   -0.007109
  29 C :   -0.079934
  30 C :    0.271260
  31 C :   -0.351560
  32 C :   -0.158302
  33 N :    0.119103
  34 S :    0.221717
  35 C :   -0.027359
  36 C :   -0.068572
  37 C :   -0.278426
  38 N :    0.144950
  39 C :   -0.120516
  40 C :   -0.060218
  41 C :    0.192012
  42 O :   -0.291016
  43 C :    0.202378
  44 C :   -0.074830
  45 S :    0.025361
  46 C :   -0.137148
  47 S :    0.181088
  48 C :    0.071456
  49 C :   -0.130553
  50 C :    0.134737
  51 O :   -0.143241
  52 C :    0.008816
  53 C :   -0.081445
  54 C :    0.101001
  55 C :    0.107297
  56 C :   -0.102104
  57 C :    0.303788
  58 C :   -0.028482
  59 C :   -0.011373
  60 F :   -0.190166
  61 C :   -0.101428
  62 C :    0.052805
  63 C :    0.309352
  64 C :   -0.343221
  65 C :   -0.210910
  66 N :    0.168052
  67 C :   -0.182760
  68 N :    0.148058
  69 H :    0.034967
  70 H :    0.010563
  71 H :    0.018366
  72 H :   -0.005315
  73 H :    0.039913
  74 H :   -0.000159
  75 H :    0.027558
  76 H :   -0.009164
  77 H :   -0.006563
  78 H :    0.048135
  79 H :    0.055299
  80 H :    0.079819
  81 H :    0.072634
  82 H :    0.026797
  83 H :   -0.012091
  84 H :   -0.003048
  85 H :    0.003612
  86 H :   -0.008559
  87 H :   -0.009839
Sum of atomic charges:   -0.0000000

LOEWDIN ATOMIC CHARGES
----------------------
   0 C :   -0.177681
   1 C :   -0.034816
   2 C :   -0.076579
   3 C :   -0.182951
   4 S :    0.485141
   5 C :   -0.174808
   6 C :   -0.072387
   7 C :    0.084466
   8 C :   -0.106248
   9 C :   -0.016026
  10 N :   -0.037147
  11 C :   -0.016991
  12 N :   -0.035174
  13 C :   -0.037843
  14 C :   -0.186683
  15 S :    0.508292
  16 C :   -0.171125
  17 C :   -0.037988
  18 C :   -0.005599
  19 C :   -0.044823
  20 C :   -0.139704
  21 S :    0.472329
  22 C :   -0.208603
  23 C :   -0.036017
  24 C :   -0.062065
  25 C :   -0.162031
  26 S :    0.418664
  27 C :   -0.063142
  28 C :    0.025552
  29 C :   -0.067055
  30 C :    0.013010
  31 C :   -0.241383
  32 C :   -0.055236
  33 N :   -0.059348
  34 S :    0.506580
  35 C :   -0.142366
  36 C :   -0.114651
  37 C :   -0.045742
  38 N :   -0.061632
  39 C :   -0.191294
  40 C :   -0.210344
  41 C :    0.024960
  42 O :   -0.065317
  43 C :    0.073327
  44 C :   -0.134551
  45 S :    0.310161
  46 C :   -0.198769
  47 S :    0.496358
  48 C :    0.045533
  49 C :   -0.089008
  50 C :    0.083683
  51 O :   -0.143473
  52 C :   -0.061309
  53 C :    0.035628
  54 C :   -0.020213
  55 C :    0.003962
  56 C :   -0.043781
  57 C :    0.093429
  58 C :   -0.037807
  59 C :    0.005062
  60 F :   -0.064624
  61 C :    0.005085
  62 C :   -0.015170
  63 C :    0.067446
  64 C :   -0.139341
  65 C :   -0.017866
  66 N :   -0.055092
  67 C :   -0.021359
  68 N :   -0.058145
  69 H :    0.027290
  70 H :    0.042133
  71 H :    0.034127
  72 H :    0.026977
  73 H :    0.038543
  74 H :    0.035938
  75 H :    0.023943
  76 H :    0.037786
  77 H :    0.028779
  78 H :    0.036927
  79 H :    0.026987
  80 H :    0.034615
  81 H :    0.043089
  82 H :    0.047880
  83 H :    0.039633
  84 H :    0.042612
  85 H :    0.041982
  86 H :    0.035803
  87 H :    0.037596

  Mayer bond orders larger than 0.100000
B(  0-C ,  1-C ) :   1.5479 B(  0-C ,  4-S ) :   1.1519 B(  0-C , 69-H ) :   0.9638
B(  1-C ,  2-C ) :   1.2744 B(  1-C , 70-H ) :   0.9974 B(  2-C ,  3-C ) :   1.4547
B(  2-C ,  7-C ) :   1.0170 B(  3-C ,  4-S ) :   1.1411 B(  3-C ,  5-C ) :   1.1777
B(  5-C ,  6-C ) :   1.4546 B(  5-C , 15-S ) :   1.1485 B(  6-C ,  7-C ) :   0.9977
B(  6-C , 13-C ) :   1.3011 B(  7-C ,  8-C ) :   1.7048 B(  8-C ,  9-C ) :   1.1335
B(  8-C , 11-C ) :   1.1319 B(  9-C , 10-N ) :   2.9899 B( 11-C , 12-N ) :   3.0025
B( 13-C , 14-C ) :   1.4620 B( 13-C , 71-H ) :   0.9802 B( 14-C , 15-S ) :   1.1082
B( 14-C , 16-C ) :   1.1580 B( 16-C , 17-C ) :   1.5227 B( 16-C , 21-S ) :   1.0706
B( 17-C , 18-C ) :   1.2448 B( 17-C , 72-H ) :   0.9574 B( 18-C , 19-C ) :   1.0595
B( 18-C , 27-C ) :   1.3824 B( 19-C , 20-C ) :   1.6025 B( 19-C , 22-C ) :   1.1772
B( 20-C , 21-S ) :   1.1417 B( 20-C , 73-H ) :   0.9403 B( 22-C , 23-C ) :   1.4446
B( 22-C , 26-S ) :   1.0707 B( 23-C , 24-C ) :   1.2248 B( 23-C , 27-C ) :   1.0936
B( 24-C , 25-C ) :   1.5835 B( 24-C , 74-H ) :   0.9976 B( 25-C , 26-S ) :   1.1548
B( 25-C , 75-H ) :   0.9654 B( 27-C , 28-C ) :   1.1605 B( 28-C , 29-C ) :   1.6023
B( 28-C , 76-H ) :   0.9551 B( 29-C , 30-C ) :   1.1494 B( 29-C , 77-H ) :   0.9468
B( 30-C , 31-C ) :   1.4290 B( 30-C , 36-C ) :   1.2295 B( 31-C , 32-C ) :   1.2145
B( 31-C , 34-S ) :   1.1077 B( 31-C , 35-C ) :   0.1072 B( 32-C , 33-N ) :   2.9416
B( 34-S , 35-C ) :   1.1621 B( 35-C , 36-C ) :   1.4474 B( 35-C , 39-C ) :   1.1670
B( 36-C , 37-C ) :   1.1018 B( 37-C , 38-N ) :   2.9697 B( 39-C , 40-C ) :   1.5068
B( 39-C , 46-C ) :   0.1141 B( 39-C , 47-S ) :   1.1449 B( 40-C , 41-C ) :   1.2611
B( 40-C , 45-S ) :   1.0099 B( 41-C , 42-O ) :   1.1896 B( 41-C , 46-C ) :   1.4406
B( 42-O , 43-C ) :   0.9228 B( 43-C , 44-C ) :   1.0511 B( 43-C , 78-H ) :   0.9500
B( 43-C , 79-H ) :   0.9456 B( 44-C , 45-S ) :   0.9992 B( 44-C , 80-H ) :   0.9434
B( 44-C , 81-H ) :   0.9466 B( 46-C , 47-S ) :   1.0915 B( 46-C , 48-C ) :   1.1628
B( 48-C , 49-C ) :   1.6309 B( 48-C , 82-H ) :   0.9189 B( 49-C , 50-C ) :   0.9378
B( 49-C , 63-C ) :   1.0741 B( 50-C , 51-O ) :   2.2650 B( 50-C , 52-C ) :   0.9212
B( 52-C , 53-C ) :   1.4730 B( 52-C , 62-C ) :   1.2156 B( 53-C , 54-C ) :   1.1879
B( 53-C , 83-H ) :   1.0155 B( 54-C , 55-C ) :   1.2583 B( 54-C , 59-C ) :   1.2354
B( 55-C , 56-C ) :   1.2028 B( 55-C , 61-C ) :   1.2003 B( 56-C , 57-C ) :   1.4399
B( 56-C , 84-H ) :   1.0063 B( 57-C , 58-C ) :   1.2565 B( 57-C , 60-F ) :   1.0892
B( 58-C , 59-C ) :   1.4589 B( 58-C , 85-H ) :   0.9923 B( 59-C , 86-H ) :   0.9970
B( 61-C , 62-C ) :   1.4606 B( 61-C , 87-H ) :   0.9940 B( 62-C , 63-C ) :   0.9980
B( 63-C , 64-C ) :   1.6137 B( 64-C , 65-C ) :   1.1857 B( 64-C , 67-C ) :   1.1388
B( 65-C , 66-N ) :   2.9696 B( 67-C , 68-N ) :   2.9713

-----------------------------------------------------------------------------
         ABSORPTION SPECTRUM VIA TRANSITION ELECTRIC DIPOLE MOMENTS
-----------------------------------------------------------------------------
State   Energy  Wavelength   fosc         T2         TX        TY        TZ
        (cm-1)    (nm)                  (au**2)     (au)      (au)      (au)
-----------------------------------------------------------------------------
   0   12811.9    780.5   0.077901143   2.00174   1.07350  -0.20893   0.89760
   1   16377.5    610.6   0.074843216   1.50446   0.67605  -0.46328   0.91257
   2   18289.4    546.8   0.599727873  10.79517   0.07185   0.96006   3.14138
   3   20130.9    496.7   0.008928205   0.14601   0.30379   0.00252   0.23176
   4   21568.7    463.6   1.135281655  17.32828   2.85613  -2.76253  -1.24065
   5   24192.3    413.4   0.081537295   1.10957   0.69120  -0.18049   0.77410
   6   24555.3    407.2   0.158587006   2.12617   0.75540  -0.89502   0.86860
   7   25171.6    397.3   0.064090620   0.83822  -0.75547   0.25307   0.45104
   8   25922.9    385.8   0.071739138   0.91106  -0.28745   0.41039   0.81241
   9   26764.6    373.6   0.153668976   1.89017  -1.06540   0.37703   0.78290
  10   27103.2    369.0   0.020142390   0.24466   0.00318   0.40120  -0.28929
  11   27806.4    359.6   0.172433671   2.04152  -0.90300   0.36851   1.04418
  12   28013.1    357.0   0.085690010   1.00703   0.84458  -0.53903   0.05625
  13   28281.6    353.6   0.011244210   0.13089  -0.21968  -0.25585  -0.13103
  14   29030.2    344.5   0.312221840   3.54069   1.75705  -0.67325   0.01343
  15   29641.4    337.4   0.046299838   0.51423   0.69415  -0.14307   0.10918
  16   30080.6    332.4   0.101129617   1.10679   0.97024  -0.26319  -0.31010
  17   30489.5    328.0   0.110790401   1.19626  -0.77048   0.22427  -0.74319
  18   30886.6    323.8   0.165858764   1.76785   1.14312  -0.30260   0.60792
  19   31228.9    320.2   0.049576372   0.52263  -0.29816   0.16158  -0.63845
  20   31549.5    317.0   0.842681888   8.79319   0.75765  -0.46365  -2.82917
  21   31919.0    313.3   0.139634031   1.44018   1.11907  -0.43235  -0.03079
  22   32465.2    308.0   0.187484778   1.90118  -1.26217   0.33396   0.44339
  23   33346.4    299.9   0.122365484   1.20805  -0.46764   0.03988  -0.99387
  24   33582.2    297.8   0.146297458   1.43418   1.03547  -0.51846  -0.30524
  25   33699.9    296.7   0.089677236   0.87605   0.75312  -0.25909   0.49167
  26   33854.1    295.4   0.339016456   3.29674   1.69493  -0.64211  -0.10797
  27   33928.1    294.7   0.036236970   0.35162  -0.35379   0.13236  -0.45709
  28   34501.1    289.8   0.093074123   0.88812   0.72959  -0.40997  -0.43329
  29   34553.9    289.4   0.048110192   0.45837   0.40352  -0.12464   0.52915
  30   35180.9    284.2   0.318164213   2.97728  -1.35636   0.56423  -0.90510
  31   35315.0    283.2   0.355230941   3.31151  -1.59160   0.43093  -0.76981
  32   35460.9    282.0   0.043571553   0.40451  -0.53743   0.33397  -0.06433
  33   35634.4    280.6   0.205308636   1.89677  -1.05994   0.84545   0.24189
  34   36421.0    274.6   0.029414046   0.26588   0.41743  -0.08100   0.29166
  35   36649.2    272.9   0.081559733   0.73263  -0.52905   0.22209   0.63515
  36   36824.5    271.6   0.005721322   0.05115  -0.05720   0.00563   0.21874
  37   37034.2    270.0   0.034220658   0.30420   0.50859  -0.21045  -0.03537
  38   37186.0    268.9   0.262222919   2.32149  -1.41681   0.55920  -0.03793
  39   37594.5    266.0   0.023585056   0.20653  -0.33373  -0.01820  -0.30794
  40   37919.1    263.7   0.023153342   0.20102  -0.41311   0.14231   0.10051
  41   38188.1    261.9   0.000862500   0.00744  -0.05629   0.05981   0.02626
  42   38503.0    259.7   0.041470312   0.35458   0.29611  -0.07586   0.51102
  43   38991.3    256.5   0.108665972   0.91749  -0.31371   0.05535  -0.90334
  44   39340.8    254.2   0.000201834   0.00169   0.02927  -0.01081  -0.02674
  45   39598.5    252.5   0.064445101   0.53578   0.34930   0.28710   0.57562
  46   39760.8    251.5   0.093360142   0.77300   0.52933   0.19770   0.67360
  47   39955.7    250.3   0.034452681   0.28387   0.28997  -0.09697   0.43633
  48   40168.2    249.0   0.055870380   0.45790  -0.21871   0.15504   0.62131

FINAL SINGLE POINT ENERGY     -5392.919111625301

DIPOLE MOMENT
-------------
                                X             Y             Z
Electronic contribution:      5.16294      -2.09055     -13.68649
Nuclear contribution   :     -7.37328       1.72644      15.79697
                        -----------------------------------------
Total Dipole Moment    :     -2.21035      -0.36411       2.11048
                        -----------------------------------------
Magnitude (a.u.)       :      3.07772
Magnitude (Debye)      :      7.82294

Rotational constants in cm-1:     0.001148     0.000388     0.000298
Rotational constants in MHz :    34.411628    11.642412     8.923074

                             ****ORCA TERMINATED NORMALLY****
TOTAL RUN TIME: 0 days 0 hours 9 minutes 12 seconds 190 msec
