                         Program Version 4.2.0 -  RELEASE  -
|  1> # ORCA input file
|  2> # SCF done       -150.888633328028          0.000849056094
|  3> ! CAM-B3LYP def2-SVP def2/J RIJCOSX Grid4 TightSCF
|  4> %maxcore 5000
|  5> %tddft
|  6>     Mode sTDDFT
|  7>     Ethresh 5.0
|  8>     maxcore 5000
|  9> end
| 10>
| 11> %pal
| 12>   nprocs 6
| 13>   end
| 14> * xyz 0 1
| 15>    C        6.33088         2.10347         6.31808
| 16>    C        5.21221         2.42156         7.02363
| 17>    C        4.25122         3.05210         6.20743
| 18>    C        4.68735         3.19201         4.88276
| 19>    S        6.25378         2.55792         4.64528
| 20>    C        3.66559         3.83727         4.13489
| 21>    C        2.58696         4.10368         4.98971
| 22>    C        2.92482         3.61893         6.32572
| 23>    C        2.15744         3.69094         7.45410
| 24>    C        0.88540         4.28896         7.48612
| 25>    N       -0.14983         4.78202         7.54844
| 26>    C        2.60069         3.17310         8.69029
| 27>    N        2.95582         2.74904         9.69468
| 28>    C        1.52211         4.73421         4.34691
| 29>    C        1.78491         4.95828         3.00418
| 30>    S        3.37338         4.36727         2.53901
| 31>    C        0.94866         5.57657         2.02568
| 32>    C       -0.25549         6.16106         2.33377
| 33>    C       -1.10630         6.77290         1.41147
| 34>    C       -0.69245         6.95606         0.01242
| 35>    C        0.44443         6.45116        -0.51261
| 36>    S        1.57883         5.52903         0.38339
| 37>    C       -1.71477         7.74219        -0.58657
| 38>    C       -2.70128         8.02445         0.35883
| 39>    C       -3.75228         8.79675        -0.18311
| 40>    C       -3.53897         9.07731        -1.49522
| 41>    S       -2.06719         8.41785        -2.12671
| 42>    C       -2.35136         7.39947         1.60677
| 43>    C       -3.16371         7.44165         2.77064
| 44>    C       -3.10538         6.54756         3.78652
| 45>    C       -3.83675         6.58749         5.01398
| 46>    C       -4.76754         7.54647         5.38569
| 47>    C       -5.40563         7.50507         6.62242
| 48>    F       -6.27950         8.50750         6.86862
| 49>    C       -5.17488         6.55190         7.60490
| 50>    C       -4.20867         5.57385         7.26426
| 51>    C       -3.56706         5.58021         5.98001
| 52>    N       -2.70930         4.56877         5.84411
| 53>    S       -2.70207         3.71051         7.19915
| 54>    N       -3.79510         4.54985         8.01558
| 55>    C       -5.85103         6.53363         8.89161
| 56>    C       -7.17485         6.95858         9.06758
| 57>    N       -7.77777         6.93304        10.23680
| 58>    C       -7.07837         6.47170        11.26879
| 59>    N       -5.82181         6.03170        11.21829
| 60>    C       -5.21868         6.06167        10.05252
| 61>    C       -7.71825         6.43756        12.55908
| 62>    S       -9.30111         7.07332        12.81849
| 63>    C       -9.25194         6.66935        14.50339
| 64>    C       -8.04460         6.06454        14.83706
| 65>    C       -7.18448         5.93904        13.71970
| 66>    N       -5.86968         5.32217        13.79569
| 67>    O       -5.81459         4.14819        13.53094
| 68>    O       -4.96504         6.02460        14.16702
| 69>    C       -7.67222         5.60525        16.11416
| 70>    N       -7.33416         5.20755        17.13495
| 71>    C      -10.39285         6.98458        15.32056
| 72>    C      -10.51093         6.75290        16.62674
| 73>    H        7.21859         1.62100         6.67486
| 74>    H        5.08852         2.21354         8.07055
| 75>    H        0.60047         5.00460         4.82881
| 76>    H       -0.53836         6.17415         3.37451
| 77>    H        0.71774         6.58424        -1.54746
| 78>    H       -4.61805         9.12929         0.36017
| 79>    H       -4.16557         9.64358        -2.15626
| 80>    H       -3.89324         8.24061         2.79927
| 81>    H       -2.46094         5.68582         3.70088
| 82>    H       -5.02416         8.35651         4.72219
| 83>    H       -7.77886         7.31306         8.24408
| 84>    H       -4.19916         5.70564        10.03420
| 85>    H      -11.20403         7.45353        14.77875
| 86>    H       -9.73120         6.29009        17.20512
| 87>    H      -11.40786         7.02544        17.15450
| 88> *
| 89>
| 90>                          ****END OF INPUT****

CARTESIAN COORDINATES (ANGSTROEM)
---------------------------------
  C      6.330880    2.103470    6.318080
  C      5.212210    2.421560    7.023630
  C      4.251220    3.052100    6.207430
  C      4.687350    3.192010    4.882760
  S      6.253780    2.557920    4.645280
  C      3.665590    3.837270    4.134890
  C      2.586960    4.103680    4.989710
  C      2.924820    3.618930    6.325720
  C      2.157440    3.690940    7.454100
  C      0.885400    4.288960    7.486120
  N     -0.149830    4.782020    7.548440
  C      2.600690    3.173100    8.690290
  N      2.955820    2.749040    9.694680
  C      1.522110    4.734210    4.346910
  C      1.784910    4.958280    3.004180
  S      3.373380    4.367270    2.539010
  C      0.948660    5.576570    2.025680
  C     -0.255490    6.161060    2.333770
  C     -1.106300    6.772900    1.411470
  C     -0.692450    6.956060    0.012420
  C      0.444430    6.451160   -0.512610
  S      1.578830    5.529030    0.383390
  C     -1.714770    7.742190   -0.586570
  C     -2.701280    8.024450    0.358830
  C     -3.752280    8.796750   -0.183110
  C     -3.538970    9.077310   -1.495220
  S     -2.067190    8.417850   -2.126710
  C     -2.351360    7.399470    1.606770
  C     -3.163710    7.441650    2.770640
  C     -3.105380    6.547560    3.786520
  C     -3.836750    6.587490    5.013980
  C     -4.767540    7.546470    5.385690
  C     -5.405630    7.505070    6.622420
  F     -6.279500    8.507500    6.868620
  C     -5.174880    6.551900    7.604900
  C     -4.208670    5.573850    7.264260
  C     -3.567060    5.580210    5.980010
  N     -2.709300    4.568770    5.844110
  S     -2.702070    3.710510    7.199150
  N     -3.795100    4.549850    8.015580
  C     -5.851030    6.533630    8.891610
  C     -7.174850    6.958580    9.067580
  N     -7.777770    6.933040   10.236800
  C     -7.078370    6.471700   11.268790
  N     -5.821810    6.031700   11.218290
  C     -5.218680    6.061670   10.052520
  C     -7.718250    6.437560   12.559080
  S     -9.301110    7.073320   12.818490
  C     -9.251940    6.669350   14.503390
  C     -8.044600    6.064540   14.837060
  C     -7.184480    5.939040   13.719700
  N     -5.869680    5.322170   13.795690
  O     -5.814590    4.148190   13.530940
  O     -4.965040    6.024600   14.167020
  C     -7.672220    5.605250   16.114160
  N     -7.334160    5.207550   17.134950
  C    -10.392850    6.984580   15.320560
  C    -10.510930    6.752900   16.626740
  H      7.218590    1.621000    6.674860
  H      5.088520    2.213540    8.070550
  H      0.600470    5.004600    4.828810
  H     -0.538360    6.174150    3.374510
  H      0.717740    6.584240   -1.547460
  H     -4.618050    9.129290    0.360170
  H     -4.165570    9.643580   -2.156260
  H     -3.893240    8.240610    2.799270
  H     -2.460940    5.685820    3.700880
  H     -5.024160    8.356510    4.722190
  H     -7.778860    7.313060    8.244080
  H     -4.199160    5.705640   10.034200
  H    -11.204030    7.453530   14.778750
  H     -9.731200    6.290090   17.205120
  H    -11.407860    7.025440   17.154500

 Total Charge           Charge          ....    0
 Multiplicity           Mult            ....    1
 Number of Electrons    NEL             ....  438
 Basis Dimension        Dim             ....  911

ORBITAL ENERGIES
----------------

  NO   OCC          E(Eh)            E(eV)
   0   2.0000     -89.020230     -2422.3636
   1   2.0000     -88.992395     -2421.6062
   2   2.0000     -88.988658     -2421.5045
   3   2.0000     -88.982550     -2421.3383
   4   2.0000     -88.979893     -2421.2660
   5   2.0000     -88.960306     -2420.7330
   6   2.0000     -24.789890      -674.5672
   7   2.0000     -19.233411      -523.3677
   8   2.0000     -19.232810      -523.3514
   9   2.0000     -14.640338      -398.3838
  10   2.0000     -14.436679      -392.8420
  11   2.0000     -14.433845      -392.7649
  12   2.0000     -14.431097      -392.6901
  13   2.0000     -14.429836      -392.6558
  14   2.0000     -14.414618      -392.2417
  15   2.0000     -14.410676      -392.1344
  16   2.0000     -14.407173      -392.0391
  17   2.0000     -10.370512      -282.1960
  18   2.0000     -10.365190      -282.0512
  19   2.0000     -10.353870      -281.7431
  20   2.0000     -10.351423      -281.6765
  21   2.0000     -10.338462      -281.3239
  22   2.0000     -10.336998      -281.2840
  23   2.0000     -10.333653      -281.1930
  24   2.0000     -10.333526      -281.1895
  25   2.0000     -10.333065      -281.1770
  26   2.0000     -10.331348      -281.1303
  27   2.0000     -10.330795      -281.1152
  28   2.0000     -10.330758      -281.1142
  29   2.0000     -10.330168      -281.0982
  30   2.0000     -10.323369      -280.9131
  31   2.0000     -10.322830      -280.8985
  32   2.0000     -10.321059      -280.8503
  33   2.0000     -10.318280      -280.7747
  34   2.0000     -10.318005      -280.7672
  35   2.0000     -10.316516      -280.7267
  36   2.0000     -10.312190      -280.6090
  37   2.0000     -10.307727      -280.4875
  38   2.0000     -10.304573      -280.4017
  39   2.0000     -10.304111      -280.3891
  40   2.0000     -10.303569      -280.3744
  41   2.0000     -10.301161      -280.3088
  42   2.0000     -10.300360      -280.2870
  43   2.0000     -10.299926      -280.2752
  44   2.0000     -10.299818      -280.2723
  45   2.0000     -10.298222      -280.2289
  46   2.0000     -10.297364      -280.2055
  47   2.0000     -10.296806      -280.1903
  48   2.0000     -10.294094      -280.1165
  49   2.0000     -10.291056      -280.0339
  50   2.0000     -10.290025      -280.0058
  51   2.0000     -10.287658      -279.9414
  52   2.0000     -10.286355      -279.9059
  53   2.0000     -10.280329      -279.7420
  54   2.0000     -10.279398      -279.7166
  55   2.0000     -10.278683      -279.6972
  56   2.0000     -10.276823      -279.6466
  57   2.0000     -10.274593      -279.5859
  58   2.0000      -8.111188      -220.7167
  59   2.0000      -8.086973      -220.0577
  60   2.0000      -8.083695      -219.9685
  61   2.0000      -8.078139      -219.8173
  62   2.0000      -8.074882      -219.7287
  63   2.0000      -8.055635      -219.2050
  64   2.0000      -6.082282      -165.5073
  65   2.0000      -6.074492      -165.2953
  66   2.0000      -6.073943      -165.2804
  67   2.0000      -6.056285      -164.7999
  68   2.0000      -6.052925      -164.7085
  69   2.0000      -6.051991      -164.6831
  70   2.0000      -6.049349      -164.6111
  71   2.0000      -6.048519      -164.5886
  72   2.0000      -6.047782      -164.5685
  73   2.0000      -6.046305      -164.5283
  74   2.0000      -6.044034      -164.4665
  75   2.0000      -6.043196      -164.4437
  76   2.0000      -6.039939      -164.3551
  77   2.0000      -6.039895      -164.3539
  78   2.0000      -6.037197      -164.2805
  79   2.0000      -6.025115      -163.9517
  80   2.0000      -6.020830      -163.8351
  81   2.0000      -6.017661      -163.7489
  82   2.0000      -1.315578       -35.7987
  83   2.0000      -1.302868       -35.4528
  84   2.0000      -1.136829       -30.9347
  85   2.0000      -1.120158       -30.4811
  86   2.0000      -1.088758       -29.6266
  87   2.0000      -1.044936       -28.4342
  88   2.0000      -1.025929       -27.9169
  89   2.0000      -1.019333       -27.7374
  90   2.0000      -1.012064       -27.5397
  91   2.0000      -1.010143       -27.4874
  92   2.0000      -0.998978       -27.1836
  93   2.0000      -0.987081       -26.8598
  94   2.0000      -0.981806       -26.7163
  95   2.0000      -0.976278       -26.5659
  96   2.0000      -0.974916       -26.5288
  97   2.0000      -0.968579       -26.3564
  98   2.0000      -0.956703       -26.0332
  99   2.0000      -0.932706       -25.3802
 100   2.0000      -0.920459       -25.0470
 101   2.0000      -0.914310       -24.8797
 102   2.0000      -0.906834       -24.6762
 103   2.0000      -0.893638       -24.3171
 104   2.0000      -0.888135       -24.1674
 105   2.0000      -0.876969       -23.8636
 106   2.0000      -0.864594       -23.5268
 107   2.0000      -0.856750       -23.3133
 108   2.0000      -0.855909       -23.2905
 109   2.0000      -0.852241       -23.1906
 110   2.0000      -0.843744       -22.9594
 111   2.0000      -0.827048       -22.5051
 112   2.0000      -0.821379       -22.3509
 113   2.0000      -0.798205       -21.7203
 114   2.0000      -0.787799       -21.4371
 115   2.0000      -0.778423       -21.1820
 116   2.0000      -0.770220       -20.9588
 117   2.0000      -0.756426       -20.5834
 118   2.0000      -0.753108       -20.4931
 119   2.0000      -0.739109       -20.1122
 120   2.0000      -0.733280       -19.9536
 121   2.0000      -0.725344       -19.7376
 122   2.0000      -0.717519       -19.5247
 123   2.0000      -0.708267       -19.2729
 124   2.0000      -0.704193       -19.1621
 125   2.0000      -0.689009       -18.7489
 126   2.0000      -0.682679       -18.5766
 127   2.0000      -0.677602       -18.4385
 128   2.0000      -0.668312       -18.1857
 129   2.0000      -0.658834       -17.9278
 130   2.0000      -0.657673       -17.8962
 131   2.0000      -0.648877       -17.6568
 132   2.0000      -0.638007       -17.3610
 133   2.0000      -0.636895       -17.3308
 134   2.0000      -0.627502       -17.0752
 135   2.0000      -0.621478       -16.9113
 136   2.0000      -0.619854       -16.8671
 137   2.0000      -0.617051       -16.7908
 138   2.0000      -0.615649       -16.7526
 139   2.0000      -0.611618       -16.6430
 140   2.0000      -0.597538       -16.2598
 141   2.0000      -0.593100       -16.1391
 142   2.0000      -0.592232       -16.1155
 143   2.0000      -0.581274       -15.8173
 144   2.0000      -0.577832       -15.7236
 145   2.0000      -0.576376       -15.6840
 146   2.0000      -0.568164       -15.4605
 147   2.0000      -0.564189       -15.3524
 148   2.0000      -0.563768       -15.3409
 149   2.0000      -0.560398       -15.2492
 150   2.0000      -0.547980       -14.9113
 151   2.0000      -0.547251       -14.8915
 152   2.0000      -0.543122       -14.7791
 153   2.0000      -0.540143       -14.6980
 154   2.0000      -0.536113       -14.5884
 155   2.0000      -0.534281       -14.5385
 156   2.0000      -0.530182       -14.4270
 157   2.0000      -0.523818       -14.2538
 158   2.0000      -0.520419       -14.1613
 159   2.0000      -0.516972       -14.0675
 160   2.0000      -0.514144       -13.9906
 161   2.0000      -0.508736       -13.8434
 162   2.0000      -0.506590       -13.7850
 163   2.0000      -0.504914       -13.7394
 164   2.0000      -0.501882       -13.6569
 165   2.0000      -0.498245       -13.5579
 166   2.0000      -0.494394       -13.4531
 167   2.0000      -0.493018       -13.4157
 168   2.0000      -0.488040       -13.2803
 169   2.0000      -0.481388       -13.0992
 170   2.0000      -0.479263       -13.0414
 171   2.0000      -0.477533       -12.9943
 172   2.0000      -0.469315       -12.7707
 173   2.0000      -0.465795       -12.6749
 174   2.0000      -0.462868       -12.5953
 175   2.0000      -0.462030       -12.5725
 176   2.0000      -0.460689       -12.5360
 177   2.0000      -0.458812       -12.4849
 178   2.0000      -0.457464       -12.4482
 179   2.0000      -0.453693       -12.3456
 180   2.0000      -0.453382       -12.3372
 181   2.0000      -0.447760       -12.1842
 182   2.0000      -0.446867       -12.1599
 183   2.0000      -0.445595       -12.1253
 184   2.0000      -0.442839       -12.0503
 185   2.0000      -0.439642       -11.9633
 186   2.0000      -0.436776       -11.8853
 187   2.0000      -0.434250       -11.8166
 188   2.0000      -0.432076       -11.7574
 189   2.0000      -0.428303       -11.6547
 190   2.0000      -0.425551       -11.5798
 191   2.0000      -0.422387       -11.4937
 192   2.0000      -0.419054       -11.4030
 193   2.0000      -0.414534       -11.2801
 194   2.0000      -0.409924       -11.1546
 195   2.0000      -0.405361       -11.0304
 196   2.0000      -0.404213       -10.9992
 197   2.0000      -0.400845       -10.9075
 198   2.0000      -0.398046       -10.8314
 199   2.0000      -0.393531       -10.7085
 200   2.0000      -0.383638       -10.4393
 201   2.0000      -0.374463       -10.1896
 202   2.0000      -0.368761       -10.0345
 203   2.0000      -0.367713       -10.0060
 204   2.0000      -0.366940        -9.9849
 205   2.0000      -0.364300        -9.9131
 206   2.0000      -0.359316        -9.7775
 207   2.0000      -0.353732        -9.6255
 208   2.0000      -0.348042        -9.4707
 209   2.0000      -0.335138        -9.1196
 210   2.0000      -0.328033        -8.9262
 211   2.0000      -0.327398        -8.9090
 212   2.0000      -0.324050        -8.8178
 213   2.0000      -0.317823        -8.6484
 214   2.0000      -0.300540        -8.1781
 215   2.0000      -0.296252        -8.0614
 216   2.0000      -0.281841        -7.6693
 217   2.0000      -0.267361        -7.2753
 218   2.0000      -0.229436        -6.2433
 219   0.0000      -0.105833        -2.8799
 220   0.0000      -0.080378        -2.1872
 221   0.0000      -0.052707        -1.4342
 222   0.0000      -0.042356        -1.1526
 223   0.0000      -0.034154        -0.9294

MULLIKEN ATOMIC CHARGES
-----------------------
   0 C :   -0.082554
   1 C :    0.040058
   2 C :   -0.038708
   3 C :   -0.115734
   4 S :    0.180916
   5 C :   -0.102717
   6 C :    0.012458
   7 C :    0.308861
   8 C :   -0.314548
   9 C :   -0.158174
  10 N :    0.151326
  11 C :   -0.191834
  12 N :    0.180292
  13 C :   -0.047393
  14 C :   -0.064491
  15 S :    0.179641
  16 C :   -0.023671
  17 C :   -0.076874
  18 C :    0.050887
  19 C :    0.062433
  20 C :   -0.127590
  21 S :    0.119321
  22 C :   -0.109021
  23 C :    0.054942
  24 C :    0.008340
  25 C :   -0.067792
  26 S :    0.129209
  27 C :    0.072908
  28 C :    0.005486
  29 C :   -0.055920
  30 C :    0.106867
  31 C :   -0.121347
  32 C :    0.228613
  33 F :   -0.192265
  34 C :    0.032547
  35 C :    0.009665
  36 C :    0.013357
  37 N :   -0.280615
  38 S :    0.543714
  39 N :   -0.292833
  40 C :   -0.045831
  41 C :    0.047717
  42 N :   -0.063052
  43 C :   -0.105518
  44 N :   -0.069157
  45 C :    0.074713
  46 C :   -0.075295
  47 S :    0.227003
  48 C :   -0.101009
  49 C :   -0.036542
  50 C :    0.174877
  51 N :    0.252278
  52 O :   -0.212821
  53 O :   -0.213147
  54 C :   -0.247991
  55 N :    0.159375
  56 C :    0.033527
  57 C :   -0.007080
  58 H :    0.036665
  59 H :    0.014131
  60 H :    0.012067
  61 H :   -0.008286
  62 H :    0.037734
  63 H :   -0.018119
  64 H :    0.028078
  65 H :   -0.020195
  66 H :    0.000093
  67 H :   -0.017174
  68 H :    0.009769
  69 H :    0.025966
  70 H :   -0.005841
  71 H :    0.049139
  72 H :    0.036167
Sum of atomic charges:    0.0000000

LOEWDIN ATOMIC CHARGES
----------------------
   0 C :   -0.177600
   1 C :   -0.032667
   2 C :   -0.080162
   3 C :   -0.180784
   4 S :    0.476951
   5 C :   -0.186425
   6 C :   -0.068732
   7 C :    0.086601
   8 C :   -0.107886
   9 C :   -0.005252
  10 N :   -0.058772
  11 C :   -0.017433
  12 N :   -0.029896
  13 C :   -0.026038
  14 C :   -0.182476
  15 S :    0.467111
  16 C :   -0.183867
  17 C :   -0.015772
  18 C :   -0.016455
  19 C :   -0.045406
  20 C :   -0.140756
  21 S :    0.436086
  22 C :   -0.205348
  23 C :   -0.039209
  24 C :   -0.064124
  25 C :   -0.163518
  26 S :    0.422208
  27 C :   -0.050649
  28 C :    0.004032
  29 C :   -0.034773
  30 C :   -0.009645
  31 C :   -0.047339
  32 C :    0.100659
  33 F :   -0.064309
  34 C :   -0.074184
  35 C :   -0.039829
  36 C :   -0.050000
  37 N :   -0.288901
  38 S :    0.692739
  39 N :   -0.291499
  40 C :   -0.058387
  41 C :    0.058403
  42 N :   -0.092919
  43 C :    0.004483
  44 N :   -0.079126
  45 C :    0.075196
  46 C :   -0.186819
  47 S :    0.518434
  48 C :   -0.129488
  49 C :   -0.105040
  50 C :   -0.007668
  51 N :    0.282143
  52 O :   -0.177598
  53 O :   -0.176095
  54 C :   -0.032778
  55 N :   -0.039995
  56 C :   -0.052257
  57 C :   -0.001656
  58 H :    0.027916
  59 H :    0.043161
  60 H :    0.039838
  61 H :    0.041067
  62 H :    0.037265
  63 H :    0.030109
  64 H :    0.023912
  65 H :    0.027093
  66 H :    0.030580
  67 H :    0.037133
  68 H :    0.025353
  69 H :    0.031204
  70 H :    0.031851
  71 H :    0.034725
  72 H :    0.033279

  Mayer bond orders larger than 0.100000
B(  0-C ,  1-C ) :   1.5548 B(  0-C ,  4-S ) :   1.1446 B(  0-C , 58-H ) :   0.9641
B(  1-C ,  2-C ) :   1.2703 B(  1-C , 59-H ) :   0.9954 B(  2-C ,  3-C ) :   1.4507
B(  2-C ,  7-C ) :   1.0264 B(  3-C ,  4-S ) :   1.1397 B(  3-C ,  5-C ) :   1.1897
B(  5-C ,  6-C ) :   1.4540 B(  5-C , 15-S ) :   1.1215 B(  6-C ,  7-C ) :   0.9906
B(  6-C , 13-C ) :   1.2974 B(  7-C ,  8-C ) :   1.6954 B(  8-C ,  9-C ) :   1.1505
B(  8-C , 11-C ) :   1.1292 B(  9-C , 10-N ) :   2.9295 B( 11-C , 12-N ) :   3.0034
B( 13-C , 14-C ) :   1.4890 B( 13-C , 60-H ) :   0.9856 B( 14-C , 15-S ) :   1.1068
B( 14-C , 16-C ) :   1.1121 B( 16-C , 17-C ) :   1.5629 B( 16-C , 21-S ) :   1.0387
B( 17-C , 18-C ) :   1.2283 B( 17-C , 61-H ) :   0.9672 B( 18-C , 19-C ) :   1.0528
B( 18-C , 27-C ) :   1.3942 B( 19-C , 20-C ) :   1.6131 B( 19-C , 22-C ) :   1.1762
B( 20-C , 21-S ) :   1.1356 B( 20-C , 62-H ) :   0.9408 B( 22-C , 23-C ) :   1.4411
B( 22-C , 26-S ) :   1.0746 B( 23-C , 24-C ) :   1.2209 B( 23-C , 27-C ) :   1.0990
B( 24-C , 25-C ) :   1.5849 B( 24-C , 63-H ) :   0.9981 B( 25-C , 26-S ) :   1.1564
B( 25-C , 64-H ) :   0.9662 B( 27-C , 28-C ) :   1.1472 B( 28-C , 29-C ) :   1.6141
B( 28-C , 65-H ) :   0.9584 B( 29-C , 30-C ) :   1.1433 B( 29-C , 66-H ) :   0.9779
B( 30-C , 31-C ) :   1.3752 B( 30-C , 34-C ) :   0.1087 B( 30-C , 36-C ) :   1.1657
B( 31-C , 32-C ) :   1.2345 B( 31-C , 67-H ) :   0.9992 B( 32-C , 33-F ) :   1.0940
B( 32-C , 34-C ) :   1.4153 B( 34-C , 35-C ) :   1.2094 B( 34-C , 40-C ) :   0.9824
B( 35-C , 36-C ) :   1.1667 B( 35-C , 39-N ) :   1.5079 B( 36-C , 37-N ) :   1.5290
B( 37-N , 38-S ) :   1.2914 B( 37-N , 39-N ) :   0.1396 B( 38-S , 39-N ) :   1.2893
B( 40-C , 41-C ) :   1.3470 B( 40-C , 45-C ) :   1.3337 B( 41-C , 42-N ) :   1.5478
B( 41-C , 68-H ) :   0.9835 B( 42-N , 43-C ) :   1.6178 B( 43-C , 44-N ) :   1.5678
B( 43-C , 46-C ) :   1.0096 B( 44-N , 45-C ) :   1.5512 B( 45-C , 69-H ) :   0.9780
B( 46-C , 47-S ) :   1.1363 B( 46-C , 50-C ) :   1.5810 B( 47-S , 48-C ) :   1.1478
B( 48-C , 49-C ) :   1.4833 B( 48-C , 56-C ) :   1.1160 B( 49-C , 50-C ) :   1.3317
B( 49-C , 54-C ) :   1.1182 B( 50-C , 51-N ) :   0.8559 B( 51-N , 52-O ) :   1.5618
B( 51-N , 53-O ) :   1.5583 B( 52-O , 53-O ) :   0.2969 B( 54-C , 55-N ) :   2.9860
B( 56-C , 57-C ) :   1.9333 B( 56-C , 70-H ) :   0.9416 B( 57-C , 71-H ) :   0.9479
B( 57-C , 72-H ) :   0.9454

-----------------------------------------------------------------------------
         ABSORPTION SPECTRUM VIA TRANSITION ELECTRIC DIPOLE MOMENTS
-----------------------------------------------------------------------------
State   Energy  Wavelength   fosc         T2         TX        TY        TZ
        (cm-1)    (nm)                  (au**2)     (au)      (au)      (au)
-----------------------------------------------------------------------------
   0   11257.1    888.3   0.113692161   3.32492  -1.51131   0.80328  -0.62898
   1   16649.5    600.6   0.580329332  11.47493  -2.86337   0.60728   1.70508
   2   18497.2    540.6   0.014602606   0.25990  -0.45271   0.12626   0.19751
   3   22004.9    454.4   0.132480480   1.98202   0.43004   0.26954  -1.31317
   4   24546.2    407.4   0.522555343   7.00849   0.84251  -1.06054   2.27463
   5   25291.1    395.4   0.431007129   5.61039   0.77264   0.29928  -2.21897
   6   25927.7    385.7   0.119193655   1.51344  -0.13145  -0.23702   1.19999
   7   27233.4    367.2   0.219514465   2.65361  -0.48033  -0.21829   1.54118
   8   28463.1    351.3   0.199548362   2.30803  -0.92673   0.21156   1.18509
   9   29592.8    337.9   0.038601087   0.42943   0.45195  -0.05666  -0.47112
  10   30581.7    327.0   0.386961016   4.16563   1.26921  -0.17564  -1.58867
  11   31425.8    318.2   0.253389363   2.65447  -1.48918   0.65693  -0.07248
  12   32248.9    310.1   0.176445403   1.80124  -1.01362   0.42757   0.76876
  13   32576.9    307.0   0.029837183   0.30152   0.40633  -0.30076   0.21440
  14   32725.2    305.6   0.017264928   0.17368  -0.33358   0.04701   0.24535
  15   33211.0    301.1   0.065564343   0.64992  -0.56983   0.22214  -0.52523
  16   33310.6    300.2   0.055922073   0.55268  -0.39863   0.22473   0.58589
  17   33810.5    295.8   0.135931044   1.32356  -0.36677   0.75136  -0.79025
  18   33953.7    294.5   0.605660812   5.87243  -0.18536   0.68442  -2.31725
  19   34970.4    286.0   0.727764049   6.85117  -2.16698   1.40290  -0.43273
  20   35263.0    283.6   0.005255773   0.04907  -0.19455  -0.10218  -0.02787
  21   35476.6    281.9   0.177224902   1.64459   0.09611  -0.44675   1.19824
  22   35697.0    280.1   0.239511571   2.20887  -0.56941  -0.07202   1.37093
  23   36249.2    275.9   0.056433734   0.51253   0.49195  -0.12536  -0.50477
  24   36432.2    274.5   0.128094103   1.15749  -0.96150   0.45776  -0.15320
  25   36555.6    273.6   0.015219475   0.13706   0.31179  -0.13240  -0.14940
  26   37214.3    268.7   0.009164132   0.08107  -0.21483   0.18589  -0.01903
  27   37603.0    265.9   0.106273004   0.93041   0.81602  -0.50783   0.08145
  28   37819.9    264.4   0.001896924   0.01651   0.12354   0.01131  -0.03350
  29   38270.3    261.3   0.012085963   0.10397   0.26735   0.12515  -0.12972
  30   38453.7    260.1   0.093973743   0.80453  -0.65405   0.25519   0.55824
  31   38966.2    256.6   0.098885594   0.83545  -0.14443   0.29973  -0.85132
  32   39115.9    255.7   0.009037771   0.07606  -0.24538   0.11499  -0.05129
  33   39457.6    253.4   0.080425921   0.67103  -0.17946  -0.18561   0.77741
  34   39939.9    250.4   0.022665178   0.18682  -0.38429   0.10759   0.16605
  35   40002.3    250.0   0.012340889   0.10156  -0.27554   0.15158  -0.05164
  36   40206.5    248.7   0.004649639   0.03807  -0.16409   0.10390   0.01867

FINAL SINGLE POINT ENERGY     -4645.057509564503

DIPOLE MOMENT
-------------
                                X             Y             Z
Electronic contribution:     13.50773      -7.52362      -3.01756
Nuclear contribution   :    -12.27490       8.26697      -2.04267
                        -----------------------------------------
Total Dipole Moment    :      1.23284       0.74334      -5.06023
                        -----------------------------------------
Magnitude (a.u.)       :      5.26103
Magnitude (Debye)      :     13.37246

Rotational constants in cm-1:     0.001583     0.000515     0.000393
Rotational constants in MHz :    47.467659    15.428776    11.775778

                             ****ORCA TERMINATED NORMALLY****
TOTAL RUN TIME: 0 days 0 hours 6 minutes 13 seconds 184 msec
