                         Program Version 4.2.0 -  RELEASE  -
|  1> # ORCA input file
|  2> # SCF done       -200.772422022783          0.000563782024
|  3> ! CAM-B3LYP def2-SVP def2/J RIJCOSX Grid4 TightSCF
|  4> %maxcore 5000
|  5> %tddft
|  6>     Mode sTDDFT
|  7>     Ethresh 5.0
|  8>     maxcore 5000
|  9> end
| 10>
| 11> %pal
| 12>   nprocs 6
| 13>   end
| 14> * xyz 0 1
| 15>    C       -9.67803        13.16385         1.36364
| 16>    C       -8.92969        13.61599         0.31992
| 17>    C       -7.72107        12.90180         0.20834
| 18>    C       -7.59398        11.91188         1.19218
| 19>    S       -8.94136        11.86240         2.23962
| 20>    C       -6.35426        11.24153         1.00459
| 21>    C       -5.70184        11.81324        -0.09737
| 22>    C       -6.54285        12.87781        -0.63511
| 23>    C       -6.26892        13.67324        -1.70977
| 24>    C       -5.07610        13.54414        -2.45104
| 25>    N       -4.10571        13.43856        -3.05323
| 26>    C       -7.15919        14.67379        -2.15227
| 27>    N       -7.88067        15.48721        -2.51611
| 28>    C       -4.47210        11.21814        -0.37133
| 29>    C       -4.18306        10.19043         0.51021
| 30>    S       -5.45955         9.96907         1.70557
| 31>    C       -3.02778         9.35811         0.53267
| 32>    C       -2.89482         8.31301         1.41934
| 33>    C       -1.79760         7.46269         1.49923
| 34>    C       -0.70402         7.56697         0.52600
| 35>    C       -0.62006         8.52551        -0.42296
| 36>    S       -1.78785         9.76209        -0.64399
| 37>    C        0.16657         6.47708         0.80991
| 38>    C       -0.33623         5.74448         1.88328
| 39>    C        0.48767         4.64663         2.21250
| 40>    C        1.57039         4.57482         1.39422
| 41>    S        1.63734         5.82966         0.20265
| 42>    C       -1.55221         6.36012         2.35537
| 43>    C       -2.26919         5.87838         3.46512
| 44>    C       -3.23927         6.55270         4.15484
| 45>    C       -4.00957         6.07327         5.23627
| 46>    C       -3.96238         4.77284         5.81617
| 47>    C       -4.78692         4.43612         6.94044
| 48>    N       -4.71881         3.20572         7.47872
| 49>    C       -3.89963         2.32741         6.96882
| 50>    C       -3.09811         2.65573         5.86280
| 51>    N       -3.13673         3.84015         5.31002
| 52>    C       -5.69602         5.34012         7.54245
| 53>    C       -5.77406         6.61936         6.95007
| 54>    C       -4.94668         6.96493         5.82142
| 55>    N       -5.17759         8.21088         5.40363
| 56>    S       -6.30943         8.87661         6.32939
| 57>    N       -6.56760         7.62962         7.30767
| 58>    C       -6.46273         4.94709         8.66627
| 59>    C       -7.36816         5.73233         9.37422
| 60>    C       -7.94162         5.03827        10.42813
| 61>    C       -7.47768         3.70760        10.52528
| 62>    S       -6.32168         3.32486         9.31293
| 63>    C       -8.12196         3.09538        11.61934
| 64>    C       -8.98745         4.03762        12.22639
| 65>    C       -8.90463         5.28468        11.48958
| 66>    C       -9.60362         6.43020        11.73824
| 67>    C      -10.51337         6.51522        12.81278
| 68>    N      -11.24228         6.57369        13.69652
| 69>    C       -9.46051         7.59271        10.95312
| 70>    N       -9.34721         8.54565        10.32529
| 71>    C       -9.68377         3.52034        13.30536
| 72>    C       -9.37762         2.18386        13.54224
| 73>    S       -8.16692         1.58617        12.40304
| 74>    C       -9.84008         1.32437        14.55226
| 75>    C      -10.90246         1.47044        15.40098
| 76>    C      -10.91318         0.67403        16.65769
| 77>    O      -10.18999        -0.25902        16.92788
| 78>    C      -11.94321         1.30017        17.50756
| 79>    C      -12.26698         1.03283        18.80597
| 80>    C      -13.27128         1.80076        19.43732
| 81>    C      -13.91601         2.84182        18.70800
| 82>    C      -14.90601         3.61212        19.34817
| 83>    C      -15.22978         3.34231        20.64869
| 84>    C      -14.61034         2.32107        21.38146
| 85>    C      -13.64502         1.56545        20.77613
| 86>    F      -16.17681         4.07640        21.26223
| 87>    C      -13.56638         3.08984        17.35945
| 88>    C      -12.60160         2.32278        16.76633
| 89>    C      -12.06334         2.32867        15.40654
| 90>    C      -12.71650         2.84438        14.31484
| 91>    C      -12.31051         2.62828        12.98494
| 92>    N      -12.02693         2.45078        11.88615
| 93>    C      -13.92964         3.55862        14.39174
| 94>    N      -14.91938         4.13976        14.39712
| 95>    H      -10.63751        13.51664         1.68496
| 96>    H       -9.23317        14.41620        -0.32994
| 97>    H       -3.81362        11.50416        -1.17166
| 98>    H       -3.73494         8.14045         2.07607
| 99>    H        0.20437         8.58462        -1.11582
|100>    H        0.29356         3.94772         3.00533
|101>    H        2.35932         3.84846         1.40990
|102>    H       -1.99687         4.89348         3.81720
|103>    H       -3.45076         7.58403         3.91319
|104>    H       -3.87744         1.35039         7.43008
|105>    H       -2.42185         1.93705         5.42035
|106>    H       -7.56935         6.75239         9.10263
|107>    H      -10.34782         4.08730        13.93181
|108>    H       -9.22891         0.44804        14.74800
|109>    H      -11.76189         0.24672        19.34701
|110>    H      -15.40627         4.40425        18.81336
|111>    H      -14.90746         2.15410        22.40468
|112>    H      -13.15265         0.77339        21.32016
|113>    H      -14.06259         3.89002        16.83355
|114> *
|115>
|116>                          ****END OF INPUT****

CARTESIAN COORDINATES (ANGSTROEM)
---------------------------------
  C     -9.678030   13.163850    1.363640
  C     -8.929690   13.615990    0.319920
  C     -7.721070   12.901800    0.208340
  C     -7.593980   11.911880    1.192180
  S     -8.941360   11.862400    2.239620
  C     -6.354260   11.241530    1.004590
  C     -5.701840   11.813240   -0.097370
  C     -6.542850   12.877810   -0.635110
  C     -6.268920   13.673240   -1.709770
  C     -5.076100   13.544140   -2.451040
  N     -4.105710   13.438560   -3.053230
  C     -7.159190   14.673790   -2.152270
  N     -7.880670   15.487210   -2.516110
  C     -4.472100   11.218140   -0.371330
  C     -4.183060   10.190430    0.510210
  S     -5.459550    9.969070    1.705570
  C     -3.027780    9.358110    0.532670
  C     -2.894820    8.313010    1.419340
  C     -1.797600    7.462690    1.499230
  C     -0.704020    7.566970    0.526000
  C     -0.620060    8.525510   -0.422960
  S     -1.787850    9.762090   -0.643990
  C      0.166570    6.477080    0.809910
  C     -0.336230    5.744480    1.883280
  C      0.487670    4.646630    2.212500
  C      1.570390    4.574820    1.394220
  S      1.637340    5.829660    0.202650
  C     -1.552210    6.360120    2.355370
  C     -2.269190    5.878380    3.465120
  C     -3.239270    6.552700    4.154840
  C     -4.009570    6.073270    5.236270
  C     -3.962380    4.772840    5.816170
  C     -4.786920    4.436120    6.940440
  N     -4.718810    3.205720    7.478720
  C     -3.899630    2.327410    6.968820
  C     -3.098110    2.655730    5.862800
  N     -3.136730    3.840150    5.310020
  C     -5.696020    5.340120    7.542450
  C     -5.774060    6.619360    6.950070
  C     -4.946680    6.964930    5.821420
  N     -5.177590    8.210880    5.403630
  S     -6.309430    8.876610    6.329390
  N     -6.567600    7.629620    7.307670
  C     -6.462730    4.947090    8.666270
  C     -7.368160    5.732330    9.374220
  C     -7.941620    5.038270   10.428130
  C     -7.477680    3.707600   10.525280
  S     -6.321680    3.324860    9.312930
  C     -8.121960    3.095380   11.619340
  C     -8.987450    4.037620   12.226390
  C     -8.904630    5.284680   11.489580
  C     -9.603620    6.430200   11.738240
  C    -10.513370    6.515220   12.812780
  N    -11.242280    6.573690   13.696520
  C     -9.460510    7.592710   10.953120
  N     -9.347210    8.545650   10.325290
  C     -9.683770    3.520340   13.305360
  C     -9.377620    2.183860   13.542240
  S     -8.166920    1.586170   12.403040
  C     -9.840080    1.324370   14.552260
  C    -10.902460    1.470440   15.400980
  C    -10.913180    0.674030   16.657690
  O    -10.189990   -0.259020   16.927880
  C    -11.943210    1.300170   17.507560
  C    -12.266980    1.032830   18.805970
  C    -13.271280    1.800760   19.437320
  C    -13.916010    2.841820   18.708000
  C    -14.906010    3.612120   19.348170
  C    -15.229780    3.342310   20.648690
  C    -14.610340    2.321070   21.381460
  C    -13.645020    1.565450   20.776130
  F    -16.176810    4.076400   21.262230
  C    -13.566380    3.089840   17.359450
  C    -12.601600    2.322780   16.766330
  C    -12.063340    2.328670   15.406540
  C    -12.716500    2.844380   14.314840
  C    -12.310510    2.628280   12.984940
  N    -12.026930    2.450780   11.886150
  C    -13.929640    3.558620   14.391740
  N    -14.919380    4.139760   14.397120
  H    -10.637510   13.516640    1.684960
  H     -9.233170   14.416200   -0.329940
  H     -3.813620   11.504160   -1.171660
  H     -3.734940    8.140450    2.076070
  H      0.204370    8.584620   -1.115820
  H      0.293560    3.947720    3.005330
  H      2.359320    3.848460    1.409900
  H     -1.996870    4.893480    3.817200
  H     -3.450760    7.584030    3.913190
  H     -3.877440    1.350390    7.430080
  H     -2.421850    1.937050    5.420350
  H     -7.569350    6.752390    9.102630
  H    -10.347820    4.087300   13.931810
  H     -9.228910    0.448040   14.748000
  H    -11.761890    0.246720   19.347010
  H    -15.406270    4.404250   18.813360
  H    -14.907460    2.154100   22.404680
  H    -13.152650    0.773390   21.320160
  H    -14.062590    3.890020   16.833550

 Total Charge           Charge          ....    0
 Multiplicity           Mult            ....    1
 Number of Electrons    NEL             ....  584
 Basis Dimension        Dim             .... 1243

ORBITAL ENERGIES
----------------

  NO   OCC          E(Eh)            E(eV)
   0   2.0000     -89.036649     -2422.8104
   1   2.0000     -88.996288     -2421.7121
   2   2.0000     -88.991848     -2421.5913
   3   2.0000     -88.990426     -2421.5526
   4   2.0000     -88.983187     -2421.3556
   5   2.0000     -88.972570     -2421.0667
   6   2.0000     -88.964124     -2420.8369
   7   2.0000     -24.778106      -674.2465
   8   2.0000     -19.203525      -522.5545
   9   2.0000     -14.449587      -393.1932
  10   2.0000     -14.443652      -393.0318
  11   2.0000     -14.443344      -393.0234
  12   2.0000     -14.441351      -392.9691
  13   2.0000     -14.433842      -392.7648
  14   2.0000     -14.432458      -392.7271
  15   2.0000     -14.421333      -392.4244
  16   2.0000     -14.419885      -392.3850
  17   2.0000     -14.407390      -392.0450
  18   2.0000     -14.402979      -391.9250
  19   2.0000     -10.367554      -282.1155
  20   2.0000     -10.361310      -281.9456
  21   2.0000     -10.355402      -281.7848
  22   2.0000     -10.355045      -281.7751
  23   2.0000     -10.353424      -281.7310
  24   2.0000     -10.342723      -281.4398
  25   2.0000     -10.341556      -281.4080
  26   2.0000     -10.340102      -281.3685
  27   2.0000     -10.338534      -281.3258
  28   2.0000     -10.337345      -281.2935
  29   2.0000     -10.334728      -281.2222
  30   2.0000     -10.334252      -281.2093
  31   2.0000     -10.333817      -281.1975
  32   2.0000     -10.333664      -281.1933
  33   2.0000     -10.333616      -281.1920
  34   2.0000     -10.333236      -281.1817
  35   2.0000     -10.332898      -281.1725
  36   2.0000     -10.332666      -281.1661
  37   2.0000     -10.332629      -281.1651
  38   2.0000     -10.332229      -281.1542
  39   2.0000     -10.332067      -281.1498
  40   2.0000     -10.331652      -281.1385
  41   2.0000     -10.322030      -280.8767
  42   2.0000     -10.320526      -280.8358
  43   2.0000     -10.315917      -280.7104
  44   2.0000     -10.315300      -280.6936
  45   2.0000     -10.315117      -280.6886
  46   2.0000     -10.314515      -280.6722
  47   2.0000     -10.310061      -280.5510
  48   2.0000     -10.308702      -280.5140
  49   2.0000     -10.308644      -280.5125
  50   2.0000     -10.308420      -280.5064
  51   2.0000     -10.307452      -280.4800
  52   2.0000     -10.307312      -280.4762
  53   2.0000     -10.306338      -280.4497
  54   2.0000     -10.305940      -280.4389
  55   2.0000     -10.304009      -280.3864
  56   2.0000     -10.304002      -280.3862
  57   2.0000     -10.303091      -280.3614
  58   2.0000     -10.301683      -280.3230
  59   2.0000     -10.301341      -280.3137
  60   2.0000     -10.301321      -280.3132
  61   2.0000     -10.297284      -280.2033
  62   2.0000     -10.296248      -280.1752
  63   2.0000     -10.294733      -280.1339
  64   2.0000     -10.294208      -280.1196
  65   2.0000     -10.292480      -280.0726
  66   2.0000     -10.291762      -280.0531
  67   2.0000     -10.290951      -280.0310
  68   2.0000     -10.289903      -280.0025
  69   2.0000     -10.288373      -279.9609
  70   2.0000     -10.286962      -279.9225
  71   2.0000     -10.286736      -279.9163
  72   2.0000     -10.284097      -279.8445
  73   2.0000     -10.283341      -279.8239
  74   2.0000     -10.282510      -279.8013
  75   2.0000     -10.281623      -279.7772
  76   2.0000     -10.280703      -279.7522
  77   2.0000     -10.280567      -279.7485
  78   2.0000     -10.280377      -279.7433
  79   2.0000     -10.277189      -279.6565
  80   2.0000      -8.128015      -221.1745
  81   2.0000      -8.090487      -220.1533
  82   2.0000      -8.086820      -220.0536
  83   2.0000      -8.085437      -220.0159
  84   2.0000      -8.078069      -219.8154
  85   2.0000      -8.064464      -219.4452
  86   2.0000      -8.059404      -219.3075
  87   2.0000      -6.099124      -165.9656
  88   2.0000      -6.091377      -165.7548
  89   2.0000      -6.090694      -165.7362
  90   2.0000      -6.059769      -164.8947
  91   2.0000      -6.056060      -164.7938
  92   2.0000      -6.055650      -164.7826
  93   2.0000      -6.055021      -164.7655
  94   2.0000      -6.052757      -164.7039
  95   2.0000      -6.051621      -164.6730
  96   2.0000      -6.050379      -164.6392
  97   2.0000      -6.049454      -164.6140
  98   2.0000      -6.047426      -164.5588
  99   2.0000      -6.047194      -164.5525
 100   2.0000      -6.043100      -164.4411
 101   2.0000      -6.040531      -164.3712
 102   2.0000      -6.034172      -164.1982
 103   2.0000      -6.029185      -164.0625
 104   2.0000      -6.028871      -164.0539
 105   2.0000      -6.026933      -164.0012
 106   2.0000      -6.024593      -163.9375
 107   2.0000      -6.021460      -163.8523
 108   2.0000      -1.292772       -35.1781
 109   2.0000      -1.133874       -30.8543
 110   2.0000      -1.118856       -30.4456
 111   2.0000      -1.098910       -29.9029
 112   2.0000      -1.047984       -28.5171
 113   2.0000      -1.034786       -28.1580
 114   2.0000      -1.025242       -27.8982
 115   2.0000      -1.024087       -27.8668
 116   2.0000      -1.016786       -27.6681
 117   2.0000      -1.012243       -27.5445
 118   2.0000      -1.010642       -27.5010
 119   2.0000      -1.008617       -27.4459
 120   2.0000      -1.002559       -27.2810
 121   2.0000      -0.998235       -27.1634
 122   2.0000      -0.991568       -26.9819
 123   2.0000      -0.990912       -26.9641
 124   2.0000      -0.985333       -26.8123
 125   2.0000      -0.982221       -26.7276
 126   2.0000      -0.980033       -26.6681
 127   2.0000      -0.968065       -26.3424
 128   2.0000      -0.964151       -26.2359
 129   2.0000      -0.959356       -26.1054
 130   2.0000      -0.945659       -25.7327
 131   2.0000      -0.936611       -25.4865
 132   2.0000      -0.920117       -25.0377
 133   2.0000      -0.918364       -24.9899
 134   2.0000      -0.908689       -24.7267
 135   2.0000      -0.898232       -24.4421
 136   2.0000      -0.891725       -24.2651
 137   2.0000      -0.886078       -24.1114
 138   2.0000      -0.879833       -23.9415
 139   2.0000      -0.877607       -23.8809
 140   2.0000      -0.872750       -23.7487
 141   2.0000      -0.866921       -23.5901
 142   2.0000      -0.864519       -23.5248
 143   2.0000      -0.856116       -23.2961
 144   2.0000      -0.852385       -23.1946
 145   2.0000      -0.841832       -22.9074
 146   2.0000      -0.838264       -22.8103
 147   2.0000      -0.827393       -22.5145
 148   2.0000      -0.825860       -22.4728
 149   2.0000      -0.810130       -22.0448
 150   2.0000      -0.801562       -21.8116
 151   2.0000      -0.796403       -21.6712
 152   2.0000      -0.784452       -21.3460
 153   2.0000      -0.780400       -21.2358
 154   2.0000      -0.769401       -20.9365
 155   2.0000      -0.768156       -20.9026
 156   2.0000      -0.758524       -20.6405
 157   2.0000      -0.753347       -20.4996
 158   2.0000      -0.740918       -20.1614
 159   2.0000      -0.736103       -20.0304
 160   2.0000      -0.723906       -19.6985
 161   2.0000      -0.715592       -19.4722
 162   2.0000      -0.707761       -19.2591
 163   2.0000      -0.706436       -19.2231
 164   2.0000      -0.700634       -19.0652
 165   2.0000      -0.698055       -18.9950
 166   2.0000      -0.692845       -18.8533
 167   2.0000      -0.682171       -18.5628
 168   2.0000      -0.680377       -18.5140
 169   2.0000      -0.674229       -18.3467
 170   2.0000      -0.672372       -18.2962
 171   2.0000      -0.667010       -18.1503
 172   2.0000      -0.662204       -18.0195
 173   2.0000      -0.656327       -17.8596
 174   2.0000      -0.652541       -17.7565
 175   2.0000      -0.645662       -17.5694
 176   2.0000      -0.637342       -17.3430
 177   2.0000      -0.634304       -17.2603
 178   2.0000      -0.627611       -17.0782
 179   2.0000      -0.625838       -17.0299
 180   2.0000      -0.622761       -16.9462
 181   2.0000      -0.621923       -16.9234
 182   2.0000      -0.619512       -16.8578
 183   2.0000      -0.617874       -16.8132
 184   2.0000      -0.609089       -16.5742
 185   2.0000      -0.605330       -16.4719
 186   2.0000      -0.601192       -16.3593
 187   2.0000      -0.595920       -16.2158
 188   2.0000      -0.589928       -16.0528
 189   2.0000      -0.587163       -15.9775
 190   2.0000      -0.576876       -15.6976
 191   2.0000      -0.570503       -15.5242
 192   2.0000      -0.567640       -15.4463
 193   2.0000      -0.564623       -15.3642
 194   2.0000      -0.563094       -15.3226
 195   2.0000      -0.561405       -15.2766
 196   2.0000      -0.557903       -15.1813
 197   2.0000      -0.551798       -15.0152
 198   2.0000      -0.550491       -14.9796
 199   2.0000      -0.550374       -14.9764
 200   2.0000      -0.544603       -14.8194
 201   2.0000      -0.541944       -14.7470
 202   2.0000      -0.538352       -14.6493
 203   2.0000      -0.537227       -14.6187
 204   2.0000      -0.535019       -14.5586
 205   2.0000      -0.532857       -14.4998
 206   2.0000      -0.529408       -14.4059
 207   2.0000      -0.524752       -14.2792
 208   2.0000      -0.522955       -14.2303
 209   2.0000      -0.522293       -14.2123
 210   2.0000      -0.519031       -14.1236
 211   2.0000      -0.515083       -14.0161
 212   2.0000      -0.514623       -14.0036
 213   2.0000      -0.512971       -13.9587
 214   2.0000      -0.507475       -13.8091
 215   2.0000      -0.501838       -13.6557
 216   2.0000      -0.500982       -13.6324
 217   2.0000      -0.499172       -13.5832
 218   2.0000      -0.497526       -13.5384
 219   2.0000      -0.496082       -13.4991
 220   2.0000      -0.493727       -13.4350
 221   2.0000      -0.492861       -13.4114
 222   2.0000      -0.492160       -13.3924
 223   2.0000      -0.485945       -13.2232
 224   2.0000      -0.483475       -13.1560
 225   2.0000      -0.480528       -13.0758
 226   2.0000      -0.479660       -13.0522
 227   2.0000      -0.476996       -12.9797
 228   2.0000      -0.475224       -12.9315
 229   2.0000      -0.474585       -12.9141
 230   2.0000      -0.471790       -12.8381
 231   2.0000      -0.465450       -12.6655
 232   2.0000      -0.464619       -12.6429
 233   2.0000      -0.463918       -12.6239
 234   2.0000      -0.461546       -12.5593
 235   2.0000      -0.460486       -12.5305
 236   2.0000      -0.458264       -12.4700
 237   2.0000      -0.457093       -12.4381
 238   2.0000      -0.455507       -12.3950
 239   2.0000      -0.452915       -12.3244
 240   2.0000      -0.451540       -12.2870
 241   2.0000      -0.450797       -12.2668
 242   2.0000      -0.448656       -12.2086
 243   2.0000      -0.447752       -12.1840
 244   2.0000      -0.445896       -12.1335
 245   2.0000      -0.444650       -12.0996
 246   2.0000      -0.443252       -12.0615
 247   2.0000      -0.442492       -12.0408
 248   2.0000      -0.440261       -11.9801
 249   2.0000      -0.440020       -11.9736
 250   2.0000      -0.438597       -11.9348
 251   2.0000      -0.432488       -11.7686
 252   2.0000      -0.431688       -11.7468
 253   2.0000      -0.430996       -11.7280
 254   2.0000      -0.429347       -11.6831
 255   2.0000      -0.428414       -11.6577
 256   2.0000      -0.427906       -11.6439
 257   2.0000      -0.424042       -11.5388
 258   2.0000      -0.421225       -11.4621
 259   2.0000      -0.420435       -11.4406
 260   2.0000      -0.417931       -11.3725
 261   2.0000      -0.417545       -11.3620
 262   2.0000      -0.415562       -11.3080
 263   2.0000      -0.415467       -11.3054
 264   2.0000      -0.412806       -11.2330
 265   2.0000      -0.407455       -11.0874
 266   2.0000      -0.405446       -11.0327
 267   2.0000      -0.401253       -10.9186
 268   2.0000      -0.398470       -10.8429
 269   2.0000      -0.390063       -10.6142
 270   2.0000      -0.378144       -10.2898
 271   2.0000      -0.374108       -10.1800
 272   2.0000      -0.373255       -10.1568
 273   2.0000      -0.371285       -10.1032
 274   2.0000      -0.363657        -9.8956
 275   2.0000      -0.362067        -9.8523
 276   2.0000      -0.351807        -9.5732
 277   2.0000      -0.345830        -9.4105
 278   2.0000      -0.343364        -9.3434
 279   2.0000      -0.335632        -9.1330
 280   2.0000      -0.332608        -9.0507
 281   2.0000      -0.328676        -8.9437
 282   2.0000      -0.325309        -8.8521
 283   2.0000      -0.324888        -8.8407
 284   2.0000      -0.310891        -8.4598
 285   2.0000      -0.305754        -8.3200
 286   2.0000      -0.301282        -8.1983
 287   2.0000      -0.296555        -8.0697
 288   2.0000      -0.289262        -7.8712
 289   2.0000      -0.275523        -7.4974
 290   2.0000      -0.254457        -6.9241
 291   2.0000      -0.219945        -5.9850
 292   0.0000      -0.119563        -3.2535
 293   0.0000      -0.106504        -2.8981
 294   0.0000      -0.091703        -2.4954
 295   0.0000      -0.079243        -2.1563
 296   0.0000      -0.063909        -1.7390

MULLIKEN ATOMIC CHARGES
-----------------------
   0 C :   -0.076070
   1 C :    0.035822
   2 C :   -0.030022
   3 C :   -0.117397
   4 S :    0.186868
   5 C :   -0.093187
   6 C :    0.011934
   7 C :    0.298452
   8 C :   -0.293874
   9 C :   -0.185497
  10 N :    0.169637
  11 C :   -0.189991
  12 N :    0.174563
  13 C :   -0.051624
  14 C :   -0.069596
  15 S :    0.180882
  16 C :   -0.017281
  17 C :   -0.101167
  18 C :    0.064109
  19 C :    0.058581
  20 C :   -0.124872
  21 S :    0.149093
  22 C :   -0.108099
  23 C :    0.052127
  24 C :    0.010255
  25 C :   -0.068189
  26 S :    0.132406
  27 C :    0.096378
  28 C :    0.008808
  29 C :   -0.138042
  30 C :    0.110599
  31 C :   -0.059331
  32 C :   -0.017958
  33 N :   -0.101165
  34 C :    0.059123
  35 C :    0.024359
  36 N :   -0.017482
  37 C :    0.142514
  38 C :    0.007781
  39 C :   -0.000931
  40 N :   -0.293057
  41 S :    0.535725
  42 N :   -0.289503
  43 C :   -0.161760
  44 C :   -0.078195
  45 C :    0.050124
  46 C :   -0.080556
  47 S :    0.196211
  48 C :   -0.072201
  49 C :   -0.013516
  50 C :    0.310606
  51 C :   -0.298101
  52 C :   -0.187711
  53 N :    0.165873
  54 C :   -0.187566
  55 N :    0.169714
  56 C :    0.003173
  57 C :   -0.110675
  58 S :    0.199082
  59 C :    0.082032
  60 C :   -0.148303
  61 C :    0.134902
  62 O :   -0.152579
  63 C :    0.016651
  64 C :   -0.083793
  65 C :    0.102121
  66 C :    0.098958
  67 C :   -0.099200
  68 C :    0.303802
  69 C :   -0.031018
  70 C :   -0.011130
  71 F :   -0.192645
  72 C :   -0.082210
  73 C :    0.030986
  74 C :    0.273581
  75 C :   -0.332178
  76 C :   -0.206008
  77 N :    0.163115
  78 C :   -0.171339
  79 N :    0.154136
  80 H :    0.039203
  81 H :    0.013380
  82 H :    0.020673
  83 H :    0.003734
  84 H :    0.042582
  85 H :   -0.014788
  86 H :    0.029363
  87 H :   -0.006585
  88 H :   -0.009280
  89 H :    0.016607
  90 H :    0.013878
  91 H :    0.016509
  92 H :    0.023633
  93 H :    0.016559
  94 H :   -0.014315
  95 H :   -0.001572
  96 H :    0.000963
  97 H :   -0.011097
  98 H :    0.000491
Sum of atomic charges:   -0.0000000

LOEWDIN ATOMIC CHARGES
----------------------
   0 C :   -0.173247
   1 C :   -0.033174
   2 C :   -0.074533
   3 C :   -0.186011
   4 S :    0.481247
   5 C :   -0.175191
   6 C :   -0.069547
   7 C :    0.082652
   8 C :   -0.101759
   9 C :   -0.015945
  10 N :   -0.034187
  11 C :   -0.017418
  12 N :   -0.030199
  13 C :   -0.035260
  14 C :   -0.184458
  15 S :    0.487325
  16 C :   -0.171264
  17 C :   -0.032893
  18 C :   -0.002572
  19 C :   -0.043974
  20 C :   -0.139910
  21 S :    0.477581
  22 C :   -0.206520
  23 C :   -0.036006
  24 C :   -0.062185
  25 C :   -0.162786
  26 S :    0.425000
  27 C :   -0.053745
  28 C :    0.022367
  29 C :   -0.044056
  30 C :   -0.011219
  31 C :   -0.018834
  32 C :   -0.007302
  33 N :   -0.056855
  34 C :    0.025390
  35 C :   -0.000766
  36 N :   -0.017721
  37 C :   -0.071441
  38 C :   -0.037140
  39 C :   -0.046353
  40 N :   -0.286253
  41 S :    0.663155
  42 N :   -0.284525
  43 C :   -0.146132
  44 C :   -0.025758
  45 C :   -0.058311
  46 C :   -0.206894
  47 S :    0.504099
  48 C :   -0.146769
  49 C :   -0.071584
  50 C :    0.084614
  51 C :   -0.104773
  52 C :   -0.013357
  53 N :   -0.038880
  54 C :   -0.015930
  55 N :   -0.036615
  56 C :    0.015295
  57 C :   -0.186126
  58 S :    0.487012
  59 C :    0.043468
  60 C :   -0.103223
  61 C :    0.081400
  62 O :   -0.153621
  63 C :   -0.058742
  64 C :    0.031656
  65 C :   -0.019679
  66 C :    0.003162
  67 C :   -0.041636
  68 C :    0.092092
  69 C :   -0.039245
  70 C :    0.003264
  71 F :   -0.066892
  72 C :    0.011694
  73 C :   -0.015650
  74 C :    0.065451
  75 C :   -0.142058
  76 C :   -0.015863
  77 N :   -0.049566
  78 C :   -0.018308
  79 N :   -0.052611
  80 H :    0.029137
  81 H :    0.043343
  82 H :    0.035331
  83 H :    0.029806
  84 H :    0.039183
  85 H :    0.031548
  86 H :    0.024275
  87 H :    0.028170
  88 H :    0.026575
  89 H :    0.029883
  90 H :    0.026771
  91 H :    0.036890
  92 H :    0.042538
  93 H :    0.044001
  94 H :    0.038511
  95 H :    0.043440
  96 H :    0.040802
  97 H :    0.034824
  98 H :    0.040518

  Mayer bond orders larger than 0.100000
B(  0-C ,  1-C ) :   1.5477 B(  0-C ,  4-S ) :   1.1516 B(  0-C , 80-H ) :   0.9641
B(  1-C ,  2-C ) :   1.2766 B(  1-C , 81-H ) :   0.9973 B(  2-C ,  3-C ) :   1.4517
B(  2-C ,  7-C ) :   1.0186 B(  3-C ,  4-S ) :   1.1355 B(  3-C ,  5-C ) :   1.1826
B(  5-C ,  6-C ) :   1.4571 B(  5-C , 15-S ) :   1.1307 B(  6-C ,  7-C ) :   0.9970
B(  6-C , 13-C ) :   1.3060 B(  7-C ,  8-C ) :   1.7084 B(  8-C ,  9-C ) :   1.1315
B(  8-C , 11-C ) :   1.1311 B(  9-C , 10-N ) :   2.9883 B( 11-C , 12-N ) :   3.0016
B( 13-C , 14-C ) :   1.4527 B( 13-C , 82-H ) :   0.9799 B( 14-C , 15-S ) :   1.1063
B( 14-C , 16-C ) :   1.1709 B( 16-C , 17-C ) :   1.4939 B( 16-C , 21-S ) :   1.0750
B( 17-C , 18-C ) :   1.2742 B( 17-C , 83-H ) :   0.9589 B( 18-C , 19-C ) :   1.0689
B( 18-C , 27-C ) :   1.3265 B( 19-C , 20-C ) :   1.5987 B( 19-C , 22-C ) :   1.1701
B( 20-C , 21-S ) :   1.1420 B( 20-C , 84-H ) :   0.9414 B( 22-C , 23-C ) :   1.4490
B( 22-C , 26-S ) :   1.0750 B( 23-C , 24-C ) :   1.2273 B( 23-C , 27-C ) :   1.0871
B( 24-C , 25-C ) :   1.5803 B( 24-C , 85-H ) :   0.9985 B( 25-C , 26-S ) :   1.1577
B( 25-C , 86-H ) :   0.9663 B( 27-C , 28-C ) :   1.1931 B( 28-C , 29-C ) :   1.4814
B( 28-C , 87-H ) :   0.9456 B( 29-C , 30-C ) :   1.2761 B( 29-C , 88-H ) :   0.9563
B( 30-C , 31-C ) :   1.2026 B( 30-C , 37-C ) :   0.1276 B( 30-C , 39-C ) :   1.1583
B( 31-C , 32-C ) :   1.1312 B( 31-C , 36-N ) :   1.4711 B( 32-C , 33-N ) :   1.3895
B( 32-C , 37-C ) :   1.2734 B( 33-N , 34-C ) :   1.6391 B( 34-C , 35-C ) :   1.2131
B( 34-C , 89-H ) :   0.9728 B( 35-C , 36-N ) :   1.6517 B( 35-C , 90-H ) :   0.9752
B( 37-C , 38-C ) :   1.2042 B( 37-C , 43-C ) :   1.1907 B( 38-C , 39-C ) :   1.1067
B( 38-C , 42-N ) :   1.5132 B( 39-C , 40-N ) :   1.5213 B( 40-N , 41-S ) :   1.2815
B( 40-N , 42-N ) :   0.1518 B( 41-S , 42-N ) :   1.2616 B( 43-C , 44-C ) :   1.4157
B( 43-C , 47-S ) :   1.1075 B( 44-C , 45-C ) :   1.2811 B( 44-C , 91-H ) :   0.9840
B( 45-C , 46-C ) :   1.3976 B( 45-C , 50-C ) :   0.9873 B( 46-C , 47-S ) :   1.0421
B( 46-C , 48-C ) :   1.2282 B( 48-C , 49-C ) :   1.3749 B( 48-C , 58-S ) :   1.1571
B( 49-C , 50-C ) :   0.9984 B( 49-C , 56-C ) :   1.3817 B( 50-C , 51-C ) :   1.7095
B( 51-C , 52-C ) :   1.1317 B( 51-C , 54-C ) :   1.1408 B( 52-C , 53-N ) :   2.9848
B( 54-C , 55-N ) :   2.9880 B( 56-C , 57-C ) :   1.3615 B( 56-C , 92-H ) :   0.9772
B( 57-C , 58-S ) :   1.0702 B( 57-C , 59-C ) :   1.1840 B( 59-C , 60-C ) :   1.6121
B( 59-C , 93-H ) :   0.9275 B( 60-C , 61-C ) :   0.9536 B( 60-C , 74-C ) :   1.0577
B( 61-C , 62-O ) :   2.2574 B( 61-C , 63-C ) :   0.9210 B( 63-C , 64-C ) :   1.4702
B( 63-C , 73-C ) :   1.2205 B( 64-C , 65-C ) :   1.1880 B( 64-C , 94-H ) :   1.0163
B( 65-C , 66-C ) :   1.2597 B( 65-C , 70-C ) :   1.2330 B( 66-C , 67-C ) :   1.2037
B( 66-C , 72-C ) :   1.1988 B( 67-C , 68-C ) :   1.4384 B( 67-C , 95-H ) :   1.0079
B( 68-C , 69-C ) :   1.2576 B( 68-C , 71-F ) :   1.0860 B( 69-C , 70-C ) :   1.4590
B( 69-C , 96-H ) :   0.9920 B( 70-C , 97-H ) :   0.9975 B( 72-C , 73-C ) :   1.4674
B( 72-C , 98-H ) :   0.9954 B( 73-C , 74-C ) :   0.9896 B( 74-C , 75-C ) :   1.6342
B( 75-C , 76-C ) :   1.1730 B( 75-C , 78-C ) :   1.1318 B( 76-C , 77-N ) :   2.9939
B( 78-C , 79-N ) :   2.9886

-----------------------------------------------------------------------------
         ABSORPTION SPECTRUM VIA TRANSITION ELECTRIC DIPOLE MOMENTS
-----------------------------------------------------------------------------
State   Energy  Wavelength   fosc         T2         TX        TY        TZ
        (cm-1)    (nm)                  (au**2)     (au)      (au)      (au)
-----------------------------------------------------------------------------
   0    7423.2   1347.1   0.770436358  34.16830  -2.39067  -2.35529   4.78598
   1   11328.5    882.7   0.084963020   2.46907  -1.39656   0.52610   0.49185
   2   12128.3    824.5   0.000697991   0.01895   0.13556   0.01382   0.01949
   3   15619.7    640.2   0.121468164   2.56014   1.43414  -0.43535  -0.56022
   4   17425.1    573.9   0.184842424   3.49223   1.04139   0.67715  -1.39614
   5   17565.5    569.3   0.415154778   7.78082   1.85792   0.81233  -1.91548
   6   19169.2    521.7   0.227790281   3.91207   1.08716  -1.46680   0.76069
   7   20314.4    492.3   0.010579746   0.17145   0.19694  -0.01452  -0.36395
   8   21777.1    459.2   0.010223746   0.15456   0.37985  -0.09913   0.02109
   9   22873.1    437.2   0.134120629   1.93040  -0.45768   0.99675  -0.85289
  10   23705.8    421.8   0.010085429   0.14006   0.20887   0.18650  -0.24829
  11   23817.0    419.9   0.023199380   0.32067   0.19138   0.13774  -0.51486
  12   24683.3    405.1   0.133452236   1.77991  -0.96939  -0.17600   0.89957
  13   25445.1    393.0   0.014866214   0.19234   0.22603   0.09710   0.36307
  14   25520.6    391.8   0.011859422   0.15298   0.33048  -0.16398  -0.12991
  15   25867.8    386.6   0.075870981   0.96559   0.58692   0.40589  -0.67555
  16   25934.9    385.6   0.029248878   0.37128   0.39290  -0.45477   0.10045
  17   26658.2    375.1   0.206527497   2.55048   0.57012   0.48054  -1.41228
  18   26747.9    373.9   0.023138228   0.28478   0.02600   0.53299   0.00541
  19   27309.8    366.2   0.478657602   5.77008  -2.09497   0.97596   0.65475
  20   27796.6    359.8   0.044492559   0.52695   0.35807   0.00008  -0.63146
  21   27912.9    358.3   0.057460359   0.67770   0.12506   0.38995  -0.71414
  22   28581.0    349.9   0.044965765   0.51794   0.04891  -0.40322   0.59411
  23   29312.2    341.2   0.007897282   0.08870   0.17706   0.01429  -0.23904
  24   29813.8    335.4   0.094236061   1.04058   0.04151   0.68142  -0.75797
  25   30358.6    329.4   0.430784163   4.67147  -1.22431   0.19785   1.77014
  26   30615.4    326.6   0.212701388   2.28721  -0.74448   1.28117   0.30257
  27   31024.8    322.3   0.046866543   0.49731  -0.21434  -0.47752   0.47260
  28   31104.3    321.5   0.032424068   0.34318  -0.27838   0.09276  -0.50703
  29   31352.7    319.0   0.102987127   1.08139  -0.69815   0.76829  -0.06091
  30   31400.5    318.5   0.608053495   6.37501   1.04695   1.07860  -2.02868
  31   31472.3    317.7   0.196097020   2.05125  -0.71047  -0.38884   1.18122
  32   31816.6    314.3   0.106574387   1.10274   0.76377  -0.27852  -0.66469
  33   31937.3    313.1   0.088244751   0.90963   0.73003   0.33008  -0.51743
  34   32561.3    307.1   0.013351918   0.13499  -0.15672  -0.08794   0.32047
  35   32693.7    305.9   0.029401669   0.29606   0.37141  -0.31619  -0.24112
  36   32860.2    304.3   0.072301413   0.72436  -0.30154   0.42053   0.67571
  37   33142.6    301.7   0.097339309   0.96689  -0.33762  -0.61485   0.68910
  38   33245.8    300.8   0.007800564   0.07724   0.07223  -0.10182   0.24831
  39   33479.0    298.7   0.035569988   0.34977  -0.06157   0.40282  -0.42863
  40   33597.3    297.6   0.077435032   0.75877   0.33734  -0.64097  -0.48387
  41   33696.5    296.8   0.357995592   3.49758   1.01109  -1.20847   1.00741
  42   33757.6    296.2   0.066260624   0.64619   0.35108   0.56262  -0.45430
  43   33809.8    295.8   0.164890585   1.60557   0.47186  -1.04586   0.53768
  44   34015.0    294.0   0.104728155   1.01360  -0.69280   0.69401   0.22800
  45   34276.7    291.7   0.429253970   4.12279   0.93003  -1.75731   0.41196
  46   34460.4    290.2   0.122532207   1.17059   0.03637  -0.11359   1.07534
  47   34516.9    289.7   0.128912695   1.22953  -0.51354  -0.20421   0.96130
  48   34847.1    287.0   0.232726404   2.19864  -1.15069   0.90031   0.25298
  49   35142.5    284.6   0.038201390   0.35787   0.36753  -0.14898  -0.44788
  50   35444.8    282.1   0.022922569   0.21291  -0.14438   0.43615  -0.04284
  51   35649.0    280.5   0.247727788   2.28772   0.17619   0.58486  -1.38370
  52   35695.6    280.1   0.122550132   1.13025   0.13803   0.52710  -0.91289
  53   35829.9    279.1   0.025216188   0.23169  -0.26637   0.00377   0.40091
  54   36041.9    277.5   0.344994620   3.15123  -0.72608   1.37638   0.85417
  55   36277.6    275.7   0.006129506   0.05562   0.00389   0.17113  -0.16224
  56   36608.2    273.2   0.061455249   0.55266  -0.06957  -0.02383   0.73976
  57   36868.6    271.2   0.200988405   1.79469  -0.82635   1.01929  -0.26998
  58   37011.0    270.2   0.050880336   0.45258   0.58914  -0.04260  -0.32199
  59   37140.2    269.2   0.214922231   1.90508   1.10269  -0.80412  -0.20626
  60   37328.2    267.9   0.002971076   0.02620   0.15355   0.05107  -0.00398
  61   37390.6    267.4   0.005279021   0.04648  -0.19947  -0.05863   0.05704
  62   37663.0    265.5   0.019591676   0.17125   0.08314  -0.09935  -0.39302
  63   37875.9    264.0   0.087779300   0.76296  -0.67188   0.13701   0.54109
  64   37893.3    263.9   0.003373815   0.02931  -0.14503   0.08029   0.04280
  65   38049.2    262.8   0.015768945   0.13644   0.09446   0.09891  -0.34312
  66   38160.5    262.1   0.001917402   0.01654   0.09615   0.08391  -0.01599
  67   38795.8    257.8   0.085805734   0.72813   0.42021  -0.72282   0.17055
  68   39068.0    256.0   0.111973263   0.94356   0.48661  -0.73613   0.40606
  69   39238.1    254.9   0.066164894   0.55513  -0.59028   0.45416  -0.02102
  70   39578.2    252.7   0.008861631   0.07371   0.15230  -0.21659  -0.06002
  71   39968.4    250.2   0.017546127   0.14452  -0.34661  -0.04774   0.14867
  72   40108.2    249.3   0.006029608   0.04949   0.07517  -0.18568   0.09677
  73   40275.2    248.3   0.045661181   0.37324  -0.31815   0.52075  -0.02902

FINAL SINGLE POINT ENERGY     -5840.942101739263

DIPOLE MOMENT
-------------
                                X             Y             Z
Electronic contribution:     -7.58022      13.15020      -5.44026
Nuclear contribution   :     11.49343     -14.49302       4.01016
                        -----------------------------------------
Total Dipole Moment    :      3.91321      -1.34282      -1.43011
                        -----------------------------------------
Magnitude (a.u.)       :      4.37740
Magnitude (Debye)      :     11.12646

Rotational constants in cm-1:     0.001223     0.000206     0.000179
Rotational constants in MHz :    36.671146     6.182490     5.370558

                             ****ORCA TERMINATED NORMALLY****
TOTAL RUN TIME: 0 days 0 hours 11 minutes 57 seconds 379 msec
