                         Program Version 4.2.0 -  RELEASE  -
|  1> # ORCA input file
|  2> # SCF done       -193.643344539756          0.000423263536
|  3> ! CAM-B3LYP def2-SVP def2/J RIJCOSX Grid4 TightSCF
|  4> %maxcore 5000
|  5> %tddft
|  6>     Mode sTDDFT
|  7>     Ethresh 5.0
|  8>     maxcore 5000
|  9> end
| 10>
| 11> %pal
| 12>   nprocs 6
| 13>   end
| 14> * xyz 0 1
| 15>    C      -18.38511         8.84697         1.47436
| 16>    C      -17.31848         8.09097         1.09209
| 17>    C      -16.11705         8.81957         1.18032
| 18>    C      -16.31868        10.12599         1.63734
| 19>    S      -17.96346        10.45674         1.95282
| 20>    C      -15.05638        10.78283         1.70363
| 21>    C      -14.06413         9.88779         1.28240
| 22>    C      -14.69567         8.61493         0.95625
| 23>    C      -14.07880         7.46354         0.56706
| 24>    C      -12.67585         7.35089         0.45212
| 25>    N      -11.53849         7.23084         0.37958
| 26>    C      -14.80383         6.28576         0.28562
| 27>    N      -15.39029         5.32749         0.05678
| 28>    C      -12.78171        10.44202         1.30282
| 29>    C      -12.79656        11.74860         1.75003
| 30>    S      -14.41973        12.29997         2.14426
| 31>    C      -11.69341        12.62482         1.96020
| 32>    C      -10.41250        12.53574         1.43422
| 33>    C      -10.07109        11.60348         0.44096
| 34>    N       -9.83493        10.86876        -0.40690
| 35>    C       -9.54835        13.55006         1.93721
| 36>    C      -10.22142        14.39515         2.81178
| 37>    S      -11.87418        13.98365         3.04787
| 38>    S       -9.26484        15.65939         3.51053
| 39>    C       -7.91142        15.03497         2.62615
| 40>    C       -8.17712        13.93041         1.82717
| 41>    C       -6.99650        13.46908         1.17502
| 42>    C       -6.92985        12.32032         0.36935
| 43>    N       -6.85560        11.36399        -0.25899
| 44>    C       -5.87792        14.21546         1.51147
| 45>    S       -6.26202        15.51921         2.62032
| 46>    C       -4.50902        14.03178         1.12578
| 47>    C       -3.48935        14.39257         1.96911
| 48>    C       -2.13400        14.20333         1.70680
| 49>    C       -1.68009        13.62870         0.43608
| 50>    C       -2.51625        13.23248        -0.54948
| 51>    S       -4.22657        13.32604        -0.45919
| 52>    C       -0.26524        13.56355         0.54438
| 53>    C        0.14178        14.02441         1.80142
| 54>    C        1.54643        13.97529         1.94774
| 55>    C        2.14949        13.48539         0.83308
| 56>    S        1.05282        13.06606        -0.43782
| 57>    C       -1.02541        14.42530         2.54281
| 58>    C       -1.11747        14.88812         3.87639
| 59>    C       -0.15557        14.81736         4.82879
| 60>    C       -0.37818        15.19821         6.17566
| 61>    C        0.46412        14.95333         7.25565
| 62>    C        1.72740        14.38024         7.04934
| 63>    N        2.75702        13.94086         6.79719
| 64>    C       -0.09595        15.36860         8.49519
| 65>    C       -1.33690        15.96533         8.30507
| 66>    S       -1.86086        15.99637         6.66624
| 67>    S       -2.12600        16.52024         9.74480
| 68>    C       -0.77405        15.90842        10.64283
| 69>    C        0.22821        15.32162         9.88402
| 70>    C        1.25803        14.78897        10.71626
| 71>    C        2.34714        14.05475        10.21804
| 72>    N        3.21548        13.43094         9.80286
| 73>    C        1.01052        14.98203        12.06303
| 74>    S       -0.49243        15.83633        12.33643
| 75>    C        1.78162        14.55247        13.20861
| 76>    C        1.12523        14.34892        14.43119
| 77>    C        1.83911        13.91027        15.51729
| 78>    C        3.22019        13.67452        15.41592
| 79>    C        3.88066        13.89501        14.21758
| 80>    C        3.16054        14.33340        13.12249
| 81>    C        3.70131        13.21007        16.70430
| 82>    C        2.61589        13.16210        17.59295
| 83>    C        1.34316        13.60458        16.91010
| 84>    C        0.74799        14.85696        17.58036
| 85>    C        1.72861        16.02221        17.63186
| 86>    C        0.29121        12.47956        16.89563
| 87>    C        0.79879        11.20216        16.23765
| 88>    C        2.79922        12.74759        18.89452
| 89>    C        4.07349        12.37936        19.30612
| 90>    C        5.14568        12.42620        18.42805
| 91>    C        4.97113        12.84209        17.11822
| 92>    H      -19.41636         8.55754         1.50737
| 93>    H      -17.39688         7.07024         0.76575
| 94>    H      -11.88238         9.92482         1.02374
| 95>    H       -3.77457        14.81623         2.92343
| 96>    H       -2.16337        12.80192        -1.47334
| 97>    H        2.09636        14.28677         2.81655
| 98>    H        3.19903        13.33849         0.66872
| 99>    H       -2.08318        15.28030         4.17471
|100>    H        0.81136        14.38687         4.61588
|101>    H        0.05999        14.52044        14.49981
|102>    H        4.94367        13.72990        14.13260
|103>    H        3.67096        14.51978        12.19122
|104>    H        0.44076        14.59674        18.59545
|105>    H       -0.14487        15.15845        17.02813
|106>    H        2.61943        15.74948        18.19327
|107>    H        1.26572        16.87977        18.11474
|108>    H        2.03217        16.31403        16.62885
|109>    H       -0.59399        12.83499        16.36348
|110>    H       -0.00281        12.26443        17.92512
|111>    H        1.07685        11.38579        15.20212
|112>    H        0.02411        10.43897        16.25573
|113>    H        1.67112        10.82016        16.76316
|114>    H        1.97126        12.70612        19.58735
|115>    H        4.23113        12.05134        20.32316
|116>    H        6.12749        12.13400        18.77065
|117>    H        5.80663        12.87694        16.43529
|118> *
|119>
|120>                          ****END OF INPUT****

CARTESIAN COORDINATES (ANGSTROEM)
---------------------------------
  C    -18.385110    8.846970    1.474360
  C    -17.318480    8.090970    1.092090
  C    -16.117050    8.819570    1.180320
  C    -16.318680   10.125990    1.637340
  S    -17.963460   10.456740    1.952820
  C    -15.056380   10.782830    1.703630
  C    -14.064130    9.887790    1.282400
  C    -14.695670    8.614930    0.956250
  C    -14.078800    7.463540    0.567060
  C    -12.675850    7.350890    0.452120
  N    -11.538490    7.230840    0.379580
  C    -14.803830    6.285760    0.285620
  N    -15.390290    5.327490    0.056780
  C    -12.781710   10.442020    1.302820
  C    -12.796560   11.748600    1.750030
  S    -14.419730   12.299970    2.144260
  C    -11.693410   12.624820    1.960200
  C    -10.412500   12.535740    1.434220
  C    -10.071090   11.603480    0.440960
  N     -9.834930   10.868760   -0.406900
  C     -9.548350   13.550060    1.937210
  C    -10.221420   14.395150    2.811780
  S    -11.874180   13.983650    3.047870
  S     -9.264840   15.659390    3.510530
  C     -7.911420   15.034970    2.626150
  C     -8.177120   13.930410    1.827170
  C     -6.996500   13.469080    1.175020
  C     -6.929850   12.320320    0.369350
  N     -6.855600   11.363990   -0.258990
  C     -5.877920   14.215460    1.511470
  S     -6.262020   15.519210    2.620320
  C     -4.509020   14.031780    1.125780
  C     -3.489350   14.392570    1.969110
  C     -2.134000   14.203330    1.706800
  C     -1.680090   13.628700    0.436080
  C     -2.516250   13.232480   -0.549480
  S     -4.226570   13.326040   -0.459190
  C     -0.265240   13.563550    0.544380
  C      0.141780   14.024410    1.801420
  C      1.546430   13.975290    1.947740
  C      2.149490   13.485390    0.833080
  S      1.052820   13.066060   -0.437820
  C     -1.025410   14.425300    2.542810
  C     -1.117470   14.888120    3.876390
  C     -0.155570   14.817360    4.828790
  C     -0.378180   15.198210    6.175660
  C      0.464120   14.953330    7.255650
  C      1.727400   14.380240    7.049340
  N      2.757020   13.940860    6.797190
  C     -0.095950   15.368600    8.495190
  C     -1.336900   15.965330    8.305070
  S     -1.860860   15.996370    6.666240
  S     -2.126000   16.520240    9.744800
  C     -0.774050   15.908420   10.642830
  C      0.228210   15.321620    9.884020
  C      1.258030   14.788970   10.716260
  C      2.347140   14.054750   10.218040
  N      3.215480   13.430940    9.802860
  C      1.010520   14.982030   12.063030
  S     -0.492430   15.836330   12.336430
  C      1.781620   14.552470   13.208610
  C      1.125230   14.348920   14.431190
  C      1.839110   13.910270   15.517290
  C      3.220190   13.674520   15.415920
  C      3.880660   13.895010   14.217580
  C      3.160540   14.333400   13.122490
  C      3.701310   13.210070   16.704300
  C      2.615890   13.162100   17.592950
  C      1.343160   13.604580   16.910100
  C      0.747990   14.856960   17.580360
  C      1.728610   16.022210   17.631860
  C      0.291210   12.479560   16.895630
  C      0.798790   11.202160   16.237650
  C      2.799220   12.747590   18.894520
  C      4.073490   12.379360   19.306120
  C      5.145680   12.426200   18.428050
  C      4.971130   12.842090   17.118220
  H    -19.416360    8.557540    1.507370
  H    -17.396880    7.070240    0.765750
  H    -11.882380    9.924820    1.023740
  H     -3.774570   14.816230    2.923430
  H     -2.163370   12.801920   -1.473340
  H      2.096360   14.286770    2.816550
  H      3.199030   13.338490    0.668720
  H     -2.083180   15.280300    4.174710
  H      0.811360   14.386870    4.615880
  H      0.059990   14.520440   14.499810
  H      4.943670   13.729900   14.132600
  H      3.670960   14.519780   12.191220
  H      0.440760   14.596740   18.595450
  H     -0.144870   15.158450   17.028130
  H      2.619430   15.749480   18.193270
  H      1.265720   16.879770   18.114740
  H      2.032170   16.314030   16.628850
  H     -0.593990   12.834990   16.363480
  H     -0.002810   12.264430   17.925120
  H      1.076850   11.385790   15.202120
  H      0.024110   10.438970   16.255730
  H      1.671120   10.820160   16.763160
  H      1.971260   12.706120   19.587350
  H      4.231130   12.051340   20.323160
  H      6.127490   12.134000   18.770650
  H      5.806630   12.876940   16.435290

 Total Charge           Charge          ....    0
 Multiplicity           Mult            ....    1
 Number of Electrons    NEL             ....  594
 Basis Dimension        Dim             .... 1248

ORBITAL ENERGIES
----------------

  NO   OCC          E(Eh)            E(eV)
   0   2.0000     -88.995604     -2421.6935
   1   2.0000     -88.995279     -2421.6847
   2   2.0000     -88.994769     -2421.6708
   3   2.0000     -88.994191     -2421.6551
   4   2.0000     -88.989711     -2421.5331
   5   2.0000     -88.980877     -2421.2928
   6   2.0000     -88.980599     -2421.2852
   7   2.0000     -88.977964     -2421.2135
   8   2.0000     -88.976428     -2421.1717
   9   2.0000     -88.956223     -2420.6219
  10   2.0000     -14.428254      -392.6128
  11   2.0000     -14.424630      -392.5141
  12   2.0000     -14.407059      -392.0360
  13   2.0000     -14.406764      -392.0280
  14   2.0000     -14.395956      -391.7339
  15   2.0000     -14.393086      -391.6558
  16   2.0000     -10.363484      -282.0047
  17   2.0000     -10.349801      -281.6324
  18   2.0000     -10.348322      -281.5921
  19   2.0000     -10.347286      -281.5640
  20   2.0000     -10.345141      -281.5056
  21   2.0000     -10.345055      -281.5033
  22   2.0000     -10.336678      -281.2753
  23   2.0000     -10.335692      -281.2485
  24   2.0000     -10.332824      -281.1704
  25   2.0000     -10.331326      -281.1297
  26   2.0000     -10.331068      -281.1226
  27   2.0000     -10.330662      -281.1116
  28   2.0000     -10.329762      -281.0871
  29   2.0000     -10.329407      -281.0774
  30   2.0000     -10.329132      -281.0700
  31   2.0000     -10.328317      -281.0478
  32   2.0000     -10.327201      -281.0174
  33   2.0000     -10.325356      -280.9672
  34   2.0000     -10.323746      -280.9234
  35   2.0000     -10.318316      -280.7757
  36   2.0000     -10.318014      -280.7674
  37   2.0000     -10.314395      -280.6690
  38   2.0000     -10.313861      -280.6544
  39   2.0000     -10.311207      -280.5822
  40   2.0000     -10.307661      -280.4857
  41   2.0000     -10.306199      -280.4459
  42   2.0000     -10.306035      -280.4415
  43   2.0000     -10.305209      -280.4190
  44   2.0000     -10.304187      -280.3912
  45   2.0000     -10.302755      -280.3522
  46   2.0000     -10.302479      -280.3447
  47   2.0000     -10.302007      -280.3319
  48   2.0000     -10.301049      -280.3058
  49   2.0000     -10.298787      -280.2442
  50   2.0000     -10.296253      -280.1753
  51   2.0000     -10.295296      -280.1492
  52   2.0000     -10.293543      -280.1015
  53   2.0000     -10.290832      -280.0278
  54   2.0000     -10.289894      -280.0022
  55   2.0000     -10.289543      -279.9927
  56   2.0000     -10.289162      -279.9823
  57   2.0000     -10.283177      -279.8195
  58   2.0000     -10.281057      -279.7618
  59   2.0000     -10.276872      -279.6479
  60   2.0000     -10.276583      -279.6401
  61   2.0000     -10.275987      -279.6238
  62   2.0000     -10.273435      -279.5544
  63   2.0000     -10.272549      -279.5303
  64   2.0000     -10.272295      -279.5234
  65   2.0000     -10.271332      -279.4972
  66   2.0000     -10.269413      -279.4449
  67   2.0000     -10.267658      -279.3972
  68   2.0000     -10.267038      -279.3803
  69   2.0000     -10.266571      -279.3676
  70   2.0000     -10.266115      -279.3552
  71   2.0000     -10.265101      -279.3276
  72   2.0000     -10.264970      -279.3240
  73   2.0000     -10.262999      -279.2704
  74   2.0000     -10.262149      -279.2473
  75   2.0000     -10.245814      -278.8028
  76   2.0000     -10.243995      -278.7533
  77   2.0000      -8.090477      -220.1531
  78   2.0000      -8.090336      -220.1492
  79   2.0000      -8.090270      -220.1474
  80   2.0000      -8.089350      -220.1224
  81   2.0000      -8.084639      -219.9942
  82   2.0000      -8.076058      -219.7607
  83   2.0000      -8.075571      -219.7474
  84   2.0000      -8.073188      -219.6826
  85   2.0000      -8.071664      -219.6411
  86   2.0000      -8.051809      -219.1008
  87   2.0000      -6.060458      -164.9135
  88   2.0000      -6.059908      -164.8985
  89   2.0000      -6.059592      -164.8899
  90   2.0000      -6.058980      -164.8732
  91   2.0000      -6.056213      -164.7979
  92   2.0000      -6.055677      -164.7833
  93   2.0000      -6.055449      -164.7771
  94   2.0000      -6.054763      -164.7585
  95   2.0000      -6.053907      -164.7352
  96   2.0000      -6.052656      -164.7012
  97   2.0000      -6.051727      -164.6759
  98   2.0000      -6.051262      -164.6632
  99   2.0000      -6.050814      -164.6510
 100   2.0000      -6.049462      -164.6142
 101   2.0000      -6.047263      -164.5544
 102   2.0000      -6.046043      -164.5212
 103   2.0000      -6.045217      -164.4987
 104   2.0000      -6.042732      -164.4311
 105   2.0000      -6.041801      -164.4058
 106   2.0000      -6.041216      -164.3899
 107   2.0000      -6.040445      -164.3689
 108   2.0000      -6.038521      -164.3165
 109   2.0000      -6.037435      -164.2869
 110   2.0000      -6.037156      -164.2794
 111   2.0000      -6.036879      -164.2718
 112   2.0000      -6.034852      -164.2167
 113   2.0000      -6.033185      -164.1713
 114   2.0000      -6.021251      -163.8466
 115   2.0000      -6.016964      -163.7299
 116   2.0000      -6.013814      -163.6442
 117   2.0000      -1.051170       -28.6038
 118   2.0000      -1.044613       -28.4254
 119   2.0000      -1.033828       -28.1319
 120   2.0000      -1.022630       -27.8272
 121   2.0000      -1.018154       -27.7054
 122   2.0000      -1.008342       -27.4384
 123   2.0000      -1.003570       -27.3085
 124   2.0000      -1.001967       -27.2649
 125   2.0000      -0.998016       -27.1574
 126   2.0000      -0.993491       -27.0343
 127   2.0000      -0.986368       -26.8404
 128   2.0000      -0.984628       -26.7931
 129   2.0000      -0.981998       -26.7215
 130   2.0000      -0.976180       -26.5632
 131   2.0000      -0.971616       -26.4390
 132   2.0000      -0.959042       -26.0969
 133   2.0000      -0.951007       -25.8782
 134   2.0000      -0.948919       -25.8214
 135   2.0000      -0.934444       -25.4275
 136   2.0000      -0.928104       -25.2550
 137   2.0000      -0.910622       -24.7793
 138   2.0000      -0.910156       -24.7666
 139   2.0000      -0.906761       -24.6742
 140   2.0000      -0.896551       -24.3964
 141   2.0000      -0.889729       -24.2108
 142   2.0000      -0.883073       -24.0296
 143   2.0000      -0.880738       -23.9661
 144   2.0000      -0.870926       -23.6991
 145   2.0000      -0.867481       -23.6054
 146   2.0000      -0.861367       -23.4390
 147   2.0000      -0.854560       -23.2538
 148   2.0000      -0.844897       -22.9908
 149   2.0000      -0.840434       -22.8694
 150   2.0000      -0.836163       -22.7532
 151   2.0000      -0.835183       -22.7265
 152   2.0000      -0.833270       -22.6744
 153   2.0000      -0.827015       -22.5042
 154   2.0000      -0.824792       -22.4437
 155   2.0000      -0.813115       -22.1260
 156   2.0000      -0.804797       -21.8997
 157   2.0000      -0.794569       -21.6213
 158   2.0000      -0.784385       -21.3442
 159   2.0000      -0.777196       -21.1486
 160   2.0000      -0.768844       -20.9213
 161   2.0000      -0.759418       -20.6648
 162   2.0000      -0.747475       -20.3398
 163   2.0000      -0.737602       -20.0712
 164   2.0000      -0.727871       -19.8064
 165   2.0000      -0.725904       -19.7528
 166   2.0000      -0.713384       -19.4122
 167   2.0000      -0.706419       -19.2226
 168   2.0000      -0.701287       -19.0830
 169   2.0000      -0.697583       -18.9822
 170   2.0000      -0.693262       -18.8646
 171   2.0000      -0.691157       -18.8073
 172   2.0000      -0.680697       -18.5227
 173   2.0000      -0.677403       -18.4331
 174   2.0000      -0.673953       -18.3392
 175   2.0000      -0.673030       -18.3141
 176   2.0000      -0.664695       -18.0873
 177   2.0000      -0.660146       -17.9635
 178   2.0000      -0.658679       -17.9236
 179   2.0000      -0.656077       -17.8528
 180   2.0000      -0.650041       -17.6885
 181   2.0000      -0.646388       -17.5891
 182   2.0000      -0.634529       -17.2664
 183   2.0000      -0.633078       -17.2269
 184   2.0000      -0.631805       -17.1923
 185   2.0000      -0.625016       -17.0076
 186   2.0000      -0.621447       -16.9104
 187   2.0000      -0.615707       -16.7542
 188   2.0000      -0.614872       -16.7315
 189   2.0000      -0.592834       -16.1318
 190   2.0000      -0.591273       -16.0894
 191   2.0000      -0.583986       -15.8911
 192   2.0000      -0.578991       -15.7552
 193   2.0000      -0.572747       -15.5852
 194   2.0000      -0.566981       -15.4283
 195   2.0000      -0.563211       -15.3257
 196   2.0000      -0.561056       -15.2671
 197   2.0000      -0.554780       -15.0963
 198   2.0000      -0.550302       -14.9745
 199   2.0000      -0.545966       -14.8565
 200   2.0000      -0.545240       -14.8367
 201   2.0000      -0.541993       -14.7484
 202   2.0000      -0.535116       -14.5613
 203   2.0000      -0.533498       -14.5172
 204   2.0000      -0.532272       -14.4839
 205   2.0000      -0.531278       -14.4568
 206   2.0000      -0.527795       -14.3620
 207   2.0000      -0.524991       -14.2857
 208   2.0000      -0.521604       -14.1936
 209   2.0000      -0.519898       -14.1471
 210   2.0000      -0.517098       -14.0710
 211   2.0000      -0.516234       -14.0474
 212   2.0000      -0.515711       -14.0332
 213   2.0000      -0.514862       -14.0101
 214   2.0000      -0.511583       -13.9209
 215   2.0000      -0.509119       -13.8538
 216   2.0000      -0.505378       -13.7520
 217   2.0000      -0.503619       -13.7042
 218   2.0000      -0.500154       -13.6099
 219   2.0000      -0.499026       -13.5792
 220   2.0000      -0.497024       -13.5247
 221   2.0000      -0.493457       -13.4277
 222   2.0000      -0.491182       -13.3657
 223   2.0000      -0.487593       -13.2681
 224   2.0000      -0.483226       -13.1493
 225   2.0000      -0.478909       -13.0318
 226   2.0000      -0.477530       -12.9943
 227   2.0000      -0.476916       -12.9775
 228   2.0000      -0.474360       -12.9080
 229   2.0000      -0.472205       -12.8494
 230   2.0000      -0.469978       -12.7887
 231   2.0000      -0.468792       -12.7565
 232   2.0000      -0.465917       -12.6782
 233   2.0000      -0.463589       -12.6149
 234   2.0000      -0.461865       -12.5680
 235   2.0000      -0.461073       -12.5464
 236   2.0000      -0.459848       -12.5131
 237   2.0000      -0.457982       -12.4623
 238   2.0000      -0.456872       -12.4321
 239   2.0000      -0.453377       -12.3370
 240   2.0000      -0.452874       -12.3233
 241   2.0000      -0.451514       -12.2863
 242   2.0000      -0.450344       -12.2545
 243   2.0000      -0.448894       -12.2150
 244   2.0000      -0.447745       -12.1838
 245   2.0000      -0.443605       -12.0711
 246   2.0000      -0.441733       -12.0202
 247   2.0000      -0.439575       -11.9615
 248   2.0000      -0.437960       -11.9175
 249   2.0000      -0.436577       -11.8799
 250   2.0000      -0.436417       -11.8755
 251   2.0000      -0.435990       -11.8639
 252   2.0000      -0.435308       -11.8453
 253   2.0000      -0.432964       -11.7815
 254   2.0000      -0.428966       -11.6728
 255   2.0000      -0.428103       -11.6493
 256   2.0000      -0.427596       -11.6355
 257   2.0000      -0.424317       -11.5462
 258   2.0000      -0.423603       -11.5268
 259   2.0000      -0.423467       -11.5231
 260   2.0000      -0.422356       -11.4929
 261   2.0000      -0.421999       -11.4832
 262   2.0000      -0.420236       -11.4352
 263   2.0000      -0.418402       -11.3853
 264   2.0000      -0.417726       -11.3669
 265   2.0000      -0.416227       -11.3261
 266   2.0000      -0.413051       -11.2397
 267   2.0000      -0.408500       -11.1158
 268   2.0000      -0.407540       -11.0897
 269   2.0000      -0.405899       -11.0451
 270   2.0000      -0.402133       -10.9426
 271   2.0000      -0.392475       -10.6798
 272   2.0000      -0.391166       -10.6442
 273   2.0000      -0.388604       -10.5744
 274   2.0000      -0.387676       -10.5492
 275   2.0000      -0.382393       -10.4054
 276   2.0000      -0.381823       -10.3899
 277   2.0000      -0.377501       -10.2723
 278   2.0000      -0.372639       -10.1400
 279   2.0000      -0.371589       -10.1115
 280   2.0000      -0.367697       -10.0055
 281   2.0000      -0.354136        -9.6365
 282   2.0000      -0.349626        -9.5138
 283   2.0000      -0.337424        -9.1818
 284   2.0000      -0.334134        -9.0922
 285   2.0000      -0.321645        -8.7524
 286   2.0000      -0.320379        -8.7180
 287   2.0000      -0.318574        -8.6688
 288   2.0000      -0.314442        -8.5564
 289   2.0000      -0.311126        -8.4662
 290   2.0000      -0.307920        -8.3789
 291   2.0000      -0.299070        -8.1381
 292   2.0000      -0.291169        -7.9231
 293   2.0000      -0.275002        -7.4832
 294   2.0000      -0.265666        -7.2291
 295   2.0000      -0.261087        -7.1046
 296   2.0000      -0.231680        -6.3043
 297   0.0000      -0.102717        -2.7951
 298   0.0000      -0.074617        -2.0304
 299   0.0000      -0.051184        -1.3928
 300   0.0000      -0.038497        -1.0475
 301   0.0000      -0.037767        -1.0277

MULLIKEN ATOMIC CHARGES
-----------------------
   0 C :   -0.080075
   1 C :    0.037988
   2 C :   -0.027698
   3 C :   -0.118577
   4 S :    0.182055
   5 C :   -0.095033
   6 C :    0.004225
   7 C :    0.297634
   8 C :   -0.290138
   9 C :   -0.193422
  10 N :    0.193219
  11 C :   -0.191939
  12 N :    0.174580
  13 C :   -0.027267
  14 C :   -0.109804
  15 S :    0.180323
  16 C :   -0.070193
  17 C :   -0.007352
  18 C :   -0.329684
  19 N :    0.220720
  20 C :    0.134003
  21 C :   -0.232427
  22 S :    0.167677
  23 S :    0.192710
  24 C :   -0.238485
  25 C :    0.141687
  26 C :    0.005046
  27 C :   -0.348344
  28 N :    0.225035
  29 C :   -0.080947
  30 S :    0.170814
  31 C :   -0.101943
  32 C :   -0.053770
  33 C :    0.054545
  34 C :    0.063706
  35 C :   -0.122106
  36 S :    0.182357
  37 C :   -0.108288
  38 C :    0.048318
  39 C :   -0.004932
  40 C :   -0.064467
  41 S :    0.133706
  42 C :    0.099748
  43 C :   -0.039573
  44 C :   -0.015372
  45 C :   -0.081309
  46 C :   -0.034800
  47 C :   -0.314658
  48 N :    0.198319
  49 C :    0.172980
  50 C :   -0.234197
  51 S :    0.129204
  52 S :    0.177468
  53 C :   -0.234498
  54 C :    0.123614
  55 C :   -0.002294
  56 C :   -0.336000
  57 N :    0.209558
  58 C :   -0.086702
  59 S :    0.153916
  60 C :    0.081736
  61 C :   -0.114322
  62 C :    0.016246
  63 C :    0.110195
  64 C :   -0.053462
  65 C :   -0.014868
  66 C :    0.114516
  67 C :   -0.001484
  68 C :   -0.144541
  69 C :    0.070773
  70 C :    0.025254
  71 C :    0.068615
  72 C :    0.022751
  73 C :   -0.048446
  74 C :    0.028459
  75 C :    0.033900
  76 C :   -0.056751
  77 H :    0.038081
  78 H :    0.013678
  79 H :    0.031841
  80 H :   -0.009895
  81 H :    0.043520
  82 H :    0.001000
  83 H :    0.031543
  84 H :   -0.025473
  85 H :    0.004585
  86 H :   -0.027686
  87 H :   -0.027133
  88 H :   -0.002299
  89 H :   -0.002416
  90 H :   -0.005728
  91 H :    0.023292
  92 H :    0.008026
  93 H :    0.019864
  94 H :   -0.004457
  95 H :   -0.002761
  96 H :    0.023872
  97 H :    0.010533
  98 H :    0.023492
  99 H :   -0.033930
 100 H :   -0.018385
 101 H :   -0.018680
 102 H :   -0.031915
Sum of atomic charges:   -0.0000000

LOEWDIN ATOMIC CHARGES
----------------------
   0 C :   -0.174161
   1 C :   -0.033952
   2 C :   -0.070045
   3 C :   -0.189733
   4 S :    0.477202
   5 C :   -0.172512
   6 C :   -0.069506
   7 C :    0.078049
   8 C :   -0.094339
   9 C :   -0.023269
  10 N :   -0.014634
  11 C :   -0.015534
  12 N :   -0.031100
  13 C :   -0.007051
  14 C :   -0.195008
  15 S :    0.466513
  16 C :   -0.144609
  17 C :   -0.098936
  18 C :   -0.042591
  19 N :   -0.023682
  20 C :   -0.058809
  21 C :   -0.335735
  22 S :    0.440439
  23 S :    0.425839
  24 C :   -0.334790
  25 C :   -0.060555
  26 C :   -0.102146
  27 C :   -0.061304
  28 N :   -0.021979
  29 C :   -0.141518
  30 S :    0.456162
  31 C :   -0.196096
  32 C :   -0.020548
  33 C :   -0.019279
  34 C :   -0.050181
  35 C :   -0.134450
  36 S :    0.497349
  37 C :   -0.198392
  38 C :   -0.036786
  39 C :   -0.062260
  40 C :   -0.159470
  41 S :    0.427344
  42 C :   -0.047356
  43 C :   -0.008648
  44 C :   -0.053877
  45 C :   -0.118192
  46 C :   -0.106807
  47 C :   -0.039726
  48 N :   -0.045213
  49 C :   -0.061616
  50 C :   -0.335833
  51 S :    0.430248
  52 S :    0.414774
  53 C :   -0.339285
  54 C :   -0.061376
  55 C :   -0.104480
  56 C :   -0.039392
  57 N :   -0.037086
  58 C :   -0.113541
  59 S :    0.449843
  60 C :   -0.049642
  61 C :   -0.027894
  62 C :    0.003991
  63 C :   -0.007348
  64 C :   -0.012588
  65 C :   -0.002060
  66 C :   -0.021211
  67 C :    0.002278
  68 C :   -0.036117
  69 C :   -0.011712
  70 C :   -0.057707
  71 C :   -0.011867
  72 C :   -0.057782
  73 C :   -0.028367
  74 C :   -0.020445
  75 C :   -0.024906
  76 C :   -0.017382
  77 H :    0.028470
  78 H :    0.043239
  79 H :    0.048394
  80 H :    0.026774
  81 H :    0.040008
  82 H :    0.034842
  83 H :    0.026072
  84 H :    0.016728
  85 H :    0.040812
  86 H :    0.015875
  87 H :    0.030920
  88 H :    0.036701
  89 H :    0.020115
  90 H :    0.018500
  91 H :    0.026431
  92 H :    0.023623
  93 H :    0.024709
  94 H :    0.018776
  95 H :    0.019926
  96 H :    0.026174
  97 H :    0.024442
  98 H :    0.026410
  99 H :    0.024934
 100 H :    0.027079
 101 H :    0.027487
 102 H :    0.026941

  Mayer bond orders larger than 0.100000
B(  0-C ,  1-C ) :   1.5461 B(  0-C ,  4-S ) :   1.1545 B(  0-C , 77-H ) :   0.9642
B(  1-C ,  2-C ) :   1.2811 B(  1-C , 78-H ) :   0.9952 B(  2-C ,  3-C ) :   1.4602
B(  2-C ,  7-C ) :   1.0114 B(  3-C ,  4-S ) :   1.1312 B(  3-C ,  5-C ) :   1.1822
B(  5-C ,  6-C ) :   1.4567 B(  5-C , 15-S ) :   1.1316 B(  6-C ,  7-C ) :   0.9891
B(  6-C , 13-C ) :   1.2883 B(  7-C ,  8-C ) :   1.7190 B(  8-C ,  9-C ) :   1.1312
B(  8-C , 11-C ) :   1.1329 B(  9-C , 10-N ) :   2.9942 B( 11-C , 12-N ) :   3.0002
B( 13-C , 14-C ) :   1.4903 B( 13-C , 79-H ) :   0.9847 B( 14-C , 15-S ) :   1.0876
B( 14-C , 16-C ) :   1.1311 B( 16-C , 17-C ) :   1.5414 B( 16-C , 22-S ) :   1.1311
B( 17-C , 18-C ) :   1.1709 B( 17-C , 20-C ) :   1.2469 B( 18-C , 19-N ) :   2.9650
B( 20-C , 21-C ) :   1.4266 B( 20-C , 25-C ) :   1.0727 B( 21-C , 22-S ) :   1.0806
B( 21-C , 23-S ) :   1.0827 B( 23-S , 24-C ) :   1.0854 B( 24-C , 25-C ) :   1.4215
B( 24-C , 30-S ) :   1.0878 B( 25-C , 26-C ) :   1.2496 B( 26-C , 27-C ) :   1.1582
B( 26-C , 29-C ) :   1.5049 B( 27-C , 28-N ) :   2.9942 B( 29-C , 30-S ) :   1.1401
B( 29-C , 31-C ) :   1.1075 B( 31-C , 32-C ) :   1.5237 B( 31-C , 36-S ) :   1.0793
B( 32-C , 33-C ) :   1.2464 B( 32-C , 80-H ) :   0.9551 B( 33-C , 34-C ) :   1.0507
B( 33-C , 42-C ) :   1.3831 B( 34-C , 35-C ) :   1.5927 B( 34-C , 37-C ) :   1.1862
B( 35-C , 36-S ) :   1.1561 B( 35-C , 81-H ) :   0.9399 B( 37-C , 38-C ) :   1.4372
B( 37-C , 41-S ) :   1.0802 B( 38-C , 39-C ) :   1.2162 B( 38-C , 42-C ) :   1.0888
B( 39-C , 40-C ) :   1.5888 B( 39-C , 82-H ) :   0.9990 B( 40-C , 41-S ) :   1.1541
B( 40-C , 83-H ) :   0.9648 B( 42-C , 43-C ) :   1.1721 B( 43-C , 44-C ) :   1.6034
B( 43-C , 84-H ) :   0.9544 B( 44-C , 45-C ) :   1.1931 B( 44-C , 85-H ) :   0.9711
B( 45-C , 46-C ) :   1.4817 B( 45-C , 51-S ) :   1.1085 B( 46-C , 47-C ) :   1.1792
B( 46-C , 49-C ) :   1.2345 B( 47-C , 48-N ) :   2.9828 B( 49-C , 50-C ) :   1.4221
B( 49-C , 54-C ) :   1.0685 B( 50-C , 51-S ) :   1.0803 B( 50-C , 52-S ) :   1.0824
B( 52-S , 53-C ) :   1.0792 B( 53-C , 54-C ) :   1.4300 B( 53-C , 59-S ) :   1.0807
B( 54-C , 55-C ) :   1.2383 B( 55-C , 56-C ) :   1.1756 B( 55-C , 58-C ) :   1.5309
B( 56-C , 57-N ) :   2.9697 B( 58-C , 59-S ) :   1.1427 B( 58-C , 60-C ) :   1.0556
B( 60-C , 61-C ) :   1.2763 B( 60-C , 65-C ) :   1.3679 B( 61-C , 62-C ) :   1.4160
B( 61-C , 86-H ) :   0.9886 B( 62-C , 63-C ) :   1.3687 B( 62-C , 68-C ) :   0.9178
B( 63-C , 64-C ) :   1.3427 B( 63-C , 66-C ) :   0.9873 B( 64-C , 65-C ) :   1.3887
B( 64-C , 87-H ) :   0.9946 B( 65-C , 88-H ) :   0.9815 B( 66-C , 67-C ) :   1.3737
B( 66-C , 76-C ) :   1.3598 B( 67-C , 68-C ) :   0.9213 B( 67-C , 73-C ) :   1.4026
B( 68-C , 69-C ) :   1.0369 B( 68-C , 71-C ) :   1.0381 B( 69-C , 70-C ) :   1.1016
B( 69-C , 89-H ) :   0.9391 B( 69-C , 90-H ) :   0.9388 B( 70-C , 91-H ) :   0.9646
B( 70-C , 92-H ) :   0.9639 B( 70-C , 93-H ) :   0.9641 B( 71-C , 72-C ) :   1.1025
B( 71-C , 94-H ) :   0.9388 B( 71-C , 95-H ) :   0.9389 B( 72-C , 96-H ) :   0.9641
B( 72-C , 97-H ) :   0.9639 B( 72-C , 98-H ) :   0.9644 B( 73-C , 74-C ) :   1.3557
B( 73-C , 99-H ) :   1.0038 B( 74-C , 75-C ) :   1.3901 B( 74-C ,100-H ) :   0.9858
B( 75-C , 76-C ) :   1.3757 B( 75-C ,101-H ) :   0.9850 B( 76-C ,102-H ) :   0.9920

-----------------------------------------------------------------------------
         ABSORPTION SPECTRUM VIA TRANSITION ELECTRIC DIPOLE MOMENTS
-----------------------------------------------------------------------------
State   Energy  Wavelength   fosc         T2         TX        TY        TZ
        (cm-1)    (nm)                  (au**2)     (au)      (au)      (au)
-----------------------------------------------------------------------------
   0   15702.9    636.8   0.102551439   2.14999   1.29381   0.65351   0.22130
   1   18842.8    530.7   1.057409731  18.47453   3.26701   0.61857   2.72370
   2   20114.9    497.1   0.006574238   0.10760   0.17713   0.04696   0.27206
   3   22642.5    441.6   0.014606368   0.21237  -0.37544  -0.14140  -0.22676
   4   26610.2    375.8   0.241427826   2.98686  -1.26536  -0.06894   1.17514
   5   27735.8    360.5   0.757550508   8.99179  -0.91452   0.02977   2.85562
   6   28378.0    352.4   0.414844769   4.81260  -1.46873  -1.37858  -0.86888
   7   28604.4    349.6   0.709284117   8.16325   2.06820   1.78802   0.82994
   8   28954.1    345.4   0.042756668   0.48615   0.43772   0.52648   0.13177
   9   29255.5    341.8   0.004854585   0.05463  -0.07644   0.15545  -0.15691
  10   29474.3    339.3   0.038540776   0.43048   0.35636  -0.28620   0.47072
  11   29524.8    338.7   0.003623012   0.04040  -0.16313  -0.11304  -0.03176
  12   29669.5    337.0   0.025950989   0.28795  -0.46621  -0.17937   0.19604
  13   30109.9    332.1   0.004998250   0.05465   0.19334  -0.06346  -0.11507
  14   31185.2    320.7   0.591685468   6.24623  -0.76229   0.41173  -2.34427
  15   31658.7    315.9   0.689479480   7.16976   1.93361  -1.68532  -0.76851
  16   32139.4    311.1   0.641346109   6.56946   1.32656  -1.04731   1.92687
  17   32780.1    305.1   0.120238808   1.20756   1.06791   0.06700  -0.25027
  18   33831.0    295.6   0.514199504   5.00371  -2.21527  -0.14079   0.27651
  19   34208.2    292.3   0.198590126   1.91119   0.07935  -1.31747  -0.41129
  20   34335.2    291.2   0.014037211   0.13459   0.01339   0.33815   0.14166
  21   34900.1    286.5   0.114751805   1.08245  -1.01797   0.07387  -0.20184
  22   35890.8    278.6   0.049258948   0.45183   0.63085   0.15585   0.17197
  23   36685.8    272.6   0.020268793   0.18189   0.28645   0.04316   0.31300
  24   36847.1    271.4   0.002306620   0.02061  -0.13971  -0.02831  -0.01701
  25   37285.3    268.2   0.000859978   0.00759  -0.06668   0.03964   0.03969
  26   37449.0    267.0   0.019588345   0.17220   0.41496  -0.00085   0.00202
  27   37713.4    265.2   0.035737902   0.31197  -0.42513   0.29661   0.20797
  28   37912.3    263.8   0.012540926   0.10890   0.11175  -0.22246  -0.21662
  29   38495.9    259.8   0.018112229   0.15489   0.25792  -0.19180   0.22712
  30   38796.7    257.8   0.079725096   0.67651  -0.51585  -0.55268  -0.32396
  31   39058.4    256.0   0.079199375   0.66755   0.76951  -0.05119  -0.26977
  32   39146.0    255.5   0.014262594   0.11995   0.09737  -0.04179   0.32973
  33   39424.9    253.6   0.107861725   0.90068   0.62186  -0.01028   0.71684
  34   39766.8    251.5   0.002994426   0.02479  -0.13173   0.04051   0.07614
  35   39891.1    250.7   0.015792258   0.13033   0.33608  -0.10941  -0.07356
  36   40003.8    250.0   0.016891585   0.13901   0.25670   0.10396   0.24961
  37   40067.0    249.6   0.099780076   0.81985  -0.86554   0.24273   0.10848

FINAL SINGLE POINT ENERGY     -6645.806680407008

DIPOLE MOMENT
-------------
                                X             Y             Z
Electronic contribution:   -104.71982       6.00894    -138.46932
Nuclear contribution   :    101.27989      -2.54492     140.81123
                        -----------------------------------------
Total Dipole Moment    :     -3.43992       3.46401       2.34191
                        -----------------------------------------
Magnitude (a.u.)       :      5.41452
Magnitude (Debye)      :     13.76261

Rotational constants in cm-1:     0.000820     0.000192     0.000167
Rotational constants in MHz :    24.585234     5.747072     5.020697

                             ****ORCA TERMINATED NORMALLY****
TOTAL RUN TIME: 0 days 0 hours 10 minutes 30 seconds 670 msec
