                         Program Version 4.2.0 -  RELEASE  -
|  1> # ORCA input file
|  2> # SCF done       -209.648934566798          0.000753158862
|  3> ! CAM-B3LYP def2-SVP def2/J RIJCOSX Grid4 TightSCF
|  4> %maxcore 5000
|  5> %tddft
|  6>     Mode sTDDFT
|  7>     Ethresh 5.0
|  8>     maxcore 5000
|  9> end
| 10>
| 11> %pal
| 12>   nprocs 6
| 13>   end
| 14> * xyz 0 1
| 15>    C        3.55571         3.85712         4.96865
| 16>    C        4.05752         4.72917         4.05003
| 17>    C        3.10722         5.02535         3.05474
| 18>    C        1.89656         4.35533         3.25611
| 19>    S        1.92376         3.37344         4.65117
| 20>    C        0.99735         4.71344         2.20727
| 21>    C        1.65344         5.61126         1.35346
| 22>    C        3.00025         5.83501         1.85141
| 23>    C        3.96286         6.62497         1.29361
| 24>    C        3.73900         7.36481         0.11339
| 25>    N        3.56923         7.97789        -0.84074
| 26>    C        5.24782         6.75784         1.85938
| 27>    N        6.29401         6.87121         2.31587
| 28>    C        0.85815         6.00590         0.27484
| 29>    C       -0.39088         5.43016         0.32179
| 30>    S       -0.59192         4.38115         1.70917
| 31>    C       -1.43483         5.57065        -0.66946
| 32>    C       -1.14484         5.45278        -2.03483
| 33>    C        0.12975         5.10622        -2.70994
| 34>    O        1.19578         4.81810        -2.22716
| 35>    N       -0.15538         5.12197        -4.07950
| 36>    C       -1.50673         5.38258        -4.34037
| 37>    O       -1.99965         5.42002        -5.43792
| 38>    C       -2.13391         5.57881        -3.01854
| 39>    C       -3.45913         5.81661        -2.70928
| 40>    C       -3.75993         5.94074        -1.35871
| 41>    C       -2.78609         5.83134        -0.35882
| 42>    C       -3.29604         6.10016         0.99209
| 43>    O       -2.68986         6.16602         2.02359
| 44>    S       -5.07050         6.38863         0.91028
| 45>    C       -5.12195         6.21935        -0.87561
| 46>    O       -6.12055         6.32580        -1.52314
| 47>    C        0.73089         4.90864        -5.12965
| 48>    C        2.05760         4.77113        -5.01814
| 49>    C        2.93599         4.58075        -6.13602
| 50>    C        2.62752         4.37362        -7.45159
| 51>    C        3.75974         4.24917        -8.30039
| 52>    C        4.95923         4.37824        -7.55334
| 53>    S        4.65953         4.62350        -5.86052
| 54>    C        6.25141         4.34040        -8.06819
| 55>    O        7.21843         4.50329        -7.13049
| 56>    C        8.57384         4.62185        -7.48390
| 57>    C        6.37608         4.15223        -9.45731
| 58>    C        5.17677         4.01956       -10.20234
| 59>    C        3.88509         4.05325        -9.68958
| 60>    O        2.92066         3.89806       -10.63245
| 61>    C        1.55912         3.81088       -10.29370
| 62>    S        5.47559         3.80957       -11.90007
| 63>    C        7.20179         3.90606       -11.62908
| 64>    C        7.50946         4.06668       -10.30895
| 65>    C        8.08989         3.78325       -12.74378
| 66>    S        7.54153         2.90885       -14.13452
| 67>    C        9.04938         3.16016       -14.97059
| 68>    C        9.93438         3.87400       -14.17401
| 69>    C        9.37820         4.25384       -12.93189
| 70>    C       10.08824         5.17277       -11.96986
| 71>    N        9.14848         6.11364       -11.37548
| 72>    C       11.25241         5.86727       -12.69160
| 73>    C       12.11404         4.82897       -13.38708
| 74>    C       11.35454         4.19677       -14.56399
| 75>    N       12.01526         2.99983       -15.06993
| 76>    C        9.08652         2.66855       -16.30565
| 77>    C       10.04902         2.83112       -17.24056
| 78>    C        9.94724         2.34434       -18.56971
| 79>    C       10.87373         2.52873       -19.58120
| 80>    C       10.47462         1.93716       -20.78065
| 81>    C        9.23631         1.28990       -20.68241
| 82>    S        8.55793         1.41435       -19.12080
| 83>    C        8.92355         0.72134       -21.95013
| 84>    C        9.96198         1.01566       -22.84190
| 85>    C       10.97008         1.79082       -22.14471
| 86>    C       12.13333         2.29193       -22.65363
| 87>    C       12.51144         2.09922       -23.99841
| 88>    N       12.82477         1.94806       -25.09136
| 89>    C       13.03416         3.04297       -21.87107
| 90>    N       13.77056         3.65596       -21.24014
| 91>    C        9.73276         0.48774       -24.12763
| 92>    C        8.55024        -0.18356       -24.18451
| 93>    S        7.68243        -0.19287       -22.68235
| 94>    H        4.04904         3.45846         5.83245
| 95>    H        5.05252         5.13309         4.09102
| 96>    H        1.16148         6.69577        -0.49049
| 97>    H       -4.22259         5.90407        -3.46536
| 98>    H        0.21639         4.89289        -6.08090
| 99>    H        2.52854         4.81911        -4.04834
|100>    H        1.60929         4.31578        -7.78142
|101>    H        9.08842         4.87232        -6.55632
|102>    H        8.72940         5.42024        -8.21444
|103>    H        8.96983         3.67666        -7.86746
|104>    H        1.18373         4.75700        -9.89321
|105>    H        1.37170         2.99854        -9.58607
|106>    H        1.04673         3.59427       -11.23073
|107>    H        8.52640         4.10457        -9.98164
|108>    H       10.50586         4.57641       -11.14370
|109>    H        8.65036         6.61609       -12.10239
|110>    H        9.65265         6.79514       -10.81792
|111>    H       11.84198         6.43262       -11.96572
|112>    H       10.85446         6.56969       -13.42942
|113>    H       12.38312         4.04623       -12.67101
|114>    H       13.03800         5.27903       -13.75712
|115>    H       11.32993         4.92172       -15.39179
|116>    H       11.98698         2.26247       -14.37439
|117>    H       12.98828         3.20047       -15.27458
|118>    H        8.18670         2.13579       -16.59557
|119>    H       10.96911         3.33674       -17.00192
|120>    H       11.78951         3.07196       -19.43533
|121>    H       10.39946         0.59487       -24.96369
|122>    H        8.11825        -0.68583       -25.02664
|123> *
|124>
|125>                          ****END OF INPUT****

CARTESIAN COORDINATES (ANGSTROEM)
---------------------------------
  C      3.555710    3.857120    4.968650
  C      4.057520    4.729170    4.050030
  C      3.107220    5.025350    3.054740
  C      1.896560    4.355330    3.256110
  S      1.923760    3.373440    4.651170
  C      0.997350    4.713440    2.207270
  C      1.653440    5.611260    1.353460
  C      3.000250    5.835010    1.851410
  C      3.962860    6.624970    1.293610
  C      3.739000    7.364810    0.113390
  N      3.569230    7.977890   -0.840740
  C      5.247820    6.757840    1.859380
  N      6.294010    6.871210    2.315870
  C      0.858150    6.005900    0.274840
  C     -0.390880    5.430160    0.321790
  S     -0.591920    4.381150    1.709170
  C     -1.434830    5.570650   -0.669460
  C     -1.144840    5.452780   -2.034830
  C      0.129750    5.106220   -2.709940
  O      1.195780    4.818100   -2.227160
  N     -0.155380    5.121970   -4.079500
  C     -1.506730    5.382580   -4.340370
  O     -1.999650    5.420020   -5.437920
  C     -2.133910    5.578810   -3.018540
  C     -3.459130    5.816610   -2.709280
  C     -3.759930    5.940740   -1.358710
  C     -2.786090    5.831340   -0.358820
  C     -3.296040    6.100160    0.992090
  O     -2.689860    6.166020    2.023590
  S     -5.070500    6.388630    0.910280
  C     -5.121950    6.219350   -0.875610
  O     -6.120550    6.325800   -1.523140
  C      0.730890    4.908640   -5.129650
  C      2.057600    4.771130   -5.018140
  C      2.935990    4.580750   -6.136020
  C      2.627520    4.373620   -7.451590
  C      3.759740    4.249170   -8.300390
  C      4.959230    4.378240   -7.553340
  S      4.659530    4.623500   -5.860520
  C      6.251410    4.340400   -8.068190
  O      7.218430    4.503290   -7.130490
  C      8.573840    4.621850   -7.483900
  C      6.376080    4.152230   -9.457310
  C      5.176770    4.019560  -10.202340
  C      3.885090    4.053250   -9.689580
  O      2.920660    3.898060  -10.632450
  C      1.559120    3.810880  -10.293700
  S      5.475590    3.809570  -11.900070
  C      7.201790    3.906060  -11.629080
  C      7.509460    4.066680  -10.308950
  C      8.089890    3.783250  -12.743780
  S      7.541530    2.908850  -14.134520
  C      9.049380    3.160160  -14.970590
  C      9.934380    3.874000  -14.174010
  C      9.378200    4.253840  -12.931890
  C     10.088240    5.172770  -11.969860
  N      9.148480    6.113640  -11.375480
  C     11.252410    5.867270  -12.691600
  C     12.114040    4.828970  -13.387080
  C     11.354540    4.196770  -14.563990
  N     12.015260    2.999830  -15.069930
  C      9.086520    2.668550  -16.305650
  C     10.049020    2.831120  -17.240560
  C      9.947240    2.344340  -18.569710
  C     10.873730    2.528730  -19.581200
  C     10.474620    1.937160  -20.780650
  C      9.236310    1.289900  -20.682410
  S      8.557930    1.414350  -19.120800
  C      8.923550    0.721340  -21.950130
  C      9.961980    1.015660  -22.841900
  C     10.970080    1.790820  -22.144710
  C     12.133330    2.291930  -22.653630
  C     12.511440    2.099220  -23.998410
  N     12.824770    1.948060  -25.091360
  C     13.034160    3.042970  -21.871070
  N     13.770560    3.655960  -21.240140
  C      9.732760    0.487740  -24.127630
  C      8.550240   -0.183560  -24.184510
  S      7.682430   -0.192870  -22.682350
  H      4.049040    3.458460    5.832450
  H      5.052520    5.133090    4.091020
  H      1.161480    6.695770   -0.490490
  H     -4.222590    5.904070   -3.465360
  H      0.216390    4.892890   -6.080900
  H      2.528540    4.819110   -4.048340
  H      1.609290    4.315780   -7.781420
  H      9.088420    4.872320   -6.556320
  H      8.729400    5.420240   -8.214440
  H      8.969830    3.676660   -7.867460
  H      1.183730    4.757000   -9.893210
  H      1.371700    2.998540   -9.586070
  H      1.046730    3.594270  -11.230730
  H      8.526400    4.104570   -9.981640
  H     10.505860    4.576410  -11.143700
  H      8.650360    6.616090  -12.102390
  H      9.652650    6.795140  -10.817920
  H     11.841980    6.432620  -11.965720
  H     10.854460    6.569690  -13.429420
  H     12.383120    4.046230  -12.671010
  H     13.038000    5.279030  -13.757120
  H     11.329930    4.921720  -15.391790
  H     11.986980    2.262470  -14.374390
  H     12.988280    3.200470  -15.274580
  H      8.186700    2.135790  -16.595570
  H     10.969110    3.336740  -17.001920
  H     11.789510    3.071960  -19.435330
  H     10.399460    0.594870  -24.963690
  H      8.118250   -0.685830  -25.026640

 Total Charge           Charge          ....    0
 Multiplicity           Mult            ....    1
 Number of Electrons    NEL             ....  602
 Basis Dimension        Dim             .... 1283

ORBITAL ENERGIES
----------------

  NO   OCC          E(Eh)            E(eV)
   0   2.0000     -88.989570     -2421.5293
   1   2.0000     -88.987111     -2421.4624
   2   2.0000     -88.977372     -2421.1974
   3   2.0000     -88.972227     -2421.0574
   4   2.0000     -88.959722     -2420.7171
   5   2.0000     -88.944860     -2420.3127
   6   2.0000     -88.933811     -2420.0120
   7   2.0000     -88.930330     -2419.9173
   8   2.0000     -19.252267      -523.8808
   9   2.0000     -19.252173      -523.8783
  10   2.0000     -19.240814      -523.5692
  11   2.0000     -19.239332      -523.5288
  12   2.0000     -19.238956      -523.5186
  13   2.0000     -19.238274      -523.5000
  14   2.0000     -14.489018      -394.2662
  15   2.0000     -14.425438      -392.5361
  16   2.0000     -14.425302      -392.5324
  17   2.0000     -14.419924      -392.3861
  18   2.0000     -14.419580      -392.3767
  19   2.0000     -14.387171      -391.4948
  20   2.0000     -14.384494      -391.4220
  21   2.0000     -10.420884      -283.5667
  22   2.0000     -10.418814      -283.5103
  23   2.0000     -10.415999      -283.4337
  24   2.0000     -10.413357      -283.3618
  25   2.0000     -10.358798      -281.8772
  26   2.0000     -10.351643      -281.6825
  27   2.0000     -10.351106      -281.6679
  28   2.0000     -10.347648      -281.5738
  29   2.0000     -10.340160      -281.3701
  30   2.0000     -10.337430      -281.2958
  31   2.0000     -10.336858      -281.2802
  32   2.0000     -10.334025      -281.2031
  33   2.0000     -10.333611      -281.1918
  34   2.0000     -10.332622      -281.1649
  35   2.0000     -10.330782      -281.1149
  36   2.0000     -10.327736      -281.0320
  37   2.0000     -10.326064      -280.9865
  38   2.0000     -10.325925      -280.9827
  39   2.0000     -10.324137      -280.9340
  40   2.0000     -10.323896      -280.9275
  41   2.0000     -10.321572      -280.8642
  42   2.0000     -10.320928      -280.8467
  43   2.0000     -10.320406      -280.8325
  44   2.0000     -10.319512      -280.8082
  45   2.0000     -10.319104      -280.7971
  46   2.0000     -10.318097      -280.7697
  47   2.0000     -10.318021      -280.7676
  48   2.0000     -10.315425      -280.6970
  49   2.0000     -10.312187      -280.6089
  50   2.0000     -10.305296      -280.4214
  51   2.0000     -10.303385      -280.3694
  52   2.0000     -10.302016      -280.3321
  53   2.0000     -10.301943      -280.3301
  54   2.0000     -10.301146      -280.3084
  55   2.0000     -10.299605      -280.2665
  56   2.0000     -10.296618      -280.1852
  57   2.0000     -10.296581      -280.1842
  58   2.0000     -10.295707      -280.1604
  59   2.0000     -10.293054      -280.0882
  60   2.0000     -10.292133      -280.0632
  61   2.0000     -10.287888      -279.9477
  62   2.0000     -10.287871      -279.9472
  63   2.0000     -10.287386      -279.9340
  64   2.0000     -10.287248      -279.9302
  65   2.0000     -10.283190      -279.8198
  66   2.0000     -10.281339      -279.7695
  67   2.0000     -10.280336      -279.7422
  68   2.0000     -10.279913      -279.7307
  69   2.0000     -10.275977      -279.6236
  70   2.0000     -10.275937      -279.6225
  71   2.0000     -10.272762      -279.5361
  72   2.0000     -10.272499      -279.5289
  73   2.0000     -10.271991      -279.5151
  74   2.0000     -10.270556      -279.4760
  75   2.0000     -10.265839      -279.3477
  76   2.0000     -10.265724      -279.3446
  77   2.0000     -10.265429      -279.3365
  78   2.0000     -10.260332      -279.1978
  79   2.0000      -8.083925      -219.9748
  80   2.0000      -8.082082      -219.9246
  81   2.0000      -8.072410      -219.6615
  82   2.0000      -8.066886      -219.5111
  83   2.0000      -8.058850      -219.2924
  84   2.0000      -8.040913      -218.8044
  85   2.0000      -8.029269      -218.4875
  86   2.0000      -8.025827      -218.3939
  87   2.0000      -6.053116      -164.7137
  88   2.0000      -6.051331      -164.6651
  89   2.0000      -6.048856      -164.5977
  90   2.0000      -6.046891      -164.5443
  91   2.0000      -6.046477      -164.5330
  92   2.0000      -6.044717      -164.4851
  93   2.0000      -6.041660      -164.4019
  94   2.0000      -6.037223      -164.2812
  95   2.0000      -6.036060      -164.2496
  96   2.0000      -6.035020      -164.2212
  97   2.0000      -6.031978      -164.1385
  98   2.0000      -6.029317      -164.0661
  99   2.0000      -6.027720      -164.0226
 100   2.0000      -6.024460      -163.9339
 101   2.0000      -6.019899      -163.8098
 102   2.0000      -6.010007      -163.5406
 103   2.0000      -6.006037      -163.4326
 104   2.0000      -6.003134      -163.3536
 105   2.0000      -5.998849      -163.2370
 106   2.0000      -5.995493      -163.1457
 107   2.0000      -5.994792      -163.1266
 108   2.0000      -5.991382      -163.0338
 109   2.0000      -5.990672      -163.0145
 110   2.0000      -5.987090      -162.9170
 111   2.0000      -1.186058       -32.2743
 112   2.0000      -1.176521       -32.0148
 113   2.0000      -1.172173       -31.8964
 114   2.0000      -1.162028       -31.6204
 115   2.0000      -1.143968       -31.1290
 116   2.0000      -1.142874       -31.0992
 117   2.0000      -1.078548       -29.3488
 118   2.0000      -1.041941       -28.3527
 119   2.0000      -1.030057       -28.0293
 120   2.0000      -1.023828       -27.8598
 121   2.0000      -1.016885       -27.6708
 122   2.0000      -1.010609       -27.5001
 123   2.0000      -1.002917       -27.2908
 124   2.0000      -1.000900       -27.2359
 125   2.0000      -0.997418       -27.1411
 126   2.0000      -0.993732       -27.0408
 127   2.0000      -0.981605       -26.7108
 128   2.0000      -0.980686       -26.6858
 129   2.0000      -0.974449       -26.5161
 130   2.0000      -0.966726       -26.3060
 131   2.0000      -0.962721       -26.1970
 132   2.0000      -0.955082       -25.9891
 133   2.0000      -0.953787       -25.9539
 134   2.0000      -0.944810       -25.7096
 135   2.0000      -0.922801       -25.1107
 136   2.0000      -0.909823       -24.7575
 137   2.0000      -0.904165       -24.6036
 138   2.0000      -0.894975       -24.3535
 139   2.0000      -0.892841       -24.2954
 140   2.0000      -0.882900       -24.0249
 141   2.0000      -0.873648       -23.7732
 142   2.0000      -0.863943       -23.5091
 143   2.0000      -0.863211       -23.4892
 144   2.0000      -0.856744       -23.3132
 145   2.0000      -0.851488       -23.1702
 146   2.0000      -0.850320       -23.1384
 147   2.0000      -0.838284       -22.8109
 148   2.0000      -0.829702       -22.5773
 149   2.0000      -0.828692       -22.5499
 150   2.0000      -0.822153       -22.3719
 151   2.0000      -0.812325       -22.1045
 152   2.0000      -0.804566       -21.8934
 153   2.0000      -0.800221       -21.7751
 154   2.0000      -0.793325       -21.5875
 155   2.0000      -0.788274       -21.4500
 156   2.0000      -0.782143       -21.2832
 157   2.0000      -0.774248       -21.0684
 158   2.0000      -0.771619       -20.9968
 159   2.0000      -0.763873       -20.7860
 160   2.0000      -0.756728       -20.5916
 161   2.0000      -0.751779       -20.4569
 162   2.0000      -0.736174       -20.0323
 163   2.0000      -0.730863       -19.8878
 164   2.0000      -0.718674       -19.5561
 165   2.0000      -0.707919       -19.2634
 166   2.0000      -0.700634       -19.0652
 167   2.0000      -0.700539       -19.0626
 168   2.0000      -0.697920       -18.9914
 169   2.0000      -0.691562       -18.8184
 170   2.0000      -0.686978       -18.6936
 171   2.0000      -0.677120       -18.4254
 172   2.0000      -0.670451       -18.2439
 173   2.0000      -0.668104       -18.1800
 174   2.0000      -0.667287       -18.1578
 175   2.0000      -0.658352       -17.9147
 176   2.0000      -0.656913       -17.8755
 177   2.0000      -0.642333       -17.4788
 178   2.0000      -0.639768       -17.4090
 179   2.0000      -0.635876       -17.3031
 180   2.0000      -0.632392       -17.2082
 181   2.0000      -0.626646       -17.0519
 182   2.0000      -0.623969       -16.9791
 183   2.0000      -0.621052       -16.8997
 184   2.0000      -0.619399       -16.8547
 185   2.0000      -0.614944       -16.7335
 186   2.0000      -0.613023       -16.6812
 187   2.0000      -0.610130       -16.6025
 188   2.0000      -0.603103       -16.4113
 189   2.0000      -0.601909       -16.3788
 190   2.0000      -0.597660       -16.2632
 191   2.0000      -0.595641       -16.2082
 192   2.0000      -0.591764       -16.1027
 193   2.0000      -0.580455       -15.7950
 194   2.0000      -0.574418       -15.6307
 195   2.0000      -0.574222       -15.6254
 196   2.0000      -0.572862       -15.5884
 197   2.0000      -0.571176       -15.5425
 198   2.0000      -0.564940       -15.3728
 199   2.0000      -0.563917       -15.3450
 200   2.0000      -0.555863       -15.1258
 201   2.0000      -0.553493       -15.0613
 202   2.0000      -0.553310       -15.0563
 203   2.0000      -0.553008       -15.0481
 204   2.0000      -0.549085       -14.9414
 205   2.0000      -0.547254       -14.8915
 206   2.0000      -0.544881       -14.8270
 207   2.0000      -0.542625       -14.7656
 208   2.0000      -0.539263       -14.6741
 209   2.0000      -0.534229       -14.5371
 210   2.0000      -0.532884       -14.5005
 211   2.0000      -0.532097       -14.4791
 212   2.0000      -0.527481       -14.3535
 213   2.0000      -0.525215       -14.2918
 214   2.0000      -0.523720       -14.2512
 215   2.0000      -0.522454       -14.2167
 216   2.0000      -0.520618       -14.1667
 217   2.0000      -0.516443       -14.0531
 218   2.0000      -0.514307       -13.9950
 219   2.0000      -0.508255       -13.8303
 220   2.0000      -0.506554       -13.7840
 221   2.0000      -0.504008       -13.7148
 222   2.0000      -0.500957       -13.6317
 223   2.0000      -0.500627       -13.6227
 224   2.0000      -0.496056       -13.4984
 225   2.0000      -0.494532       -13.4569
 226   2.0000      -0.492476       -13.4010
 227   2.0000      -0.491887       -13.3849
 228   2.0000      -0.489947       -13.3321
 229   2.0000      -0.487878       -13.2758
 230   2.0000      -0.484955       -13.1963
 231   2.0000      -0.484028       -13.1711
 232   2.0000      -0.480935       -13.0869
 233   2.0000      -0.479176       -13.0391
 234   2.0000      -0.477808       -13.0018
 235   2.0000      -0.473603       -12.8874
 236   2.0000      -0.473362       -12.8808
 237   2.0000      -0.471620       -12.8334
 238   2.0000      -0.469433       -12.7739
 239   2.0000      -0.468213       -12.7407
 240   2.0000      -0.466454       -12.6929
 241   2.0000      -0.465445       -12.6654
 242   2.0000      -0.459995       -12.5171
 243   2.0000      -0.457086       -12.4379
 244   2.0000      -0.455110       -12.3842
 245   2.0000      -0.453470       -12.3395
 246   2.0000      -0.453260       -12.3338
 247   2.0000      -0.452086       -12.3019
 248   2.0000      -0.450741       -12.2653
 249   2.0000      -0.449631       -12.2351
 250   2.0000      -0.447164       -12.1679
 251   2.0000      -0.443414       -12.0659
 252   2.0000      -0.440624       -11.9900
 253   2.0000      -0.439638       -11.9632
 254   2.0000      -0.438305       -11.9269
 255   2.0000      -0.435644       -11.8545
 256   2.0000      -0.434581       -11.8256
 257   2.0000      -0.433457       -11.7950
 258   2.0000      -0.430660       -11.7189
 259   2.0000      -0.430312       -11.7094
 260   2.0000      -0.428106       -11.6494
 261   2.0000      -0.425060       -11.5665
 262   2.0000      -0.422630       -11.5004
 263   2.0000      -0.421963       -11.4822
 264   2.0000      -0.418947       -11.4001
 265   2.0000      -0.415038       -11.2938
 266   2.0000      -0.413758       -11.2589
 267   2.0000      -0.412736       -11.2311
 268   2.0000      -0.411933       -11.2093
 269   2.0000      -0.406446       -11.0600
 270   2.0000      -0.403244       -10.9728
 271   2.0000      -0.400074       -10.8866
 272   2.0000      -0.398434       -10.8419
 273   2.0000      -0.392357       -10.6766
 274   2.0000      -0.390736       -10.6325
 275   2.0000      -0.387137       -10.5345
 276   2.0000      -0.382530       -10.4092
 277   2.0000      -0.382361       -10.4046
 278   2.0000      -0.381421       -10.3790
 279   2.0000      -0.377783       -10.2800
 280   2.0000      -0.371959       -10.1215
 281   2.0000      -0.360857        -9.8194
 282   2.0000      -0.359546        -9.7838
 283   2.0000      -0.355753        -9.6805
 284   2.0000      -0.349769        -9.5177
 285   2.0000      -0.348433        -9.4813
 286   2.0000      -0.338553        -9.2125
 287   2.0000      -0.334049        -9.0899
 288   2.0000      -0.329927        -8.9778
 289   2.0000      -0.324249        -8.8233
 290   2.0000      -0.317934        -8.6514
 291   2.0000      -0.314275        -8.5519
 292   2.0000      -0.312177        -8.4948
 293   2.0000      -0.308781        -8.4024
 294   2.0000      -0.302333        -8.2269
 295   2.0000      -0.296054        -8.0560
 296   2.0000      -0.280396        -7.6300
 297   2.0000      -0.275793        -7.5047
 298   2.0000      -0.260910        -7.0997
 299   2.0000      -0.234034        -6.3684
 300   2.0000      -0.214697        -5.8422
 301   0.0000      -0.105070        -2.8591
 302   0.0000      -0.098408        -2.6778
 303   0.0000      -0.091266        -2.4835
 304   0.0000      -0.068620        -1.8673
 305   0.0000      -0.039606        -1.0777

MULLIKEN ATOMIC CHARGES
-----------------------
   0 C :   -0.077713
   1 C :    0.035817
   2 C :   -0.027654
   3 C :   -0.122659
   4 S :    0.185225
   5 C :   -0.093248
   6 C :   -0.022835
   7 C :    0.302131
   8 C :   -0.297786
   9 C :   -0.186940
  10 N :    0.169726
  11 C :   -0.192840
  12 N :    0.170539
  13 C :    0.065471
  14 C :   -0.190900
  15 S :    0.238810
  16 C :    0.069218
  17 C :   -0.032241
  18 C :    0.206280
  19 O :   -0.136658
  20 N :   -0.225725
  21 C :    0.197858
  22 O :   -0.136387
  23 C :    0.007708
  24 C :   -0.064265
  25 C :    0.042399
  26 C :    0.040292
  27 C :    0.028829
  28 O :   -0.125687
  29 S :    0.017916
  30 C :    0.048992
  31 O :   -0.116179
  32 C :    0.066076
  33 C :    0.056088
  34 C :   -0.051483
  35 C :   -0.088692
  36 C :    0.065546
  37 C :   -0.153524
  38 S :    0.142628
  39 C :    0.132547
  40 O :   -0.313274
  41 C :    0.187163
  42 C :    0.041347
  43 C :   -0.138162
  44 C :    0.129046
  45 O :   -0.313034
  46 C :    0.189356
  47 S :    0.124755
  48 C :   -0.055595
  49 C :   -0.005622
  50 C :   -0.113327
  51 S :    0.125971
  52 C :   -0.112366
  53 C :   -0.060368
  54 C :   -0.040104
  55 C :    0.047540
  56 N :   -0.166346
  57 C :    0.063767
  58 C :    0.072672
  59 C :    0.051944
  60 N :   -0.177117
  61 C :    0.028106
  62 C :    0.042559
  63 C :   -0.046234
  64 C :   -0.046390
  65 C :    0.015133
  66 C :   -0.103866
  67 S :    0.161032
  68 C :   -0.115583
  69 C :   -0.033928
  70 C :    0.300223
  71 C :   -0.304549
  72 C :   -0.192033
  73 N :    0.169481
  74 C :   -0.186233
  75 N :    0.164437
  76 C :    0.034642
  77 C :   -0.085169
  78 S :    0.174684
  79 H :    0.036663
  80 H :    0.012649
  81 H :    0.006646
  82 H :    0.022757
  83 H :    0.025631
  84 H :    0.017618
  85 H :   -0.049290
  86 H :    0.032103
  87 H :    0.026553
  88 H :    0.027597
  89 H :    0.028942
  90 H :    0.028646
  91 H :    0.034095
  92 H :   -0.060783
  93 H :    0.000499
  94 H :    0.097572
  95 H :    0.090004
  96 H :   -0.008242
  97 H :   -0.006643
  98 H :   -0.016406
  99 H :   -0.005461
 100 H :    0.005169
 101 H :    0.094275
 102 H :    0.095035
 103 H :   -0.023338
 104 H :   -0.015530
 105 H :   -0.000363
 106 H :    0.010173
 107 H :    0.032192
Sum of atomic charges:   -0.0000000

LOEWDIN ATOMIC CHARGES
----------------------
   0 C :   -0.174328
   1 C :   -0.034539
   2 C :   -0.069312
   3 C :   -0.188061
   4 S :    0.480584
   5 C :   -0.167658
   6 C :   -0.079415
   7 C :    0.083718
   8 C :   -0.105204
   9 C :   -0.015363
  10 N :   -0.035790
  11 C :   -0.016771
  12 N :   -0.036297
  13 C :    0.009233
  14 C :   -0.195066
  15 S :    0.518432
  16 C :    0.014173
  17 C :   -0.030008
  18 C :    0.102406
  19 O :   -0.121264
  20 N :   -0.008622
  21 C :    0.097192
  22 O :   -0.132510
  23 C :   -0.026351
  24 C :    0.039341
  25 C :   -0.049441
  26 C :   -0.064161
  27 C :   -0.049217
  28 O :   -0.120748
  29 S :    0.305010
  30 C :   -0.046272
  31 O :   -0.108635
  32 C :    0.021190
  33 C :   -0.047581
  34 C :   -0.162019
  35 C :   -0.067074
  36 C :   -0.074263
  37 C :   -0.177149
  38 S :    0.418695
  39 C :    0.019658
  40 O :   -0.107763
  41 C :    0.078507
  42 C :   -0.075613
  43 C :   -0.174472
  44 C :    0.017820
  45 O :   -0.108519
  46 C :    0.079110
  47 S :    0.398450
  48 C :   -0.182655
  49 C :   -0.040304
  50 C :   -0.185670
  51 S :    0.440441
  52 C :   -0.164923
  53 C :   -0.065540
  54 C :   -0.067349
  55 C :    0.015544
  56 N :   -0.084087
  57 C :   -0.040873
  58 C :   -0.041052
  59 C :    0.016398
  60 N :   -0.084445
  61 C :   -0.057316
  62 C :   -0.031440
  63 C :   -0.155057
  64 C :   -0.034758
  65 C :   -0.073398
  66 C :   -0.186448
  67 S :    0.465465
  68 C :   -0.179704
  69 C :   -0.082186
  70 C :    0.086821
  71 C :   -0.109905
  72 C :   -0.016711
  73 N :   -0.039323
  74 C :   -0.014936
  75 N :   -0.041939
  76 C :   -0.034906
  77 C :   -0.183445
  78 S :    0.472087
  79 H :    0.028042
  80 H :    0.042926
  81 H :    0.039294
  82 H :    0.053254
  83 H :    0.030990
  84 H :    0.034726
  85 H :    0.020764
  86 H :    0.028511
  87 H :    0.016327
  88 H :    0.015004
  89 H :    0.015565
  90 H :    0.016496
  91 H :    0.029724
  92 H :    0.020461
  93 H :    0.020546
  94 H :    0.057577
  95 H :    0.050713
  96 H :    0.019677
  97 H :    0.020074
  98 H :    0.017210
  99 H :    0.021779
 100 H :    0.024288
 101 H :    0.055593
 102 H :    0.053781
 103 H :    0.014845
 104 H :    0.033389
 105 H :    0.038760
 106 H :    0.041545
 107 H :    0.025718

  Mayer bond orders larger than 0.100000
B(  0-C ,  1-C ) :   1.5457 B(  0-C ,  4-S ) :   1.1570 B(  0-C , 79-H ) :   0.9641
B(  1-C ,  2-C ) :   1.2805 B(  1-C , 80-H ) :   0.9954 B(  2-C ,  3-C ) :   1.4645
B(  2-C ,  7-C ) :   1.0098 B(  3-C ,  4-S ) :   1.1340 B(  3-C ,  5-C ) :   1.1745
B(  5-C ,  6-C ) :   1.4327 B(  5-C , 15-S ) :   1.1832 B(  6-C ,  7-C ) :   0.9938
B(  6-C , 13-C ) :   1.3153 B(  7-C ,  8-C ) :   1.7084 B(  8-C ,  9-C ) :   1.1355
B(  8-C , 11-C ) :   1.1321 B(  9-C , 10-N ) :   2.9892 B( 11-C , 12-N ) :   3.0008
B( 13-C , 14-C ) :   1.4955 B( 13-C , 81-H ) :   0.9809 B( 14-C , 15-S ) :   1.1088
B( 14-C , 16-C ) :   1.0230 B( 16-C , 17-C ) :   1.4067 B( 16-C , 26-C ) :   1.3646
B( 17-C , 18-C ) :   0.8922 B( 17-C , 23-C ) :   1.3766 B( 18-C , 19-O ) :   2.1561
B( 18-C , 20-N ) :   1.0456 B( 20-N , 21-C ) :   1.0321 B( 20-N , 32-C ) :   1.0047
B( 21-C , 22-O ) :   2.2281 B( 21-C , 23-C ) :   0.8733 B( 23-C , 24-C ) :   1.3386
B( 24-C , 25-C ) :   1.3339 B( 24-C , 82-H ) :   1.0281 B( 25-C , 26-C ) :   1.3352
B( 25-C , 30-C ) :   0.8411 B( 26-C , 27-C ) :   0.8578 B( 27-C , 28-O ) :   2.1691
B( 27-C , 29-S ) :   1.0265 B( 28-O , 29-S ) :   0.1057 B( 29-S , 30-C ) :   1.0252
B( 29-S , 31-O ) :   0.1083 B( 30-C , 31-O ) :   2.2235 B( 32-C , 33-C ) :   1.7513
B( 32-C , 83-H ) :   0.9665 B( 33-C , 34-C ) :   1.0724 B( 33-C , 84-H ) :   0.9559
B( 34-C , 35-C ) :   1.6032 B( 34-C , 38-S ) :   1.0682 B( 35-C , 36-C ) :   1.1580
B( 35-C , 85-H ) :   0.9877 B( 36-C , 37-C ) :   1.3300 B( 36-C , 44-C ) :   1.2096
B( 37-C , 38-S ) :   1.0449 B( 37-C , 39-C ) :   1.4084 B( 39-C , 40-O ) :   1.2517
B( 39-C , 42-C ) :   1.2093 B( 40-O , 41-C ) :   0.9543 B( 41-C , 86-H ) :   0.9730
B( 41-C , 87-H ) :   0.9655 B( 41-C , 88-H ) :   0.9688 B( 42-C , 43-C ) :   1.3208
B( 42-C , 49-C ) :   1.1680 B( 43-C , 44-C ) :   1.4155 B( 43-C , 47-S ) :   1.0393
B( 44-C , 45-O ) :   1.2505 B( 45-O , 46-C ) :   0.9551 B( 46-C , 89-H ) :   0.9687
B( 46-C , 90-H ) :   0.9680 B( 46-C , 91-H ) :   0.9738 B( 47-S , 48-C ) :   1.0539
B( 48-C , 49-C ) :   1.6184 B( 48-C , 50-C ) :   1.0645 B( 49-C , 92-H ) :   0.9839
B( 50-C , 51-S ) :   1.1361 B( 50-C , 52-C ) :   0.1129 B( 50-C , 54-C ) :   1.5498
B( 51-S , 52-C ) :   1.1202 B( 52-C , 53-C ) :   1.4986 B( 52-C , 61-C ) :   1.1433
B( 53-C , 54-C ) :   1.3138 B( 53-C , 59-C ) :   1.0040 B( 54-C , 55-C ) :   0.9971
B( 55-C , 56-N ) :   1.1167 B( 55-C , 57-C ) :   1.0633 B( 55-C , 93-H ) :   0.8698
B( 56-N , 94-H ) :   0.9613 B( 56-N , 95-H ) :   0.9661 B( 57-C , 58-C ) :   1.0569
B( 57-C , 96-H ) :   0.9247 B( 57-C , 97-H ) :   0.9279 B( 58-C , 59-C ) :   1.0700
B( 58-C , 98-H ) :   0.9219 B( 58-C , 99-H ) :   0.9233 B( 59-C , 60-N ) :   1.0824
B( 59-C ,100-H ) :   0.8728 B( 60-N ,101-H ) :   0.9617 B( 60-N ,102-H ) :   0.9685
B( 61-C , 62-C ) :   1.6661 B( 61-C ,103-H ) :   0.9374 B( 62-C , 63-C ) :   1.1613
B( 62-C ,104-H ) :   0.9542 B( 63-C , 64-C ) :   1.4466 B( 63-C , 67-S ) :   1.0892
B( 64-C , 65-C ) :   1.2612 B( 64-C ,105-H ) :   1.0056 B( 65-C , 66-C ) :   1.4619
B( 65-C , 70-C ) :   0.9951 B( 66-C , 67-S ) :   1.1197 B( 66-C , 68-C ) :   1.1834
B( 68-C , 69-C ) :   1.4549 B( 68-C , 78-S ) :   1.1392 B( 69-C , 70-C ) :   1.0190
B( 69-C , 76-C ) :   1.2748 B( 70-C , 71-C ) :   1.7035 B( 71-C , 72-C ) :   1.1318
B( 71-C , 74-C ) :   1.1335 B( 72-C , 73-N ) :   3.0032 B( 74-C , 75-N ) :   2.9934
B( 76-C , 77-C ) :   1.5524 B( 76-C ,106-H ) :   0.9958 B( 77-C , 78-S ) :   1.1434
B( 77-C ,107-H ) :   0.9645

-----------------------------------------------------------------------------
         ABSORPTION SPECTRUM VIA TRANSITION ELECTRIC DIPOLE MOMENTS
-----------------------------------------------------------------------------
State   Energy  Wavelength   fosc         T2         TX        TY        TZ
        (cm-1)    (nm)                  (au**2)     (au)      (au)      (au)
-----------------------------------------------------------------------------
   0   12288.9    813.7   0.120302533   3.22284   0.13917  -0.54530  -1.70473
   1   13268.6    753.7   0.000521659   0.01294   0.10304  -0.03146   0.03656
   2   15871.9    630.0   0.019463614   0.40371   0.12011  -0.02234  -0.62353
   3   17244.7    579.9   0.040669535   0.77641   0.57644  -0.22146   0.62855
   4   19041.3    525.2   0.015977870   0.27625  -0.39371   0.08226   0.33834
   5   19286.7    518.5   0.170109785   2.90367   0.61968  -0.26867  -1.56444
   6   19970.0    500.8   0.008535652   0.14071  -0.36329   0.09346  -0.00130
   7   20721.3    482.6   0.471650109   7.49338   1.07874  -0.40353  -2.48332
   8   21932.6    455.9   0.001699336   0.02551   0.14651  -0.06307   0.00798
   9   22376.8    446.9   0.017406844   0.25609   0.34177  -0.09596  -0.36066
  10   23975.4    417.1   1.294322807  17.77266   1.33515  -0.75535  -3.92676
  11   24319.7    411.2   0.005710141   0.07730   0.16241  -0.13922  -0.17759
  12   25115.3    398.2   0.040392213   0.52946  -0.26294   0.07005   0.67485
  13   25940.6    385.5   0.331632363   4.20874   0.27147   0.05172   2.03282
  14   26456.9    378.0   0.331527651   4.12532  -1.48712   0.46334   1.30349
  15   26920.8    371.5   0.210836079   2.57829   1.57833  -0.26203   0.13600
  16   28279.0    353.6   0.116912332   1.36104   0.60125   0.09934   0.99482
  17   28449.1    351.5   0.054781448   0.63393  -0.38772   0.13605   0.68198
  18   29363.0    340.6   0.015615682   0.17508   0.08961   0.01013  -0.40859
  19   29576.5    338.1   0.021662633   0.24112  -0.17454   0.15338  -0.43259
  20   29802.1    335.5   0.005666707   0.06260   0.17325   0.10696   0.14541
  21   30159.3    331.6   0.039143465   0.42728  -0.43918   0.22364   0.42940
  22   30370.4    329.3   0.159594020   1.72998   0.19819  -0.67332  -1.11236
  23   30706.9    325.7   0.746119429   7.99924   2.44504   1.07112  -0.93473
  24   31480.6    317.7   0.001113053   0.01164  -0.10542   0.02199  -0.00648
  25   31713.9    315.3   0.636060403   6.60275   2.19515   1.06207  -0.80998
  26   32105.1    311.5   0.030651863   0.31431  -0.36671  -0.36590   0.21435
  27   32223.1    310.3   0.065808933   0.67235   0.72308   0.38318   0.05170
  28   32858.0    304.3   0.153315804   1.53611  -0.33310  -0.06658   1.19194
  29   32891.2    304.0   0.045332657   0.45374  -0.40621   0.50142  -0.19317
  30   32992.1    303.1   0.183789642   1.83394   0.20694  -0.87932   1.00892
  31   33138.5    301.8   0.091442266   0.90843   0.86202   0.28459   0.29044
  32   33389.1    299.5   0.000305874   0.00302  -0.03967   0.03772  -0.00438
  33   33741.8    296.4   0.227210828   2.21685   1.15462   0.34790   0.87331
  34   34036.9    293.8   0.020196000   0.19534  -0.39143  -0.19468  -0.06499
  35   34188.2    292.5   0.014464977   0.13929   0.25143   0.18462   0.20491
  36   34883.4    286.7   0.033766566   0.31867   0.39469   0.38641   0.11653
  37   35057.3    285.2   0.002798636   0.02628   0.09524  -0.09370  -0.09182
  38   35185.2    284.2   0.016881149   0.15795  -0.37647  -0.11422   0.05632
  39   35362.1    282.8   0.013770074   0.12820  -0.15948  -0.28899  -0.13874
  40   35473.8    281.9   0.087843851   0.81523   0.75652   0.22933  -0.43625
  41   35640.3    280.6   0.051418551   0.47496  -0.49702   0.11430   0.46353
  42   36000.2    277.8   0.049179618   0.44973  -0.51697  -0.02376   0.42651
  43   36049.5    277.4   0.012217822   0.11158   0.24805  -0.04365  -0.21941
  44   36074.2    277.2   0.000510911   0.00466  -0.04573  -0.04019  -0.03092
  45   36381.4    274.9   0.039717618   0.35940   0.31061  -0.06429  -0.50872
  46   36494.5    274.0   0.005436799   0.04904  -0.07535   0.05770   0.20009
  47   36761.1    272.0   0.021525525   0.19277  -0.09085   0.10598   0.41628
  48   36873.0    271.2   0.122441753   1.09319  -0.94204  -0.05850   0.44982
  49   37250.0    268.5   0.002513153   0.02221  -0.14778   0.01006  -0.01649
  50   37334.5    267.8   0.026771198   0.23607   0.47014   0.08233  -0.09084
  51   37484.1    266.8   0.029230484   0.25672  -0.43415  -0.26109   0.00807
  52   37555.8    266.3   0.015729210   0.13788   0.09785  -0.20476   0.29391
  53   37716.1    265.1   0.010848212   0.09469  -0.02655   0.18779   0.24232
  54   38245.9    261.5   0.002071721   0.01783   0.12544   0.03750   0.02628
  55   38406.8    260.4   0.031530865   0.27027   0.23183   0.21679   0.41174
  56   38671.8    258.6   0.028131058   0.23948  -0.46986  -0.07617   0.11363
  57   38974.5    256.6   0.031762080   0.26829  -0.49505  -0.14512  -0.04641
  58   39004.7    256.4   0.011625139   0.09812   0.30307   0.07886   0.00708
  59   39271.9    254.6   0.042055497   0.35255  -0.59303  -0.00307  -0.02926
  60   39671.2    252.1   0.024346738   0.20204   0.26803  -0.13478  -0.33472
  61   39866.2    250.8   0.104414271   0.86225   0.01400   0.09707  -0.92338
  62   39954.5    250.3   0.130214690   1.07293   0.22993  -0.44919  -0.90459
  63   40233.0    248.6   0.000122304   0.00100   0.00153   0.01825   0.02580

FINAL SINGLE POINT ENERGY     -6242.881933750284

DIPOLE MOMENT
-------------
                                X             Y             Z
Electronic contribution:    -71.30035      -4.64852      59.30205
Nuclear contribution   :     70.06646       3.35674     -57.09267
                        -----------------------------------------
Total Dipole Moment    :     -1.23389      -1.29178       2.20938
                        -----------------------------------------
Magnitude (a.u.)       :      2.84122
Magnitude (Debye)      :      7.22181

Rotational constants in cm-1:     0.001570     0.000145     0.000136
Rotational constants in MHz :    47.070772     4.354031     4.070833

                             ****ORCA TERMINATED NORMALLY****
TOTAL RUN TIME: 0 days 0 hours 10 minutes 52 seconds 2 msec
