                         Program Version 4.2.0 -  RELEASE  -
|  1> # ORCA input file
|  2> # SCF done       -207.094613804725          0.000843394601
|  3> ! CAM-B3LYP def2-SVP def2/J RIJCOSX Grid4 TightSCF
|  4> %maxcore 5000
|  5> %tddft
|  6>     Mode sTDDFT
|  7>     Ethresh 5.0
|  8>     maxcore 5000
|  9> end
| 10>
| 11> %pal
| 12>   nprocs 6
| 13>   end
| 14> * xyz 0 1
| 15>    C       -1.72063        -0.10168        -8.18731
| 16>    C       -2.47079         0.02233        -9.32331
| 17>    F       -2.14253         0.93259       -10.25117
| 18>    C       -3.59384        -0.80110        -9.53415
| 19>    F       -4.31149        -0.65888       -10.65808
| 20>    C       -3.95208        -1.73783        -8.60532
| 21>    C       -3.19881        -1.89041        -7.42560
| 22>    C       -2.06304        -1.05769        -7.21065
| 23>    C       -1.29071        -1.19428        -6.03311
| 24>    C       -1.64546        -2.13440        -5.10363
| 25>    C       -2.77896        -2.96420        -5.32776
| 26>    C       -3.54259        -2.85666        -6.45284
| 27>    C       -2.93349        -3.90478        -4.19733
| 28>    O       -3.76157        -4.78899        -4.10530
| 29>    C       -1.80930        -3.60827        -3.28528
| 30>    C       -1.05211        -2.50605        -3.82160
| 31>    C       -0.01510        -1.85652        -3.19650
| 32>    C        0.45542        -2.17655        -1.90724
| 33>    N        0.86654        -2.37471        -0.85321
| 34>    C        0.67603        -0.76145        -3.74998
| 35>    N        1.27536         0.13004        -4.15642
| 36>    C       -1.41508        -4.43337        -2.25275
| 37>    C       -2.21395        -5.38513        -1.61349
| 38>    C       -3.60265        -5.39713        -1.35342
| 39>    C       -4.04737        -6.61152        -0.75757
| 40>    C       -5.38976        -6.72622        -0.35833
| 41>    C       -6.25337        -5.68576        -0.58093
| 42>    C       -5.80854        -4.48843        -1.15857
| 43>    C       -4.49744        -4.32952        -1.52133
| 44>    C       -2.99514        -7.54022        -0.56680
| 45>    S       -1.47334        -6.82593        -0.97933
| 46>    C       -3.01255        -8.89096        -0.17139
| 47>    C       -4.09652        -9.71681        -0.23367
| 48>    C       -4.12868       -11.07546         0.15782
| 49>    C       -5.28474       -11.82102         0.00141
| 50>    C       -5.43987       -13.15190         0.35529
| 51>    C       -4.28928       -13.94075         0.81143
| 52>    C       -3.06623       -13.42112         1.05703
| 53>    S       -2.67056       -11.76341         0.86116
| 54>    C       -4.75979       -15.27982         0.90878
| 55>    C       -6.10921       -15.33159         0.55765
| 56>    C       -6.63198       -16.64045         0.64258
| 57>    C       -5.68518       -17.52880         1.04315
| 58>    S       -4.13285       -16.81976         1.33810
| 59>    C       -6.57073       -14.00381         0.24585
| 60>    C       -7.90633       -13.69585        -0.06064
| 61>    C       -8.48028       -12.45195        -0.02430
| 62>    C       -9.79977       -12.16004        -0.38325
| 63>    C      -10.41695       -10.88385        -0.36192
| 64>    C      -11.77085       -10.90958        -0.79751
| 65>    C      -12.46715        -9.70042        -0.95560
| 66>    C      -11.85684        -8.52256        -0.60951
| 67>    C      -10.54741        -8.50518        -0.10917
| 68>    C       -9.82444        -9.66421        -0.00035
| 69>    C      -12.21787       -12.21439        -1.11319
| 70>    S      -10.90925       -13.35575        -0.96678
| 71>    C      -13.47601       -12.68141        -1.50043
| 72>    C      -14.67993       -12.05803        -1.27394
| 73>    C      -15.92299       -12.54410        -1.69864
| 74>    C      -16.22884       -13.43924        -2.69879
| 75>    C      -17.53725       -14.13297        -2.64763
| 76>    O      -18.46517       -13.88503        -1.90823
| 77>    C      -17.44993       -15.21513        -3.65129
| 78>    C      -18.34544       -16.20597        -3.92773
| 79>    C      -18.03053       -17.15707        -4.92506
| 80>    C      -16.78620       -17.06197        -5.61196
| 81>    C      -16.47556       -18.01602        -6.60114
| 82>    C      -17.35985       -19.01540        -6.89658
| 83>    C      -18.59012       -19.10789        -6.21735
| 84>    C      -18.92006       -18.19857        -5.25167
| 85>    F      -19.43833       -20.10016        -6.52601
| 86>    F      -17.06182       -19.92137        -7.83939
| 87>    C      -15.88079       -16.01871        -5.30649
| 88>    C      -16.21203       -15.10370        -4.34458
| 89>    C      -15.50698       -13.92081        -3.84606
| 90>    C      -14.49600       -13.27912        -4.52503
| 91>    C      -13.99523       -12.01157        -4.17836
| 92>    N      -13.57442       -10.96405        -3.96426
| 93>    C      -13.89238       -13.77811        -5.69422
| 94>    N      -13.34419       -14.14938        -6.63334
| 95>    H       -0.86385         0.53747        -8.04130
| 96>    H       -4.81424        -2.36178        -8.78184
| 97>    H       -0.43211        -0.55564        -5.90156
| 98>    H       -4.39665        -3.50022        -6.59978
| 99>    H       -0.37311        -4.41137        -1.95479
|100>    H       -5.72734        -7.60553         0.16587
|101>    H       -7.28564        -5.77140        -0.27615
|102>    H       -6.50557        -3.67458        -1.28825
|103>    H       -4.14119        -3.38627        -1.90292
|104>    H       -2.06083        -9.30706         0.13564
|105>    H       -5.01605        -9.34118        -0.65777
|106>    H       -6.11083       -11.31094        -0.47248
|107>    H       -2.24277       -14.02065         1.41143
|108>    H       -7.64639       -16.91556         0.41834
|109>    H       -5.79648       -18.58522         1.19063
|110>    H       -8.54453       -14.53619        -0.30702
|111>    H       -7.90322       -11.61741         0.34246
|112>    H      -13.45008        -9.69784        -1.39430
|113>    H      -12.38440        -7.58940        -0.73514
|114>    H      -10.09859        -7.56239         0.16521
|115>    H       -8.80340        -9.63906         0.34888
|116>    H      -13.49587       -13.67411        -1.93635
|117>    H      -14.69842       -11.19435        -0.62556
|118>    H      -16.78677       -12.22424        -1.12309
|119>    H      -19.28207       -16.26442        -3.39451
|120>    H      -15.53923       -17.95725        -7.13384
|121>    H      -19.86634       -18.28265        -4.74055
|122>    H      -14.94403       -15.97575        -5.83879
|123> *
|124>
|125>                          ****END OF INPUT****

CARTESIAN COORDINATES (ANGSTROEM)
---------------------------------
  C     -1.720630   -0.101680   -8.187310
  C     -2.470790    0.022330   -9.323310
  F     -2.142530    0.932590  -10.251170
  C     -3.593840   -0.801100   -9.534150
  F     -4.311490   -0.658880  -10.658080
  C     -3.952080   -1.737830   -8.605320
  C     -3.198810   -1.890410   -7.425600
  C     -2.063040   -1.057690   -7.210650
  C     -1.290710   -1.194280   -6.033110
  C     -1.645460   -2.134400   -5.103630
  C     -2.778960   -2.964200   -5.327760
  C     -3.542590   -2.856660   -6.452840
  C     -2.933490   -3.904780   -4.197330
  O     -3.761570   -4.788990   -4.105300
  C     -1.809300   -3.608270   -3.285280
  C     -1.052110   -2.506050   -3.821600
  C     -0.015100   -1.856520   -3.196500
  C      0.455420   -2.176550   -1.907240
  N      0.866540   -2.374710   -0.853210
  C      0.676030   -0.761450   -3.749980
  N      1.275360    0.130040   -4.156420
  C     -1.415080   -4.433370   -2.252750
  C     -2.213950   -5.385130   -1.613490
  C     -3.602650   -5.397130   -1.353420
  C     -4.047370   -6.611520   -0.757570
  C     -5.389760   -6.726220   -0.358330
  C     -6.253370   -5.685760   -0.580930
  C     -5.808540   -4.488430   -1.158570
  C     -4.497440   -4.329520   -1.521330
  C     -2.995140   -7.540220   -0.566800
  S     -1.473340   -6.825930   -0.979330
  C     -3.012550   -8.890960   -0.171390
  C     -4.096520   -9.716810   -0.233670
  C     -4.128680  -11.075460    0.157820
  C     -5.284740  -11.821020    0.001410
  C     -5.439870  -13.151900    0.355290
  C     -4.289280  -13.940750    0.811430
  C     -3.066230  -13.421120    1.057030
  S     -2.670560  -11.763410    0.861160
  C     -4.759790  -15.279820    0.908780
  C     -6.109210  -15.331590    0.557650
  C     -6.631980  -16.640450    0.642580
  C     -5.685180  -17.528800    1.043150
  S     -4.132850  -16.819760    1.338100
  C     -6.570730  -14.003810    0.245850
  C     -7.906330  -13.695850   -0.060640
  C     -8.480280  -12.451950   -0.024300
  C     -9.799770  -12.160040   -0.383250
  C    -10.416950  -10.883850   -0.361920
  C    -11.770850  -10.909580   -0.797510
  C    -12.467150   -9.700420   -0.955600
  C    -11.856840   -8.522560   -0.609510
  C    -10.547410   -8.505180   -0.109170
  C     -9.824440   -9.664210   -0.000350
  C    -12.217870  -12.214390   -1.113190
  S    -10.909250  -13.355750   -0.966780
  C    -13.476010  -12.681410   -1.500430
  C    -14.679930  -12.058030   -1.273940
  C    -15.922990  -12.544100   -1.698640
  C    -16.228840  -13.439240   -2.698790
  C    -17.537250  -14.132970   -2.647630
  O    -18.465170  -13.885030   -1.908230
  C    -17.449930  -15.215130   -3.651290
  C    -18.345440  -16.205970   -3.927730
  C    -18.030530  -17.157070   -4.925060
  C    -16.786200  -17.061970   -5.611960
  C    -16.475560  -18.016020   -6.601140
  C    -17.359850  -19.015400   -6.896580
  C    -18.590120  -19.107890   -6.217350
  C    -18.920060  -18.198570   -5.251670
  F    -19.438330  -20.100160   -6.526010
  F    -17.061820  -19.921370   -7.839390
  C    -15.880790  -16.018710   -5.306490
  C    -16.212030  -15.103700   -4.344580
  C    -15.506980  -13.920810   -3.846060
  C    -14.496000  -13.279120   -4.525030
  C    -13.995230  -12.011570   -4.178360
  N    -13.574420  -10.964050   -3.964260
  C    -13.892380  -13.778110   -5.694220
  N    -13.344190  -14.149380   -6.633340
  H     -0.863850    0.537470   -8.041300
  H     -4.814240   -2.361780   -8.781840
  H     -0.432110   -0.555640   -5.901560
  H     -4.396650   -3.500220   -6.599780
  H     -0.373110   -4.411370   -1.954790
  H     -5.727340   -7.605530    0.165870
  H     -7.285640   -5.771400   -0.276150
  H     -6.505570   -3.674580   -1.288250
  H     -4.141190   -3.386270   -1.902920
  H     -2.060830   -9.307060    0.135640
  H     -5.016050   -9.341180   -0.657770
  H     -6.110830  -11.310940   -0.472480
  H     -2.242770  -14.020650    1.411430
  H     -7.646390  -16.915560    0.418340
  H     -5.796480  -18.585220    1.190630
  H     -8.544530  -14.536190   -0.307020
  H     -7.903220  -11.617410    0.342460
  H    -13.450080   -9.697840   -1.394300
  H    -12.384400   -7.589400   -0.735140
  H    -10.098590   -7.562390    0.165210
  H     -8.803400   -9.639060    0.348880
  H    -13.495870  -13.674110   -1.936350
  H    -14.698420  -11.194350   -0.625560
  H    -16.786770  -12.224240   -1.123090
  H    -19.282070  -16.264420   -3.394510
  H    -15.539230  -17.957250   -7.133840
  H    -19.866340  -18.282650   -4.740550
  H    -14.944030  -15.975750   -5.838790

 Total Charge           Charge          ....    0
 Multiplicity           Mult            ....    1
 Number of Electrons    NEL             ....  568
 Basis Dimension        Dim             .... 1276

ORBITAL ENERGIES
----------------

  NO   OCC          E(Eh)            E(eV)
   0   2.0000     -88.990896     -2421.5654
   1   2.0000     -88.985872     -2421.4287
   2   2.0000     -88.979062     -2421.2434
   3   2.0000     -88.970827     -2421.0193
   4   2.0000     -24.793664      -674.6699
   5   2.0000     -24.792805      -674.6465
   6   2.0000     -24.792148      -674.6287
   7   2.0000     -24.791554      -674.6125
   8   2.0000     -19.208143      -522.6801
   9   2.0000     -19.202630      -522.5301
  10   2.0000     -14.408822      -392.0840
  11   2.0000     -14.408726      -392.0814
  12   2.0000     -14.407937      -392.0599
  13   2.0000     -14.405520      -391.9941
  14   2.0000     -10.376367      -282.3553
  15   2.0000     -10.375477      -282.3311
  16   2.0000     -10.374410      -282.3020
  17   2.0000     -10.373945      -282.2894
  18   2.0000     -10.359861      -281.9061
  19   2.0000     -10.354140      -281.7505
  20   2.0000     -10.343912      -281.4722
  21   2.0000     -10.339805      -281.3604
  22   2.0000     -10.338902      -281.3358
  23   2.0000     -10.334249      -281.2092
  24   2.0000     -10.333673      -281.1935
  25   2.0000     -10.332576      -281.1637
  26   2.0000     -10.329536      -281.0810
  27   2.0000     -10.328821      -281.0615
  28   2.0000     -10.319708      -280.8135
  29   2.0000     -10.318800      -280.7888
  30   2.0000     -10.315694      -280.7043
  31   2.0000     -10.315025      -280.6861
  32   2.0000     -10.314816      -280.6804
  33   2.0000     -10.314416      -280.6695
  34   2.0000     -10.312220      -280.6098
  35   2.0000     -10.312167      -280.6083
  36   2.0000     -10.311209      -280.5823
  37   2.0000     -10.310338      -280.5585
  38   2.0000     -10.310328      -280.5583
  39   2.0000     -10.309683      -280.5407
  40   2.0000     -10.309517      -280.5362
  41   2.0000     -10.304882      -280.4101
  42   2.0000     -10.304802      -280.4079
  43   2.0000     -10.304448      -280.3983
  44   2.0000     -10.304288      -280.3939
  45   2.0000     -10.303209      -280.3646
  46   2.0000     -10.302707      -280.3509
  47   2.0000     -10.302652      -280.3494
  48   2.0000     -10.302328      -280.3406
  49   2.0000     -10.301489      -280.3178
  50   2.0000     -10.301188      -280.3096
  51   2.0000     -10.300756      -280.2978
  52   2.0000     -10.298686      -280.2415
  53   2.0000     -10.298440      -280.2348
  54   2.0000     -10.297483      -280.2087
  55   2.0000     -10.296940      -280.1940
  56   2.0000     -10.296693      -280.1873
  57   2.0000     -10.296390      -280.1790
  58   2.0000     -10.296216      -280.1743
  59   2.0000     -10.295812      -280.1633
  60   2.0000     -10.295450      -280.1534
  61   2.0000     -10.294436      -280.1258
  62   2.0000     -10.293681      -280.1053
  63   2.0000     -10.293643      -280.1043
  64   2.0000     -10.293388      -280.0973
  65   2.0000     -10.292177      -280.0644
  66   2.0000     -10.291428      -280.0440
  67   2.0000     -10.291168      -280.0369
  68   2.0000     -10.289031      -279.9788
  69   2.0000     -10.288694      -279.9696
  70   2.0000     -10.287322      -279.9323
  71   2.0000     -10.287045      -279.9247
  72   2.0000     -10.286682      -279.9148
  73   2.0000     -10.285758      -279.8897
  74   2.0000     -10.285732      -279.8890
  75   2.0000     -10.284332      -279.8509
  76   2.0000     -10.284057      -279.8434
  77   2.0000     -10.282618      -279.8042
  78   2.0000     -10.282510      -279.8013
  79   2.0000     -10.282369      -279.7975
  80   2.0000      -8.086197      -220.0366
  81   2.0000      -8.081338      -219.9044
  82   2.0000      -8.074314      -219.7133
  83   2.0000      -8.066180      -219.4919
  84   2.0000      -6.055680      -164.7834
  85   2.0000      -6.051229      -164.6623
  86   2.0000      -6.050250      -164.6357
  87   2.0000      -6.048155      -164.5787
  88   2.0000      -6.046224      -164.5261
  89   2.0000      -6.044107      -164.4685
  90   2.0000      -6.043219      -164.4444
  91   2.0000      -6.039330      -164.3385
  92   2.0000      -6.037019      -164.2756
  93   2.0000      -6.035634      -164.2380
  94   2.0000      -6.031361      -164.1217
  95   2.0000      -6.028223      -164.0363
  96   2.0000      -1.315733       -35.8029
  97   2.0000      -1.314214       -35.7616
  98   2.0000      -1.300922       -35.3999
  99   2.0000      -1.299426       -35.3592
 100   2.0000      -1.123181       -30.5633
 101   2.0000      -1.117410       -30.4063
 102   2.0000      -1.022478       -27.8230
 103   2.0000      -1.016710       -27.6661
 104   2.0000      -1.012373       -27.5481
 105   2.0000      -1.011615       -27.5274
 106   2.0000      -1.009255       -27.4632
 107   2.0000      -0.998069       -27.1588
 108   2.0000      -0.995878       -27.0992
 109   2.0000      -0.989722       -26.9317
 110   2.0000      -0.987706       -26.8768
 111   2.0000      -0.985537       -26.8178
 112   2.0000      -0.975437       -26.5430
 113   2.0000      -0.972469       -26.4622
 114   2.0000      -0.950599       -25.8671
 115   2.0000      -0.946179       -25.7468
 116   2.0000      -0.943059       -25.6620
 117   2.0000      -0.935235       -25.4490
 118   2.0000      -0.929550       -25.2943
 119   2.0000      -0.924256       -25.1503
 120   2.0000      -0.918018       -24.9805
 121   2.0000      -0.908566       -24.7233
 122   2.0000      -0.899046       -24.4643
 123   2.0000      -0.891572       -24.2609
 124   2.0000      -0.887503       -24.1502
 125   2.0000      -0.885116       -24.0852
 126   2.0000      -0.882003       -24.0005
 127   2.0000      -0.871512       -23.7150
 128   2.0000      -0.871299       -23.7093
 129   2.0000      -0.854954       -23.2645
 130   2.0000      -0.852199       -23.1895
 131   2.0000      -0.846683       -23.0394
 132   2.0000      -0.844084       -22.9687
 133   2.0000      -0.839937       -22.8559
 134   2.0000      -0.834714       -22.7137
 135   2.0000      -0.832442       -22.6519
 136   2.0000      -0.827955       -22.5298
 137   2.0000      -0.817360       -22.2415
 138   2.0000      -0.810839       -22.0641
 139   2.0000      -0.799313       -21.7504
 140   2.0000      -0.784407       -21.3448
 141   2.0000      -0.767922       -20.8962
 142   2.0000      -0.760098       -20.6833
 143   2.0000      -0.757500       -20.6126
 144   2.0000      -0.750127       -20.4120
 145   2.0000      -0.741871       -20.1873
 146   2.0000      -0.732813       -19.9409
 147   2.0000      -0.729371       -19.8472
 148   2.0000      -0.721171       -19.6241
 149   2.0000      -0.718883       -19.5618
 150   2.0000      -0.716674       -19.5017
 151   2.0000      -0.712756       -19.3951
 152   2.0000      -0.709288       -19.3007
 153   2.0000      -0.706088       -19.2136
 154   2.0000      -0.701637       -19.0925
 155   2.0000      -0.684182       -18.6175
 156   2.0000      -0.681456       -18.5434
 157   2.0000      -0.680909       -18.5285
 158   2.0000      -0.674268       -18.3478
 159   2.0000      -0.669536       -18.2190
 160   2.0000      -0.664079       -18.0705
 161   2.0000      -0.657952       -17.9038
 162   2.0000      -0.656661       -17.8687
 163   2.0000      -0.649964       -17.6864
 164   2.0000      -0.648350       -17.6425
 165   2.0000      -0.642789       -17.4912
 166   2.0000      -0.637690       -17.3524
 167   2.0000      -0.636286       -17.3142
 168   2.0000      -0.633960       -17.2509
 169   2.0000      -0.630244       -17.1498
 170   2.0000      -0.620268       -16.8784
 171   2.0000      -0.614160       -16.7121
 172   2.0000      -0.611566       -16.6416
 173   2.0000      -0.607794       -16.5389
 174   2.0000      -0.604308       -16.4441
 175   2.0000      -0.599110       -16.3026
 176   2.0000      -0.595438       -16.2027
 177   2.0000      -0.589296       -16.0356
 178   2.0000      -0.583426       -15.8758
 179   2.0000      -0.582736       -15.8571
 180   2.0000      -0.580464       -15.7952
 181   2.0000      -0.578975       -15.7547
 182   2.0000      -0.575535       -15.6611
 183   2.0000      -0.574311       -15.6278
 184   2.0000      -0.570569       -15.5260
 185   2.0000      -0.568600       -15.4724
 186   2.0000      -0.564557       -15.3624
 187   2.0000      -0.562780       -15.3140
 188   2.0000      -0.559647       -15.2288
 189   2.0000      -0.555783       -15.1236
 190   2.0000      -0.549843       -14.9620
 191   2.0000      -0.548105       -14.9147
 192   2.0000      -0.546967       -14.8837
 193   2.0000      -0.545027       -14.8309
 194   2.0000      -0.542205       -14.7541
 195   2.0000      -0.540845       -14.7172
 196   2.0000      -0.536481       -14.5984
 197   2.0000      -0.533480       -14.5167
 198   2.0000      -0.532850       -14.4996
 199   2.0000      -0.528914       -14.3925
 200   2.0000      -0.528737       -14.3877
 201   2.0000      -0.526526       -14.3275
 202   2.0000      -0.526143       -14.3171
 203   2.0000      -0.525436       -14.2978
 204   2.0000      -0.523389       -14.2421
 205   2.0000      -0.522834       -14.2270
 206   2.0000      -0.521498       -14.1907
 207   2.0000      -0.520139       -14.1537
 208   2.0000      -0.516247       -14.0478
 209   2.0000      -0.513471       -13.9723
 210   2.0000      -0.511289       -13.9129
 211   2.0000      -0.508837       -13.8462
 212   2.0000      -0.508369       -13.8334
 213   2.0000      -0.505607       -13.7583
 214   2.0000      -0.504048       -13.7158
 215   2.0000      -0.499447       -13.5906
 216   2.0000      -0.499286       -13.5863
 217   2.0000      -0.494834       -13.4651
 218   2.0000      -0.491361       -13.3706
 219   2.0000      -0.490543       -13.3483
 220   2.0000      -0.488936       -13.3046
 221   2.0000      -0.485581       -13.2133
 222   2.0000      -0.483495       -13.1566
 223   2.0000      -0.477612       -12.9965
 224   2.0000      -0.476761       -12.9733
 225   2.0000      -0.475835       -12.9481
 226   2.0000      -0.471012       -12.8169
 227   2.0000      -0.468546       -12.7498
 228   2.0000      -0.464687       -12.6448
 229   2.0000      -0.463735       -12.6189
 230   2.0000      -0.458873       -12.4866
 231   2.0000      -0.458465       -12.4755
 232   2.0000      -0.454214       -12.3598
 233   2.0000      -0.453004       -12.3269
 234   2.0000      -0.450077       -12.2472
 235   2.0000      -0.449577       -12.2336
 236   2.0000      -0.447710       -12.1828
 237   2.0000      -0.446733       -12.1562
 238   2.0000      -0.444003       -12.0819
 239   2.0000      -0.443235       -12.0610
 240   2.0000      -0.441008       -12.0004
 241   2.0000      -0.440244       -11.9796
 242   2.0000      -0.439600       -11.9621
 243   2.0000      -0.438177       -11.9234
 244   2.0000      -0.437577       -11.9071
 245   2.0000      -0.437308       -11.8998
 246   2.0000      -0.435689       -11.8557
 247   2.0000      -0.432105       -11.7582
 248   2.0000      -0.429995       -11.7008
 249   2.0000      -0.427950       -11.6451
 250   2.0000      -0.425280       -11.5725
 251   2.0000      -0.423106       -11.5133
 252   2.0000      -0.421625       -11.4730
 253   2.0000      -0.420376       -11.4390
 254   2.0000      -0.419918       -11.4266
 255   2.0000      -0.419045       -11.4028
 256   2.0000      -0.417525       -11.3614
 257   2.0000      -0.417114       -11.3503
 258   2.0000      -0.409243       -11.1361
 259   2.0000      -0.405928       -11.0459
 260   2.0000      -0.401556       -10.9269
 261   2.0000      -0.400677       -10.9030
 262   2.0000      -0.391611       -10.6563
 263   2.0000      -0.386151       -10.5077
 264   2.0000      -0.378569       -10.3014
 265   2.0000      -0.373927       -10.1751
 266   2.0000      -0.364863        -9.9284
 267   2.0000      -0.356865        -9.7108
 268   2.0000      -0.348319        -9.4782
 269   2.0000      -0.341055        -9.2806
 270   2.0000      -0.339332        -9.2337
 271   2.0000      -0.331861        -9.0304
 272   2.0000      -0.329974        -8.9791
 273   2.0000      -0.327282        -8.9058
 274   2.0000      -0.319810        -8.7025
 275   2.0000      -0.314871        -8.5681
 276   2.0000      -0.309840        -8.4312
 277   2.0000      -0.308172        -8.3858
 278   2.0000      -0.299203        -8.1417
 279   2.0000      -0.295182        -8.0323
 280   2.0000      -0.292806        -7.9677
 281   2.0000      -0.278144        -7.5687
 282   2.0000      -0.253753        -6.9050
 283   2.0000      -0.223804        -6.0900
 284   0.0000      -0.120291        -3.2733
 285   0.0000      -0.097423        -2.6510
 286   0.0000      -0.071142        -1.9359
 287   0.0000      -0.059998        -1.6326
 288   0.0000      -0.051845        -1.4108

MULLIKEN ATOMIC CHARGES
-----------------------
   0 C :   -0.111031
   1 C :    0.241220
   2 F :   -0.173745
   3 C :    0.238113
   4 F :   -0.174134
   5 C :   -0.108309
   6 C :    0.117852
   7 C :    0.116809
   8 C :   -0.093751
   9 C :    0.057148
  10 C :   -0.002135
  11 C :   -0.089194
  12 C :    0.125994
  13 O :   -0.149044
  14 C :   -0.136648
  15 C :    0.299619
  16 C :   -0.342686
  17 C :   -0.212289
  18 N :    0.155312
  19 C :   -0.181788
  20 N :    0.140492
  21 C :    0.026376
  22 C :   -0.143315
  23 C :    0.150250
  24 C :    0.089454
  25 C :   -0.040251
  26 C :    0.032271
  27 C :    0.025165
  28 C :    0.012054
  29 C :   -0.104261
  30 S :    0.192978
  31 C :    0.045227
  32 C :   -0.021419
  33 C :   -0.034224
  34 C :   -0.060682
  35 C :    0.058666
  36 C :    0.059287
  37 C :   -0.117957
  38 S :    0.128052
  39 C :   -0.106904
  40 C :    0.052553
  41 C :    0.013282
  42 C :   -0.067333
  43 S :    0.139319
  44 C :    0.092881
  45 C :   -0.023308
  46 C :   -0.028476
  47 C :   -0.064960
  48 C :    0.100138
  49 C :    0.124625
  50 C :   -0.018643
  51 C :    0.031909
  52 C :    0.029488
  53 C :   -0.035129
  54 C :   -0.132233
  55 S :    0.159262
  56 C :    0.067566
  57 C :   -0.021833
  58 C :    0.044208
  59 C :   -0.146005
  60 C :    0.135401
  61 O :   -0.152970
  62 C :    0.017120
  63 C :   -0.088782
  64 C :    0.112403
  65 C :    0.112119
  66 C :   -0.106816
  67 C :    0.237464
  68 C :    0.236677
  69 C :   -0.103937
  70 F :   -0.175658
  71 F :   -0.175140
  72 C :   -0.086123
  73 C :    0.030692
  74 C :    0.281882
  75 C :   -0.364076
  76 C :   -0.198840
  77 N :    0.164661
  78 C :   -0.172913
  79 N :    0.139385
  80 H :    0.006359
  81 H :   -0.002601
  82 H :   -0.007677
  83 H :   -0.013503
  84 H :    0.028173
  85 H :   -0.027712
  86 H :   -0.013881
  87 H :   -0.005504
  88 H :   -0.014490
  89 H :    0.004709
  90 H :    0.008154
  91 H :   -0.012548
  92 H :    0.041039
  93 H :   -0.013570
  94 H :    0.032911
  95 H :   -0.013655
  96 H :   -0.017437
  97 H :   -0.004795
  98 H :   -0.006220
  99 H :   -0.015407
 100 H :   -0.032872
 101 H :    0.008248
 102 H :    0.003744
 103 H :    0.021517
 104 H :   -0.012954
 105 H :    0.003718
 106 H :   -0.003640
 107 H :   -0.008546
Sum of atomic charges:   -0.0000000

LOEWDIN ATOMIC CHARGES
----------------------
   0 C :   -0.030066
   1 C :    0.064723
   2 F :   -0.051364
   3 C :    0.066197
   4 F :   -0.051704
   5 C :   -0.034519
   6 C :   -0.009597
   7 C :   -0.008350
   8 C :    0.014647
   9 C :   -0.022434
  10 C :   -0.049234
  11 C :    0.023855
  12 C :    0.071316
  13 O :   -0.146086
  14 C :   -0.115866
  15 C :    0.072758
  16 C :   -0.149420
  17 C :   -0.025791
  18 N :   -0.059598
  19 C :   -0.018694
  20 N :   -0.060908
  21 C :    0.040099
  22 C :   -0.184410
  23 C :   -0.007324
  24 C :   -0.045536
  25 C :   -0.018301
  26 C :   -0.019041
  27 C :   -0.006047
  28 C :    0.006540
  29 C :   -0.133164
  30 S :    0.500686
  31 C :   -0.059719
  32 C :   -0.023105
  33 C :   -0.167505
  34 C :   -0.011488
  35 C :   -0.018468
  36 C :   -0.047262
  37 C :   -0.135271
  38 S :    0.459064
  39 C :   -0.198823
  40 C :   -0.039599
  41 C :   -0.061570
  42 C :   -0.159279
  43 S :    0.430096
  44 C :   -0.041774
  45 C :   -0.000950
  46 C :   -0.056728
  47 C :   -0.142925
  48 C :   -0.044744
  49 C :   -0.020106
  50 C :   -0.002102
  51 C :   -0.009210
  52 C :   -0.022170
  53 C :   -0.014867
  54 C :   -0.180955
  55 S :    0.478321
  56 C :    0.019508
  57 C :   -0.059569
  58 C :    0.063901
  59 C :   -0.113966
  60 C :    0.078920
  61 O :   -0.154557
  62 C :   -0.051253
  63 C :    0.025389
  64 C :   -0.010802
  65 C :   -0.007590
  66 C :   -0.031476
  67 C :    0.064388
  68 C :    0.064755
  69 C :   -0.034030
  70 F :   -0.053018
  71 F :   -0.052512
  72 C :    0.009494
  73 C :   -0.018929
  74 C :    0.064191
  75 C :   -0.159676
  76 C :   -0.011608
  77 N :   -0.057194
  78 C :   -0.021232
  79 N :   -0.067780
  80 H :    0.047062
  81 H :    0.043970
  82 H :    0.039298
  83 H :    0.038699
  84 H :    0.044391
  85 H :    0.026052
  86 H :    0.029847
  87 H :    0.033590
  88 H :    0.032610
  89 H :    0.025063
  90 H :    0.038379
  91 H :    0.037665
  92 H :    0.038776
  93 H :    0.031967
  94 H :    0.026070
  95 H :    0.026007
  96 H :    0.029860
  97 H :    0.034837
  98 H :    0.033323
  99 H :    0.028787
 100 H :    0.024728
 101 H :    0.034823
 102 H :    0.033809
 103 H :    0.045550
 104 H :    0.039061
 105 H :    0.046246
 106 H :    0.043693
 107 H :    0.038255

  Mayer bond orders larger than 0.100000
B(  0-C ,  1-C ) :   1.4372 B(  0-C ,  5-C ) :   0.1087 B(  0-C ,  7-C ) :   1.1907
B(  0-C , 80-H ) :   1.0077 B(  1-C ,  2-F ) :   1.1321 B(  1-C ,  3-C ) :   1.1947
B(  3-C ,  4-F ) :   1.1312 B(  3-C ,  5-C ) :   1.4400 B(  5-C ,  6-C ) :   1.1944
B(  5-C , 81-H ) :   1.0078 B(  6-C ,  7-C ) :   1.2596 B(  6-C , 11-C ) :   1.1805
B(  7-C ,  8-C ) :   1.2066 B(  8-C ,  9-C ) :   1.4568 B(  8-C , 82-H ) :   0.9920
B(  9-C , 10-C ) :   1.2191 B(  9-C , 15-C ) :   0.9831 B( 10-C , 11-C ) :   1.4813
B( 10-C , 12-C ) :   0.9311 B( 11-C , 83-H ) :   1.0173 B( 12-C , 13-O ) :   2.2109
B( 12-C , 14-C ) :   0.9700 B( 14-C , 15-C ) :   1.1009 B( 14-C , 21-C ) :   1.4940
B( 15-C , 16-C ) :   1.6230 B( 16-C , 17-C ) :   1.1425 B( 16-C , 19-C ) :   1.1454
B( 17-C , 18-N ) :   2.9999 B( 19-C , 20-N ) :   2.9624 B( 21-C , 22-C ) :   1.2782
B( 21-C , 84-H ) :   0.9350 B( 22-C , 23-C ) :   1.2587 B( 22-C , 30-S ) :   1.1046
B( 23-C , 24-C ) :   1.2588 B( 23-C , 28-C ) :   1.2540 B( 24-C , 25-C ) :   1.2290
B( 24-C , 29-C ) :   1.2586 B( 25-C , 26-C ) :   1.5181 B( 25-C , 85-H ) :   0.9876
B( 26-C , 27-C ) :   1.2461 B( 26-C , 86-H ) :   0.9857 B( 27-C , 28-C ) :   1.5134
B( 27-C , 87-H ) :   0.9877 B( 28-C , 88-H ) :   0.9830 B( 29-C , 30-S ) :   1.2015
B( 29-C , 31-C ) :   1.1951 B( 31-C , 32-C ) :   1.5817 B( 31-C , 89-H ) :   0.9397
B( 32-C , 33-C ) :   1.1985 B( 32-C , 90-H ) :   0.9809 B( 33-C , 34-C ) :   1.4625
B( 33-C , 38-S ) :   1.0484 B( 34-C , 35-C ) :   1.2510 B( 34-C , 91-H ) :   0.9748
B( 35-C , 36-C ) :   1.0620 B( 35-C , 44-C ) :   1.3266 B( 36-C , 37-C ) :   1.6038
B( 36-C , 39-C ) :   1.1792 B( 37-C , 38-S ) :   1.1436 B( 37-C , 92-H ) :   0.9400
B( 39-C , 40-C ) :   1.4366 B( 39-C , 43-S ) :   1.0827 B( 40-C , 41-C ) :   1.2233
B( 40-C , 44-C ) :   1.0992 B( 41-C , 42-C ) :   1.5887 B( 41-C , 93-H ) :   0.9974
B( 42-C , 43-S ) :   1.1547 B( 42-C , 94-H ) :   0.9660 B( 44-C , 45-C ) :   1.2183
B( 45-C , 46-C ) :   1.5354 B( 45-C , 95-H ) :   0.9611 B( 46-C , 47-C ) :   1.2440
B( 46-C , 96-H ) :   0.9623 B( 47-C , 48-C ) :   1.2415 B( 47-C , 55-S ) :   1.1681
B( 48-C , 49-C ) :   1.2435 B( 48-C , 53-C ) :   1.2420 B( 49-C , 50-C ) :   1.2506
B( 49-C , 54-C ) :   1.2623 B( 50-C , 51-C ) :   1.5089 B( 50-C , 97-H ) :   0.9843
B( 51-C , 52-C ) :   1.2458 B( 51-C , 98-H ) :   0.9868 B( 52-C , 53-C ) :   1.5183
B( 52-C , 99-H ) :   0.9852 B( 53-C ,100-H ) :   0.9891 B( 54-C , 55-S ) :   1.1059
B( 54-C , 56-C ) :   1.2890 B( 56-C , 57-C ) :   1.4993 B( 56-C ,101-H ) :   0.9406
B( 57-C , 58-C ) :   1.2728 B( 57-C ,102-H ) :   0.9607 B( 58-C , 59-C ) :   1.5224
B( 58-C ,103-H ) :   0.9347 B( 59-C , 60-C ) :   0.9677 B( 59-C , 74-C ) :   1.0876
B( 60-C , 61-O ) :   2.2573 B( 60-C , 62-C ) :   0.9115 B( 62-C , 63-C ) :   1.4829
B( 62-C , 73-C ) :   1.2227 B( 63-C , 64-C ) :   1.1851 B( 63-C ,104-H ) :   1.0156
B( 64-C , 65-C ) :   1.2605 B( 64-C , 69-C ) :   1.1963 B( 65-C , 66-C ) :   1.1910
B( 65-C , 72-C ) :   1.2088 B( 66-C , 67-C ) :   1.4394 B( 66-C , 69-C ) :   0.1093
B( 66-C ,105-H ) :   1.0066 B( 67-C , 68-C ) :   1.1968 B( 67-C , 71-F ) :   1.1307
B( 68-C , 69-C ) :   1.4407 B( 68-C , 70-F ) :   1.1289 B( 69-C ,106-H ) :   1.0066
B( 72-C , 73-C ) :   1.4635 B( 72-C ,107-H ) :   0.9931 B( 73-C , 74-C ) :   0.9880
B( 74-C , 75-C ) :   1.5988 B( 75-C , 76-C ) :   1.1788 B( 75-C , 78-C ) :   1.1369
B( 76-C , 77-N ) :   2.9895 B( 78-C , 79-N ) :   2.9739

-----------------------------------------------------------------------------
         ABSORPTION SPECTRUM VIA TRANSITION ELECTRIC DIPOLE MOMENTS
-----------------------------------------------------------------------------
State   Energy  Wavelength   fosc         T2         TX        TY        TZ
        (cm-1)    (nm)                  (au**2)     (au)      (au)      (au)
-----------------------------------------------------------------------------
   0    9163.2   1091.3   1.243042768  44.65961  -5.62178  -3.58571  -0.44489
   1   14254.1    701.6   0.521926441  12.05440   0.97457  -2.09230   2.59362
   2   15784.1    633.5   0.414825905   8.65210   0.20168  -2.25502   1.87784
   3   19235.1    519.9   0.179149424   3.06617  -0.15224   1.72723  -0.24426
   4   20285.6    493.0   0.071653604   1.16285  -0.42531  -0.96298   0.23374
   5   22253.3    449.4   0.045489276   0.67296  -0.47965   0.64958  -0.14472
   6   22381.2    446.8   0.144825000   2.13028  -1.43471   0.02164   0.26724
   7   23254.0    430.0   0.025768287   0.36481   0.53162  -0.27196   0.09073
   8   24074.0    415.4   0.121442947   1.66073   0.94852  -0.85333   0.18133
   9   24459.6    408.8   0.103161680   1.38850   1.03806  -0.47214  -0.29667
  10   24941.8    400.9   0.032391811   0.42755   0.58982  -0.10507   0.26196
  11   25565.3    391.2   0.083065954   1.06966  -0.46789  -0.89419   0.22621
  12   25827.0    387.2   0.067958390   0.86625   0.18388  -0.65833   0.63169
  13   26177.3    382.0   0.142894411   1.79708   0.06205  -1.03747  -0.84669
  14   26785.0    373.3   0.112466999   1.38232   0.85936  -0.76373  -0.24606
  15   27517.5    363.4   0.010584823   0.12663   0.05273   0.13527   0.32489
  16   27928.0    358.1   0.001994239   0.02351  -0.05972   0.02516   0.13895
  17   28063.1    356.3   0.028677224   0.33642  -0.45215  -0.23057  -0.28074
  18   28632.2    349.3   0.028094213   0.32303  -0.03217   0.41431   0.38774
  19   28941.6    345.5   0.078636726   0.89450  -0.31021  -0.65570  -0.60689
  20   29209.2    342.4   0.030181848   0.34017  -0.47187  -0.33242   0.08369
  21   29348.6    340.7   0.052382878   0.58759  -0.04867  -0.74643   0.16755
  22   30139.1    331.8   0.042514411   0.46439  -0.02388  -0.67518  -0.08915
  23   30685.8    325.9   0.061423455   0.65898  -0.09726   0.79517  -0.13123
  24   30873.7    323.9   0.135670401   1.44668   1.18825  -0.13226   0.13133
  25   31502.7    317.4   0.028236690   0.29508   0.20798   0.31416  -0.39132
  26   31813.5    314.3   0.120382065   1.24574  -0.44174  -1.00745  -0.18879
  27   31901.1    313.5   0.186075018   1.92025  -0.36021  -1.31347  -0.25553
  28   32160.3    310.9   0.057030622   0.58380   0.32682  -0.02232   0.69028
  29   32353.8    309.1   0.030540543   0.31076  -0.12272  -0.54309  -0.02746
  30   32386.3    308.8   0.004927584   0.05009   0.00699   0.12940   0.18247
  31   32616.2    306.6   0.164932939   1.66475   0.87993  -0.06961   0.94108
  32   32750.2    305.3   0.375208694   3.77168  -0.10980   0.39017  -1.89931
  33   33074.0    302.4   0.136325597   1.35696  -0.60293  -0.98219  -0.16953
  34   33359.0    299.8   0.015225944   0.15026   0.30592  -0.23779  -0.01127
  35   33671.9    297.0   0.076383285   0.74680   0.25416   0.74791   0.35048
  36   33936.9    294.7   0.037991287   0.36854   0.02266  -0.51670   0.31789
  37   34434.5    290.4   0.153808921   1.47050  -0.57303   0.62807  -0.86467
  38   34816.5    287.2   0.103236546   0.97617   0.93918   0.28964   0.10104
  39   35018.0    285.6   0.033034446   0.31056   0.03712   0.53404  -0.15487
  40   35297.5    283.3   0.156075081   1.45568  -0.33287   1.15706   0.07805
  41   35500.8    281.7   0.134795701   1.25001  -0.86445  -0.60391  -0.37152
  42   35650.0    280.5   0.230065037   2.12455   0.06423  -1.45615  -0.00622
  43   35714.7    280.0   0.428654339   3.95126   1.03745   1.64677   0.40385
  44   35895.6    278.6   0.032834299   0.30114   0.25348  -0.18429   0.45047
  45   36246.8    275.9   0.054531466   0.49528   0.57693   0.33652   0.22178
  46   36422.3    274.6   0.047114513   0.42586   0.25044   0.33758   0.49917
  47   36651.6    272.8   0.197905375   1.77763   0.84096  -0.38445   0.96053
  48   36768.9    272.0   0.254621900   2.27977   1.13701   0.94782   0.29770
  49   37319.8    268.0   0.014499779   0.12791  -0.18187  -0.20184   0.23257
  50   37551.5    266.3   0.018283065   0.16029  -0.27081  -0.08977   0.28087
  51   37632.7    265.7   0.092699454   0.81094  -0.76663   0.28056  -0.38013
  52   37994.0    263.2   0.032672460   0.28310  -0.21825   0.47368   0.10531
  53   38273.5    261.3   0.027287511   0.23472   0.44712  -0.16992   0.07696
  54   38509.1    259.7   0.035727391   0.30543  -0.28385  -0.45298   0.14024
  55   38864.2    257.3   0.029748415   0.25199  -0.49901   0.01593   0.05228
  56   39178.0    255.2   0.040186484   0.33769   0.27217  -0.04290  -0.51164
  57   39321.2    254.3   0.048680290   0.40757   0.07867  -0.62683  -0.09201
  58   39477.7    253.3   0.187462881   1.56329   0.96703   0.78424  -0.11450
  59   39623.9    252.4   0.026468613   0.21991   0.41930   0.15256  -0.14431
  60   39798.6    251.3   0.046485335   0.38452   0.34923  -0.19438  -0.47411
  61   39961.0    250.2   0.004859150   0.04003  -0.01733   0.16781  -0.10757
  62   40185.8    248.8   0.079780600   0.65358  -0.63992  -0.46283   0.17286

FINAL SINGLE POINT ENERGY     -4888.726029061519

DIPOLE MOMENT
-------------
                                X             Y             Z
Electronic contribution:      5.40545      -2.47712     -39.87277
Nuclear contribution   :     -5.13157      -0.23364      42.67069
                        -----------------------------------------
Total Dipole Moment    :      0.27387      -2.71076       2.79792
                        -----------------------------------------
Magnitude (a.u.)       :      3.90533
Magnitude (Debye)      :      9.92656

Rotational constants in cm-1:     0.000785     0.000223     0.000189
Rotational constants in MHz :    23.524436     6.670839     5.662548

                             ****ORCA TERMINATED NORMALLY****
TOTAL RUN TIME: 0 days 0 hours 18 minutes 16 seconds 760 msec
