                         Program Version 4.2.0 -  RELEASE  -
|  1> # ORCA input file
|  2> # SCF done       -196.692393416864          0.000965717275
|  3> ! CAM-B3LYP def2-SVP def2/J RIJCOSX Grid4 TightSCF
|  4> %maxcore 5000
|  5> %tddft
|  6>     Mode sTDDFT
|  7>     Ethresh 5.0
|  8>     maxcore 5000
|  9> end
| 10>
| 11> %pal
| 12>   nprocs 6
| 13>   end
| 14> * xyz 0 1
| 15>    C       -0.31739        -3.10714         4.55382
| 16>    C        0.55951        -3.81023         5.33209
| 17>    F        1.49584        -3.16641         6.03885
| 18>    C        0.48483        -5.21491         5.40851
| 19>    F        1.36392        -5.87551         6.17338
| 20>    C       -0.46984        -5.90040         4.71049
| 21>    C       -1.38219        -5.20210         3.89648
| 22>    C       -1.30710        -3.78178         3.81320
| 23>    C       -2.21904        -3.06336         3.00252
| 24>    C       -3.15918        -3.74429         2.27588
| 25>    C       -3.20207        -5.16524         2.34061
| 26>    C       -2.36214        -5.88484         3.14123
| 27>    C       -4.24932        -5.64940         1.42996
| 28>    O       -4.46789        -6.82251         1.15146
| 29>    C       -4.91222        -4.46914         0.89122
| 30>    C       -4.22550        -3.29342         1.37955
| 31>    C       -4.49464        -1.98146         1.07594
| 32>    C       -5.51272        -1.52117         0.21650
| 33>    N       -6.30946        -1.05561        -0.46875
| 34>    C       -3.76462        -0.89034         1.59032
| 35>    N       -3.21164         0.04153         1.97141
| 36>    C       -6.03164        -4.48020         0.08149
| 37>    C       -6.78211        -5.54976        -0.39873
| 38>    C       -7.97674        -5.37296        -1.13987
| 39>    C       -8.59750        -6.56728        -1.48133
| 40>    S      -10.07303        -6.78738        -2.40834
| 41>    C      -10.28183        -5.12773        -3.12628
| 42>    C      -10.22418        -4.05826        -2.06038
| 43>    S       -8.51444        -3.74760        -1.51265
| 44>    C       -7.90487        -7.69886        -1.00633
| 45>    S       -6.45204        -7.24958        -0.15968
| 46>    C       -8.33711        -9.01998        -1.13700
| 47>    C       -7.65745       -10.14311        -0.71321
| 48>    C       -8.14315       -11.47362        -0.71538
| 49>    C       -7.27798       -12.38869        -0.18795
| 50>    C       -6.05314       -11.82855         0.22615
| 51>    S       -6.04127       -10.09963        -0.05914
| 52>    C       -4.93878       -12.41712         0.80082
| 53>    C       -4.74775       -13.69735         1.35914
| 54>    C       -3.52009       -13.85836         1.93139
| 55>    C       -2.66834       -12.72344         1.84568
| 56>    S       -3.50204       -11.44562         0.99939
| 57>    C       -1.35816       -12.70000         2.27171
| 58>    C       -0.37439       -11.70656         2.12879
| 59>    C       -0.43881       -10.34696         1.82149
| 60>    C        0.80729        -9.77278         1.51186
| 61>    S        1.05194        -8.25482         0.68757
| 62>    C       -0.57989        -7.42131         0.65989
| 63>    C       -1.75744        -8.35548         0.58047
| 64>    S       -1.86675        -9.37135         2.09050
| 65>    C        1.88742       -10.64184         1.72749
| 66>    S        1.29661       -12.22517         2.18439
| 67>    C        3.27459       -10.47190         1.63917
| 68>    C        4.07943        -9.35732         1.62089
| 69>    C        5.46308        -9.51566         1.09470
| 70>    O        6.02892       -10.55496         0.84249
| 71>    C        5.96925        -8.14010         0.90335
| 72>    C        7.14355        -7.72295         0.34944
| 73>    C        7.39736        -6.33570         0.24179
| 74>    C        6.42791        -5.40828         0.72110
| 75>    C        6.68402        -4.02791         0.60373
| 76>    C        7.84756        -3.58838         0.03668
| 77>    C        8.80554        -4.50603        -0.43604
| 78>    C        8.58691        -5.85178        -0.33507
| 79>    F        9.93760        -4.04765        -0.98996
| 80>    F        8.08712        -2.27435        -0.07657
| 81>    C        5.22605        -5.87257         1.30534
| 82>    C        4.99972        -7.21903         1.39047
| 83>    C        3.87967        -7.97628         1.94354
| 84>    C        2.89693        -7.45039         2.75365
| 85>    C        2.02657        -8.23234         3.53345
| 86>    N        1.29530        -8.82886         4.18837
| 87>    C        2.65290        -6.07706         2.92976
| 88>    N        2.32447        -4.98356         3.06253
| 89>    H       -0.24246        -2.03217         4.50372
| 90>    H       -0.50818        -6.97750         4.77549
| 91>    H       -2.14564        -1.98834         2.97938
| 92>    H       -2.44708        -6.95978         3.20759
| 93>    H       -6.42288        -3.51255        -0.21092
| 94>    H      -11.26163        -5.15352        -3.60316
| 95>    H       -9.51254        -4.97654        -3.88405
| 96>    H      -10.82588        -4.32880        -1.19220
| 97>    H      -10.56188        -3.09814        -2.45060
| 98>    H       -9.30925        -9.17171        -1.58973
| 99>    H       -9.12421       -11.70920        -1.08862
|100>    H       -7.48343       -13.44073        -0.10109
|101>    H       -5.52060       -14.44509         1.35746
|102>    H       -3.19468       -14.75937         2.42098
|103>    H       -0.98988       -13.63706         2.67238
|104>    H       -0.52366        -6.78134        -0.22196
|105>    H       -0.63134        -6.79591         1.55219
|106>    H       -1.69946        -9.02995        -0.27311
|107>    H       -2.69596        -7.80157         0.54486
|108>    H        3.83158       -11.39998         1.53166
|109>    H        7.86949        -8.43842        -0.00569
|110>    H        5.96163        -3.31141         0.96250
|111>    H        9.33059        -6.54163        -0.70217
|112>    H        4.50889        -5.14932         1.66007
|113> *
|114>
|115>                          ****END OF INPUT****

CARTESIAN COORDINATES (ANGSTROEM)
---------------------------------
  C     -0.317390   -3.107140    4.553820
  C      0.559510   -3.810230    5.332090
  F      1.495840   -3.166410    6.038850
  C      0.484830   -5.214910    5.408510
  F      1.363920   -5.875510    6.173380
  C     -0.469840   -5.900400    4.710490
  C     -1.382190   -5.202100    3.896480
  C     -1.307100   -3.781780    3.813200
  C     -2.219040   -3.063360    3.002520
  C     -3.159180   -3.744290    2.275880
  C     -3.202070   -5.165240    2.340610
  C     -2.362140   -5.884840    3.141230
  C     -4.249320   -5.649400    1.429960
  O     -4.467890   -6.822510    1.151460
  C     -4.912220   -4.469140    0.891220
  C     -4.225500   -3.293420    1.379550
  C     -4.494640   -1.981460    1.075940
  C     -5.512720   -1.521170    0.216500
  N     -6.309460   -1.055610   -0.468750
  C     -3.764620   -0.890340    1.590320
  N     -3.211640    0.041530    1.971410
  C     -6.031640   -4.480200    0.081490
  C     -6.782110   -5.549760   -0.398730
  C     -7.976740   -5.372960   -1.139870
  C     -8.597500   -6.567280   -1.481330
  S    -10.073030   -6.787380   -2.408340
  C    -10.281830   -5.127730   -3.126280
  C    -10.224180   -4.058260   -2.060380
  S     -8.514440   -3.747600   -1.512650
  C     -7.904870   -7.698860   -1.006330
  S     -6.452040   -7.249580   -0.159680
  C     -8.337110   -9.019980   -1.137000
  C     -7.657450  -10.143110   -0.713210
  C     -8.143150  -11.473620   -0.715380
  C     -7.277980  -12.388690   -0.187950
  C     -6.053140  -11.828550    0.226150
  S     -6.041270  -10.099630   -0.059140
  C     -4.938780  -12.417120    0.800820
  C     -4.747750  -13.697350    1.359140
  C     -3.520090  -13.858360    1.931390
  C     -2.668340  -12.723440    1.845680
  S     -3.502040  -11.445620    0.999390
  C     -1.358160  -12.700000    2.271710
  C     -0.374390  -11.706560    2.128790
  C     -0.438810  -10.346960    1.821490
  C      0.807290   -9.772780    1.511860
  S      1.051940   -8.254820    0.687570
  C     -0.579890   -7.421310    0.659890
  C     -1.757440   -8.355480    0.580470
  S     -1.866750   -9.371350    2.090500
  C      1.887420  -10.641840    1.727490
  S      1.296610  -12.225170    2.184390
  C      3.274590  -10.471900    1.639170
  C      4.079430   -9.357320    1.620890
  C      5.463080   -9.515660    1.094700
  O      6.028920  -10.554960    0.842490
  C      5.969250   -8.140100    0.903350
  C      7.143550   -7.722950    0.349440
  C      7.397360   -6.335700    0.241790
  C      6.427910   -5.408280    0.721100
  C      6.684020   -4.027910    0.603730
  C      7.847560   -3.588380    0.036680
  C      8.805540   -4.506030   -0.436040
  C      8.586910   -5.851780   -0.335070
  F      9.937600   -4.047650   -0.989960
  F      8.087120   -2.274350   -0.076570
  C      5.226050   -5.872570    1.305340
  C      4.999720   -7.219030    1.390470
  C      3.879670   -7.976280    1.943540
  C      2.896930   -7.450390    2.753650
  C      2.026570   -8.232340    3.533450
  N      1.295300   -8.828860    4.188370
  C      2.652900   -6.077060    2.929760
  N      2.324470   -4.983560    3.062530
  H     -0.242460   -2.032170    4.503720
  H     -0.508180   -6.977500    4.775490
  H     -2.145640   -1.988340    2.979380
  H     -2.447080   -6.959780    3.207590
  H     -6.422880   -3.512550   -0.210920
  H    -11.261630   -5.153520   -3.603160
  H     -9.512540   -4.976540   -3.884050
  H    -10.825880   -4.328800   -1.192200
  H    -10.561880   -3.098140   -2.450600
  H     -9.309250   -9.171710   -1.589730
  H     -9.124210  -11.709200   -1.088620
  H     -7.483430  -13.440730   -0.101090
  H     -5.520600  -14.445090    1.357460
  H     -3.194680  -14.759370    2.420980
  H     -0.989880  -13.637060    2.672380
  H     -0.523660   -6.781340   -0.221960
  H     -0.631340   -6.795910    1.552190
  H     -1.699460   -9.029950   -0.273110
  H     -2.695960   -7.801570    0.544860
  H      3.831580  -11.399980    1.531660
  H      7.869490   -8.438420   -0.005690
  H      5.961630   -3.311410    0.962500
  H      9.330590   -6.541630   -0.702170
  H      4.508890   -5.149320    1.660070

 Total Charge           Charge          ....    0
 Multiplicity           Mult            ....    1
 Number of Electrons    NEL             ....  568
 Basis Dimension        Dim             .... 1188

ORBITAL ENERGIES
----------------

  NO   OCC          E(Eh)            E(eV)
   0   2.0000     -88.965348     -2420.8702
   1   2.0000     -88.963048     -2420.8076
   2   2.0000     -88.962157     -2420.7834
   3   2.0000     -88.959416     -2420.7088
   4   2.0000     -88.957074     -2420.6450
   5   2.0000     -88.943058     -2420.2637
   6   2.0000     -88.942503     -2420.2485
   7   2.0000     -88.940076     -2420.1825
   8   2.0000     -24.792062      -674.6263
   9   2.0000     -24.791726      -674.6172
  10   2.0000     -24.781905      -674.3499
  11   2.0000     -24.781142      -674.3292
  12   2.0000     -19.217276      -522.9287
  13   2.0000     -19.210919      -522.7557
  14   2.0000     -14.416332      -392.2883
  15   2.0000     -14.413364      -392.2076
  16   2.0000     -14.406069      -392.0091
  17   2.0000     -14.402809      -391.9204
  18   2.0000     -10.374753      -282.3114
  19   2.0000     -10.374359      -282.3007
  20   2.0000     -10.363851      -282.0147
  21   2.0000     -10.363485      -282.0048
  22   2.0000     -10.362909      -281.9891
  23   2.0000     -10.360912      -281.9348
  24   2.0000     -10.337910      -281.3088
  25   2.0000     -10.335618      -281.2465
  26   2.0000     -10.330675      -281.1120
  27   2.0000     -10.330244      -281.1002
  28   2.0000     -10.329763      -281.0871
  29   2.0000     -10.328266      -281.0464
  30   2.0000     -10.327813      -281.0341
  31   2.0000     -10.326866      -281.0083
  32   2.0000     -10.325663      -280.9756
  33   2.0000     -10.325167      -280.9621
  34   2.0000     -10.324401      -280.9412
  35   2.0000     -10.321883      -280.8727
  36   2.0000     -10.319963      -280.8205
  37   2.0000     -10.318690      -280.7858
  38   2.0000     -10.317688      -280.7586
  39   2.0000     -10.317298      -280.7480
  40   2.0000     -10.317182      -280.7448
  41   2.0000     -10.317022      -280.7404
  42   2.0000     -10.316020      -280.7132
  43   2.0000     -10.315417      -280.6968
  44   2.0000     -10.314305      -280.6665
  45   2.0000     -10.313504      -280.6447
  46   2.0000     -10.312990      -280.6307
  47   2.0000     -10.309119      -280.5254
  48   2.0000     -10.308015      -280.4954
  49   2.0000     -10.306788      -280.4619
  50   2.0000     -10.305912      -280.4381
  51   2.0000     -10.304323      -280.3949
  52   2.0000     -10.303852      -280.3821
  53   2.0000     -10.303322      -280.3676
  54   2.0000     -10.303106      -280.3618
  55   2.0000     -10.302509      -280.3455
  56   2.0000     -10.300229      -280.2835
  57   2.0000     -10.300181      -280.2822
  58   2.0000     -10.296782      -280.1897
  59   2.0000     -10.296413      -280.1797
  60   2.0000     -10.295775      -280.1623
  61   2.0000     -10.295498      -280.1548
  62   2.0000     -10.295274      -280.1486
  63   2.0000     -10.295118      -280.1444
  64   2.0000     -10.293986      -280.1136
  65   2.0000     -10.293955      -280.1128
  66   2.0000     -10.292995      -280.0866
  67   2.0000     -10.290886      -280.0292
  68   2.0000     -10.289891      -280.0022
  69   2.0000     -10.287065      -279.9253
  70   2.0000     -10.286179      -279.9012
  71   2.0000     -10.282872      -279.8112
  72   2.0000     -10.282647      -279.8051
  73   2.0000     -10.281194      -279.7655
  74   2.0000      -8.061333      -219.3600
  75   2.0000      -8.058155      -219.2736
  76   2.0000      -8.056068      -219.2168
  77   2.0000      -8.054990      -219.1874
  78   2.0000      -8.051649      -219.0965
  79   2.0000      -8.038241      -218.7317
  80   2.0000      -8.036964      -218.6969
  81   2.0000      -8.035654      -218.6613
  82   2.0000      -6.030760      -164.1053
  83   2.0000      -6.027838      -164.0258
  84   2.0000      -6.026966      -164.0021
  85   2.0000      -6.025654      -163.9664
  86   2.0000      -6.024745      -163.9417
  87   2.0000      -6.023572      -163.9097
  88   2.0000      -6.022662      -163.8850
  89   2.0000      -6.021783      -163.8611
  90   2.0000      -6.021233      -163.8461
  91   2.0000      -6.020401      -163.8234
  92   2.0000      -6.019287      -163.7931
  93   2.0000      -6.017779      -163.7521
  94   2.0000      -6.017285      -163.7387
  95   2.0000      -6.016016      -163.7041
  96   2.0000      -6.012298      -163.6030
  97   2.0000      -6.008638      -163.5034
  98   2.0000      -6.007234      -163.4652
  99   2.0000      -6.006105      -163.4344
 100   2.0000      -6.004454      -163.3895
 101   2.0000      -6.003359      -163.3597
 102   2.0000      -6.002063      -163.3244
 103   2.0000      -5.997980      -163.2133
 104   2.0000      -5.996748      -163.1798
 105   2.0000      -5.995201      -163.1377
 106   2.0000      -1.314430       -35.7675
 107   2.0000      -1.304173       -35.4883
 108   2.0000      -1.299651       -35.3653
 109   2.0000      -1.289298       -35.0836
 110   2.0000      -1.131879       -30.8000
 111   2.0000      -1.125859       -30.6362
 112   2.0000      -1.021031       -27.7837
 113   2.0000      -1.015231       -27.6259
 114   2.0000      -1.011337       -27.5199
 115   2.0000      -1.008828       -27.4516
 116   2.0000      -1.005652       -27.3652
 117   2.0000      -0.999447       -27.1963
 118   2.0000      -0.993522       -27.0351
 119   2.0000      -0.992155       -26.9979
 120   2.0000      -0.988394       -26.8956
 121   2.0000      -0.982977       -26.7482
 122   2.0000      -0.975198       -26.5365
 123   2.0000      -0.967957       -26.3394
 124   2.0000      -0.946077       -25.7441
 125   2.0000      -0.942757       -25.6537
 126   2.0000      -0.930593       -25.3227
 127   2.0000      -0.925881       -25.1945
 128   2.0000      -0.917055       -24.9543
 129   2.0000      -0.912771       -24.8378
 130   2.0000      -0.896813       -24.4035
 131   2.0000      -0.892592       -24.2887
 132   2.0000      -0.886899       -24.1337
 133   2.0000      -0.886364       -24.1192
 134   2.0000      -0.877966       -23.8907
 135   2.0000      -0.873889       -23.7797
 136   2.0000      -0.868788       -23.6409
 137   2.0000      -0.864540       -23.5253
 138   2.0000      -0.863382       -23.4938
 139   2.0000      -0.858408       -23.3585
 140   2.0000      -0.849939       -23.1280
 141   2.0000      -0.836626       -22.7658
 142   2.0000      -0.834309       -22.7027
 143   2.0000      -0.832610       -22.6565
 144   2.0000      -0.826285       -22.4844
 145   2.0000      -0.816147       -22.2085
 146   2.0000      -0.803294       -21.8587
 147   2.0000      -0.785996       -21.3880
 148   2.0000      -0.766306       -20.8522
 149   2.0000      -0.759648       -20.6711
 150   2.0000      -0.757444       -20.6111
 151   2.0000      -0.756385       -20.5823
 152   2.0000      -0.750298       -20.4166
 153   2.0000      -0.746390       -20.3103
 154   2.0000      -0.734809       -19.9952
 155   2.0000      -0.724972       -19.7275
 156   2.0000      -0.715071       -19.4581
 157   2.0000      -0.711969       -19.3737
 158   2.0000      -0.709239       -19.2994
 159   2.0000      -0.708382       -19.2761
 160   2.0000      -0.698709       -19.0129
 161   2.0000      -0.686146       -18.6710
 162   2.0000      -0.684647       -18.6302
 163   2.0000      -0.677753       -18.4426
 164   2.0000      -0.677511       -18.4360
 165   2.0000      -0.666853       -18.1460
 166   2.0000      -0.659603       -17.9487
 167   2.0000      -0.651734       -17.7346
 168   2.0000      -0.647986       -17.6326
 169   2.0000      -0.644938       -17.5497
 170   2.0000      -0.641406       -17.4536
 171   2.0000      -0.635832       -17.3019
 172   2.0000      -0.634387       -17.2625
 173   2.0000      -0.630020       -17.1437
 174   2.0000      -0.629457       -17.1284
 175   2.0000      -0.624669       -16.9981
 176   2.0000      -0.614082       -16.7100
 177   2.0000      -0.609024       -16.5724
 178   2.0000      -0.608373       -16.5547
 179   2.0000      -0.599622       -16.3166
 180   2.0000      -0.596939       -16.2435
 181   2.0000      -0.588447       -16.0125
 182   2.0000      -0.580774       -15.8037
 183   2.0000      -0.580349       -15.7921
 184   2.0000      -0.579192       -15.7606
 185   2.0000      -0.576059       -15.6754
 186   2.0000      -0.574254       -15.6263
 187   2.0000      -0.569436       -15.4952
 188   2.0000      -0.568957       -15.4821
 189   2.0000      -0.563113       -15.3231
 190   2.0000      -0.559514       -15.2252
 191   2.0000      -0.552850       -15.0438
 192   2.0000      -0.548510       -14.9257
 193   2.0000      -0.547772       -14.9056
 194   2.0000      -0.547474       -14.8975
 195   2.0000      -0.544023       -14.8036
 196   2.0000      -0.542652       -14.7663
 197   2.0000      -0.540971       -14.7206
 198   2.0000      -0.537943       -14.6382
 199   2.0000      -0.535847       -14.5811
 200   2.0000      -0.535290       -14.5660
 201   2.0000      -0.532371       -14.4865
 202   2.0000      -0.530458       -14.4345
 203   2.0000      -0.528779       -14.3888
 204   2.0000      -0.525778       -14.3071
 205   2.0000      -0.522892       -14.2286
 206   2.0000      -0.521714       -14.1966
 207   2.0000      -0.520282       -14.1576
 208   2.0000      -0.517851       -14.0914
 209   2.0000      -0.515982       -14.0406
 210   2.0000      -0.515246       -14.0205
 211   2.0000      -0.511644       -13.9225
 212   2.0000      -0.508659       -13.8413
 213   2.0000      -0.506266       -13.7762
 214   2.0000      -0.505006       -13.7419
 215   2.0000      -0.502659       -13.6780
 216   2.0000      -0.501733       -13.6529
 217   2.0000      -0.501147       -13.6369
 218   2.0000      -0.496948       -13.5226
 219   2.0000      -0.494466       -13.4551
 220   2.0000      -0.492651       -13.4057
 221   2.0000      -0.488677       -13.2976
 222   2.0000      -0.487734       -13.2719
 223   2.0000      -0.487244       -13.2586
 224   2.0000      -0.484535       -13.1849
 225   2.0000      -0.481909       -13.1134
 226   2.0000      -0.479979       -13.0609
 227   2.0000      -0.477432       -12.9916
 228   2.0000      -0.474222       -12.9042
 229   2.0000      -0.472657       -12.8616
 230   2.0000      -0.462224       -12.5778
 231   2.0000      -0.458846       -12.4858
 232   2.0000      -0.457173       -12.4403
 233   2.0000      -0.455227       -12.3874
 234   2.0000      -0.453119       -12.3300
 235   2.0000      -0.452189       -12.3047
 236   2.0000      -0.449608       -12.2345
 237   2.0000      -0.444752       -12.1023
 238   2.0000      -0.442998       -12.0546
 239   2.0000      -0.441461       -12.0128
 240   2.0000      -0.439972       -11.9723
 241   2.0000      -0.435717       -11.8565
 242   2.0000      -0.434041       -11.8108
 243   2.0000      -0.433852       -11.8057
 244   2.0000      -0.432835       -11.7780
 245   2.0000      -0.431369       -11.7382
 246   2.0000      -0.429109       -11.6767
 247   2.0000      -0.426660       -11.6100
 248   2.0000      -0.424370       -11.5477
 249   2.0000      -0.422055       -11.4847
 250   2.0000      -0.419739       -11.4217
 251   2.0000      -0.418741       -11.3945
 252   2.0000      -0.416875       -11.3437
 253   2.0000      -0.413764       -11.2591
 254   2.0000      -0.413013       -11.2387
 255   2.0000      -0.411076       -11.1859
 256   2.0000      -0.404430       -11.0051
 257   2.0000      -0.399645       -10.8749
 258   2.0000      -0.396950       -10.8016
 259   2.0000      -0.393716       -10.7136
 260   2.0000      -0.391748       -10.6600
 261   2.0000      -0.386828       -10.5261
 262   2.0000      -0.383145       -10.4259
 263   2.0000      -0.377184       -10.2637
 264   2.0000      -0.373917       -10.1748
 265   2.0000      -0.370006       -10.0684
 266   2.0000      -0.364856        -9.9282
 267   2.0000      -0.361177        -9.8281
 268   2.0000      -0.352570        -9.5939
 269   2.0000      -0.343306        -9.3418
 270   2.0000      -0.336210        -9.1487
 271   2.0000      -0.330875        -9.0036
 272   2.0000      -0.329181        -8.9575
 273   2.0000      -0.326606        -8.8874
 274   2.0000      -0.320602        -8.7240
 275   2.0000      -0.307633        -8.3711
 276   2.0000      -0.304230        -8.2785
 277   2.0000      -0.296383        -8.0650
 278   2.0000      -0.291490        -7.9318
 279   2.0000      -0.285141        -7.7591
 280   2.0000      -0.278650        -7.5824
 281   2.0000      -0.274212        -7.4617
 282   2.0000      -0.266323        -7.2470
 283   2.0000      -0.223565        -6.0835
 284   0.0000      -0.115762        -3.1500
 285   0.0000      -0.085814        -2.3351
 286   0.0000      -0.066399        -1.8068
 287   0.0000      -0.054584        -1.4853
 288   0.0000      -0.051758        -1.4084

MULLIKEN ATOMIC CHARGES
-----------------------
   0 C :   -0.115491
   1 C :    0.275837
   2 F :   -0.172095
   3 C :    0.230607
   4 F :   -0.173362
   5 C :   -0.111303
   6 C :    0.112256
   7 C :    0.123075
   8 C :   -0.093578
   9 C :    0.046181
  10 C :    0.023808
  11 C :   -0.126127
  12 C :    0.161777
  13 O :   -0.221126
  14 C :   -0.101716
  15 C :    0.330255
  16 C :   -0.361655
  17 C :   -0.195219
  18 N :    0.139867
  19 C :   -0.186522
  20 N :    0.142305
  21 C :   -0.044079
  22 C :   -0.066054
  23 C :   -0.015345
  24 C :   -0.016095
  25 S :   -0.012192
  26 C :   -0.049631
  27 C :   -0.042972
  28 S :    0.024727
  29 C :   -0.070186
  30 S :    0.150271
  31 C :   -0.024194
  32 C :   -0.023958
  33 C :    0.031900
  34 C :    0.042770
  35 C :   -0.035625
  36 S :    0.089070
  37 C :   -0.041937
  38 C :    0.035664
  39 C :    0.035417
  40 C :   -0.014402
  41 S :    0.106612
  42 C :    0.010466
  43 C :   -0.088374
  44 C :   -0.077796
  45 C :    0.001520
  46 S :    0.043023
  47 C :   -0.019626
  48 C :   -0.071183
  49 S :    0.013653
  50 C :   -0.129078
  51 S :    0.139093
  52 C :    0.064729
  53 C :   -0.145884
  54 C :    0.135439
  55 O :   -0.145074
  56 C :    0.014665
  57 C :   -0.083739
  58 C :    0.109710
  59 C :    0.115967
  60 C :   -0.110290
  61 C :    0.242478
  62 C :    0.236163
  63 C :   -0.104390
  64 F :   -0.175403
  65 F :   -0.173682
  66 C :   -0.098200
  67 C :    0.046657
  68 C :    0.311392
  69 C :   -0.346239
  70 C :   -0.195736
  71 N :    0.157759
  72 C :   -0.152619
  73 N :    0.118186
  74 H :    0.001365
  75 H :    0.007079
  76 H :   -0.008168
  77 H :   -0.018300
  78 H :    0.027442
  79 H :    0.063003
  80 H :    0.076996
  81 H :    0.075948
  82 H :    0.068804
  83 H :    0.001560
  84 H :   -0.005267
  85 H :   -0.006565
  86 H :   -0.007334
  87 H :   -0.002920
  88 H :   -0.004937
  89 H :    0.070074
  90 H :    0.085981
  91 H :    0.060242
  92 H :    0.082384
  93 H :    0.023018
  94 H :   -0.012281
  95 H :    0.003385
  96 H :   -0.002141
  97 H :   -0.010490
Sum of atomic charges:   -0.0000000

LOEWDIN ATOMIC CHARGES
----------------------
   0 C :   -0.029423
   1 C :    0.075489
   2 F :   -0.047871
   3 C :    0.069913
   4 F :   -0.047732
   5 C :   -0.036171
   6 C :   -0.012920
   7 C :   -0.004776
   8 C :    0.016695
   9 C :   -0.024334
  10 C :   -0.059727
  11 C :    0.014728
  12 C :    0.085837
  13 O :   -0.189130
  14 C :   -0.119741
  15 C :    0.075033
  16 C :   -0.152364
  17 C :   -0.024764
  18 N :   -0.059834
  19 C :   -0.017777
  20 N :   -0.063602
  21 C :    0.041179
  22 C :   -0.209713
  23 C :   -0.175429
  24 C :   -0.220985
  25 S :    0.293038
  26 C :   -0.140537
  27 C :   -0.140913
  28 S :    0.339455
  29 C :   -0.170888
  30 S :    0.490924
  31 C :   -0.084822
  32 C :   -0.134748
  33 C :   -0.030513
  34 C :   -0.025820
  35 C :   -0.178340
  36 S :    0.401678
  37 C :   -0.168599
  38 C :   -0.035241
  39 C :   -0.018887
  40 C :   -0.143093
  41 S :    0.408324
  42 C :   -0.076024
  43 C :   -0.159201
  44 C :   -0.231087
  45 C :   -0.168222
  46 S :    0.394678
  47 C :   -0.135985
  48 C :   -0.137439
  49 S :    0.341380
  50 C :   -0.198276
  51 S :    0.438663
  52 C :    0.029520
  53 C :   -0.102685
  54 C :    0.084510
  55 O :   -0.144717
  56 C :   -0.054961
  57 C :    0.029640
  58 C :   -0.012593
  59 C :   -0.005532
  60 C :   -0.032362
  61 C :    0.066207
  62 C :    0.064233
  63 C :   -0.033253
  64 F :   -0.052601
  65 F :   -0.051070
  66 C :    0.004687
  67 C :   -0.015501
  68 C :    0.046162
  69 C :   -0.155403
  70 C :   -0.017593
  71 N :   -0.058403
  72 C :   -0.012013
  73 N :   -0.066955
  74 H :    0.045442
  75 H :    0.043926
  76 H :    0.039481
  77 H :    0.024756
  78 H :    0.039170
  79 H :    0.035409
  80 H :    0.029611
  81 H :    0.029667
  82 H :    0.037818
  83 H :    0.033572
  84 H :    0.036185
  85 H :    0.035280
  86 H :    0.034004
  87 H :    0.036221
  88 H :    0.037514
  89 H :    0.038484
  90 H :    0.030748
  91 H :    0.025627
  92 H :    0.033116
  93 H :    0.044972
  94 H :    0.039513
  95 H :    0.046204
  96 H :    0.044047
  97 H :    0.037834

  Mayer bond orders larger than 0.100000
B(  0-C ,  1-C ) :   1.4368 B(  0-C ,  5-C ) :   0.1051 B(  0-C ,  7-C ) :   1.1966
B(  0-C , 74-H ) :   1.0044 B(  1-C ,  2-F ) :   1.1371 B(  1-C ,  3-C ) :   1.1957
B(  3-C ,  4-F ) :   1.1273 B(  3-C ,  5-C ) :   1.4373 B(  5-C ,  6-C ) :   1.1896
B(  5-C , 75-H ) :   1.0039 B(  6-C ,  7-C ) :   1.2595 B(  6-C , 11-C ) :   1.1817
B(  7-C ,  8-C ) :   1.2036 B(  8-C ,  9-C ) :   1.4582 B(  8-C , 76-H ) :   0.9882
B(  9-C , 10-C ) :   1.2228 B(  9-C , 15-C ) :   0.9743 B( 10-C , 11-C ) :   1.4429
B( 10-C , 12-C ) :   0.9636 B( 11-C , 77-H ) :   1.0137 B( 12-C , 13-O ) :   1.9900
B( 12-C , 14-C ) :   1.0177 B( 14-C , 15-C ) :   1.1053 B( 14-C , 21-C ) :   1.4408
B( 15-C , 16-C ) :   1.5961 B( 16-C , 17-C ) :   1.1479 B( 16-C , 19-C ) :   1.1543
B( 17-C , 18-N ) :   2.9611 B( 19-C , 20-N ) :   2.9582 B( 21-C , 22-C ) :   1.3503
B( 21-C , 78-H ) :   0.9248 B( 22-C , 23-C ) :   1.3494 B( 22-C , 30-S ) :   1.0661
B( 23-C , 24-C ) :   1.4282 B( 23-C , 28-S ) :   1.0486 B( 24-C , 25-S ) :   1.0018
B( 24-C , 29-C ) :   1.3866 B( 25-S , 26-C ) :   1.0163 B( 26-C , 27-C ) :   1.0142
B( 26-C , 79-H ) :   0.9467 B( 26-C , 80-H ) :   0.9495 B( 27-C , 28-S ) :   1.0162
B( 27-C , 81-H ) :   0.9494 B( 27-C , 82-H ) :   0.9464 B( 29-C , 30-S ) :   1.0878
B( 29-C , 31-C ) :   1.2547 B( 31-C , 32-C ) :   1.5094 B( 31-C , 83-H ) :   0.9598
B( 32-C , 33-C ) :   1.1665 B( 32-C , 36-S ) :   1.0714 B( 33-C , 34-C ) :   1.5635
B( 33-C , 84-H ) :   0.9992 B( 34-C , 35-C ) :   1.2025 B( 34-C , 85-H ) :   0.9958
B( 35-C , 36-S ) :   1.0429 B( 35-C , 37-C ) :   1.4725 B( 37-C , 38-C ) :   1.1901
B( 37-C , 41-S ) :   1.0568 B( 38-C , 39-C ) :   1.5864 B( 38-C , 86-H ) :   0.9945
B( 39-C , 40-C ) :   1.1477 B( 39-C , 87-H ) :   0.9978 B( 40-C , 41-S ) :   1.0627
B( 40-C , 42-C ) :   1.5748 B( 42-C , 43-C ) :   1.1818 B( 42-C , 88-H ) :   0.9421
B( 43-C , 44-C ) :   1.4935 B( 43-C , 51-S ) :   1.1116 B( 44-C , 45-C ) :   1.2457
B( 44-C , 49-S ) :   1.0345 B( 45-C , 46-S ) :   1.1080 B( 45-C , 50-C ) :   1.4251
B( 46-S , 47-C ) :   0.9879 B( 47-C , 48-C ) :   1.0379 B( 47-C , 89-H ) :   0.9380
B( 47-C , 90-H ) :   0.9338 B( 48-C , 49-S ) :   0.9883 B( 48-C , 91-H ) :   0.9419
B( 48-C , 92-H ) :   0.9194 B( 50-C , 51-S ) :   1.0862 B( 50-C , 52-C ) :   1.2374
B( 52-C , 53-C ) :   1.5589 B( 52-C , 93-H ) :   0.9197 B( 53-C , 54-C ) :   0.9450
B( 53-C , 68-C ) :   1.1100 B( 54-C , 55-O ) :   2.2618 B( 54-C , 56-C ) :   0.9160
B( 56-C , 57-C ) :   1.4802 B( 56-C , 67-C ) :   1.2165 B( 57-C , 58-C ) :   1.1859
B( 57-C , 94-H ) :   1.0159 B( 58-C , 59-C ) :   1.2625 B( 58-C , 63-C ) :   1.1944
B( 59-C , 60-C ) :   1.1941 B( 59-C , 66-C ) :   1.2044 B( 60-C , 61-C ) :   1.4352
B( 60-C , 63-C ) :   0.1093 B( 60-C , 95-H ) :   1.0068 B( 61-C , 62-C ) :   1.1981
B( 61-C , 65-F ) :   1.1319 B( 62-C , 63-C ) :   1.4397 B( 62-C , 64-F ) :   1.1288
B( 63-C , 96-H ) :   1.0065 B( 66-C , 67-C ) :   1.4646 B( 66-C , 97-H ) :   0.9931
B( 67-C , 68-C ) :   1.0023 B( 68-C , 69-C ) :   1.5543 B( 69-C , 70-C ) :   1.1965
B( 69-C , 72-C ) :   1.1429 B( 70-C , 71-N ) :   2.9224 B( 72-C , 73-N ) :   2.9212

-----------------------------------------------------------------------------
         ABSORPTION SPECTRUM VIA TRANSITION ELECTRIC DIPOLE MOMENTS
-----------------------------------------------------------------------------
State   Energy  Wavelength   fosc         T2         TX        TY        TZ
        (cm-1)    (nm)                  (au**2)     (au)      (au)      (au)
-----------------------------------------------------------------------------
   0    9209.1   1085.9   0.472505742  16.89137   3.03643  -2.73349   0.44667
   1   16378.2    610.6   0.397288969   7.98575   2.09099   1.82006   0.54854
   2   18714.6    534.3   1.079553789  18.99061  -3.18356  -2.84129  -0.88467
   3   19332.3    517.3   0.090900756   1.54796  -1.01228   0.57678  -0.43654
   4   19907.2    502.3   0.052582379   0.86957   0.51268   0.72116  -0.29438
   5   20924.5    477.9   0.374104506   5.88590  -2.03179  -1.06109  -0.79485
   6   22046.1    453.6   0.419234071   6.26039  -2.26082   0.12367  -1.06478
   7   22598.0    442.5   0.003123933   0.04551  -0.05359  -0.05194  -0.19985
   8   23769.0    420.7   0.063896075   0.88499  -0.81118  -0.15305  -0.45117
   9   24951.3    400.8   0.081699831   1.07796  -0.41025   0.82014  -0.48686
  10   25140.5    397.8   0.029781628   0.38999   0.41958   0.00129  -0.46254
  11   25682.5    389.4   0.063736718   0.81701   0.25262   0.81905  -0.28695
  12   25846.7    386.9   0.113947639   1.45136  -0.81487   0.67109  -0.58051
  13   26479.4    377.7   0.001928421   0.02398   0.11179  -0.02395  -0.10443
  14   26973.8    370.7   0.024912470   0.30405   0.24756  -0.40341   0.28290
  15   27197.3    367.7   0.004953855   0.05996   0.11849   0.16850  -0.13241
  16   27905.7    358.3   0.085226467   1.00544  -0.54654  -0.79863  -0.26253
  17   28154.1    355.2   0.057330254   0.67038   0.43899   0.59851  -0.34561
  18   28444.3    351.6   0.028367934   0.32833   0.13182   0.55325  -0.06974
  19   28767.0    347.6   0.013730761   0.15714   0.27668  -0.01057   0.28368
  20   29380.3    340.4   0.008186083   0.09173  -0.25829   0.11800  -0.10531
  21   29636.0    337.4   0.122740788   1.36347  -1.12633   0.27892  -0.13056
  22   29881.6    334.7   0.046294870   0.51004  -0.43390   0.38830  -0.41352
  23   30080.6    332.4   0.077998384   0.85364  -0.86453  -0.27769   0.17065
  24   30402.7    328.9   0.108156555   1.17116  -0.11275  -0.85344   0.65581
  25   30617.8    326.6   0.195867219   2.10602   1.06409  -0.53472   0.82934
  26   31547.5    317.0   0.161015726   1.68027   0.18055  -1.05915   0.72516
  27   31720.1    315.3   0.020291584   0.21060   0.23470   0.14851   0.36532
  28   31786.2    314.6   0.050584533   0.52391  -0.60774  -0.05639   0.38908
  29   32021.5    312.3   0.019822497   0.20379   0.26457  -0.25565  -0.26161
  30   32092.7    311.6   0.027465116   0.28174  -0.45726  -0.08628   0.25536
  31   32630.2    306.5   0.044503428   0.44900   0.21331   0.52723   0.35430
  32   32964.3    303.4   0.358610943   3.58142  -1.78776  -0.42646  -0.45108
  33   32977.1    303.2   0.528614010   5.27718   1.69062  -1.12878   1.06998
  34   33365.0    299.7   0.222887224   2.19923   0.72601   0.59458  -1.14831
  35   33421.1    299.2   0.004446677   0.04380  -0.00586  -0.13557  -0.15934
  36   33543.7    298.1   0.019739966   0.19374  -0.16564   0.11402  -0.39153
  37   33808.7    295.8   0.029597368   0.28820  -0.07425  -0.31590   0.42767
  38   33827.0    295.6   0.024558064   0.23900  -0.39940   0.20779   0.19055
  39   33863.3    295.3   0.008032467   0.07809   0.25725   0.04073   0.10126
  40   34133.4    293.0   0.026896277   0.25941  -0.06972  -0.48897   0.12433
  41   34269.1    291.8   0.001061281   0.01020  -0.02053  -0.06217  -0.07687
  42   34382.9    290.8   0.002822626   0.02703  -0.04606   0.11698  -0.10592
  43   35143.9    284.5   0.006396392   0.05992   0.23193   0.07538   0.02110
  44   35188.3    284.2   0.073843841   0.69086   0.14951  -0.81013  -0.11043
  45   35505.3    281.6   0.054593319   0.50620   0.31178   0.57418  -0.28161
  46   35891.8    278.6   0.063166173   0.57938  -0.53628  -0.42529   0.33303
  47   35956.7    278.1   0.263501934   2.41256   1.40181   0.01876  -0.66868
  48   36413.8    274.6   0.253975623   2.29616   0.30489  -1.38647   0.53001
  49   36886.4    271.1   0.036804682   0.32848  -0.53821   0.09780  -0.17103
  50   36928.8    270.8   0.060195956   0.53663  -0.62862   0.36448   0.09290
  51   37497.3    266.7   0.197105307   1.73051   0.88506   0.89940  -0.37182
  52   37885.1    264.0   0.022319229   0.19395   0.02528  -0.42111   0.12639
  53   37986.5    263.3   0.133583457   1.15771   0.69285   0.51377   0.64320
  54   38294.6    261.1   0.002932024   0.02521   0.14369   0.06368   0.02247
  55   38424.0    260.3   0.013473856   0.11544   0.05367  -0.06951   0.32822
  56   38543.9    259.4   0.164697379   1.40672  -0.80846  -0.47026  -0.72936
  57   38772.4    257.9   0.014211178   0.12067   0.14846   0.31315  -0.02380
  58   38875.0    257.2   0.065469214   0.55442  -0.32298   0.63854  -0.20585
  59   39002.8    256.4   0.088849352   0.74995  -0.59040   0.29567  -0.56032
  60   39439.0    253.6   0.013711430   0.11445  -0.08104  -0.30466  -0.12274
  61   39678.7    252.0   0.011550098   0.09583  -0.30046   0.07432   0.00533
  62   39733.7    251.7   0.016393749   0.13583  -0.03697  -0.08784  -0.35601
  63   39819.2    251.1   0.018644254   0.15414  -0.03226   0.22824  -0.31782
  64   40058.7    249.6   0.012162107   0.09995  -0.19653  -0.24252  -0.05013

FINAL SINGLE POINT ENERGY     -6098.061461158373

DIPOLE MOMENT
-------------
                                X             Y             Z
Electronic contribution:     49.42366      17.61672      17.74546
Nuclear contribution   :    -52.35213     -21.66084     -19.63405
                        -----------------------------------------
Total Dipole Moment    :     -2.92847      -4.04413      -1.88859
                        -----------------------------------------
Magnitude (a.u.)       :      5.33832
Magnitude (Debye)      :     13.56893

Rotational constants in cm-1:     0.001056     0.000468     0.000377
Rotational constants in MHz :    31.658705    14.035746    11.308302

                             ****ORCA TERMINATED NORMALLY****
TOTAL RUN TIME: 0 days 0 hours 12 minutes 57 seconds 128 msec
