                         Program Version 4.2.0 -  RELEASE  -
|  1> # ORCA input file
|  2> # SCF done       -203.170162003198          0.000337791242
|  3> ! CAM-B3LYP def2-SVP def2/J RIJCOSX Grid4 TightSCF
|  4> %maxcore 5000
|  5> %tddft
|  6>     Mode sTDDFT
|  7>     Ethresh 5.0
|  8>     maxcore 5000
|  9> end
| 10>
| 11> %pal
| 12>   nprocs 6
| 13>   end
| 14> * xyz 0 1
| 15>    C      -10.10486        -0.33257        -6.13649
| 16>    C       -9.44202        -0.78295        -7.24286
| 17>    F       -8.92093         0.08881        -8.11581
| 18>    C       -9.30571        -2.16531        -7.48583
| 19>    F       -8.65877        -2.56875        -8.58531
| 20>    C       -9.82530        -3.08216        -6.61517
| 21>    C      -10.50110        -2.64759        -5.45775
| 22>    C      -10.65110        -1.25001        -5.21733
| 23>    C      -11.34002        -0.79238        -4.07314
| 24>    C      -11.83782        -1.70329        -3.17906
| 25>    C      -11.64741        -3.09699        -3.40111
| 26>    C      -11.01798        -3.56761        -4.51937
| 27>    C      -12.18412        -3.84805        -2.25266
| 28>    O      -12.36409        -5.04498        -2.17714
| 29>    C      -12.56614        -2.81059        -1.24704
| 30>    C      -12.54674        -1.51937        -1.91852
| 31>    C      -13.08267        -0.34343        -1.46879
| 32>    C      -13.79882        -0.18776        -0.26300
| 33>    N      -14.39045         0.00427         0.70198
| 34>    C      -13.02928         0.87053        -2.18785
| 35>    N      -13.02551         1.88497        -2.72387
| 36>    C      -12.82797        -3.02865         0.07027
| 37>    C      -12.53735        -4.21037         0.80971
| 38>    C      -13.29563        -4.71402         1.83074
| 39>    C      -12.74161        -5.98300         2.22894
| 40>    C      -13.23055        -6.77331         3.27812
| 41>    N      -13.63123        -7.42076         4.13684
| 42>    C      -11.65907        -6.27406         1.42994
| 43>    C      -11.44601        -5.17512         0.54657
| 44>    C      -10.38633        -4.95513        -0.30348
| 45>    C       -9.65931        -5.96240        -1.11042
| 46>    C       -8.85783        -5.26973        -1.98340
| 47>    C       -8.99386        -3.86207        -1.72992
| 48>    C       -9.91702        -3.67287        -0.72699
| 49>    C       -8.36680        -2.85024        -2.46781
| 50>    N       -7.90171        -2.01995        -3.11022
| 51>    C       -9.95104        -7.35425        -1.11907
| 52>    C       -9.46014        -8.21935        -2.03924
| 53>    C       -9.73928        -9.61870        -2.07561
| 54>    C       -9.86735       -10.45997        -1.00688
| 55>    C       -9.85829       -11.82026        -1.49129
| 56>    C       -9.91417       -12.96310        -0.68232
| 57>    N       -9.97303       -13.90645        -0.03074
| 58>    C       -9.76200       -11.81468        -2.85966
| 59>    C       -9.80017       -10.44994        -3.30180
| 60>    C      -10.04767        -9.96613        -4.56342
| 61>    C      -10.03557       -10.71063        -5.84929
| 62>    C       -9.87365        -9.78681        -6.84768
| 63>    C       -9.96887        -8.47067        -6.27530
| 64>    C      -10.11598        -8.57896        -4.91399
| 65>    C       -9.94953        -7.25400        -6.96640
| 66>    N       -9.93283        -6.22845        -7.48262
| 67>    C      -10.25656       -12.09716        -6.08083
| 68>    C      -11.09677       -12.86924        -5.34594
| 69>    C      -11.36293       -14.24960        -5.56067
| 70>    C      -12.28326       -14.92244        -4.78243
| 71>    C      -12.59341       -16.27176        -4.90161
| 72>    C      -11.93982       -17.11525        -5.90405
| 73>    C      -11.00654       -16.67077        -6.77492
| 74>    S      -10.44729       -15.05316        -6.82736
| 75>    C      -12.49848       -18.40968        -5.72606
| 76>    C      -13.43829       -18.39039        -4.68700
| 77>    C      -14.00555       -19.67130        -4.48400
| 78>    C      -13.49815       -20.59058        -5.34486
| 79>    S      -12.31538       -19.95785        -6.43851
| 80>    C      -13.51127       -17.05368        -4.16065
| 81>    C      -14.31947       -16.53770        -3.11750
| 82>    C      -15.22273       -17.24850        -2.40148
| 83>    C      -16.06955       -16.76267        -1.34309
| 84>    C      -16.16620       -15.43193        -0.90368
| 85>    F      -15.43405       -14.46434        -1.48080
| 86>    C      -17.02163       -15.06495         0.12501
| 87>    F      -17.07914       -13.78157         0.50160
| 88>    C      -17.82063       -15.99318         0.76821
| 89>    C      -17.74673       -17.31182         0.35251
| 90>    C      -16.89687       -17.68527        -0.67450
| 91>    F      -16.85886       -18.97539        -1.04821
| 92>    F      -18.51077       -18.23231         0.95287
| 93>    H      -10.20535         0.72799        -5.96723
| 94>    H       -9.72398        -4.13644        -6.82887
| 95>    H      -11.44388         0.27007        -3.92254
| 96>    H      -10.89851        -4.62831        -4.68219
| 97>    H      -13.28233        -2.23198         0.64746
| 98>    H      -14.19224        -4.28518         2.23799
| 99>    H      -10.99248        -7.10321         1.57329
|100>    H       -8.22277        -5.67186        -2.74991
|101>    H      -10.16383        -2.73492        -0.26773
|102>    H      -10.67284        -7.72022        -0.40644
|103>    H       -8.77675        -7.85723        -2.79462
|104>    H       -9.86632       -10.19176         0.03276
|105>    H       -9.68032       -12.68245        -3.48228
|106>    H       -9.79270        -9.98882        -7.89933
|107>    H      -10.27682        -7.76410        -4.23712
|108>    H       -9.81082       -12.50897        -6.97858
|109>    H      -11.65039       -12.41487        -4.53440
|110>    H      -12.78761       -14.33821        -4.02452
|111>    H      -10.53902       -17.31333        -7.50419
|112>    H      -14.74585       -19.92572        -3.74863
|113>    H      -13.74807       -21.63135        -5.41122
|114>    H      -14.17521       -15.49055        -2.90632
|115>    H      -15.34512       -18.29751        -2.61781
|116>    H      -18.48063       -15.69845         1.56621
|117> *
|118>
|119>                          ****END OF INPUT****

CARTESIAN COORDINATES (ANGSTROEM)
---------------------------------
  C    -10.104860   -0.332570   -6.136490
  C     -9.442020   -0.782950   -7.242860
  F     -8.920930    0.088810   -8.115810
  C     -9.305710   -2.165310   -7.485830
  F     -8.658770   -2.568750   -8.585310
  C     -9.825300   -3.082160   -6.615170
  C    -10.501100   -2.647590   -5.457750
  C    -10.651100   -1.250010   -5.217330
  C    -11.340020   -0.792380   -4.073140
  C    -11.837820   -1.703290   -3.179060
  C    -11.647410   -3.096990   -3.401110
  C    -11.017980   -3.567610   -4.519370
  C    -12.184120   -3.848050   -2.252660
  O    -12.364090   -5.044980   -2.177140
  C    -12.566140   -2.810590   -1.247040
  C    -12.546740   -1.519370   -1.918520
  C    -13.082670   -0.343430   -1.468790
  C    -13.798820   -0.187760   -0.263000
  N    -14.390450    0.004270    0.701980
  C    -13.029280    0.870530   -2.187850
  N    -13.025510    1.884970   -2.723870
  C    -12.827970   -3.028650    0.070270
  C    -12.537350   -4.210370    0.809710
  C    -13.295630   -4.714020    1.830740
  C    -12.741610   -5.983000    2.228940
  C    -13.230550   -6.773310    3.278120
  N    -13.631230   -7.420760    4.136840
  C    -11.659070   -6.274060    1.429940
  C    -11.446010   -5.175120    0.546570
  C    -10.386330   -4.955130   -0.303480
  C     -9.659310   -5.962400   -1.110420
  C     -8.857830   -5.269730   -1.983400
  C     -8.993860   -3.862070   -1.729920
  C     -9.917020   -3.672870   -0.726990
  C     -8.366800   -2.850240   -2.467810
  N     -7.901710   -2.019950   -3.110220
  C     -9.951040   -7.354250   -1.119070
  C     -9.460140   -8.219350   -2.039240
  C     -9.739280   -9.618700   -2.075610
  C     -9.867350  -10.459970   -1.006880
  C     -9.858290  -11.820260   -1.491290
  C     -9.914170  -12.963100   -0.682320
  N     -9.973030  -13.906450   -0.030740
  C     -9.762000  -11.814680   -2.859660
  C     -9.800170  -10.449940   -3.301800
  C    -10.047670   -9.966130   -4.563420
  C    -10.035570  -10.710630   -5.849290
  C     -9.873650   -9.786810   -6.847680
  C     -9.968870   -8.470670   -6.275300
  C    -10.115980   -8.578960   -4.913990
  C     -9.949530   -7.254000   -6.966400
  N     -9.932830   -6.228450   -7.482620
  C    -10.256560  -12.097160   -6.080830
  C    -11.096770  -12.869240   -5.345940
  C    -11.362930  -14.249600   -5.560670
  C    -12.283260  -14.922440   -4.782430
  C    -12.593410  -16.271760   -4.901610
  C    -11.939820  -17.115250   -5.904050
  C    -11.006540  -16.670770   -6.774920
  S    -10.447290  -15.053160   -6.827360
  C    -12.498480  -18.409680   -5.726060
  C    -13.438290  -18.390390   -4.687000
  C    -14.005550  -19.671300   -4.484000
  C    -13.498150  -20.590580   -5.344860
  S    -12.315380  -19.957850   -6.438510
  C    -13.511270  -17.053680   -4.160650
  C    -14.319470  -16.537700   -3.117500
  C    -15.222730  -17.248500   -2.401480
  C    -16.069550  -16.762670   -1.343090
  C    -16.166200  -15.431930   -0.903680
  F    -15.434050  -14.464340   -1.480800
  C    -17.021630  -15.064950    0.125010
  F    -17.079140  -13.781570    0.501600
  C    -17.820630  -15.993180    0.768210
  C    -17.746730  -17.311820    0.352510
  C    -16.896870  -17.685270   -0.674500
  F    -16.858860  -18.975390   -1.048210
  F    -18.510770  -18.232310    0.952870
  H    -10.205350    0.727990   -5.967230
  H     -9.723980   -4.136440   -6.828870
  H    -11.443880    0.270070   -3.922540
  H    -10.898510   -4.628310   -4.682190
  H    -13.282330   -2.231980    0.647460
  H    -14.192240   -4.285180    2.237990
  H    -10.992480   -7.103210    1.573290
  H     -8.222770   -5.671860   -2.749910
  H    -10.163830   -2.734920   -0.267730
  H    -10.672840   -7.720220   -0.406440
  H     -8.776750   -7.857230   -2.794620
  H     -9.866320  -10.191760    0.032760
  H     -9.680320  -12.682450   -3.482280
  H     -9.792700   -9.988820   -7.899330
  H    -10.276820   -7.764100   -4.237120
  H     -9.810820  -12.508970   -6.978580
  H    -11.650390  -12.414870   -4.534400
  H    -12.787610  -14.338210   -4.024520
  H    -10.539020  -17.313330   -7.504190
  H    -14.745850  -19.925720   -3.748630
  H    -13.748070  -21.631350   -5.411220
  H    -14.175210  -15.490550   -2.906320
  H    -15.345120  -18.297510   -2.617810
  H    -18.480630  -15.698450    1.566210

 Total Charge           Charge          ....    0
 Multiplicity           Mult            ....    1
 Number of Electrons    NEL             ....  538
 Basis Dimension        Dim             .... 1220

ORBITAL ENERGIES
----------------

  NO   OCC          E(Eh)            E(eV)
   0   2.0000     -88.982620     -2421.3402
   1   2.0000     -88.963596     -2420.8225
   2   2.0000     -24.799841      -674.8380
   3   2.0000     -24.796147      -674.7375
   4   2.0000     -24.792731      -674.6445
   5   2.0000     -24.791805      -674.6193
   6   2.0000     -24.791635      -674.6147
   7   2.0000     -24.789876      -674.5668
   8   2.0000     -19.229531      -523.2621
   9   2.0000     -14.433738      -392.7620
  10   2.0000     -14.427305      -392.5869
  11   2.0000     -14.426479      -392.5645
  12   2.0000     -14.425981      -392.5509
  13   2.0000     -14.422192      -392.4478
  14   2.0000     -14.420451      -392.4004
  15   2.0000     -10.382300      -282.5167
  16   2.0000     -10.375840      -282.3410
  17   2.0000     -10.374145      -282.2948
  18   2.0000     -10.374032      -282.2918
  19   2.0000     -10.374009      -282.2911
  20   2.0000     -10.373464      -282.2763
  21   2.0000     -10.371608      -282.2258
  22   2.0000     -10.353062      -281.7211
  23   2.0000     -10.351882      -281.6890
  24   2.0000     -10.343439      -281.4593
  25   2.0000     -10.342534      -281.4347
  26   2.0000     -10.341197      -281.3983
  27   2.0000     -10.339100      -281.3412
  28   2.0000     -10.337945      -281.3098
  29   2.0000     -10.337398      -281.2949
  30   2.0000     -10.337210      -281.2898
  31   2.0000     -10.336794      -281.2785
  32   2.0000     -10.334164      -281.2069
  33   2.0000     -10.333428      -281.1869
  34   2.0000     -10.332770      -281.1690
  35   2.0000     -10.330652      -281.1113
  36   2.0000     -10.328590      -281.0552
  37   2.0000     -10.324957      -280.9564
  38   2.0000     -10.324451      -280.9426
  39   2.0000     -10.323640      -280.9205
  40   2.0000     -10.321210      -280.8544
  41   2.0000     -10.320705      -280.8407
  42   2.0000     -10.319882      -280.8183
  43   2.0000     -10.318927      -280.7923
  44   2.0000     -10.318567      -280.7825
  45   2.0000     -10.317110      -280.7428
  46   2.0000     -10.313906      -280.6556
  47   2.0000     -10.312437      -280.6157
  48   2.0000     -10.311994      -280.6036
  49   2.0000     -10.311428      -280.5882
  50   2.0000     -10.310930      -280.5747
  51   2.0000     -10.310777      -280.5705
  52   2.0000     -10.309863      -280.5456
  53   2.0000     -10.309290      -280.5300
  54   2.0000     -10.308872      -280.5187
  55   2.0000     -10.308685      -280.5136
  56   2.0000     -10.308529      -280.5093
  57   2.0000     -10.307852      -280.4909
  58   2.0000     -10.307610      -280.4843
  59   2.0000     -10.307395      -280.4785
  60   2.0000     -10.306563      -280.4558
  61   2.0000     -10.305547      -280.4282
  62   2.0000     -10.305049      -280.4146
  63   2.0000     -10.304636      -280.4034
  64   2.0000     -10.304452      -280.3984
  65   2.0000     -10.302846      -280.3547
  66   2.0000     -10.302177      -280.3365
  67   2.0000     -10.298671      -280.2411
  68   2.0000     -10.297458      -280.2081
  69   2.0000     -10.296216      -280.1743
  70   2.0000     -10.294938      -280.1395
  71   2.0000     -10.293556      -280.1019
  72   2.0000     -10.288314      -279.9593
  73   2.0000     -10.286623      -279.9132
  74   2.0000     -10.285270      -279.8764
  75   2.0000     -10.284039      -279.8429
  76   2.0000     -10.282878      -279.8113
  77   2.0000     -10.281176      -279.7650
  78   2.0000      -8.078132      -219.8172
  79   2.0000      -8.059208      -219.3022
  80   2.0000      -6.047660      -164.5652
  81   2.0000      -6.043171      -164.4430
  82   2.0000      -6.040010      -164.3570
  83   2.0000      -6.028612      -164.0469
  84   2.0000      -6.024359      -163.9312
  85   2.0000      -6.021266      -163.8470
  86   2.0000      -1.319661       -35.9098
  87   2.0000      -1.316988       -35.8371
  88   2.0000      -1.314673       -35.7741
  89   2.0000      -1.302367       -35.4392
  90   2.0000      -1.301393       -35.4127
  91   2.0000      -1.299412       -35.3588
  92   2.0000      -1.145375       -31.1672
  93   2.0000      -1.033939       -28.1349
  94   2.0000      -1.028645       -27.9909
  95   2.0000      -1.027221       -27.9521
  96   2.0000      -1.018910       -27.7260
  97   2.0000      -1.017830       -27.6966
  98   2.0000      -1.014206       -27.5979
  99   2.0000      -1.008495       -27.4426
 100   2.0000      -1.004636       -27.3375
 101   2.0000      -1.003970       -27.3194
 102   2.0000      -1.002180       -27.2707
 103   2.0000      -0.995628       -27.0924
 104   2.0000      -0.991041       -26.9676
 105   2.0000      -0.982848       -26.7447
 106   2.0000      -0.982716       -26.7410
 107   2.0000      -0.982043       -26.7228
 108   2.0000      -0.940669       -25.5969
 109   2.0000      -0.935995       -25.4697
 110   2.0000      -0.926188       -25.2028
 111   2.0000      -0.922201       -25.0944
 112   2.0000      -0.918094       -24.9826
 113   2.0000      -0.903199       -24.5773
 114   2.0000      -0.897912       -24.4334
 115   2.0000      -0.893590       -24.3158
 116   2.0000      -0.890986       -24.2450
 117   2.0000      -0.888142       -24.1676
 118   2.0000      -0.886038       -24.1103
 119   2.0000      -0.862925       -23.4814
 120   2.0000      -0.862220       -23.4622
 121   2.0000      -0.847466       -23.0607
 122   2.0000      -0.844987       -22.9933
 123   2.0000      -0.843977       -22.9658
 124   2.0000      -0.839420       -22.8418
 125   2.0000      -0.834886       -22.7184
 126   2.0000      -0.820716       -22.3328
 127   2.0000      -0.814739       -22.1702
 128   2.0000      -0.810804       -22.0631
 129   2.0000      -0.805548       -21.9201
 130   2.0000      -0.798191       -21.7199
 131   2.0000      -0.791858       -21.5476
 132   2.0000      -0.772815       -21.0294
 133   2.0000      -0.761025       -20.7086
 134   2.0000      -0.755097       -20.5472
 135   2.0000      -0.742450       -20.2031
 136   2.0000      -0.739344       -20.1186
 137   2.0000      -0.738379       -20.0923
 138   2.0000      -0.733484       -19.9591
 139   2.0000      -0.725617       -19.7450
 140   2.0000      -0.720896       -19.6166
 141   2.0000      -0.720504       -19.6059
 142   2.0000      -0.710025       -19.3208
 143   2.0000      -0.706890       -19.2354
 144   2.0000      -0.694680       -18.9032
 145   2.0000      -0.688055       -18.7229
 146   2.0000      -0.686177       -18.6718
 147   2.0000      -0.676530       -18.4093
 148   2.0000      -0.668988       -18.2041
 149   2.0000      -0.665372       -18.1057
 150   2.0000      -0.663887       -18.0653
 151   2.0000      -0.656560       -17.8659
 152   2.0000      -0.654119       -17.7995
 153   2.0000      -0.653345       -17.7784
 154   2.0000      -0.652261       -17.7489
 155   2.0000      -0.643470       -17.5097
 156   2.0000      -0.641994       -17.4695
 157   2.0000      -0.640658       -17.4332
 158   2.0000      -0.632470       -17.2104
 159   2.0000      -0.630421       -17.1546
 160   2.0000      -0.626367       -17.0443
 161   2.0000      -0.624485       -16.9931
 162   2.0000      -0.614450       -16.7200
 163   2.0000      -0.612015       -16.6538
 164   2.0000      -0.611959       -16.6522
 165   2.0000      -0.608406       -16.5556
 166   2.0000      -0.603642       -16.4259
 167   2.0000      -0.595686       -16.2095
 168   2.0000      -0.591770       -16.1029
 169   2.0000      -0.586426       -15.9575
 170   2.0000      -0.581355       -15.8195
 171   2.0000      -0.578799       -15.7499
 172   2.0000      -0.570963       -15.5367
 173   2.0000      -0.570652       -15.5282
 174   2.0000      -0.570043       -15.5117
 175   2.0000      -0.568484       -15.4692
 176   2.0000      -0.567187       -15.4339
 177   2.0000      -0.562360       -15.3026
 178   2.0000      -0.559958       -15.2372
 179   2.0000      -0.553986       -15.0747
 180   2.0000      -0.553248       -15.0546
 181   2.0000      -0.550276       -14.9738
 182   2.0000      -0.549134       -14.9427
 183   2.0000      -0.547997       -14.9118
 184   2.0000      -0.546341       -14.8667
 185   2.0000      -0.543652       -14.7935
 186   2.0000      -0.540301       -14.7023
 187   2.0000      -0.539804       -14.6888
 188   2.0000      -0.535899       -14.5825
 189   2.0000      -0.533171       -14.5083
 190   2.0000      -0.530676       -14.4404
 191   2.0000      -0.528851       -14.3908
 192   2.0000      -0.527435       -14.3522
 193   2.0000      -0.525148       -14.2900
 194   2.0000      -0.523398       -14.2424
 195   2.0000      -0.522790       -14.2258
 196   2.0000      -0.520729       -14.1698
 197   2.0000      -0.518357       -14.1052
 198   2.0000      -0.518242       -14.1021
 199   2.0000      -0.517773       -14.0893
 200   2.0000      -0.514352       -13.9962
 201   2.0000      -0.512764       -13.9530
 202   2.0000      -0.511855       -13.9283
 203   2.0000      -0.510834       -13.9005
 204   2.0000      -0.509643       -13.8681
 205   2.0000      -0.508956       -13.8494
 206   2.0000      -0.507243       -13.8028
 207   2.0000      -0.501865       -13.6564
 208   2.0000      -0.499762       -13.5992
 209   2.0000      -0.499261       -13.5856
 210   2.0000      -0.492815       -13.4102
 211   2.0000      -0.489107       -13.3093
 212   2.0000      -0.487611       -13.2686
 213   2.0000      -0.485158       -13.2018
 214   2.0000      -0.477512       -12.9938
 215   2.0000      -0.476154       -12.9568
 216   2.0000      -0.470629       -12.8065
 217   2.0000      -0.469039       -12.7632
 218   2.0000      -0.466887       -12.7046
 219   2.0000      -0.464980       -12.6527
 220   2.0000      -0.463733       -12.6188
 221   2.0000      -0.461373       -12.5546
 222   2.0000      -0.460888       -12.5414
 223   2.0000      -0.457429       -12.4473
 224   2.0000      -0.456892       -12.4327
 225   2.0000      -0.455312       -12.3897
 226   2.0000      -0.454908       -12.3787
 227   2.0000      -0.453344       -12.3361
 228   2.0000      -0.452025       -12.3002
 229   2.0000      -0.450916       -12.2701
 230   2.0000      -0.447722       -12.1831
 231   2.0000      -0.446819       -12.1586
 232   2.0000      -0.444397       -12.0926
 233   2.0000      -0.442016       -12.0279
 234   2.0000      -0.439198       -11.9512
 235   2.0000      -0.436222       -11.8702
 236   2.0000      -0.435494       -11.8504
 237   2.0000      -0.433923       -11.8076
 238   2.0000      -0.431791       -11.7496
 239   2.0000      -0.431147       -11.7321
 240   2.0000      -0.426898       -11.6165
 241   2.0000      -0.426480       -11.6051
 242   2.0000      -0.424101       -11.5404
 243   2.0000      -0.423709       -11.5297
 244   2.0000      -0.423093       -11.5129
 245   2.0000      -0.420386       -11.4393
 246   2.0000      -0.419372       -11.4117
 247   2.0000      -0.417667       -11.3653
 248   2.0000      -0.415840       -11.3156
 249   2.0000      -0.404984       -11.0202
 250   2.0000      -0.392574       -10.6825
 251   2.0000      -0.384987       -10.4760
 252   2.0000      -0.384044       -10.4504
 253   2.0000      -0.368534       -10.0283
 254   2.0000      -0.361728        -9.8431
 255   2.0000      -0.353428        -9.6173
 256   2.0000      -0.347709        -9.4617
 257   2.0000      -0.345659        -9.4059
 258   2.0000      -0.337881        -9.1942
 259   2.0000      -0.335056        -9.1173
 260   2.0000      -0.316659        -8.6167
 261   2.0000      -0.315488        -8.5849
 262   2.0000      -0.313520        -8.5313
 263   2.0000      -0.309538        -8.4230
 264   2.0000      -0.305883        -8.3235
 265   2.0000      -0.297979        -8.1084
 266   2.0000      -0.281642        -7.6639
 267   2.0000      -0.277377        -7.5478
 268   2.0000      -0.237336        -6.4582
 269   0.0000      -0.146836        -3.9956
 270   0.0000      -0.132412        -3.6031
 271   0.0000      -0.099173        -2.6986
 272   0.0000      -0.075687        -2.0596
 273   0.0000      -0.066302        -1.8042

MULLIKEN ATOMIC CHARGES
-----------------------
   0 C :   -0.107619
   1 C :    0.245459
   2 F :   -0.170361
   3 C :    0.240476
   4 F :   -0.167564
   5 C :   -0.086664
   6 C :    0.139986
   7 C :    0.120763
   8 C :   -0.083457
   9 C :    0.053970
  10 C :    0.016093
  11 C :   -0.102622
  12 C :    0.165099
  13 O :   -0.142905
  14 C :   -0.136301
  15 C :    0.318600
  16 C :   -0.346071
  17 C :   -0.186498
  18 N :    0.155972
  19 C :   -0.184799
  20 N :    0.160790
  21 C :   -0.028527
  22 C :    0.065308
  23 C :    0.012598
  24 C :   -0.101460
  25 C :   -0.130159
  26 N :    0.155305
  27 C :   -0.011317
  28 C :    0.077074
  29 C :    0.024114
  30 C :    0.120722
  31 C :   -0.042412
  32 C :   -0.100444
  33 C :   -0.006018
  34 C :   -0.135081
  35 N :    0.162227
  36 C :    0.003042
  37 C :   -0.033377
  38 C :    0.062704
  39 C :   -0.001258
  40 C :   -0.100580
  41 C :   -0.135125
  42 N :    0.145654
  43 C :   -0.045262
  44 C :    0.060716
  45 C :    0.047690
  46 C :    0.078102
  47 C :   -0.007834
  48 C :   -0.090410
  49 C :   -0.067186
  50 C :   -0.084832
  51 N :    0.127349
  52 C :   -0.020558
  53 C :   -0.033833
  54 C :   -0.049324
  55 C :   -0.036618
  56 C :    0.046237
  57 C :    0.070101
  58 C :   -0.115543
  59 S :    0.113487
  60 C :   -0.111591
  61 C :    0.049130
  62 C :   -0.006326
  63 C :   -0.065248
  64 S :    0.132264
  65 C :    0.095422
  66 C :    0.010858
  67 C :   -0.030826
  68 C :   -0.017741
  69 C :    0.166695
  70 F :   -0.177665
  71 C :    0.258786
  72 F :   -0.177764
  73 C :   -0.165737
  74 C :    0.252940
  75 C :    0.170525
  76 F :   -0.179897
  77 F :   -0.176341
  78 H :    0.004856
  79 H :   -0.033439
  80 H :   -0.002695
  81 H :   -0.021897
  82 H :    0.027596
  83 H :    0.011239
  84 H :    0.011015
  85 H :   -0.003919
  86 H :    0.003785
  87 H :   -0.017769
  88 H :    0.017723
  89 H :   -0.006658
  90 H :    0.023855
  91 H :   -0.008823
  92 H :    0.018152
  93 H :    0.012244
  94 H :    0.024532
  95 H :   -0.011306
  96 H :    0.038118
  97 H :    0.002000
  98 H :    0.028040
  99 H :   -0.020996
 100 H :   -0.035721
 101 H :    0.014965
Sum of atomic charges:   -0.0000000

LOEWDIN ATOMIC CHARGES
----------------------
   0 C :   -0.028934
   1 C :    0.071857
   2 F :   -0.048257
   3 C :    0.071288
   4 F :   -0.045768
   5 C :   -0.026769
   6 C :   -0.003269
   7 C :    0.000256
   8 C :    0.026310
   9 C :   -0.029183
  10 C :   -0.056286
  11 C :    0.027922
  12 C :    0.081480
  13 O :   -0.145544
  14 C :   -0.071113
  15 C :    0.073690
  16 C :   -0.133728
  17 C :   -0.020975
  18 N :   -0.046427
  19 C :   -0.019082
  20 N :   -0.043850
  21 C :    0.060351
  22 C :   -0.031498
  23 C :    0.040545
  24 C :   -0.048091
  25 C :   -0.032634
  26 N :   -0.028755
  27 C :    0.009059
  28 C :    0.044508
  29 C :    0.056574
  30 C :   -0.018086
  31 C :    0.006311
  32 C :   -0.047520
  33 C :   -0.009180
  34 C :   -0.029487
  35 N :   -0.036324
  36 C :   -0.010258
  37 C :   -0.008043
  38 C :   -0.027113
  39 C :    0.012029
  40 C :   -0.053393
  41 C :   -0.033072
  42 N :   -0.037231
  43 C :    0.000215
  44 C :    0.039131
  45 C :    0.035527
  46 C :   -0.014580
  47 C :   -0.011643
  48 C :   -0.052552
  49 C :   -0.009367
  50 C :   -0.006869
  51 N :   -0.045306
  52 C :   -0.038766
  53 C :   -0.027929
  54 C :   -0.178378
  55 C :   -0.004832
  56 C :   -0.023751
  57 C :   -0.051456
  58 C :   -0.135454
  59 S :    0.449170
  60 C :   -0.195604
  61 C :   -0.037844
  62 C :   -0.062861
  63 C :   -0.161943
  64 S :    0.428230
  65 C :   -0.034913
  66 C :   -0.000150
  67 C :   -0.037201
  68 C :   -0.057742
  69 C :    0.055896
  70 F :   -0.049230
  71 C :    0.058383
  72 F :   -0.052447
  73 C :   -0.066676
  74 C :    0.056650
  75 C :    0.054507
  76 F :   -0.053872
  77 F :   -0.051944
  78 H :    0.046938
  79 H :    0.037041
  80 H :    0.040950
  81 H :    0.036461
  82 H :    0.051628
  83 H :    0.042503
  84 H :    0.036792
  85 H :    0.031997
  86 H :    0.036398
  87 H :    0.031159
  88 H :    0.031181
  89 H :    0.033095
  90 H :    0.038816
  91 H :    0.033314
  92 H :    0.037323
  93 H :    0.028725
  94 H :    0.038418
  95 H :    0.040254
  96 H :    0.037565
  97 H :    0.032812
  98 H :    0.025163
  99 H :    0.023704
 100 H :    0.027988
 101 H :    0.053064

  Mayer bond orders larger than 0.100000
B(  0-C ,  1-C ) :   1.4409 B(  0-C ,  5-C ) :   0.1105 B(  0-C ,  7-C ) :   1.1887
B(  0-C , 78-H ) :   1.0069 B(  1-C ,  2-F ) :   1.1361 B(  1-C ,  3-C ) :   1.1814
B(  3-C ,  4-F ) :   1.1385 B(  3-C ,  5-C ) :   1.4517 B(  5-C ,  6-C ) :   1.1923
B(  5-C , 79-H ) :   0.9852 B(  6-C ,  7-C ) :   1.2418 B(  6-C , 11-C ) :   1.1959
B(  7-C ,  8-C ) :   1.2265 B(  8-C ,  9-C ) :   1.4356 B(  8-C , 80-H ) :   0.9912
B(  9-C , 10-C ) :   1.2138 B(  9-C , 15-C ) :   0.9943 B( 10-C , 11-C ) :   1.4410
B( 10-C , 12-C ) :   0.9361 B( 11-C , 81-H ) :   1.0259 B( 12-C , 13-O ) :   2.2306
B( 12-C , 14-C ) :   0.8995 B( 14-C , 15-C ) :   1.0453 B( 14-C , 21-C ) :   1.6516
B( 15-C , 16-C ) :   1.6495 B( 16-C , 17-C ) :   1.1449 B( 16-C , 19-C ) :   1.1374
B( 17-C , 18-N ) :   2.9685 B( 19-C , 20-N ) :   2.9773 B( 21-C , 22-C ) :   1.1005
B( 21-C , 82-H ) :   0.9363 B( 22-C , 23-C ) :   1.5624 B( 22-C , 28-C ) :   1.0638
B( 23-C , 24-C ) :   1.1160 B( 23-C , 83-H ) :   1.0232 B( 24-C , 25-C ) :   1.0599
B( 24-C , 27-C ) :   1.5825 B( 25-C , 26-N ) :   3.0393 B( 27-C , 28-C ) :   1.1195
B( 27-C , 84-H ) :   1.0103 B( 28-C , 29-C ) :   1.4547 B( 29-C , 30-C ) :   1.0507
B( 29-C , 33-C ) :   1.0950 B( 30-C , 31-C ) :   1.5693 B( 30-C , 36-C ) :   1.0948
B( 31-C , 32-C ) :   1.1241 B( 31-C , 85-H ) :   1.0108 B( 32-C , 33-C ) :   1.5892
B( 32-C , 34-C ) :   1.0715 B( 33-C , 86-H ) :   1.0137 B( 34-C , 35-N ) :   3.0263
B( 36-C , 37-C ) :   1.7169 B( 36-C , 87-H ) :   0.9675 B( 37-C , 38-C ) :   1.0524
B( 37-C , 88-H ) :   0.9521 B( 38-C , 39-C ) :   1.6310 B( 38-C , 44-C ) :   1.0406
B( 39-C , 40-C ) :   1.0928 B( 39-C , 89-H ) :   1.0171 B( 40-C , 41-C ) :   1.0627
B( 40-C , 43-C ) :   1.6349 B( 41-C , 42-N ) :   3.0408 B( 43-C , 44-C ) :   1.0667
B( 43-C , 90-H ) :   1.0127 B( 44-C , 45-C ) :   1.5393 B( 45-C , 46-C ) :   1.0221
B( 45-C , 49-C ) :   1.0928 B( 46-C , 47-C ) :   1.5868 B( 46-C , 52-C ) :   1.1293
B( 47-C , 48-C ) :   1.1103 B( 47-C , 91-H ) :   1.0211 B( 48-C , 49-C ) :   1.6014
B( 48-C , 50-C ) :   1.0673 B( 49-C , 92-H ) :   1.0107 B( 50-C , 51-N ) :   2.9427
B( 51-N , 79-H ) :   0.1103 B( 52-C , 53-C ) :   1.6241 B( 52-C , 93-H ) :   0.9517
B( 53-C , 54-C ) :   1.1673 B( 53-C , 94-H ) :   0.9820 B( 54-C , 55-C ) :   1.5014
B( 54-C , 59-S ) :   1.0421 B( 55-C , 56-C ) :   1.2272 B( 55-C , 95-H ) :   0.9782
B( 56-C , 57-C ) :   1.0484 B( 56-C , 65-C ) :   1.3698 B( 57-C , 58-C ) :   1.6051
B( 57-C , 60-C ) :   1.1838 B( 58-C , 59-S ) :   1.1397 B( 58-C , 96-H ) :   0.9414
B( 60-C , 61-C ) :   1.4401 B( 60-C , 64-S ) :   1.0850 B( 61-C , 62-C ) :   1.2065
B( 61-C , 65-C ) :   1.0858 B( 62-C , 63-C ) :   1.5949 B( 62-C , 97-H ) :   1.0005
B( 63-C , 64-S ) :   1.1516 B( 63-C , 98-H ) :   0.9636 B( 65-C , 66-C ) :   1.1739
B( 66-C , 67-C ) :   1.6238 B( 66-C , 99-H ) :   0.9550 B( 67-C , 68-C ) :   1.1221
B( 67-C ,100-H ) :   0.9808 B( 68-C , 69-C ) :   1.2526 B( 68-C , 73-C ) :   0.1217
B( 68-C , 75-C ) :   1.2785 B( 69-C , 70-F ) :   1.1124 B( 69-C , 71-C ) :   1.3223
B( 71-C , 72-F ) :   1.1168 B( 71-C , 73-C ) :   1.3209 B( 73-C , 74-C ) :   1.3090
B( 73-C ,101-H ) :   1.0201 B( 74-C , 75-C ) :   1.3177 B( 74-C , 77-F ) :   1.1244
B( 75-C , 76-F ) :   1.1241

-----------------------------------------------------------------------------
         ABSORPTION SPECTRUM VIA TRANSITION ELECTRIC DIPOLE MOMENTS
-----------------------------------------------------------------------------
State   Energy  Wavelength   fosc         T2         TX        TY        TZ
        (cm-1)    (nm)                  (au**2)     (au)      (au)      (au)
-----------------------------------------------------------------------------
   0    7443.2   1343.5   0.150723392   6.66648   0.95931   2.35894   0.42619
   1    9782.7   1022.2   0.037026385   1.24602  -0.67601   0.75716   0.46448
   2   11079.3    902.6   0.022332210   0.66358   0.17233   0.78803   0.11357
   3   13294.7    752.2   0.038100593   0.94347   0.02386  -0.73373  -0.63604
   4   15210.8    657.4   0.018730579   0.40539   0.50996  -0.14837   0.35117
   5   15914.1    628.4   0.010903847   0.22557   0.26879  -0.02628  -0.39067
   6   17092.9    585.0   0.016272664   0.31341  -0.20099  -0.35724   0.38131
   7   19764.5    506.0   0.075106654   1.25103   0.64600   0.68362  -0.60530
   8   19870.4    503.3   0.511131415   8.46842   1.85210   1.88064  -1.22528
   9   20221.9    494.5   0.022927448   0.37326  -0.41947  -0.10963   0.43045
  10   20657.2    484.1   0.020386755   0.32490  -0.55282   0.10440   0.09165
  11   21489.2    465.4   0.074148671   1.13595   0.21431   1.04088  -0.08124
  12   21664.5    461.6   0.007579648   0.11518   0.04821  -0.10238  -0.31996
  13   22352.9    447.4   0.006211555   0.09148  -0.07872   0.10373  -0.27300
  14   22833.4    438.0   0.006394747   0.09220   0.00689  -0.01208   0.30332
  15   23608.2    423.6   0.023928130   0.33367   0.09836  -0.54932  -0.14914
  16   23906.5    418.3   0.090629216   1.24804   0.33467   1.06580   0.01046
  17   24098.8    415.0   0.161074494   2.20043   1.12592   0.21971  -0.94046
  18   25153.3    397.6   0.012166956   0.15924  -0.29742   0.25486   0.07634
  19   25189.3    397.0   0.132774377   1.73530   0.94154  -0.92042  -0.04039
  20   25921.5    385.8   0.061834658   0.78532   0.35087   0.52095  -0.62516
  21   26242.6    381.1   0.020394178   0.25584   0.29556   0.40695   0.05371
  22   27121.5    368.7   0.000786518   0.00955   0.02757   0.09052  -0.02436
  23   27348.8    365.6   0.043647900   0.52541   0.08600  -0.71541   0.07875
  24   27477.4    363.9   0.012428829   0.14891   0.28386  -0.15764  -0.20853
  25   27961.7    357.6   0.161099251   1.89673   0.58079  -1.05476  -0.66850
  26   28066.2    356.3   0.033161675   0.38898   0.09948  -0.36113  -0.49867
  27   28175.2    354.9   0.331079948   3.86849  -0.79087  -0.62745   1.68799
  28   28390.6    352.2   0.051423058   0.59629   0.19240   0.18304  -0.72510
  29   28528.8    350.5   0.008388625   0.09680   0.26002  -0.16632  -0.03911
  30   28794.2    347.3   0.051591695   0.58986  -0.26345   0.42252  -0.58475
  31   29001.2    344.8   0.144257560   1.63757  -0.31780   1.06635  -0.63203
  32   29059.3    344.1   0.000665834   0.00754   0.07214   0.04584   0.01541
  33   29877.4    334.7   0.010106867   0.11137  -0.15404   0.11765  -0.27165
  34   30334.9    329.7   0.318268466   3.45404  -0.95167  -0.50691   1.51374
  35   30532.2    327.5   0.338846370   3.65359   0.19092  -0.79580   1.72738
  36   30725.4    325.5   0.042151774   0.45164  -0.37972  -0.26031   0.48959
  37   30964.4    323.0   0.184085503   1.95719   0.43341  -0.15427  -1.32119
  38   31099.1    321.6   0.014714096   0.15576   0.07219  -0.38334  -0.06000
  39   31284.9    319.6   0.361618193   3.80532   1.32728  -0.60449  -1.29547
  40   31892.6    313.6   0.187534332   1.93583   0.68890   0.93545   0.76562
  41   32218.5    310.4   0.799015932   8.16443   1.48996  -0.64075  -2.35242
  42   33075.9    302.3   0.025178645   0.25061   0.20528  -0.14467  -0.43306
  43   33193.5    301.3   0.092727009   0.91966  -0.32737   0.20183   0.87850
  44   33389.9    299.5   0.053999096   0.53241   0.14560  -0.65840   0.27878
  45   33699.5    296.7   0.027966523   0.27321   0.06649   0.51564   0.05386
  46   34220.9    292.2   0.179346694   1.72535  -0.04294  -1.30972  -0.09021
  47   34376.8    290.9   0.170257197   1.63048   0.75152  -0.15994  -1.01986
  48   34860.6    286.9   0.433405998   4.09294  -0.56588  -1.09968   1.60107
  49   34975.8    285.9   0.074354175   0.69986   0.24129  -0.75395   0.27056
  50   35191.5    284.2   0.036640467   0.34277   0.23126  -0.45805  -0.28191
  51   35651.1    280.5   0.051908699   0.47934   0.41537   0.40766  -0.37499
  52   35764.0    279.6   0.321418682   2.95870   1.09941  -0.27798  -1.29333
  53   35931.5    278.3   0.010016936   0.09178  -0.11289   0.04458   0.27757
  54   36132.7    276.8   0.111707159   1.01779   0.74339   0.18496  -0.65647
  55   36421.3    274.6   0.616607958   5.57351   0.20973   2.31052  -0.43705
  56   36652.6    272.8   0.043026017   0.38646   0.44761   0.37514  -0.21301
  57   37049.2    269.9   0.106546144   0.94675   0.54978   0.71321  -0.36854
  58   37501.9    266.7   0.183199963   1.60823   0.19483   1.16748  -0.45525
  59   37597.1    266.0   0.157843506   1.38213  -0.29320  -1.02294   0.49976
  60   37751.9    264.9   0.003511782   0.03062   0.02522   0.07677   0.15522
  61   38006.1    263.1   0.034870657   0.30205  -0.07191  -0.50792   0.19723
  62   38111.7    262.4   0.953743857   8.23851   0.80550   2.66576  -0.69525
  63   38311.1    261.0   0.064056727   0.55045   0.29376   0.43045  -0.52807
  64   38557.4    259.4   0.016536020   0.14119   0.29307   0.13517  -0.19242
  65   39345.2    254.2   0.000023318   0.00020  -0.00092   0.01198   0.00712
  66   39575.0    252.7   0.126087584   1.04888   0.47769   0.48617  -0.76442
  67   39881.4    250.7   0.039795548   0.32850  -0.13664   0.10109   0.54737
  68   40010.3    249.9   0.004707329   0.03873   0.03297  -0.00019  -0.19402
  69   40037.3    249.8   0.287648021   2.36522   0.34862   1.01380  -1.10268

FINAL SINGLE POINT ENERGY     -4209.518545425347

DIPOLE MOMENT
-------------
                                X             Y             Z
Electronic contribution:    -19.69840      -4.65660       1.08081
Nuclear contribution   :     20.83145       1.64713      -2.68813
                        -----------------------------------------
Total Dipole Moment    :      1.13305      -3.00947      -1.60732
                        -----------------------------------------
Magnitude (a.u.)       :      3.59503
Magnitude (Debye)      :      9.13783

Rotational constants in cm-1:     0.001148     0.000337     0.000283
Rotational constants in MHz :    34.405619    10.096716     8.495679

                             ****ORCA TERMINATED NORMALLY****
TOTAL RUN TIME: 0 days 0 hours 15 minutes 37 seconds 298 msec
