                         Program Version 4.2.0 -  RELEASE  -
|  1> # ORCA input file
|  2> # SCF done       -152.836342626727          0.000813682248
|  3> ! CAM-B3LYP def2-SVP def2/J RIJCOSX Grid4 TightSCF
|  4> %maxcore 5000
|  5> %tddft
|  6>     Mode sTDDFT
|  7>     Ethresh 5.0
|  8>     maxcore 5000
|  9> end
| 10>
| 11> %pal
| 12>   nprocs 6
| 13>   end
| 14> * xyz 0 1
| 15>    C       -0.11970         0.26416        -6.79905
| 16>    C       -0.95537         1.30501        -7.06037
| 17>    C       -1.03818         2.18603        -5.96348
| 18>    C       -0.24437         1.77382        -4.88487
| 19>    S        0.59125         0.32311        -5.21599
| 20>    C       -0.38390         2.71550        -3.82764
| 21>    C       -1.27145         3.71651        -4.24429
| 22>    C       -1.70900         3.41794        -5.60494
| 23>    C       -2.56465         4.15673        -6.37012
| 24>    C       -3.15318         5.35130        -5.90644
| 25>    N       -3.63854         6.32515        -5.54309
| 26>    C       -2.91748         3.77765        -7.68170
| 27>    N       -3.20808         3.47656        -8.74970
| 28>    C       -1.48308         4.69239        -3.27516
| 29>    C       -0.76362         4.44259        -2.11580
| 30>    S        0.19363         2.97863        -2.23846
| 31>    C       -0.78309         5.25726        -0.95713
| 32>    C       -0.13848         5.11457         0.26255
| 33>    C       -0.40947         6.17223         1.15748
| 34>    S        0.23333         6.34248         2.78416
| 35>    C        1.61700         5.15129         2.75686
| 36>    C        1.14485         3.78135         2.33552
| 37>    S        0.88952         3.71472         0.53369
| 38>    C       -1.28582         7.12357         0.63848
| 39>    S       -1.75443         6.70189        -0.98366
| 40>    C       -1.78899         8.29627         1.25322
| 41>    C       -2.63925         9.26524         0.72348
| 42>    C       -2.95665        10.28937         1.63944
| 43>    S       -4.00444        11.66864         1.34812
| 44>    C       -4.86127        11.19111        -0.18877
| 45>    C       -3.86916        10.79658        -1.25308
| 46>    S       -3.20985         9.12748        -0.93199
| 47>    C       -2.33611        10.13277         2.87766
| 48>    S       -1.37021         8.68571         2.89619
| 49>    C       -2.40725        10.96764         4.01980
| 50>    C       -1.80236        10.79805         5.26385
| 51>    C       -2.08295        11.84386         6.16957
| 52>    S       -1.50268        12.02062         7.81941
| 53>    C       -0.17419        10.77683         7.88632
| 54>    C       -0.67318         9.43713         7.40334
| 55>    S       -0.78797         9.39858         5.58147
| 56>    C       -2.92442        12.81021         5.63872
| 57>    S       -3.34725        12.43232         3.99253
| 58>    C       -3.45640        13.99017         6.21436
| 59>    C       -4.27818        14.89588         5.55967
| 60>    C       -4.63905        15.96279         6.37720
| 61>    C       -4.09444        15.87303         7.66510
| 62>    S       -3.13683        14.47014         7.87035
| 63>    C       -4.52006        17.00724         8.41078
| 64>    C       -5.33352        17.80409         7.59434
| 65>    C       -5.43929        17.18123         6.29156
| 66>    C       -6.13699        17.62826         5.20676
| 67>    C       -6.87929        18.82700         5.23361
| 68>    N       -7.48908        19.79832         5.24801
| 69>    C       -6.16511        16.92598         3.98441
| 70>    N       -6.19828        16.36473         2.98440
| 71>    C       -5.80316        18.95359         8.26098
| 72>    C       -5.34664        19.00642         9.54114
| 73>    S       -4.33482        17.66364         9.97507
| 74>    H        0.13445        -0.55417        -7.44227
| 75>    H       -1.48158         1.43023        -7.98904
| 76>    H       -2.12284         5.54995        -3.38168
| 77>    H        1.98325         5.14618         3.78332
| 78>    H        2.39594         5.52704         2.09322
| 79>    H        0.21528         3.50921         2.83589
| 80>    H        1.90130         3.02119         2.53102
| 81>    H       -5.41637        12.08577        -0.47051
| 82>    H       -5.55787        10.38141         0.02875
| 83>    H       -3.04014        11.50205        -1.30945
| 84>    H       -4.34374        10.71020        -2.23041
| 85>    H        0.11118        10.74091         8.93779
| 86>    H        0.66925        11.12603         7.29033
| 87>    H       -1.64936         9.19825         7.82563
| 88>    H        0.03241         8.64156         7.64198
| 89>    H       -4.58335        14.76127         4.53750
| 90>    H       -6.44106        19.69946         7.82312
| 91>    H       -5.53879        19.75968        10.27849
| 92> *
| 93>
| 94>                          ****END OF INPUT****

CARTESIAN COORDINATES (ANGSTROEM)
---------------------------------
  C     -0.119700    0.264160   -6.799050
  C     -0.955370    1.305010   -7.060370
  C     -1.038180    2.186030   -5.963480
  C     -0.244370    1.773820   -4.884870
  S      0.591250    0.323110   -5.215990
  C     -0.383900    2.715500   -3.827640
  C     -1.271450    3.716510   -4.244290
  C     -1.709000    3.417940   -5.604940
  C     -2.564650    4.156730   -6.370120
  C     -3.153180    5.351300   -5.906440
  N     -3.638540    6.325150   -5.543090
  C     -2.917480    3.777650   -7.681700
  N     -3.208080    3.476560   -8.749700
  C     -1.483080    4.692390   -3.275160
  C     -0.763620    4.442590   -2.115800
  S      0.193630    2.978630   -2.238460
  C     -0.783090    5.257260   -0.957130
  C     -0.138480    5.114570    0.262550
  C     -0.409470    6.172230    1.157480
  S      0.233330    6.342480    2.784160
  C      1.617000    5.151290    2.756860
  C      1.144850    3.781350    2.335520
  S      0.889520    3.714720    0.533690
  C     -1.285820    7.123570    0.638480
  S     -1.754430    6.701890   -0.983660
  C     -1.788990    8.296270    1.253220
  C     -2.639250    9.265240    0.723480
  C     -2.956650   10.289370    1.639440
  S     -4.004440   11.668640    1.348120
  C     -4.861270   11.191110   -0.188770
  C     -3.869160   10.796580   -1.253080
  S     -3.209850    9.127480   -0.931990
  C     -2.336110   10.132770    2.877660
  S     -1.370210    8.685710    2.896190
  C     -2.407250   10.967640    4.019800
  C     -1.802360   10.798050    5.263850
  C     -2.082950   11.843860    6.169570
  S     -1.502680   12.020620    7.819410
  C     -0.174190   10.776830    7.886320
  C     -0.673180    9.437130    7.403340
  S     -0.787970    9.398580    5.581470
  C     -2.924420   12.810210    5.638720
  S     -3.347250   12.432320    3.992530
  C     -3.456400   13.990170    6.214360
  C     -4.278180   14.895880    5.559670
  C     -4.639050   15.962790    6.377200
  C     -4.094440   15.873030    7.665100
  S     -3.136830   14.470140    7.870350
  C     -4.520060   17.007240    8.410780
  C     -5.333520   17.804090    7.594340
  C     -5.439290   17.181230    6.291560
  C     -6.136990   17.628260    5.206760
  C     -6.879290   18.827000    5.233610
  N     -7.489080   19.798320    5.248010
  C     -6.165110   16.925980    3.984410
  N     -6.198280   16.364730    2.984400
  C     -5.803160   18.953590    8.260980
  C     -5.346640   19.006420    9.541140
  S     -4.334820   17.663640    9.975070
  H      0.134450   -0.554170   -7.442270
  H     -1.481580    1.430230   -7.989040
  H     -2.122840    5.549950   -3.381680
  H      1.983250    5.146180    3.783320
  H      2.395940    5.527040    2.093220
  H      0.215280    3.509210    2.835890
  H      1.901300    3.021190    2.531020
  H     -5.416370   12.085770   -0.470510
  H     -5.557870   10.381410    0.028750
  H     -3.040140   11.502050   -1.309450
  H     -4.343740   10.710200   -2.230410
  H      0.111180   10.740910    8.937790
  H      0.669250   11.126030    7.290330
  H     -1.649360    9.198250    7.825630
  H      0.032410    8.641560    7.641980
  H     -4.583350   14.761270    4.537500
  H     -6.441060   19.699460    7.823120
  H     -5.538790   19.759680   10.278490

 Total Charge           Charge          ....    0
 Multiplicity           Mult            ....    1
 Number of Electrons    NEL             ....  506
 Basis Dimension        Dim             ....  968

ORBITAL ENERGIES
----------------

  NO   OCC          E(Eh)            E(eV)
   0   2.0000     -88.977960     -2421.2134
   1   2.0000     -88.977659     -2421.2052
   2   2.0000     -88.976507     -2421.1739
   3   2.0000     -88.976424     -2421.1716
   4   2.0000     -88.956518     -2420.6299
   5   2.0000     -88.956464     -2420.6284
   6   2.0000     -88.955424     -2420.6001
   7   2.0000     -88.939879     -2420.1771
   8   2.0000     -88.939865     -2420.1768
   9   2.0000     -88.936455     -2420.0840
  10   2.0000     -88.936392     -2420.0823
  11   2.0000     -88.931476     -2419.9485
  12   2.0000     -88.931374     -2419.9457
  13   2.0000     -14.419392      -392.3716
  14   2.0000     -14.419378      -392.3712
  15   2.0000     -14.419047      -392.3622
  16   2.0000     -14.419009      -392.3612
  17   2.0000     -10.351194      -281.6703
  18   2.0000     -10.351161      -281.6694
  19   2.0000     -10.339760      -281.3592
  20   2.0000     -10.339731      -281.3584
  21   2.0000     -10.320308      -280.8298
  22   2.0000     -10.320264      -280.8287
  23   2.0000     -10.319846      -280.8173
  24   2.0000     -10.319840      -280.8171
  25   2.0000     -10.319562      -280.8096
  26   2.0000     -10.319384      -280.8047
  27   2.0000     -10.316556      -280.7278
  28   2.0000     -10.316479      -280.7257
  29   2.0000     -10.315842      -280.7083
  30   2.0000     -10.315712      -280.7048
  31   2.0000     -10.314331      -280.6672
  32   2.0000     -10.314272      -280.6656
  33   2.0000     -10.312940      -280.6294
  34   2.0000     -10.312862      -280.6272
  35   2.0000     -10.311795      -280.5982
  36   2.0000     -10.311680      -280.5951
  37   2.0000     -10.310913      -280.5742
  38   2.0000     -10.310864      -280.5729
  39   2.0000     -10.308465      -280.5076
  40   2.0000     -10.308453      -280.5073
  41   2.0000     -10.307420      -280.4792
  42   2.0000     -10.307351      -280.4773
  43   2.0000     -10.306939      -280.4661
  44   2.0000     -10.306878      -280.4644
  45   2.0000     -10.306769      -280.4614
  46   2.0000     -10.306654      -280.4583
  47   2.0000     -10.306212      -280.4463
  48   2.0000     -10.305880      -280.4373
  49   2.0000     -10.300069      -280.2791
  50   2.0000     -10.300027      -280.2780
  51   2.0000     -10.289193      -279.9832
  52   2.0000     -10.289182      -279.9829
  53   2.0000     -10.287074      -279.9255
  54   2.0000     -10.287057      -279.9251
  55   2.0000     -10.286088      -279.8987
  56   2.0000     -10.286008      -279.8965
  57   2.0000     -10.285942      -279.8947
  58   2.0000     -10.285868      -279.8927
  59   2.0000      -8.071677      -219.6415
  60   2.0000      -8.071564      -219.6384
  61   2.0000      -8.071535      -219.6376
  62   2.0000      -8.071444      -219.6352
  63   2.0000      -8.051194      -219.0841
  64   2.0000      -8.051180      -219.0837
  65   2.0000      -8.049771      -219.0454
  66   2.0000      -8.035400      -218.6544
  67   2.0000      -8.035397      -218.6543
  68   2.0000      -8.031840      -218.5575
  69   2.0000      -8.031796      -218.5563
  70   2.0000      -8.027101      -218.4285
  71   2.0000      -8.027003      -218.4258
  72   2.0000      -6.041084      -164.3862
  73   2.0000      -6.040859      -164.3801
  74   2.0000      -6.040837      -164.3795
  75   2.0000      -6.040759      -164.3774
  76   2.0000      -6.036662      -164.2659
  77   2.0000      -6.036455      -164.2603
  78   2.0000      -6.036409      -164.2590
  79   2.0000      -6.036374      -164.2581
  80   2.0000      -6.034150      -164.1976
  81   2.0000      -6.034097      -164.1961
  82   2.0000      -6.034021      -164.1941
  83   2.0000      -6.033795      -164.1879
  84   2.0000      -6.020832      -163.8352
  85   2.0000      -6.020809      -163.8345
  86   2.0000      -6.019425      -163.7969
  87   2.0000      -6.016590      -163.7197
  88   2.0000      -6.016567      -163.7191
  89   2.0000      -6.015065      -163.6782
  90   2.0000      -6.012632      -163.6120
  91   2.0000      -6.012630      -163.6120
  92   2.0000      -6.011265      -163.5748
  93   2.0000      -6.005835      -163.4271
  94   2.0000      -6.005819      -163.4267
  95   2.0000      -6.002299      -163.3309
  96   2.0000      -6.002244      -163.3294
  97   2.0000      -6.001681      -163.3140
  98   2.0000      -6.001674      -163.3138
  99   2.0000      -5.998155      -163.2181
 100   2.0000      -5.998106      -163.2168
 101   2.0000      -5.997522      -163.2009
 102   2.0000      -5.997434      -163.1985
 103   2.0000      -5.995052      -163.1337
 104   2.0000      -5.995034      -163.1332
 105   2.0000      -5.993302      -163.0860
 106   2.0000      -5.993208      -163.0835
 107   2.0000      -5.991379      -163.0337
 108   2.0000      -5.991336      -163.0325
 109   2.0000      -5.986715      -162.9068
 110   2.0000      -5.986615      -162.9041
 111   2.0000      -1.030710       -28.0471
 112   2.0000      -1.030586       -28.0437
 113   2.0000      -1.013902       -27.5897
 114   2.0000      -1.011031       -27.5115
 115   2.0000      -1.009720       -27.4759
 116   2.0000      -1.003923       -27.3181
 117   2.0000      -0.996847       -27.1256
 118   2.0000      -0.996760       -27.1232
 119   2.0000      -0.990426       -26.9509
 120   2.0000      -0.979390       -26.6506
 121   2.0000      -0.976004       -26.5584
 122   2.0000      -0.945351       -25.7243
 123   2.0000      -0.945209       -25.7204
 124   2.0000      -0.940151       -25.5828
 125   2.0000      -0.937153       -25.5012
 126   2.0000      -0.933722       -25.4079
 127   2.0000      -0.911280       -24.7972
 128   2.0000      -0.901024       -24.5181
 129   2.0000      -0.889945       -24.2166
 130   2.0000      -0.882968       -24.0268
 131   2.0000      -0.878420       -23.9030
 132   2.0000      -0.861382       -23.4394
 133   2.0000      -0.860318       -23.4104
 134   2.0000      -0.852728       -23.2039
 135   2.0000      -0.846231       -23.0271
 136   2.0000      -0.841196       -22.8901
 137   2.0000      -0.839805       -22.8522
 138   2.0000      -0.837434       -22.7877
 139   2.0000      -0.836316       -22.7573
 140   2.0000      -0.828427       -22.5427
 141   2.0000      -0.804400       -21.8888
 142   2.0000      -0.776765       -21.1369
 143   2.0000      -0.766573       -20.8595
 144   2.0000      -0.765096       -20.8193
 145   2.0000      -0.758338       -20.6354
 146   2.0000      -0.751184       -20.4407
 147   2.0000      -0.745553       -20.2875
 148   2.0000      -0.736407       -20.0387
 149   2.0000      -0.724534       -19.7156
 150   2.0000      -0.722498       -19.6602
 151   2.0000      -0.715582       -19.4720
 152   2.0000      -0.705501       -19.1976
 153   2.0000      -0.691024       -18.8037
 154   2.0000      -0.690945       -18.8016
 155   2.0000      -0.675335       -18.3768
 156   2.0000      -0.666643       -18.1403
 157   2.0000      -0.664303       -18.0766
 158   2.0000      -0.660545       -17.9743
 159   2.0000      -0.648680       -17.6515
 160   2.0000      -0.640412       -17.4265
 161   2.0000      -0.623590       -16.9688
 162   2.0000      -0.622711       -16.9448
 163   2.0000      -0.612386       -16.6639
 164   2.0000      -0.606164       -16.4946
 165   2.0000      -0.604314       -16.4442
 166   2.0000      -0.602482       -16.3944
 167   2.0000      -0.600930       -16.3521
 168   2.0000      -0.593955       -16.1623
 169   2.0000      -0.588890       -16.0245
 170   2.0000      -0.572740       -15.5850
 171   2.0000      -0.568070       -15.4580
 172   2.0000      -0.560525       -15.2526
 173   2.0000      -0.556576       -15.1452
 174   2.0000      -0.549403       -14.9500
 175   2.0000      -0.545808       -14.8522
 176   2.0000      -0.543374       -14.7860
 177   2.0000      -0.540009       -14.6944
 178   2.0000      -0.535547       -14.5730
 179   2.0000      -0.533587       -14.5196
 180   2.0000      -0.533508       -14.5175
 181   2.0000      -0.532356       -14.4861
 182   2.0000      -0.526585       -14.3291
 183   2.0000      -0.521291       -14.1850
 184   2.0000      -0.516927       -14.0663
 185   2.0000      -0.513587       -13.9754
 186   2.0000      -0.512102       -13.9350
 187   2.0000      -0.507947       -13.8219
 188   2.0000      -0.503865       -13.7109
 189   2.0000      -0.500721       -13.6253
 190   2.0000      -0.493722       -13.4349
 191   2.0000      -0.491489       -13.3741
 192   2.0000      -0.489858       -13.3297
 193   2.0000      -0.489800       -13.3281
 194   2.0000      -0.486776       -13.2458
 195   2.0000      -0.481527       -13.1030
 196   2.0000      -0.481293       -13.0967
 197   2.0000      -0.480902       -13.0860
 198   2.0000      -0.478200       -13.0125
 199   2.0000      -0.477757       -13.0004
 200   2.0000      -0.476749       -12.9730
 201   2.0000      -0.464768       -12.6470
 202   2.0000      -0.461705       -12.5636
 203   2.0000      -0.458068       -12.4647
 204   2.0000      -0.457325       -12.4444
 205   2.0000      -0.452363       -12.3094
 206   2.0000      -0.451607       -12.2889
 207   2.0000      -0.451497       -12.2858
 208   2.0000      -0.450521       -12.2593
 209   2.0000      -0.450364       -12.2550
 210   2.0000      -0.446940       -12.1619
 211   2.0000      -0.446614       -12.1530
 212   2.0000      -0.442048       -12.0287
 213   2.0000      -0.436202       -11.8697
 214   2.0000      -0.434755       -11.8303
 215   2.0000      -0.434320       -11.8184
 216   2.0000      -0.433663       -11.8006
 217   2.0000      -0.429888       -11.6978
 218   2.0000      -0.429782       -11.6950
 219   2.0000      -0.428697       -11.6654
 220   2.0000      -0.428354       -11.6561
 221   2.0000      -0.425849       -11.5879
 222   2.0000      -0.425285       -11.5726
 223   2.0000      -0.416371       -11.3300
 224   2.0000      -0.415830       -11.3153
 225   2.0000      -0.413734       -11.2583
 226   2.0000      -0.405866       -11.0442
 227   2.0000      -0.400551       -10.8995
 228   2.0000      -0.395286       -10.7563
 229   2.0000      -0.387615       -10.5475
 230   2.0000      -0.387349       -10.5403
 231   2.0000      -0.384386       -10.4597
 232   2.0000      -0.379859       -10.3365
 233   2.0000      -0.374751       -10.1975
 234   2.0000      -0.366366        -9.9693
 235   2.0000      -0.365548        -9.9471
 236   2.0000      -0.362518        -9.8646
 237   2.0000      -0.361173        -9.8280
 238   2.0000      -0.345098        -9.3906
 239   2.0000      -0.341249        -9.2859
 240   2.0000      -0.340469        -9.2646
 241   2.0000      -0.334194        -9.0939
 242   2.0000      -0.331918        -9.0320
 243   2.0000      -0.311095        -8.4653
 244   2.0000      -0.309336        -8.4175
 245   2.0000      -0.308845        -8.4041
 246   2.0000      -0.304438        -8.2842
 247   2.0000      -0.284693        -7.7469
 248   2.0000      -0.284009        -7.7283
 249   2.0000      -0.265353        -7.2206
 250   2.0000      -0.257342        -7.0026
 251   2.0000      -0.243520        -6.6265
 252   2.0000      -0.214800        -5.8450
 253   0.0000      -0.091123        -2.4796
 254   0.0000      -0.089690        -2.4406
 255   0.0000      -0.050440        -1.3726
 256   0.0000      -0.021627        -0.5885
 257   0.0000       0.006947         0.1890

MULLIKEN ATOMIC CHARGES
-----------------------
   0 C :   -0.086937
   1 C :    0.039270
   2 C :   -0.038162
   3 C :   -0.111335
   4 S :    0.170355
   5 C :   -0.101787
   6 C :    0.033161
   7 C :    0.300115
   8 C :   -0.308094
   9 C :   -0.186846
  10 N :    0.168608
  11 C :   -0.193767
  12 N :    0.170975
  13 C :   -0.082671
  14 C :   -0.073518
  15 S :    0.176911
  16 C :   -0.060759
  17 C :   -0.039565
  18 C :   -0.055463
  19 S :   -0.012476
  20 C :   -0.038702
  21 C :   -0.032826
  22 S :   -0.024859
  23 C :   -0.081522
  24 S :    0.112964
  25 C :   -0.069721
  26 C :   -0.044382
  27 C :   -0.043745
  28 S :   -0.016221
  29 C :   -0.028575
  30 C :   -0.035619
  31 S :   -0.016311
  32 C :   -0.070720
  33 S :    0.095203
  34 C :   -0.081053
  35 C :   -0.056510
  36 C :   -0.038327
  37 S :   -0.024884
  38 C :   -0.032828
  39 C :   -0.038901
  40 S :   -0.012179
  41 C :   -0.060147
  42 S :    0.113808
  43 C :   -0.074592
  44 C :   -0.079335
  45 C :    0.028939
  46 C :   -0.101039
  47 S :    0.176136
  48 C :   -0.109488
  49 C :   -0.040507
  50 C :    0.304426
  51 C :   -0.305481
  52 C :   -0.195216
  53 N :    0.170721
  54 C :   -0.184450
  55 N :    0.164047
  56 C :    0.037576
  57 C :   -0.086722
  58 S :    0.170038
  59 H :    0.031326
  60 H :    0.008870
  61 H :    0.017488
  62 H :    0.058340
  63 H :    0.075643
  64 H :    0.075919
  65 H :    0.061150
  66 H :    0.066808
  67 H :    0.075589
  68 H :    0.076248
  69 H :    0.067346
  70 H :    0.061052
  71 H :    0.075435
  72 H :    0.075587
  73 H :    0.058915
  74 H :    0.016520
  75 H :    0.008957
  76 H :    0.031795
Sum of atomic charges:   -0.0000000

LOEWDIN ATOMIC CHARGES
----------------------
   0 C :   -0.184755
   1 C :   -0.034289
   2 C :   -0.085481
   3 C :   -0.175875
   4 S :    0.468057
   5 C :   -0.200068
   6 C :   -0.066092
   7 C :    0.086331
   8 C :   -0.109733
   9 C :   -0.015854
  10 N :   -0.040442
  11 C :   -0.016544
  12 N :   -0.039230
  13 C :   -0.044366
  14 C :   -0.181522
  15 S :    0.476311
  16 C :   -0.214711
  17 C :   -0.213342
  18 C :   -0.220856
  19 S :    0.299629
  20 C :   -0.143256
  21 C :   -0.141573
  22 S :    0.293026
  23 C :   -0.200947
  24 S :    0.456671
  25 C :   -0.215264
  26 C :   -0.215627
  27 C :   -0.215081
  28 S :    0.303099
  29 C :   -0.140618
  30 C :   -0.140917
  31 S :    0.303058
  32 C :   -0.215383
  33 S :    0.451081
  34 C :   -0.200818
  35 C :   -0.220957
  36 C :   -0.213273
  37 S :    0.293375
  38 C :   -0.141687
  39 C :   -0.143197
  40 S :    0.299724
  41 C :   -0.214987
  42 S :    0.456336
  43 C :   -0.181416
  44 C :   -0.044273
  45 C :   -0.066149
  46 C :   -0.200156
  47 S :    0.476301
  48 C :   -0.176024
  49 C :   -0.085567
  50 C :    0.086500
  51 C :   -0.109655
  52 C :   -0.016632
  53 N :   -0.039176
  54 C :   -0.015688
  55 N :   -0.040666
  56 C :   -0.034367
  57 C :   -0.184829
  58 S :    0.468107
  59 H :    0.025379
  60 H :    0.041456
  61 H :    0.033084
  62 H :    0.033445
  63 H :    0.028964
  64 H :    0.028988
  65 H :    0.034107
  66 H :    0.037090
  67 H :    0.029227
  68 H :    0.029336
  69 H :    0.037154
  70 H :    0.034074
  71 H :    0.028849
  72 H :    0.029002
  73 H :    0.033549
  74 H :    0.033154
  75 H :    0.041436
  76 H :    0.025444

  Mayer bond orders larger than 0.100000
B(  0-C ,  1-C ) :   1.5585 B(  0-C ,  4-S ) :   1.1374 B(  0-C , 59-H ) :   0.9643
B(  1-C ,  2-C ) :   1.2692 B(  1-C , 60-H ) :   0.9952 B(  2-C ,  3-C ) :   1.4505
B(  2-C ,  7-C ) :   1.0245 B(  3-C ,  4-S ) :   1.1388 B(  3-C ,  5-C ) :   1.1804
B(  5-C ,  6-C ) :   1.4480 B(  5-C , 15-S ) :   1.1094 B(  6-C ,  7-C ) :   0.9866
B(  6-C , 13-C ) :   1.3107 B(  7-C ,  8-C ) :   1.7031 B(  8-C ,  9-C ) :   1.1366
B(  8-C , 11-C ) :   1.1330 B(  9-C , 10-N ) :   2.9901 B( 11-C , 12-N ) :   3.0039
B( 13-C , 14-C ) :   1.4376 B( 13-C , 61-H ) :   0.9862 B( 14-C , 15-S ) :   1.1109
B( 14-C , 16-C ) :   1.1724 B( 16-C , 17-C ) :   1.5470 B( 16-C , 23-C ) :   0.1083
B( 16-C , 24-S ) :   1.1077 B( 17-C , 18-C ) :   1.2919 B( 17-C , 22-S ) :   0.9941
B( 18-C , 19-S ) :   0.9994 B( 18-C , 23-C ) :   1.5400 B( 19-S , 20-C ) :   1.0119
B( 20-C , 21-C ) :   1.0183 B( 20-C , 62-H ) :   0.9470 B( 20-C , 63-H ) :   0.9489
B( 21-C , 22-S ) :   1.0115 B( 21-C , 64-H ) :   0.9484 B( 21-C , 65-H ) :   0.9462
B( 23-C , 24-S ) :   1.1084 B( 23-C , 25-C ) :   1.1793 B( 25-C , 26-C ) :   1.5166
B( 25-C , 32-C ) :   0.1049 B( 25-C , 33-S ) :   1.1028 B( 26-C , 27-C ) :   1.3167
B( 26-C , 31-S ) :   1.0002 B( 27-C , 28-S ) :   1.0000 B( 27-C , 32-C ) :   1.5173
B( 28-S , 29-C ) :   1.0076 B( 29-C , 30-C ) :   1.0181 B( 29-C , 66-H ) :   0.9458
B( 29-C , 67-H ) :   0.9489 B( 30-C , 31-S ) :   1.0090 B( 30-C , 68-H ) :   0.9491
B( 30-C , 69-H ) :   0.9462 B( 32-C , 33-S ) :   1.1025 B( 32-C , 34-C ) :   1.1780
B( 34-C , 35-C ) :   1.5415 B( 34-C , 41-C ) :   0.1082 B( 34-C , 42-S ) :   1.1081
B( 35-C , 36-C ) :   1.2922 B( 35-C , 40-S ) :   0.9990 B( 36-C , 37-S ) :   0.9944
B( 36-C , 41-C ) :   1.5453 B( 37-S , 38-C ) :   1.0119 B( 38-C , 39-C ) :   1.0188
B( 38-C , 70-H ) :   0.9461 B( 38-C , 71-H ) :   0.9485 B( 39-C , 40-S ) :   1.0112
B( 39-C , 72-H ) :   0.9488 B( 39-C , 73-H ) :   0.9470 B( 41-C , 42-S ) :   1.1082
B( 41-C , 43-C ) :   1.1730 B( 43-C , 44-C ) :   1.4379 B( 43-C , 47-S ) :   1.1112
B( 44-C , 45-C ) :   1.3110 B( 44-C , 74-H ) :   0.9862 B( 45-C , 46-C ) :   1.4500
B( 45-C , 50-C ) :   0.9864 B( 46-C , 47-S ) :   1.1094 B( 46-C , 48-C ) :   1.1783
B( 48-C , 49-C ) :   1.4502 B( 48-C , 58-S ) :   1.1392 B( 49-C , 50-C ) :   1.0238
B( 49-C , 56-C ) :   1.2696 B( 50-C , 51-C ) :   1.7027 B( 51-C , 52-C ) :   1.1332
B( 51-C , 54-C ) :   1.1344 B( 52-C , 53-N ) :   3.0032 B( 54-C , 55-N ) :   2.9886
B( 56-C , 57-C ) :   1.5574 B( 56-C , 75-H ) :   0.9961 B( 57-C , 58-S ) :   1.1373
B( 57-C , 76-H ) :   0.9643

-----------------------------------------------------------------------------
         ABSORPTION SPECTRUM VIA TRANSITION ELECTRIC DIPOLE MOMENTS
-----------------------------------------------------------------------------
State   Energy  Wavelength   fosc         T2         TX        TY        TZ
        (cm-1)    (nm)                  (au**2)     (au)      (au)      (au)
-----------------------------------------------------------------------------
   0   11754.2    850.8   0.300774978   8.42410   0.58863  -2.13811  -1.87246
   1   12022.4    831.8   0.012390129   0.33928  -0.35836   0.28661  -0.35876
   2   19518.2    512.3   1.042176965  17.57834  -0.87552   3.08942   2.69579
   3   20262.4    493.5   0.003988788   0.06481  -0.12027   0.04289  -0.22024
   4   21360.0    468.2   0.755359899  11.64202  -0.70534   2.51837   2.19142
   5   23199.0    431.1   0.049611480   0.70403   0.48288  -0.36809   0.57910
   6   23507.6    425.4   0.000677265   0.00948   0.04426  -0.08593  -0.01189
   7   25741.4    388.5   0.022297357   0.28517  -0.32402   0.22394  -0.36060
   8   26135.1    382.6   0.022441763   0.28269  -0.10356   0.39639   0.33887
   9   26987.6    370.5   0.015561631   0.18983   0.27703  -0.18065   0.28364
  10   27555.4    362.9   0.111172199   1.32821  -0.67035   0.50819  -0.78777
  11   28163.8    355.1   0.073571823   0.86000  -0.54622   0.42073  -0.62018
  12   28224.9    354.3   0.004945579   0.05768   0.07627   0.04971   0.22225
  13   29358.8    340.6   0.121462470   1.36201  -0.68298   0.50778  -0.79856
  14   30593.9    326.9   0.071140230   0.76552  -0.16555   0.65419   0.55690
  15   31510.6    317.4   0.134242363   1.40252   0.15341  -0.86512  -0.79407
  16   31692.0    315.5   0.383221354   3.98085  -1.16781   0.93178  -1.32244
  17   31955.1    312.9   0.096797281   0.99724   0.20422  -0.69016  -0.69225
  18   32582.7    306.9   1.011698252  10.22210  -1.87795   1.49417  -2.11255
  19   32686.1    305.9   0.187582401   1.88932   0.17096  -0.78146  -1.11777
  20   33707.2    296.7   0.017981044   0.17562   0.26770  -0.29267   0.13527
  21   33716.0    296.6   0.017296220   0.16888  -0.17563   0.09982  -0.35788
  22   34252.4    292.0   0.248727729   2.39061   0.34145  -1.12461  -1.00463
  23   34836.8    287.1   0.049824245   0.47085  -0.09777   0.52189   0.43464
  24   34962.6    286.0   0.000033524   0.00032   0.01064  -0.01338   0.00484
  25   35279.9    283.4   0.018878295   0.17616   0.24890  -0.19586   0.27541
  26   35473.8    281.9   0.109125852   1.01273  -0.58818   0.42903  -0.69477
  27   35672.0    280.3   0.006700167   0.06183   0.03082  -0.16619  -0.18239
  28   36102.1    277.0   0.179712629   1.63879  -0.22323   0.97425   0.79987
  29   37372.3    267.6   0.264011442   2.32567   0.88715  -0.67586   1.04012
  30   37520.1    266.5   0.066080452   0.57981  -0.14171   0.59196   0.45750
  31   37541.9    266.4   0.019535542   0.17131   0.06668  -0.30221  -0.27483
  32   37825.4    264.4   0.069883988   0.60823   0.44682  -0.32259   0.55183
  33   38220.6    261.6   0.007642379   0.06583  -0.03259  -0.22353  -0.12165
  34   38589.3    259.1   0.116082526   0.99032   0.55914  -0.39559   0.72194
  35   38613.4    259.0   0.035203615   0.30014  -0.22633   0.41217   0.28113
  36   39218.8    255.0   0.014602065   0.12257  -0.19202   0.13993  -0.25713
  37   39318.0    254.3   0.122249189   1.02360  -0.22950   0.73303   0.65848
  38   39690.6    251.9   0.023196933   0.19241   0.26128  -0.19261   0.29503
  39   40312.8    248.1   0.043650436   0.35647  -0.09403   0.49121   0.32610

FINAL SINGLE POINT ENERGY     -7002.752873248175

DIPOLE MOMENT
-------------
                                X             Y             Z
Electronic contribution:     -5.03294       3.61329      -5.77011
Nuclear contribution   :      7.95619      -5.81963       9.21564
                        -----------------------------------------
Total Dipole Moment    :      2.92326      -2.20634       3.44554
                        -----------------------------------------
Magnitude (a.u.)       :      5.02843
Magnitude (Debye)      :     12.78125

Rotational constants in cm-1:     0.002427     0.000334     0.000294
Rotational constants in MHz :    72.757902    10.017625     8.816105

                             ****ORCA TERMINATED NORMALLY****
TOTAL RUN TIME: 0 days 0 hours 6 minutes 23 seconds 997 msec
