                         Program Version 4.2.0 -  RELEASE  -
|  1> # ORCA input file
|  2> # SCF done       -171.883060096135          0.000791814564
|  3> ! CAM-B3LYP def2-SVP def2/J RIJCOSX Grid4 TightSCF
|  4> %maxcore 5000
|  5> %tddft
|  6>     Mode sTDDFT
|  7>     Ethresh 5.0
|  8>     maxcore 5000
|  9> end
| 10>
| 11> %pal
| 12>   nprocs 6
| 13>   end
| 14> * xyz 0 1
| 15>    C       -7.64675         6.71614         6.92350
| 16>    C       -7.41348         5.49211         6.37598
| 17>    C       -6.50734         5.57455         5.30052
| 18>    C       -6.07742         6.88661         5.06390
| 19>    S       -6.77828         8.00278         6.14887
| 20>    C       -5.17198         6.87823         3.96760
| 21>    C       -5.03147         5.55801         3.51600
| 22>    C       -5.87213         4.69424         4.34027
| 23>    C       -6.03167         3.34462         4.21959
| 24>    C       -5.36257         2.58853         3.23422
| 25>    N       -4.82512         1.96522         2.43600
| 26>    C       -6.88250         2.61084         5.07241
| 27>    N       -7.57249         2.00635         5.76103
| 28>    C       -4.16162         5.43805         2.43335
| 29>    C       -3.64065         6.66569         2.05446
| 30>    S       -4.23509         7.97931         3.05813
| 31>    C       -2.74871         6.93029         0.99003
| 32>    S       -2.25089         8.56200         0.60561
| 33>    C       -1.27636         8.05684        -0.75285
| 34>    C       -1.33434         6.66573        -0.87703
| 35>    C       -2.15834         6.04726         0.10205
| 36>    S       -2.19979         4.32266        -0.07812
| 37>    C       -1.11585         4.44579        -1.44723
| 38>    C       -0.70949         3.20126        -2.10180
| 39>    O       -1.07852         2.10524        -1.75974
| 40>    O        0.11925         3.43713        -3.13139
| 41>    C        0.60897         2.28890        -3.82565
| 42>    C        1.78850         1.65871        -3.09891
| 43>    C       -0.74996         5.72375        -1.75175
| 44>    C       -0.58686         8.95628        -1.58086
| 45>    C       -0.52674        10.30351        -1.38197
| 46>    C        0.12129        11.18044        -2.27163
| 47>    C        0.72972        10.90485        -3.49402
| 48>    C        1.23184        12.06546        -4.13677
| 49>    S        1.93797        11.65147        -5.65545
| 50>    C        1.51267         9.95055        -5.30142
| 51>    N        0.91504         9.75020        -4.18966
| 52>    C        1.85842         8.89709        -6.27784
| 53>    C        1.06213        13.24037        -3.42627
| 54>    S        0.21879        12.89242        -1.93919
| 55>    C        1.40911        14.52564        -3.91591
| 56>    O        1.67864        14.58657        -5.23286
| 57>    C        1.90040        15.87692        -5.57372
| 58>    C        1.78908        16.68259        -4.43760
| 59>    C        1.49640        15.80501        -3.35921
| 60>    C        1.42597        16.11762        -1.90935
| 61>    F        1.75806        15.07197        -1.13722
| 62>    F        2.26744        17.10002        -1.54382
| 63>    F        0.19967        16.51168        -1.49841
| 64>    O        1.94121        18.01287        -4.52495
| 65>    C        1.33670        18.86592        -3.56712
| 66>    C        2.17131        16.25122        -6.91294
| 67>    C        2.20404        15.37410        -7.94383
| 68>    C        2.43834        15.72515        -9.29466
| 69>    C        2.43000        14.88090       -10.38966
| 70>    C        2.69128        15.55919       -11.62598
| 71>    S        2.64671        14.42040       -12.93454
| 72>    C        2.28210        13.15076       -11.72072
| 73>    N        2.21069        13.54428       -10.51042
| 74>    C        2.08520        11.75902       -12.17521
| 75>    C        2.89877        16.89314       -11.48599
| 76>    S        2.77555        17.35642        -9.82730
| 77>    H       -8.28684         6.95694         7.74841
| 78>    H       -7.86814         4.58425         6.72800
| 79>    H       -3.91363         4.51904         1.93539
| 80>    H        0.90254         2.66029        -4.80973
| 81>    H       -0.20393         1.56228        -3.92661
| 82>    H        2.57758         2.39277        -2.95299
| 83>    H        2.17606         0.83054        -3.68509
| 84>    H        1.46914         1.28417        -2.12946
| 85>    H       -0.08955         5.96748        -2.56291
| 86>    H       -0.08192         8.53707        -2.43997
| 87>    H       -0.99876        10.74290        -0.51322
| 88>    H        1.40299         9.11586        -7.24262
| 89>    H        1.50371         7.93529        -5.91779
| 90>    H        2.93774         8.85612        -6.41970
| 91>    H        1.12027        19.79363        -4.09646
| 92>    H        2.01993        19.07703        -2.74215
| 93>    H        0.40626        18.44629        -3.17993
| 94>    H        2.33699        17.30672        -7.07247
| 95>    H        2.03285        14.32151        -7.76411
| 96>    H        2.97912        11.39847       -12.68275
| 97>    H        1.25704        11.70862       -12.88121
| 98>    H        1.87195        11.12542       -11.31878
| 99>    H        3.11195        17.63035       -12.23237
|100> *
|101>
|102>                          ****END OF INPUT****

CARTESIAN COORDINATES (ANGSTROEM)
---------------------------------
  C     -7.646750    6.716140    6.923500
  C     -7.413480    5.492110    6.375980
  C     -6.507340    5.574550    5.300520
  C     -6.077420    6.886610    5.063900
  S     -6.778280    8.002780    6.148870
  C     -5.171980    6.878230    3.967600
  C     -5.031470    5.558010    3.516000
  C     -5.872130    4.694240    4.340270
  C     -6.031670    3.344620    4.219590
  C     -5.362570    2.588530    3.234220
  N     -4.825120    1.965220    2.436000
  C     -6.882500    2.610840    5.072410
  N     -7.572490    2.006350    5.761030
  C     -4.161620    5.438050    2.433350
  C     -3.640650    6.665690    2.054460
  S     -4.235090    7.979310    3.058130
  C     -2.748710    6.930290    0.990030
  S     -2.250890    8.562000    0.605610
  C     -1.276360    8.056840   -0.752850
  C     -1.334340    6.665730   -0.877030
  C     -2.158340    6.047260    0.102050
  S     -2.199790    4.322660   -0.078120
  C     -1.115850    4.445790   -1.447230
  C     -0.709490    3.201260   -2.101800
  O     -1.078520    2.105240   -1.759740
  O      0.119250    3.437130   -3.131390
  C      0.608970    2.288900   -3.825650
  C      1.788500    1.658710   -3.098910
  C     -0.749960    5.723750   -1.751750
  C     -0.586860    8.956280   -1.580860
  C     -0.526740   10.303510   -1.381970
  C      0.121290   11.180440   -2.271630
  C      0.729720   10.904850   -3.494020
  C      1.231840   12.065460   -4.136770
  S      1.937970   11.651470   -5.655450
  C      1.512670    9.950550   -5.301420
  N      0.915040    9.750200   -4.189660
  C      1.858420    8.897090   -6.277840
  C      1.062130   13.240370   -3.426270
  S      0.218790   12.892420   -1.939190
  C      1.409110   14.525640   -3.915910
  O      1.678640   14.586570   -5.232860
  C      1.900400   15.876920   -5.573720
  C      1.789080   16.682590   -4.437600
  C      1.496400   15.805010   -3.359210
  C      1.425970   16.117620   -1.909350
  F      1.758060   15.071970   -1.137220
  F      2.267440   17.100020   -1.543820
  F      0.199670   16.511680   -1.498410
  O      1.941210   18.012870   -4.524950
  C      1.336700   18.865920   -3.567120
  C      2.171310   16.251220   -6.912940
  C      2.204040   15.374100   -7.943830
  C      2.438340   15.725150   -9.294660
  C      2.430000   14.880900  -10.389660
  C      2.691280   15.559190  -11.625980
  S      2.646710   14.420400  -12.934540
  C      2.282100   13.150760  -11.720720
  N      2.210690   13.544280  -10.510420
  C      2.085200   11.759020  -12.175210
  C      2.898770   16.893140  -11.485990
  S      2.775550   17.356420   -9.827300
  H     -8.286840    6.956940    7.748410
  H     -7.868140    4.584250    6.728000
  H     -3.913630    4.519040    1.935390
  H      0.902540    2.660290   -4.809730
  H     -0.203930    1.562280   -3.926610
  H      2.577580    2.392770   -2.952990
  H      2.176060    0.830540   -3.685090
  H      1.469140    1.284170   -2.129460
  H     -0.089550    5.967480   -2.562910
  H     -0.081920    8.537070   -2.439970
  H     -0.998760   10.742900   -0.513220
  H      1.402990    9.115860   -7.242620
  H      1.503710    7.935290   -5.917790
  H      2.937740    8.856120   -6.419700
  H      1.120270   19.793630   -4.096460
  H      2.019930   19.077030   -2.742150
  H      0.406260   18.446290   -3.179930
  H      2.336990   17.306720   -7.072470
  H      2.032850   14.321510   -7.764110
  H      2.979120   11.398470  -12.682750
  H      1.257040   11.708620  -12.881210
  H      1.871950   11.125420  -11.318780
  H      3.111950   17.630350  -12.232370

 Total Charge           Charge          ....    0
 Multiplicity           Mult            ....    1
 Number of Electrons    NEL             ....  496
 Basis Dimension        Dim             .... 1015

ORBITAL ENERGIES
----------------

  NO   OCC          E(Eh)            E(eV)
   0   2.0000     -88.981831     -2421.3187
   1   2.0000     -88.979906     -2421.2663
   2   2.0000     -88.967843     -2420.9381
   3   2.0000     -88.967136     -2420.9189
   4   2.0000     -88.959542     -2420.7122
   5   2.0000     -88.954941     -2420.5870
   6   2.0000     -88.953726     -2420.5539
   7   2.0000     -88.947065     -2420.3727
   8   2.0000     -24.803558      -674.9391
   9   2.0000     -24.802742      -674.9169
  10   2.0000     -24.798062      -674.7896
  11   2.0000     -19.302185      -525.2391
  12   2.0000     -19.255906      -523.9798
  13   2.0000     -19.255492      -523.9686
  14   2.0000     -19.201611      -522.5024
  15   2.0000     -14.421487      -392.4286
  16   2.0000     -14.419977      -392.3875
  17   2.0000     -14.415749      -392.2725
  18   2.0000     -14.406036      -392.0082
  19   2.0000     -10.525652      -286.4176
  20   2.0000     -10.401591      -283.0417
  21   2.0000     -10.360478      -281.9229
  22   2.0000     -10.354782      -281.7679
  23   2.0000     -10.347400      -281.5671
  24   2.0000     -10.346155      -281.5332
  25   2.0000     -10.342341      -281.4294
  26   2.0000     -10.339811      -281.3606
  27   2.0000     -10.326118      -280.9879
  28   2.0000     -10.324535      -280.9449
  29   2.0000     -10.322112      -280.8790
  30   2.0000     -10.321953      -280.8746
  31   2.0000     -10.321242      -280.8553
  32   2.0000     -10.321084      -280.8510
  33   2.0000     -10.320711      -280.8408
  34   2.0000     -10.320142      -280.8253
  35   2.0000     -10.318216      -280.7729
  36   2.0000     -10.317011      -280.7401
  37   2.0000     -10.312754      -280.6243
  38   2.0000     -10.312175      -280.6085
  39   2.0000     -10.308544      -280.5097
  40   2.0000     -10.307932      -280.4931
  41   2.0000     -10.306781      -280.4618
  42   2.0000     -10.305697      -280.4323
  43   2.0000     -10.303737      -280.3789
  44   2.0000     -10.298517      -280.2369
  45   2.0000     -10.297467      -280.2083
  46   2.0000     -10.296892      -280.1927
  47   2.0000     -10.295379      -280.1515
  48   2.0000     -10.294478      -280.1270
  49   2.0000     -10.294106      -280.1169
  50   2.0000     -10.291883      -280.0564
  51   2.0000     -10.290510      -280.0190
  52   2.0000     -10.290351      -280.0147
  53   2.0000     -10.289873      -280.0017
  54   2.0000     -10.288482      -279.9638
  55   2.0000     -10.288446      -279.9628
  56   2.0000     -10.284334      -279.8510
  57   2.0000     -10.284205      -279.8475
  58   2.0000     -10.279375      -279.7160
  59   2.0000     -10.276730      -279.6441
  60   2.0000     -10.274479      -279.5828
  61   2.0000     -10.257885      -279.1312
  62   2.0000      -8.076514      -219.7731
  63   2.0000      -8.074914      -219.7296
  64   2.0000      -8.062386      -219.3887
  65   2.0000      -8.062141      -219.3820
  66   2.0000      -8.055122      -219.1910
  67   2.0000      -8.049581      -219.0402
  68   2.0000      -8.048964      -219.0234
  69   2.0000      -8.043429      -218.8728
  70   2.0000      -6.045862      -164.5163
  71   2.0000      -6.044193      -164.4709
  72   2.0000      -6.041612      -164.4006
  73   2.0000      -6.039730      -164.3494
  74   2.0000      -6.038768      -164.3232
  75   2.0000      -6.037505      -164.2889
  76   2.0000      -6.031923      -164.1370
  77   2.0000      -6.031531      -164.1263
  78   2.0000      -6.027682      -164.0216
  79   2.0000      -6.027430      -164.0147
  80   2.0000      -6.024712      -163.9407
  81   2.0000      -6.024164      -163.9258
  82   2.0000      -6.024123      -163.9247
  83   2.0000      -6.020584      -163.8284
  84   2.0000      -6.019435      -163.7972
  85   2.0000      -6.018357      -163.7678
  86   2.0000      -6.016472      -163.7165
  87   2.0000      -6.015131      -163.6800
  88   2.0000      -6.014125      -163.6527
  89   2.0000      -6.013089      -163.6245
  90   2.0000      -6.011064      -163.5694
  91   2.0000      -6.010742      -163.5606
  92   2.0000      -6.009151      -163.5173
  93   2.0000      -6.004423      -163.3886
  94   2.0000      -1.392304       -37.8865
  95   2.0000      -1.295059       -35.2404
  96   2.0000      -1.290309       -35.1111
  97   2.0000      -1.223947       -33.3053
  98   2.0000      -1.187558       -32.3151
  99   2.0000      -1.158193       -31.5160
 100   2.0000      -1.095712       -29.8159
 101   2.0000      -1.071630       -29.1605
 102   2.0000      -1.060973       -28.8705
 103   2.0000      -1.034629       -28.1537
 104   2.0000      -1.014303       -27.6006
 105   2.0000      -1.010378       -27.4938
 106   2.0000      -0.998221       -27.1630
 107   2.0000      -0.985428       -26.8148
 108   2.0000      -0.984428       -26.7876
 109   2.0000      -0.968830       -26.3632
 110   2.0000      -0.953614       -25.9491
 111   2.0000      -0.945505       -25.7285
 112   2.0000      -0.925877       -25.1944
 113   2.0000      -0.921084       -25.0640
 114   2.0000      -0.908832       -24.7306
 115   2.0000      -0.901961       -24.5436
 116   2.0000      -0.887665       -24.1546
 117   2.0000      -0.885698       -24.1011
 118   2.0000      -0.866057       -23.5666
 119   2.0000      -0.864944       -23.5363
 120   2.0000      -0.862286       -23.4640
 121   2.0000      -0.858316       -23.3560
 122   2.0000      -0.852868       -23.2077
 123   2.0000      -0.848070       -23.0772
 124   2.0000      -0.844296       -22.9745
 125   2.0000      -0.826662       -22.4946
 126   2.0000      -0.819725       -22.3059
 127   2.0000      -0.812380       -22.1060
 128   2.0000      -0.805777       -21.9263
 129   2.0000      -0.792539       -21.5661
 130   2.0000      -0.788182       -21.4475
 131   2.0000      -0.786664       -21.4062
 132   2.0000      -0.776165       -21.1205
 133   2.0000      -0.768030       -20.8992
 134   2.0000      -0.756975       -20.5983
 135   2.0000      -0.750656       -20.4264
 136   2.0000      -0.733919       -19.9710
 137   2.0000      -0.716114       -19.4865
 138   2.0000      -0.714352       -19.4385
 139   2.0000      -0.697534       -18.9809
 140   2.0000      -0.693565       -18.8729
 141   2.0000      -0.691598       -18.8193
 142   2.0000      -0.683262       -18.5925
 143   2.0000      -0.676983       -18.4217
 144   2.0000      -0.672720       -18.3056
 145   2.0000      -0.669037       -18.2054
 146   2.0000      -0.662306       -18.0223
 147   2.0000      -0.659764       -17.9531
 148   2.0000      -0.657527       -17.8922
 149   2.0000      -0.646370       -17.5886
 150   2.0000      -0.639636       -17.4054
 151   2.0000      -0.632204       -17.2031
 152   2.0000      -0.626864       -17.0578
 153   2.0000      -0.624970       -17.0063
 154   2.0000      -0.618955       -16.8426
 155   2.0000      -0.613827       -16.7031
 156   2.0000      -0.606790       -16.5116
 157   2.0000      -0.600344       -16.3362
 158   2.0000      -0.596101       -16.2207
 159   2.0000      -0.591605       -16.0984
 160   2.0000      -0.582386       -15.8475
 161   2.0000      -0.580158       -15.7869
 162   2.0000      -0.573576       -15.6078
 163   2.0000      -0.569373       -15.4934
 164   2.0000      -0.561125       -15.2690
 165   2.0000      -0.558454       -15.1963
 166   2.0000      -0.557368       -15.1668
 167   2.0000      -0.552378       -15.0310
 168   2.0000      -0.550798       -14.9880
 169   2.0000      -0.547293       -14.8926
 170   2.0000      -0.545549       -14.8451
 171   2.0000      -0.544071       -14.8049
 172   2.0000      -0.539790       -14.6884
 173   2.0000      -0.539145       -14.6709
 174   2.0000      -0.537236       -14.6189
 175   2.0000      -0.535264       -14.5653
 176   2.0000      -0.533202       -14.5092
 177   2.0000      -0.528178       -14.3725
 178   2.0000      -0.524188       -14.2639
 179   2.0000      -0.519173       -14.1274
 180   2.0000      -0.513939       -13.9850
 181   2.0000      -0.512986       -13.9591
 182   2.0000      -0.511226       -13.9112
 183   2.0000      -0.508731       -13.8433
 184   2.0000      -0.507492       -13.8096
 185   2.0000      -0.505399       -13.7526
 186   2.0000      -0.502624       -13.6771
 187   2.0000      -0.499621       -13.5954
 188   2.0000      -0.497349       -13.5336
 189   2.0000      -0.494745       -13.4627
 190   2.0000      -0.493648       -13.4329
 191   2.0000      -0.491678       -13.3792
 192   2.0000      -0.488954       -13.3051
 193   2.0000      -0.488296       -13.2872
 194   2.0000      -0.485194       -13.2028
 195   2.0000      -0.483067       -13.1449
 196   2.0000      -0.477691       -12.9986
 197   2.0000      -0.472984       -12.8705
 198   2.0000      -0.470528       -12.8037
 199   2.0000      -0.468145       -12.7389
 200   2.0000      -0.466265       -12.6877
 201   2.0000      -0.464471       -12.6389
 202   2.0000      -0.461155       -12.5487
 203   2.0000      -0.459826       -12.5125
 204   2.0000      -0.457800       -12.4574
 205   2.0000      -0.452247       -12.3063
 206   2.0000      -0.448044       -12.1919
 207   2.0000      -0.447506       -12.1772
 208   2.0000      -0.446718       -12.1558
 209   2.0000      -0.444503       -12.0955
 210   2.0000      -0.441335       -12.0093
 211   2.0000      -0.436137       -11.8679
 212   2.0000      -0.435290       -11.8448
 213   2.0000      -0.432097       -11.7579
 214   2.0000      -0.431042       -11.7293
 215   2.0000      -0.429306       -11.6820
 216   2.0000      -0.427199       -11.6247
 217   2.0000      -0.422874       -11.5070
 218   2.0000      -0.421250       -11.4628
 219   2.0000      -0.420553       -11.4438
 220   2.0000      -0.418594       -11.3905
 221   2.0000      -0.417788       -11.3686
 222   2.0000      -0.416165       -11.3244
 223   2.0000      -0.411355       -11.1935
 224   2.0000      -0.409772       -11.1505
 225   2.0000      -0.408245       -11.1089
 226   2.0000      -0.405584       -11.0365
 227   2.0000      -0.401813       -10.9339
 228   2.0000      -0.394645       -10.7388
 229   2.0000      -0.386104       -10.5064
 230   2.0000      -0.372684       -10.1412
 231   2.0000      -0.363133        -9.8813
 232   2.0000      -0.355344        -9.6694
 233   2.0000      -0.354394        -9.6435
 234   2.0000      -0.351857        -9.5745
 235   2.0000      -0.348614        -9.4863
 236   2.0000      -0.344230        -9.3670
 237   2.0000      -0.340688        -9.2706
 238   2.0000      -0.337047        -9.1715
 239   2.0000      -0.314086        -8.5467
 240   2.0000      -0.311611        -8.4794
 241   2.0000      -0.310541        -8.4502
 242   2.0000      -0.307418        -8.3653
 243   2.0000      -0.298350        -8.1185
 244   2.0000      -0.293595        -7.9891
 245   2.0000      -0.273586        -7.4447
 246   2.0000      -0.238464        -6.4889
 247   2.0000      -0.213275        -5.8035
 248   0.0000      -0.095845        -2.6081
 249   0.0000      -0.075537        -2.0555
 250   0.0000      -0.038177        -1.0389
 251   0.0000      -0.013028        -0.3545
 252   0.0000      -0.010860        -0.2955

MULLIKEN ATOMIC CHARGES
-----------------------
   0 C :   -0.085740
   1 C :    0.038982
   2 C :   -0.034109
   3 C :   -0.115652
   4 S :    0.174658
   5 C :   -0.104528
   6 C :    0.008176
   7 C :    0.298559
   8 C :   -0.300513
   9 C :   -0.188409
  10 N :    0.178009
  11 C :   -0.190630
  12 N :    0.171005
  13 C :   -0.057327
  14 C :   -0.068351
  15 S :    0.178261
  16 C :   -0.121631
  17 S :    0.128052
  18 C :   -0.067774
  19 C :    0.122132
  20 C :   -0.036313
  21 S :    0.162601
  22 C :   -0.134415
  23 C :    0.217748
  24 O :   -0.197736
  25 O :   -0.305829
  26 C :    0.175735
  27 C :   -0.026477
  28 C :    0.001841
  29 C :   -0.013787
  30 C :    0.016162
  31 C :   -0.147874
  32 C :    0.087972
  33 C :    0.026972
  34 S :    0.124327
  35 C :   -0.197741
  36 N :   -0.034061
  37 C :    0.123421
  38 C :   -0.250166
  39 S :    0.178969
  40 C :    0.151379
  41 O :   -0.208182
  42 C :    0.109604
  43 C :    0.142764
  44 C :   -0.202967
  45 C :    0.513143
  46 F :   -0.155792
  47 F :   -0.161457
  48 F :   -0.165701
  49 O :   -0.302152
  50 C :    0.179138
  51 C :   -0.043435
  52 C :   -0.000929
  53 C :   -0.148096
  54 C :    0.081646
  55 C :    0.042392
  56 S :    0.065969
  57 C :   -0.203483
  58 N :   -0.023912
  59 C :    0.121862
  60 C :   -0.183510
  61 S :    0.111580
  62 H :    0.033569
  63 H :    0.010210
  64 H :    0.009123
  65 H :    0.018491
  66 H :    0.031200
  67 H :    0.023493
  68 H :    0.022710
  69 H :    0.039818
  70 H :    0.003651
  71 H :    0.003658
  72 H :   -0.020622
  73 H :    0.040890
  74 H :    0.037496
  75 H :    0.043150
  76 H :    0.035577
  77 H :    0.041158
  78 H :    0.027017
  79 H :    0.005601
  80 H :    0.001187
  81 H :    0.038694
  82 H :    0.040404
  83 H :    0.034616
  84 H :    0.024528
Sum of atomic charges:   -0.0000000

LOEWDIN ATOMIC CHARGES
----------------------
   0 C :   -0.181456
   1 C :   -0.034151
   2 C :   -0.080559
   3 C :   -0.181001
   4 S :    0.471564
   5 C :   -0.187659
   6 C :   -0.066322
   7 C :    0.083384
   8 C :   -0.103433
   9 C :   -0.019508
  10 N :   -0.029090
  11 C :   -0.015867
  12 N :   -0.036219
  13 C :   -0.036726
  14 C :   -0.179475
  15 S :    0.463109
  16 C :   -0.210258
  17 S :    0.435491
  18 C :   -0.159247
  19 C :   -0.072716
  20 C :   -0.182390
  21 S :    0.440988
  22 C :   -0.197414
  23 C :    0.066941
  24 O :   -0.174988
  25 O :   -0.092834
  26 C :    0.084560
  27 C :   -0.068206
  28 C :   -0.011480
  29 C :   -0.026071
  30 C :   -0.049303
  31 C :   -0.168956
  32 C :   -0.065474
  33 C :   -0.189300
  34 S :    0.384230
  35 C :   -0.093887
  36 N :   -0.098599
  37 C :   -0.066663
  38 C :   -0.229688
  39 S :    0.466746
  40 C :    0.043803
  41 O :    0.024526
  42 C :   -0.003754
  43 C :    0.025691
  44 C :   -0.170362
  45 C :    0.166962
  46 F :   -0.054199
  47 F :   -0.054839
  48 F :   -0.072529
  49 O :   -0.096194
  50 C :    0.079152
  51 C :   -0.043684
  52 C :   -0.033404
  53 C :   -0.178733
  54 C :   -0.068447
  55 C :   -0.208196
  56 S :    0.333732
  57 C :   -0.094825
  58 N :   -0.097953
  59 C :   -0.067872
  60 C :   -0.212163
  61 S :    0.437852
  62 H :    0.026396
  63 H :    0.041900
  64 H :    0.030929
  65 H :    0.021738
  66 H :    0.022707
  67 H :    0.026630
  68 H :    0.032829
  69 H :    0.032894
  70 H :    0.039289
  71 H :    0.037088
  72 H :    0.022617
  73 H :    0.044532
  74 H :    0.045255
  75 H :    0.045250
  76 H :    0.027395
  77 H :    0.018239
  78 H :    0.016232
  79 H :    0.033706
  80 H :    0.036408
  81 H :    0.042805
  82 H :    0.043394
  83 H :    0.044226
  84 H :    0.024904

  Mayer bond orders larger than 0.100000
B(  0-C ,  1-C ) :   1.5512 B(  0-C ,  4-S ) :   1.1433 B(  0-C , 62-H ) :   0.9652
B(  1-C ,  2-C ) :   1.2729 B(  1-C , 63-H ) :   0.9963 B(  2-C ,  3-C ) :   1.4532
B(  2-C ,  7-C ) :   1.0202 B(  3-C ,  4-S ) :   1.1355 B(  3-C ,  5-C ) :   1.1896
B(  5-C ,  6-C ) :   1.4598 B(  5-C , 15-S ) :   1.1143 B(  6-C ,  7-C ) :   0.9905
B(  6-C , 13-C ) :   1.3063 B(  7-C ,  8-C ) :   1.7094 B(  8-C ,  9-C ) :   1.1337
B(  8-C , 11-C ) :   1.1313 B(  9-C , 10-N ) :   2.9908 B( 11-C , 12-N ) :   3.0020
B( 13-C , 14-C ) :   1.4678 B( 13-C , 64-H ) :   0.9835 B( 14-C , 15-S ) :   1.0968
B( 14-C , 16-C ) :   1.1676 B( 16-C , 17-S ) :   1.1124 B( 16-C , 18-C ) :   0.1093
B( 16-C , 20-C ) :   1.5283 B( 17-S , 18-C ) :   1.1008 B( 18-C , 19-C ) :   1.3531
B( 18-C , 29-C ) :   1.2058 B( 19-C , 20-C ) :   1.2429 B( 19-C , 28-C ) :   1.1433
B( 20-C , 21-S ) :   1.0561 B( 21-S , 22-C ) :   1.0654 B( 22-C , 23-C ) :   0.9627
B( 22-C , 28-C ) :   1.6091 B( 23-C , 24-O ) :   2.1253 B( 23-C , 25-O ) :   1.2387
B( 25-O , 26-C ) :   0.9048 B( 26-C , 27-C ) :   1.1212 B( 26-C , 65-H ) :   0.9613
B( 26-C , 66-H ) :   0.9456 B( 27-C , 67-H ) :   0.9670 B( 27-C , 68-H ) :   0.9642
B( 27-C , 69-H ) :   0.9667 B( 28-C , 70-H ) :   1.0016 B( 29-C , 30-C ) :   1.6033
B( 29-C , 71-H ) :   0.9534 B( 30-C , 31-C ) :   1.1755 B( 30-C , 72-H ) :   0.9556
B( 31-C , 32-C ) :   1.3985 B( 31-C , 38-C ) :   0.1174 B( 31-C , 39-S ) :   1.1182
B( 32-C , 33-C ) :   1.2595 B( 32-C , 36-N ) :   1.2685 B( 33-C , 34-S ) :   1.0522
B( 33-C , 38-C ) :   1.4904 B( 34-S , 35-C ) :   1.0508 B( 35-C , 36-N ) :   1.8020
B( 35-C , 37-C ) :   1.0685 B( 37-C , 73-H ) :   0.9442 B( 37-C , 74-H ) :   0.9501
B( 37-C , 75-H ) :   0.9445 B( 38-C , 39-S ) :   1.1219 B( 38-C , 40-C ) :   1.1472
B( 40-C , 41-O ) :   1.2002 B( 40-C , 42-C ) :   0.1178 B( 40-C , 44-C ) :   1.4305
B( 41-O , 42-C ) :   1.1006 B( 42-C , 43-C ) :   1.4071 B( 42-C , 51-C ) :   1.1730
B( 43-C , 44-C ) :   1.2127 B( 43-C , 49-O ) :   1.2326 B( 44-C , 45-C ) :   0.9500
B( 45-C , 46-F ) :   1.1573 B( 45-C , 47-F ) :   1.1543 B( 45-C , 48-F ) :   1.1655
B( 49-O , 50-C ) :   0.9240 B( 50-C , 76-H ) :   0.9781 B( 50-C , 77-H ) :   0.9735
B( 50-C , 78-H ) :   0.9633 B( 51-C , 52-C ) :   1.5854 B( 51-C , 79-H ) :   0.9651
B( 52-C , 53-C ) :   1.1687 B( 52-C , 80-H ) :   0.9871 B( 53-C , 54-C ) :   1.4438
B( 53-C , 61-S ) :   1.1199 B( 54-C , 55-C ) :   1.2119 B( 54-C , 58-N ) :   1.2814
B( 55-C , 56-S ) :   1.0182 B( 55-C , 60-C ) :   1.5529 B( 56-S , 57-C ) :   1.0398
B( 56-S , 58-N ) :   0.1024 B( 57-C , 58-N ) :   1.8302 B( 57-C , 59-C ) :   1.0672
B( 59-C , 81-H ) :   0.9456 B( 59-C , 82-H ) :   0.9455 B( 59-C , 83-H ) :   0.9499
B( 60-C , 61-S ) :   1.1455 B( 60-C , 84-H ) :   0.9779

-----------------------------------------------------------------------------
         ABSORPTION SPECTRUM VIA TRANSITION ELECTRIC DIPOLE MOMENTS
-----------------------------------------------------------------------------
State   Energy  Wavelength   fosc         T2         TX        TY        TZ
        (cm-1)    (nm)                  (au**2)     (au)      (au)      (au)
-----------------------------------------------------------------------------
   0   11242.7    889.5   0.287869327   8.42945  -1.56309  -1.26114   2.09660
   1   15622.9    640.1   1.560890779  32.89169  -2.20252  -3.82926   3.65750
   2   19785.2    505.4   0.045455297   0.75634  -0.56230  -0.46142   0.47672
   3   21984.6    454.9   0.045826692   0.68624  -0.75769  -0.20705  -0.26321
   4   23961.9    417.3   0.216984414   2.98114  -0.06734   0.10386  -1.72215
   5   24986.5    400.2   0.005982716   0.07883   0.05506   0.04396  -0.27177
   6   27727.3    360.7   0.013086054   0.15537  -0.16762   0.31663  -0.16437
   7   28777.4    347.5   0.103004091   1.17836   0.61497   0.89300  -0.05215
   8   29633.5    337.5   0.576464692   6.40421   1.00774  -0.89075  -2.14365
   9   31045.6    322.1   0.020033162   0.21243   0.22964   0.32455  -0.23317
  10   31154.5    321.0   0.157908175   1.66863  -0.56592  -1.11909   0.30981
  11   31724.4    315.2   0.097756445   1.01444  -0.03839   0.49192   0.87806
  12   32048.6    312.0   0.129802978   1.33337  -0.03095  -1.12672  -0.25085
  13   32261.2    310.0   0.554475894   5.65819  -0.56121   2.08292   1.00234
  14   33574.8    297.8   0.009200342   0.09021   0.01026  -0.17888   0.24106
  15   33898.8    295.0   0.213498586   2.07341  -0.81942  -0.10415   1.17945
  16   33926.6    294.8   0.007870362   0.07637  -0.18789  -0.05368   0.19541
  17   34132.6    293.0   0.272078914   2.62422  -0.06061   1.21607   1.06851
  18   35310.5    283.2   0.096558512   0.90025   0.17242  -0.89690  -0.25708
  19   35764.0    279.6   0.139034627   1.27983   0.36813  -0.97446  -0.44128
  20   36175.6    276.4   0.024580192   0.22369  -0.06323   0.20618   0.42093
  21   36400.9    274.7   0.165928855   1.50067   0.04825  -1.05773  -0.61607
  22   36664.1    272.7   0.006267261   0.05627  -0.04617   0.04405  -0.22848
  23   37895.6    263.9   0.021131176   0.18357  -0.02049   0.32384   0.27979
  24   38176.1    261.9   0.050581530   0.43619  -0.39667   0.00121   0.52806
  25   38313.4    261.0   0.004330168   0.03721  -0.05647  -0.00554   0.18436
  26   38430.1    260.2   0.087156404   0.74663  -0.46241   0.38561   0.61976
  27   39023.1    256.3   0.003982328   0.03360   0.17061  -0.06179   0.02589
  28   39441.9    253.5   0.062635953   0.52281  -0.04761  -0.65778  -0.29642
  29   39717.8    251.8   0.002110901   0.01750   0.03230  -0.07339  -0.10520
  30   39854.3    250.9   0.080095761   0.66162   0.02153  -0.67805  -0.44878
  31   40090.6    249.4   0.017672986   0.14513   0.17980   0.07378  -0.32765

FINAL SINGLE POINT ENERGY     -5653.350300715908

DIPOLE MOMENT
-------------
                                X             Y             Z
Electronic contribution:    -18.31948      33.67435      44.34902
Nuclear contribution   :     19.26096     -31.22822     -46.11068
                        -----------------------------------------
Total Dipole Moment    :      0.94149       2.44614      -1.76166
                        -----------------------------------------
Magnitude (a.u.)       :      3.15807
Magnitude (Debye)      :      8.02718

Rotational constants in cm-1:     0.001513     0.000325     0.000279
Rotational constants in MHz :    45.361214     9.757503     8.362111

                             ****ORCA TERMINATED NORMALLY****
TOTAL RUN TIME: 0 days 0 hours 6 minutes 48 seconds 700 msec
