                         Program Version 4.2.0 -  RELEASE  -
|  1> # ORCA input file
|  2> # SCF done       -203.684141779803          0.000833379432
|  3> ! CAM-B3LYP def2-SVP def2/J RIJCOSX Grid4 TightSCF
|  4> %maxcore 5000
|  5> %tddft
|  6>     Mode sTDDFT
|  7>     Ethresh 5.0
|  8>     maxcore 5000
|  9> end
| 10>
| 11> %pal
| 12>   nprocs 6
| 13>   end
| 14> * xyz 0 1
| 15>    C       -9.39927        -8.84397         9.90224
| 16>    C       -8.65072        -9.14918        11.00430
| 17>    F       -9.24935        -9.52659        12.14125
| 18>    C       -7.24440        -9.07038        10.95989
| 19>    F       -6.53567        -9.37341        12.05549
| 20>    C       -6.60569        -8.68813         9.81325
| 21>    C       -7.34906        -8.36673         8.66148
| 22>    C       -8.77111        -8.44576         8.70528
| 23>    C       -9.53893        -8.12504         7.56213
| 24>    C       -8.90299        -7.73557         6.41330
| 25>    C       -7.48307        -7.65517         6.38017
| 26>    C       -6.71497        -7.96174         7.46498
| 27>    C       -7.05509        -7.19474         5.04400
| 28>    O       -5.90814        -7.04407         4.66948
| 29>    C       -8.29046        -6.93843         4.29119
| 30>    C       -9.41826        -7.33620         5.10668
| 31>    C      -10.73633        -7.40149         4.72675
| 32>    C      -11.78076        -7.85220         5.56095
| 33>    N      -12.67794        -8.20747         6.18281
| 34>    C      -11.24122        -7.05181         3.46251
| 35>    N      -11.73445        -6.78269         2.45862
| 36>    C       -8.38262        -6.34355         3.05723
| 37>    C       -7.39508        -5.99563         2.12911
| 38>    S       -5.69159        -6.37530         2.27228
| 39>    C       -5.40029        -5.73803         0.72400
| 40>    C       -6.51798        -5.22594         0.10818
| 41>    C       -7.66084        -5.36786         0.90192
| 42>    C       -8.98949        -4.84844         0.45909
| 43>    C       -9.05074        -4.74210        -1.07156
| 44>    C       -7.85117        -3.92060        -1.55149
| 45>    C       -6.53069        -4.63318        -1.26459
| 46>    C       -9.17061        -6.10729        -1.72414
| 47>    C       -8.67500        -6.42395        -2.91175
| 48>    C       -9.99115        -7.09618        -1.00443
| 49>    S       -9.29800        -8.19794         0.15241
| 50>    C      -10.84393        -8.89403         0.45607
| 51>    C      -11.82733        -8.32332        -0.28363
| 52>    C      -11.33405        -7.29359        -1.13465
| 53>    C      -12.19812        -6.57288        -2.12571
| 54>    C      -13.69955        -6.77673        -1.88374
| 55>    C      -13.98189        -8.23963        -1.50682
| 56>    C      -13.28413        -8.64663        -0.21197
| 57>    C      -14.28885        -5.81177        -0.87175
| 58>    C      -15.58540        -5.48373        -0.96324
| 59>    C      -13.42590        -5.31516         0.16445
| 60>    C      -13.54430        -4.17471         0.89520
| 61>    C      -12.62161        -3.77315         1.90540
| 62>    C      -12.89677        -2.57837         2.48170
| 63>    C      -14.05660        -1.94616         1.96294
| 64>    S      -14.78518        -2.92974         0.72281
| 65>    C      -14.58690        -0.73469         2.36320
| 66>    C      -14.10120         0.11855         3.37758
| 67>    C      -14.84860         1.24488         3.55120
| 68>    C      -15.95693         1.34178         2.68002
| 69>    S      -16.02941        -0.05324         1.63695
| 70>    C      -16.87647         2.37451         2.65433
| 71>    C      -17.92686         2.46418         1.75312
| 72>    C      -18.90007         3.44464         1.70272
| 73>    C      -19.63426         3.68392         0.44693
| 74>    O      -19.64866         2.98846        -0.54555
| 75>    C      -20.31220         4.99318         0.63686
| 76>    C      -20.07096         5.45190         1.94549
| 77>    C      -20.55860         6.68155         2.34716
| 78>    C      -21.29370         7.44388         1.43889
| 79>    C      -21.54752         6.97101         0.14144
| 80>    C      -21.04652         5.72885        -0.26552
| 81>    C      -22.28602         7.72127        -0.80744
| 82>    N      -22.85077         8.23270        -1.66341
| 83>    C      -21.83090         8.77032         1.83588
| 84>    O      -22.60521         9.41655         1.17917
| 85>    O      -21.36190         9.18717         3.01760
| 86>    C      -19.29777         4.43313         2.66346
| 87>    C      -19.18492         4.36129         4.03322
| 88>    C      -18.70801         3.23390         4.73083
| 89>    N      -18.37151         2.33176         5.35696
| 90>    C      -19.63680         5.36145         4.91572
| 91>    N      -19.96384         6.14935         5.68497
| 92>    H      -10.47493        -8.91013         9.95275
| 93>    H       -5.52851        -8.63260         9.79599
| 94>    H      -10.61291        -8.18898         7.62948
| 95>    H       -5.63907        -7.89303         7.41315
| 96>    H       -9.38487        -6.10151         2.72949
| 97>    H       -4.40491        -5.74844         0.32228
| 98>    H       -9.13718        -3.85129         0.88910
| 99>    H       -9.80297        -5.47967         0.81895
|100>    H       -9.96855        -4.19301        -1.32388
|101>    H       -7.86628        -2.96375        -1.02457
|102>    H       -7.93437        -3.70679        -2.61707
|103>    H       -5.69658        -3.93691        -1.37690
|104>    H       -6.37778        -5.44238        -1.98318
|105>    H       -8.11182        -5.73864        -3.51950
|106>    H       -8.82673        -7.40635        -3.32615
|107>    H      -10.92786        -9.68542         1.17396
|108>    H      -11.95273        -6.95811        -3.12103
|109>    H      -11.96184        -5.50583        -2.13452
|110>    H      -14.21481        -6.58173        -2.83099
|111>    H      -13.62891        -8.87792        -2.32033
|112>    H      -15.05821        -8.38684        -1.40313
|113>    H      -13.42480        -9.71325        -0.02608
|114>    H      -13.72515        -8.10665         0.63173
|115>    H      -16.20383        -5.87311        -1.75409
|116>    H      -16.07811        -4.85896        -0.24028
|117>    H      -12.55153        -5.91039         0.38678
|118>    H      -11.79601        -4.40810         2.17070
|119>    H      -12.30489        -2.12680         3.25713
|120>    H      -13.22369        -0.11707         3.95205
|121>    H      -14.64416         2.00681         4.28177
|122>    H      -16.72118         3.16510         3.37440
|123>    H      -17.95045         1.75113         0.93460
|124>    H      -20.38150         7.07395         3.33503
|125>    H      -21.22886         5.35881        -1.26309
|126>    H      -21.74767        10.04763         3.24465
|127> *
|128>
|129>                          ****END OF INPUT****

CARTESIAN COORDINATES (ANGSTROEM)
---------------------------------
  C     -9.399270   -8.843970    9.902240
  C     -8.650720   -9.149180   11.004300
  F     -9.249350   -9.526590   12.141250
  C     -7.244400   -9.070380   10.959890
  F     -6.535670   -9.373410   12.055490
  C     -6.605690   -8.688130    9.813250
  C     -7.349060   -8.366730    8.661480
  C     -8.771110   -8.445760    8.705280
  C     -9.538930   -8.125040    7.562130
  C     -8.902990   -7.735570    6.413300
  C     -7.483070   -7.655170    6.380170
  C     -6.714970   -7.961740    7.464980
  C     -7.055090   -7.194740    5.044000
  O     -5.908140   -7.044070    4.669480
  C     -8.290460   -6.938430    4.291190
  C     -9.418260   -7.336200    5.106680
  C    -10.736330   -7.401490    4.726750
  C    -11.780760   -7.852200    5.560950
  N    -12.677940   -8.207470    6.182810
  C    -11.241220   -7.051810    3.462510
  N    -11.734450   -6.782690    2.458620
  C     -8.382620   -6.343550    3.057230
  C     -7.395080   -5.995630    2.129110
  S     -5.691590   -6.375300    2.272280
  C     -5.400290   -5.738030    0.724000
  C     -6.517980   -5.225940    0.108180
  C     -7.660840   -5.367860    0.901920
  C     -8.989490   -4.848440    0.459090
  C     -9.050740   -4.742100   -1.071560
  C     -7.851170   -3.920600   -1.551490
  C     -6.530690   -4.633180   -1.264590
  C     -9.170610   -6.107290   -1.724140
  C     -8.675000   -6.423950   -2.911750
  C     -9.991150   -7.096180   -1.004430
  S     -9.298000   -8.197940    0.152410
  C    -10.843930   -8.894030    0.456070
  C    -11.827330   -8.323320   -0.283630
  C    -11.334050   -7.293590   -1.134650
  C    -12.198120   -6.572880   -2.125710
  C    -13.699550   -6.776730   -1.883740
  C    -13.981890   -8.239630   -1.506820
  C    -13.284130   -8.646630   -0.211970
  C    -14.288850   -5.811770   -0.871750
  C    -15.585400   -5.483730   -0.963240
  C    -13.425900   -5.315160    0.164450
  C    -13.544300   -4.174710    0.895200
  C    -12.621610   -3.773150    1.905400
  C    -12.896770   -2.578370    2.481700
  C    -14.056600   -1.946160    1.962940
  S    -14.785180   -2.929740    0.722810
  C    -14.586900   -0.734690    2.363200
  C    -14.101200    0.118550    3.377580
  C    -14.848600    1.244880    3.551200
  C    -15.956930    1.341780    2.680020
  S    -16.029410   -0.053240    1.636950
  C    -16.876470    2.374510    2.654330
  C    -17.926860    2.464180    1.753120
  C    -18.900070    3.444640    1.702720
  C    -19.634260    3.683920    0.446930
  O    -19.648660    2.988460   -0.545550
  C    -20.312200    4.993180    0.636860
  C    -20.070960    5.451900    1.945490
  C    -20.558600    6.681550    2.347160
  C    -21.293700    7.443880    1.438890
  C    -21.547520    6.971010    0.141440
  C    -21.046520    5.728850   -0.265520
  C    -22.286020    7.721270   -0.807440
  N    -22.850770    8.232700   -1.663410
  C    -21.830900    8.770320    1.835880
  O    -22.605210    9.416550    1.179170
  O    -21.361900    9.187170    3.017600
  C    -19.297770    4.433130    2.663460
  C    -19.184920    4.361290    4.033220
  C    -18.708010    3.233900    4.730830
  N    -18.371510    2.331760    5.356960
  C    -19.636800    5.361450    4.915720
  N    -19.963840    6.149350    5.684970
  H    -10.474930   -8.910130    9.952750
  H     -5.528510   -8.632600    9.795990
  H    -10.612910   -8.188980    7.629480
  H     -5.639070   -7.893030    7.413150
  H     -9.384870   -6.101510    2.729490
  H     -4.404910   -5.748440    0.322280
  H     -9.137180   -3.851290    0.889100
  H     -9.802970   -5.479670    0.818950
  H     -9.968550   -4.193010   -1.323880
  H     -7.866280   -2.963750   -1.024570
  H     -7.934370   -3.706790   -2.617070
  H     -5.696580   -3.936910   -1.376900
  H     -6.377780   -5.442380   -1.983180
  H     -8.111820   -5.738640   -3.519500
  H     -8.826730   -7.406350   -3.326150
  H    -10.927860   -9.685420    1.173960
  H    -11.952730   -6.958110   -3.121030
  H    -11.961840   -5.505830   -2.134520
  H    -14.214810   -6.581730   -2.830990
  H    -13.628910   -8.877920   -2.320330
  H    -15.058210   -8.386840   -1.403130
  H    -13.424800   -9.713250   -0.026080
  H    -13.725150   -8.106650    0.631730
  H    -16.203830   -5.873110   -1.754090
  H    -16.078110   -4.858960   -0.240280
  H    -12.551530   -5.910390    0.386780
  H    -11.796010   -4.408100    2.170700
  H    -12.304890   -2.126800    3.257130
  H    -13.223690   -0.117070    3.952050
  H    -14.644160    2.006810    4.281770
  H    -16.721180    3.165100    3.374400
  H    -17.950450    1.751130    0.934600
  H    -20.381500    7.073950    3.335030
  H    -21.228860    5.358810   -1.263090
  H    -21.747670   10.047630    3.244650

 Total Charge           Charge          ....    0
 Multiplicity           Mult            ....    1
 Number of Electrons    NEL             ....  556
 Basis Dimension        Dim             .... 1269

ORBITAL ENERGIES
----------------

  NO   OCC          E(Eh)            E(eV)
   0   2.0000     -88.970859     -2421.0202
   1   2.0000     -88.966253     -2420.8948
   2   2.0000     -88.964068     -2420.8354
   3   2.0000     -88.951902     -2420.5043
   4   2.0000     -24.804164      -674.9556
   5   2.0000     -24.802933      -674.9221
   6   2.0000     -19.264739      -524.2202
   7   2.0000     -19.227477      -523.2063
   8   2.0000     -19.206960      -522.6480
   9   2.0000     -19.204176      -522.5722
  10   2.0000     -14.436539      -392.8382
  11   2.0000     -14.423949      -392.4956
  12   2.0000     -14.403719      -391.9451
  13   2.0000     -14.402016      -391.8988
  14   2.0000     -14.392699      -391.6453
  15   2.0000     -10.408550      -283.2310
  16   2.0000     -10.387831      -282.6672
  17   2.0000     -10.386792      -282.6390
  18   2.0000     -10.377145      -282.3765
  19   2.0000     -10.355344      -281.7832
  20   2.0000     -10.353296      -281.7275
  21   2.0000     -10.350625      -281.6548
  22   2.0000     -10.341775      -281.4140
  23   2.0000     -10.340556      -281.3808
  24   2.0000     -10.333605      -281.1917
  25   2.0000     -10.332141      -281.1518
  26   2.0000     -10.330382      -281.1040
  27   2.0000     -10.329428      -281.0780
  28   2.0000     -10.327693      -281.0308
  29   2.0000     -10.326846      -281.0078
  30   2.0000     -10.323411      -280.9143
  31   2.0000     -10.321923      -280.8738
  32   2.0000     -10.317338      -280.7490
  33   2.0000     -10.317329      -280.7488
  34   2.0000     -10.316921      -280.7377
  35   2.0000     -10.314548      -280.6731
  36   2.0000     -10.311441      -280.5886
  37   2.0000     -10.310515      -280.5634
  38   2.0000     -10.310280      -280.5570
  39   2.0000     -10.309358      -280.5319
  40   2.0000     -10.308523      -280.5092
  41   2.0000     -10.307446      -280.4799
  42   2.0000     -10.307346      -280.4771
  43   2.0000     -10.307135      -280.4714
  44   2.0000     -10.306788      -280.4620
  45   2.0000     -10.305774      -280.4344
  46   2.0000     -10.305401      -280.4242
  47   2.0000     -10.305092      -280.4158
  48   2.0000     -10.304553      -280.4012
  49   2.0000     -10.303026      -280.3596
  50   2.0000     -10.302683      -280.3502
  51   2.0000     -10.302431      -280.3434
  52   2.0000     -10.300340      -280.2865
  53   2.0000     -10.299266      -280.2573
  54   2.0000     -10.296555      -280.1835
  55   2.0000     -10.294597      -280.1302
  56   2.0000     -10.294530      -280.1284
  57   2.0000     -10.294254      -280.1209
  58   2.0000     -10.293929      -280.1120
  59   2.0000     -10.293598      -280.1030
  60   2.0000     -10.292677      -280.0780
  61   2.0000     -10.290521      -280.0193
  62   2.0000     -10.290521      -280.0193
  63   2.0000     -10.290385      -280.0156
  64   2.0000     -10.283866      -279.8382
  65   2.0000     -10.283587      -279.8306
  66   2.0000     -10.282570      -279.8029
  67   2.0000     -10.281855      -279.7835
  68   2.0000     -10.281490      -279.7736
  69   2.0000     -10.277836      -279.6741
  70   2.0000     -10.277313      -279.6599
  71   2.0000     -10.276905      -279.6488
  72   2.0000     -10.274546      -279.5846
  73   2.0000     -10.273660      -279.5605
  74   2.0000     -10.270343      -279.4702
  75   2.0000     -10.269977      -279.4603
  76   2.0000     -10.269318      -279.4424
  77   2.0000      -8.064926      -219.4578
  78   2.0000      -8.062105      -219.3810
  79   2.0000      -8.060299      -219.3319
  80   2.0000      -8.046863      -218.9663
  81   2.0000      -6.034145      -164.1974
  82   2.0000      -6.031830      -164.1344
  83   2.0000      -6.029865      -164.0810
  84   2.0000      -6.029547      -164.0723
  85   2.0000      -6.027665      -164.0211
  86   2.0000      -6.027549      -164.0179
  87   2.0000      -6.025869      -163.9722
  88   2.0000      -6.023154      -163.8984
  89   2.0000      -6.021483      -163.8529
  90   2.0000      -6.016197      -163.7091
  91   2.0000      -6.011924      -163.5928
  92   2.0000      -6.009190      -163.5184
  93   2.0000      -1.326574       -36.0979
  94   2.0000      -1.311702       -35.6932
  95   2.0000      -1.193610       -32.4798
  96   2.0000      -1.143542       -31.1174
  97   2.0000      -1.118434       -30.4341
  98   2.0000      -1.097950       -29.8767
  99   2.0000      -1.034064       -28.1383
 100   2.0000      -1.016296       -27.6548
 101   2.0000      -1.014039       -27.5934
 102   2.0000      -1.010015       -27.4839
 103   2.0000      -1.007825       -27.4243
 104   2.0000      -1.006689       -27.3934
 105   2.0000      -0.994804       -27.0700
 106   2.0000      -0.991668       -26.9847
 107   2.0000      -0.989686       -26.9307
 108   2.0000      -0.986207       -26.8361
 109   2.0000      -0.981531       -26.7088
 110   2.0000      -0.977192       -26.5908
 111   2.0000      -0.949739       -25.8437
 112   2.0000      -0.948834       -25.8191
 113   2.0000      -0.941694       -25.6248
 114   2.0000      -0.938492       -25.5377
 115   2.0000      -0.916567       -24.9411
 116   2.0000      -0.913055       -24.8455
 117   2.0000      -0.900762       -24.5110
 118   2.0000      -0.897097       -24.4113
 119   2.0000      -0.895385       -24.3647
 120   2.0000      -0.893956       -24.3258
 121   2.0000      -0.886115       -24.1124
 122   2.0000      -0.874277       -23.7903
 123   2.0000      -0.872603       -23.7447
 124   2.0000      -0.863602       -23.4998
 125   2.0000      -0.858762       -23.3681
 126   2.0000      -0.851279       -23.1645
 127   2.0000      -0.847998       -23.0752
 128   2.0000      -0.846665       -23.0389
 129   2.0000      -0.838689       -22.8219
 130   2.0000      -0.830947       -22.6112
 131   2.0000      -0.825803       -22.4712
 132   2.0000      -0.819267       -22.2934
 133   2.0000      -0.807347       -21.9690
 134   2.0000      -0.785670       -21.3792
 135   2.0000      -0.784849       -21.3568
 136   2.0000      -0.779163       -21.2021
 137   2.0000      -0.777663       -21.1613
 138   2.0000      -0.777189       -21.1484
 139   2.0000      -0.745044       -20.2737
 140   2.0000      -0.741598       -20.1799
 141   2.0000      -0.736495       -20.0410
 142   2.0000      -0.732777       -19.9399
 143   2.0000      -0.726272       -19.7629
 144   2.0000      -0.720213       -19.5980
 145   2.0000      -0.717217       -19.5165
 146   2.0000      -0.711660       -19.3652
 147   2.0000      -0.708639       -19.2831
 148   2.0000      -0.698448       -19.0057
 149   2.0000      -0.695939       -18.9375
 150   2.0000      -0.690617       -18.7926
 151   2.0000      -0.680779       -18.5249
 152   2.0000      -0.678720       -18.4689
 153   2.0000      -0.667175       -18.1548
 154   2.0000      -0.666297       -18.1309
 155   2.0000      -0.662493       -18.0273
 156   2.0000      -0.659992       -17.9593
 157   2.0000      -0.650017       -17.6879
 158   2.0000      -0.649547       -17.6751
 159   2.0000      -0.638810       -17.3829
 160   2.0000      -0.637463       -17.3463
 161   2.0000      -0.636787       -17.3279
 162   2.0000      -0.631123       -17.1737
 163   2.0000      -0.623085       -16.9550
 164   2.0000      -0.620888       -16.8952
 165   2.0000      -0.612209       -16.6590
 166   2.0000      -0.610017       -16.5994
 167   2.0000      -0.607911       -16.5421
 168   2.0000      -0.601599       -16.3704
 169   2.0000      -0.596845       -16.2410
 170   2.0000      -0.595480       -16.2038
 171   2.0000      -0.591136       -16.0856
 172   2.0000      -0.590467       -16.0674
 173   2.0000      -0.582660       -15.8550
 174   2.0000      -0.582095       -15.8396
 175   2.0000      -0.570268       -15.5178
 176   2.0000      -0.569809       -15.5053
 177   2.0000      -0.566850       -15.4248
 178   2.0000      -0.563768       -15.3409
 179   2.0000      -0.559718       -15.2307
 180   2.0000      -0.559173       -15.2159
 181   2.0000      -0.553422       -15.0594
 182   2.0000      -0.552975       -15.0472
 183   2.0000      -0.552583       -15.0366
 184   2.0000      -0.549429       -14.9507
 185   2.0000      -0.548757       -14.9324
 186   2.0000      -0.544872       -14.8267
 187   2.0000      -0.541775       -14.7425
 188   2.0000      -0.538313       -14.6482
 189   2.0000      -0.537349       -14.6220
 190   2.0000      -0.535658       -14.5760
 191   2.0000      -0.533599       -14.5200
 192   2.0000      -0.531859       -14.4726
 193   2.0000      -0.529578       -14.4106
 194   2.0000      -0.523897       -14.2560
 195   2.0000      -0.523595       -14.2478
 196   2.0000      -0.522082       -14.2066
 197   2.0000      -0.520728       -14.1697
 198   2.0000      -0.516342       -14.0504
 199   2.0000      -0.515074       -14.0159
 200   2.0000      -0.514046       -13.9879
 201   2.0000      -0.512898       -13.9567
 202   2.0000      -0.510781       -13.8991
 203   2.0000      -0.506394       -13.7797
 204   2.0000      -0.502797       -13.6818
 205   2.0000      -0.501555       -13.6480
 206   2.0000      -0.500190       -13.6108
 207   2.0000      -0.498421       -13.5627
 208   2.0000      -0.496058       -13.4984
 209   2.0000      -0.493575       -13.4309
 210   2.0000      -0.489981       -13.3331
 211   2.0000      -0.487847       -13.2750
 212   2.0000      -0.487086       -13.2543
 213   2.0000      -0.485227       -13.2037
 214   2.0000      -0.481866       -13.1122
 215   2.0000      -0.480566       -13.0769
 216   2.0000      -0.479073       -13.0362
 217   2.0000      -0.477666       -12.9979
 218   2.0000      -0.476770       -12.9736
 219   2.0000      -0.475641       -12.9429
 220   2.0000      -0.471644       -12.8341
 221   2.0000      -0.471156       -12.8208
 222   2.0000      -0.469850       -12.7853
 223   2.0000      -0.469062       -12.7638
 224   2.0000      -0.464159       -12.6304
 225   2.0000      -0.461805       -12.5664
 226   2.0000      -0.457204       -12.4412
 227   2.0000      -0.455510       -12.3950
 228   2.0000      -0.453388       -12.3373
 229   2.0000      -0.451382       -12.2827
 230   2.0000      -0.447690       -12.1823
 231   2.0000      -0.445337       -12.1182
 232   2.0000      -0.443063       -12.0563
 233   2.0000      -0.438427       -11.9302
 234   2.0000      -0.437534       -11.9059
 235   2.0000      -0.434843       -11.8327
 236   2.0000      -0.431059       -11.7297
 237   2.0000      -0.428733       -11.6664
 238   2.0000      -0.426741       -11.6122
 239   2.0000      -0.426333       -11.6011
 240   2.0000      -0.423932       -11.5358
 241   2.0000      -0.422446       -11.4953
 242   2.0000      -0.421662       -11.4740
 243   2.0000      -0.420771       -11.4498
 244   2.0000      -0.417445       -11.3593
 245   2.0000      -0.414984       -11.2923
 246   2.0000      -0.414659       -11.2834
 247   2.0000      -0.410807       -11.1786
 248   2.0000      -0.410647       -11.1743
 249   2.0000      -0.409725       -11.1492
 250   2.0000      -0.408753       -11.1227
 251   2.0000      -0.405888       -11.0448
 252   2.0000      -0.404391       -11.0040
 253   2.0000      -0.401285       -10.9195
 254   2.0000      -0.399474       -10.8702
 255   2.0000      -0.397574       -10.8185
 256   2.0000      -0.395754       -10.7690
 257   2.0000      -0.393357       -10.7038
 258   2.0000      -0.390676       -10.6308
 259   2.0000      -0.369506       -10.0548
 260   2.0000      -0.366688        -9.9781
 261   2.0000      -0.355164        -9.6645
 262   2.0000      -0.350190        -9.5292
 263   2.0000      -0.346081        -9.4173
 264   2.0000      -0.343599        -9.3498
 265   2.0000      -0.341251        -9.2859
 266   2.0000      -0.340564        -9.2672
 267   2.0000      -0.339294        -9.2327
 268   2.0000      -0.328847        -8.9484
 269   2.0000      -0.327502        -8.9118
 270   2.0000      -0.321639        -8.7522
 271   2.0000      -0.311502        -8.4764
 272   2.0000      -0.311105        -8.4656
 273   2.0000      -0.305340        -8.3087
 274   2.0000      -0.294124        -8.0035
 275   2.0000      -0.293360        -7.9827
 276   2.0000      -0.286729        -7.8023
 277   2.0000      -0.233958        -6.3663
 278   0.0000      -0.107638        -2.9290
 279   0.0000      -0.102351        -2.7851
 280   0.0000      -0.070675        -1.9232
 281   0.0000      -0.068257        -1.8574
 282   0.0000      -0.047055        -1.2804

MULLIKEN ATOMIC CHARGES
-----------------------
   0 C :   -0.112315
   1 C :    0.243866
   2 F :   -0.169687
   3 C :    0.241406
   4 F :   -0.170048
   5 C :   -0.110157
   6 C :    0.120119
   7 C :    0.116608
   8 C :   -0.087818
   9 C :    0.043341
  10 C :    0.000530
  11 C :   -0.087593
  12 C :    0.159022
  13 O :   -0.167345
  14 C :   -0.104729
  15 C :    0.331160
  16 C :   -0.376803
  17 C :   -0.187967
  18 N :    0.152698
  19 C :   -0.166560
  20 N :    0.142915
  21 C :   -0.023137
  22 C :   -0.112100
  23 S :    0.210416
  24 C :   -0.089180
  25 C :   -0.071261
  26 C :   -0.066545
  27 C :    0.141132
  28 C :   -0.019634
  29 C :    0.042543
  30 C :    0.152763
  31 C :   -0.080399
  32 C :    0.004277
  33 C :   -0.259324
  34 S :    0.102193
  35 C :   -0.133596
  36 C :   -0.030543
  37 C :   -0.043260
  38 C :    0.209755
  39 C :   -0.052115
  40 C :    0.072121
  41 C :    0.129971
  42 C :   -0.050964
  43 C :   -0.042202
  44 C :    0.003111
  45 C :   -0.041479
  46 C :    0.077442
  47 C :    0.020215
  48 C :   -0.024271
  49 S :    0.110204
  50 C :   -0.070837
  51 C :    0.043638
  52 C :    0.032383
  53 C :   -0.010785
  54 S :    0.120052
  55 C :   -0.010640
  56 C :    0.032451
  57 C :   -0.144206
  58 C :    0.144798
  59 O :   -0.145801
  60 C :    0.004981
  61 C :    0.049129
  62 C :   -0.063094
  63 C :    0.030523
  64 C :   -0.094324
  65 C :   -0.045678
  66 C :   -0.151416
  67 N :    0.132428
  68 C :    0.140834
  69 O :   -0.164929
  70 O :   -0.159336
  71 C :    0.289270
  72 C :   -0.342934
  73 C :   -0.218839
  74 N :    0.160866
  75 C :   -0.180842
  76 N :    0.141830
  77 H :    0.009660
  78 H :    0.001494
  79 H :   -0.004464
  80 H :   -0.008653
  81 H :   -0.018338
  82 H :    0.020664
  83 H :    0.020639
  84 H :    0.068626
  85 H :    0.014678
  86 H :    0.003550
  87 H :    0.006730
  88 H :    0.011391
  89 H :    0.016963
  90 H :    0.013378
  91 H :    0.020987
  92 H :    0.005277
  93 H :    0.010624
  94 H :    0.004993
  95 H :   -0.004394
  96 H :    0.006768
  97 H :   -0.003696
  98 H :    0.003008
  99 H :    0.026585
 100 H :    0.023856
 101 H :    0.032466
 102 H :    0.038888
 103 H :   -0.021414
 104 H :   -0.011485
 105 H :   -0.004530
 106 H :    0.000895
 107 H :    0.008193
 108 H :    0.015339
 109 H :    0.017249
 110 H :    0.008428
 111 H :    0.199344
Sum of atomic charges:   -0.0000000

LOEWDIN ATOMIC CHARGES
----------------------
   0 C :   -0.028862
   1 C :    0.067061
   2 F :   -0.047805
   3 C :    0.069042
   4 F :   -0.048086
   5 C :   -0.033532
   6 C :   -0.007858
   7 C :   -0.007654
   8 C :    0.019267
   9 C :   -0.025470
  10 C :   -0.050656
  11 C :    0.028850
  12 C :    0.080750
  13 O :   -0.161297
  14 C :   -0.118739
  15 C :    0.084332
  16 C :   -0.158039
  17 C :   -0.021000
  18 N :   -0.055576
  19 C :    0.002243
  20 N :   -0.057733
  21 C :    0.064161
  22 C :   -0.200247
  23 S :    0.522953
  24 C :   -0.157796
  25 C :   -0.071286
  26 C :   -0.015732
  27 C :   -0.026872
  28 C :   -0.019422
  29 C :   -0.020968
  30 C :   -0.025623
  31 C :   -0.036480
  32 C :   -0.037008
  33 C :   -0.183481
  34 S :    0.429885
  35 C :   -0.190254
  36 C :   -0.064570
  37 C :   -0.070629
  38 C :   -0.020068
  39 C :   -0.022924
  40 C :   -0.015348
  41 C :   -0.025825
  42 C :   -0.030936
  43 C :   -0.029305
  44 C :   -0.003414
  45 C :   -0.146482
  46 C :    0.004874
  47 C :   -0.049036
  48 C :   -0.138493
  49 S :    0.402882
  50 C :   -0.200129
  51 C :   -0.001415
  52 C :   -0.042058
  53 C :   -0.094813
  54 S :    0.408325
  55 C :   -0.077476
  56 C :    0.057342
  57 C :   -0.118889
  58 C :    0.076330
  59 O :   -0.149430
  60 C :   -0.027564
  61 C :    0.000481
  62 C :    0.020776
  63 C :   -0.038958
  64 C :   -0.028525
  65 C :    0.038823
  66 C :   -0.032970
  67 N :   -0.039142
  68 C :    0.083319
  69 O :   -0.147416
  70 O :   -0.027122
  71 C :    0.063130
  72 C :   -0.149649
  73 C :   -0.023898
  74 N :   -0.057987
  75 C :   -0.023065
  76 N :   -0.059340
  77 H :    0.048244
  78 H :    0.045286
  79 H :    0.040286
  80 H :    0.040623
  81 H :    0.042176
  82 H :    0.026334
  83 H :    0.037841
  84 H :    0.029019
  85 H :    0.037072
  86 H :    0.026427
  87 H :    0.025354
  88 H :    0.033559
  89 H :    0.033848
  90 H :    0.018631
  91 H :    0.028166
  92 H :    0.018161
  93 H :    0.037348
  94 H :    0.028926
  95 H :    0.033271
  96 H :    0.023140
  97 H :    0.023858
  98 H :    0.032677
  99 H :    0.033833
 100 H :    0.025967
 101 H :    0.012783
 102 H :    0.041289
 103 H :    0.031804
 104 H :    0.032923
 105 H :    0.035763
 106 H :    0.039704
 107 H :    0.037620
 108 H :    0.035962
 109 H :    0.043973
 110 H :    0.049639
 111 H :    0.108019

  Mayer bond orders larger than 0.100000
B(  0-C ,  1-C ) :   1.4385 B(  0-C ,  5-C ) :   0.1084 B(  0-C ,  7-C ) :   1.1882
B(  0-C , 77-H ) :   1.0077 B(  1-C ,  2-F ) :   1.1358 B(  1-C ,  3-C ) :   1.1931
B(  3-C ,  4-F ) :   1.1350 B(  3-C ,  5-C ) :   1.4400 B(  5-C ,  6-C ) :   1.1941
B(  5-C , 78-H ) :   1.0079 B(  6-C ,  7-C ) :   1.2568 B(  6-C , 11-C ) :   1.1823
B(  7-C ,  8-C ) :   1.2134 B(  8-C ,  9-C ) :   1.4519 B(  8-C , 79-H ) :   0.9910
B(  9-C , 10-C ) :   1.2207 B(  9-C , 15-C ) :   0.9808 B( 10-C , 11-C ) :   1.4752
B( 10-C , 12-C ) :   0.9467 B( 11-C , 80-H ) :   1.0176 B( 12-C , 13-O ) :   2.1693
B( 12-C , 14-C ) :   0.9657 B( 14-C , 15-C ) :   1.0960 B( 14-C , 21-C ) :   1.4959
B( 15-C , 16-C ) :   1.5966 B( 16-C , 17-C ) :   1.1457 B( 16-C , 19-C ) :   1.1625
B( 17-C , 18-N ) :   2.9678 B( 19-C , 20-N ) :   2.8631 B( 21-C , 22-C ) :   1.2927
B( 21-C , 81-H ) :   0.9328 B( 22-C , 23-S ) :   1.1036 B( 22-C , 26-C ) :   1.3464
B( 23-S , 24-C ) :   1.2182 B( 24-C , 25-C ) :   1.4631 B( 24-C , 82-H ) :   0.9686
B( 25-C , 26-C ) :   1.3979 B( 25-C , 30-C ) :   1.0174 B( 26-C , 27-C ) :   1.0492
B( 27-C , 28-C ) :   1.0613 B( 27-C , 83-H ) :   0.8973 B( 27-C , 84-H ) :   0.8794
B( 28-C , 29-C ) :   1.0691 B( 28-C , 31-C ) :   0.9700 B( 28-C , 85-H ) :   0.8873
B( 29-C , 30-C ) :   1.0935 B( 29-C , 86-H ) :   0.9386 B( 29-C , 87-H ) :   0.9258
B( 30-C , 88-H ) :   0.9188 B( 30-C , 89-H ) :   0.9088 B( 31-C , 32-C ) :   2.0277
B( 31-C , 33-C ) :   0.9562 B( 32-C , 90-H ) :   0.9379 B( 32-C , 91-H ) :   0.9382
B( 33-C , 34-S ) :   1.1477 B( 33-C , 37-C ) :   1.5995 B( 34-S , 35-C ) :   1.1370
B( 35-C , 36-C ) :   1.5992 B( 35-C , 92-H ) :   0.9664 B( 36-C , 37-C ) :   1.2518
B( 36-C , 41-C ) :   1.0334 B( 37-C , 38-C ) :   1.0463 B( 38-C , 39-C ) :   1.0575
B( 38-C , 93-H ) :   0.8972 B( 38-C , 94-H ) :   0.9038 B( 39-C , 40-C ) :   1.0526
B( 39-C , 42-C ) :   0.9709 B( 39-C , 95-H ) :   0.9014 B( 40-C , 41-C ) :   1.0871
B( 40-C , 96-H ) :   0.9459 B( 40-C , 97-H ) :   0.9292 B( 41-C , 98-H ) :   0.9147
B( 41-C , 99-H ) :   0.9124 B( 42-C , 43-C ) :   1.9187 B( 42-C , 44-C ) :   1.0698
B( 43-C ,100-H ) :   0.9434 B( 43-C ,101-H ) :   0.9396 B( 44-C , 45-C ) :   1.6798
B( 44-C ,102-H ) :   0.9433 B( 45-C , 46-C ) :   1.1252 B( 45-C , 49-S ) :   1.0082
B( 46-C , 47-C ) :   1.5957 B( 46-C ,103-H ) :   0.9909 B( 47-C , 48-C ) :   1.1695
B( 47-C ,104-H ) :   0.9966 B( 48-C , 49-S ) :   1.0832 B( 48-C , 50-C ) :   1.4797
B( 50-C , 51-C ) :   1.2169 B( 50-C , 54-S ) :   1.0352 B( 51-C , 52-C ) :   1.5403
B( 51-C ,105-H ) :   0.9941 B( 52-C , 53-C ) :   1.1895 B( 52-C ,106-H ) :   1.0010
B( 53-C , 54-S ) :   1.1009 B( 53-C , 55-C ) :   1.4696 B( 55-C , 56-C ) :   1.2599
B( 55-C ,107-H ) :   0.9608 B( 56-C , 57-C ) :   1.4813 B( 56-C ,108-H ) :   0.9458
B( 57-C , 58-C ) :   0.9791 B( 57-C , 71-C ) :   1.1091 B( 58-C , 59-O ) :   2.2560
B( 58-C , 60-C ) :   0.8967 B( 60-C , 61-C ) :   1.3373 B( 60-C , 65-C ) :   1.3679
B( 61-C , 62-C ) :   1.3445 B( 61-C , 71-C ) :   0.9817 B( 62-C , 63-C ) :   1.3166
B( 62-C ,109-H ) :   0.9861 B( 63-C , 64-C ) :   1.3973 B( 63-C , 68-C ) :   0.8890
B( 64-C , 65-C ) :   1.3551 B( 64-C , 66-C ) :   1.0658 B( 65-C ,110-H ) :   1.0165
B( 66-C , 67-N ) :   3.0373 B( 68-C , 69-O ) :   2.1513 B( 68-C , 70-O ) :   1.2980
B( 70-O ,111-H ) :   0.9377 B( 71-C , 72-C ) :   1.5971 B( 72-C , 73-C ) :   1.1662
B( 72-C , 75-C ) :   1.1360 B( 73-C , 74-N ) :   3.0134 B( 75-C , 76-N ) :   2.9729

-----------------------------------------------------------------------------
         ABSORPTION SPECTRUM VIA TRANSITION ELECTRIC DIPOLE MOMENTS
-----------------------------------------------------------------------------
State   Energy  Wavelength   fosc         T2         TX        TY        TZ
        (cm-1)    (nm)                  (au**2)     (au)      (au)      (au)
-----------------------------------------------------------------------------
   0   13455.2    743.2   1.399989612  34.25384  -3.13062   4.83812   1.02254
   1   17791.5    562.1   0.003126367   0.05785  -0.13448   0.18615   0.07153
   2   20169.7    495.8   0.062894225   1.02657   0.42580  -0.77734   0.49092
   3   22826.4    438.1   0.208767282   3.01093  -1.30245  -0.66332   0.93518
   4   24494.5    408.3   0.486569814   6.53960  -1.32495  -0.76770   2.04811
   5   24852.1    402.4   0.008330608   0.11035   0.10072  -0.05113  -0.31240
   6   26187.7    381.9   0.003475006   0.04369   0.18401   0.06899   0.07117
   7   26555.2    376.6   0.002437911   0.03022  -0.13834  -0.10314   0.02117
   8   26583.6    376.2   0.032418451   0.40147  -0.35002  -0.15516   0.50486
   9   26936.5    371.2   0.117126295   1.43149   0.56420   0.98651   0.37412
  10   27956.8    357.7   0.024654343   0.29032  -0.18538  -0.17064   0.47628
  11   28132.0    355.5   0.011871994   0.13893  -0.00220   0.11715  -0.35384
  12   28305.3    353.3   0.047470048   0.55211  -0.58467  -0.41534   0.19433
  13   28348.6    352.8   0.124925300   1.45075  -0.63598  -0.07625  -1.02003
  14   28993.5    344.9   0.073658966   0.83638   0.17634   0.30708  -0.84320
  15   29714.2    336.5   0.111324763   1.23340   0.54871  -0.34775   0.90077
  16   30036.0    332.9   0.005809660   0.06368  -0.00306   0.05945  -0.24522
  17   30193.8    331.2   0.320650448   3.49614   0.28001  -0.35090   1.81510
  18   30332.0    329.7   0.020158464   0.21879   0.06946   0.13295   0.44305
  19   30977.6    322.8   0.002391913   0.02542  -0.10540   0.10432  -0.05855
  20   31117.9    321.4   0.004220296   0.04465   0.20815  -0.02274   0.02841
  21   31361.4    318.9   0.268391956   2.81741  -0.77033   0.48994  -1.40853
  22   32272.3    309.9   0.006271905   0.06398  -0.14275   0.14908  -0.14622
  23   33050.4    302.6   0.034655334   0.34520  -0.20067  -0.00463   0.55219
  24   33300.2    300.3   0.127225892   1.25778   0.70096  -0.17316   0.85816
  25   33879.8    295.2   0.195920690   1.90377  -0.70007   0.74890  -0.92349
  26   33977.4    294.3   0.529328520   5.12874   1.28049  -0.65172   1.75053
  27   34106.5    293.2   0.000717306   0.00692  -0.03395   0.04138  -0.06371
  28   34464.0    290.2   0.536605989   5.12584  -1.25752   0.45067  -1.82794
  29   35049.5    285.3   0.013119148   0.12323   0.13923  -0.06156   0.31631
  30   35429.4    282.3   0.042846105   0.39813  -0.31254  -0.21455  -0.50440
  31   35710.6    280.0   0.002180107   0.02010   0.05329   0.04995   0.12150
  32   35961.9    278.1   0.000066795   0.00061   0.02125   0.00017   0.01264
  33   36272.8    275.7   0.023334853   0.21179   0.07292   0.10119  -0.44298
  34   36448.9    274.4   0.025538673   0.23067   0.35764   0.00610  -0.32051
  35   36805.0    271.7   0.027679534   0.24759   0.20306  -0.00182   0.45426
  36   37177.3    269.0   0.007269550   0.06437  -0.10627   0.02715  -0.22878
  37   37547.6    266.3   0.066077440   0.57936   0.71794   0.09062  -0.23603
  38   37566.7    266.2   0.020761241   0.18194   0.37928   0.08013  -0.17795
  39   37978.0    263.3   0.002190640   0.01899   0.09672  -0.09709  -0.01438
  40   38512.3    259.7   0.203055647   1.73576  -0.40530   0.35467  -1.20237
  41   38550.7    259.4   0.088590890   0.75654   0.32084  -0.23841   0.77251
  42   38648.1    258.7   0.006552093   0.05581  -0.01597   0.06860  -0.22550
  43   39146.3    255.5   0.084559613   0.71113  -0.33012   0.14674  -0.76198
  44   39171.7    255.3   0.097066561   0.81578   0.55235  -0.10543   0.70681
  45   39371.7    254.0   0.001234919   0.01033   0.07817   0.02709   0.05901
  46   39496.6    253.2   0.275117326   2.29316   1.13384   0.37929  -0.92935
  47   39511.3    253.1   0.082137996   0.68438  -0.68390  -0.24374   0.39655
  48   39810.1    251.2   0.005289878   0.04374   0.19683   0.05993  -0.03758
  49   40212.0    248.7   0.025733709   0.21068  -0.38384   0.22183   0.11892

FINAL SINGLE POINT ENERGY     -4746.192200990428

DIPOLE MOMENT
-------------
                                X             Y             Z
Electronic contribution:    -17.42318      24.74995      70.32564
Nuclear contribution   :     24.21732     -28.93972     -71.17178
                        -----------------------------------------
Total Dipole Moment    :      6.79414      -4.18977      -0.84614
                        -----------------------------------------
Magnitude (a.u.)       :      8.02686
Magnitude (Debye)      :     20.40265

Rotational constants in cm-1:     0.001061     0.000254     0.000223
Rotational constants in MHz :    31.811166     7.622977     6.692343

                             ****ORCA TERMINATED NORMALLY****
TOTAL RUN TIME: 0 days 0 hours 11 minutes 43 seconds 96 msec
