                         Program Version 4.2.0 -  RELEASE  -
|  1> # ORCA input file
|  2> # SCF done       -206.276763618417          0.000530796425
|  3> ! CAM-B3LYP def2-SVP def2/J RIJCOSX Grid4 TightSCF
|  4> %maxcore 5000
|  5> %tddft
|  6>     Mode sTDDFT
|  7>     Ethresh 5.0
|  8>     maxcore 5000
|  9> end
| 10>
| 11> %pal
| 12>   nprocs 6
| 13>   end
| 14> * xyz 0 1
| 15>    C       -9.86912        -2.34960         6.21670
| 16>    C      -10.62936        -2.98158         7.16140
| 17>    F      -11.34998        -2.26298         8.03410
| 18>    C      -10.66794        -4.38802         7.22641
| 19>    F      -11.42204        -4.98063         8.16425
| 20>    C       -9.94057        -5.14598         6.35170
| 21>    C       -9.13462        -4.52316         5.37994
| 22>    C       -9.10174        -3.10087         5.30486
| 23>    C       -8.30987        -2.45532         4.32618
| 24>    C       -7.56215        -3.20864         3.46129
| 25>    C       -7.58230        -4.62901         3.55986
| 26>    C       -8.34841        -5.28135         4.48235
| 27>    C       -6.67889        -5.18685         2.54077
| 28>    O       -6.41965        -6.37054         2.37559
| 29>    C       -6.15348        -4.05239         1.78559
| 30>    C       -6.66849        -2.83207         2.36703
| 31>    C       -6.37243        -1.53988         2.00589
| 32>    C       -6.90963        -0.39863         2.63676
| 33>    N       -7.30482         0.57441         3.10114
| 34>    C       -5.48531        -1.14995         0.98527
| 35>    N       -4.76759        -0.74166         0.18477
| 36>    C       -5.33106        -4.13552         0.68195
| 37>    C       -4.79725        -5.25209         0.03412
| 38>    C       -4.00766        -5.14981        -1.13637
| 39>    O       -3.62901        -3.96660        -1.69192
| 40>    C       -2.80564        -3.09472        -0.91984
| 41>    C       -3.70156        -6.39053        -1.70773
| 42>    O       -3.02235        -6.67316        -2.84038
| 43>    C       -2.44347        -5.63027        -3.59852
| 44>    C       -4.19712        -7.46318        -0.95418
| 45>    S       -5.06715        -6.92333         0.44899
| 46>    C       -4.02784        -8.84190        -1.23396
| 47>    C       -4.50639        -9.80555        -0.36549
| 48>    C       -4.39302       -11.17284        -0.55169
| 49>    C       -3.74794       -11.73087        -1.73991
| 50>    C       -3.20499       -10.97245        -2.71960
| 51>    S       -3.18929        -9.25646        -2.72170
| 52>    C       -3.84522       -13.14040        -1.58947
| 53>    C       -4.50514       -13.45547        -0.39548
| 54>    C       -4.60457       -14.85406        -0.21130
| 55>    C       -4.04071       -15.53974        -1.23914
| 56>    S       -3.36324       -14.53144        -2.47213
| 57>    C       -4.85645       -12.23112         0.27370
| 58>    C       -5.51683       -12.02342         1.49643
| 59>    C       -6.09766       -12.97226         2.28832
| 60>    C       -6.77956       -12.68805         3.48761
| 61>    C       -6.94447       -11.46471         4.16448
| 62>    O       -6.37849       -10.34122         3.68016
| 63>    C       -6.87560        -9.08257         4.10468
| 64>    C       -7.73377       -11.58709         5.31790
| 65>    O       -7.95514       -10.54262         6.18159
| 66>    C       -7.39326       -10.69207         7.47241
| 67>    C       -8.25441       -12.87627         5.51629
| 68>    S       -7.59302       -13.96688         4.33047
| 69>    C       -9.16596       -13.36349         6.46366
| 70>    C      -10.05641       -12.67332         7.25321
| 71>    C      -10.58675       -13.31022         8.48254
| 72>    O      -10.48571       -14.47365         8.80480
| 73>    C      -11.20246       -12.20884         9.25711
| 74>    C      -11.76098       -12.23750        10.50112
| 75>    C      -12.26300       -11.03796        11.05741
| 76>    C      -12.17271        -9.82749        10.31120
| 77>    C      -12.66484        -8.63363        10.87531
| 78>    C      -13.22779        -8.64346        12.12102
| 79>    C      -13.32217        -9.84154        12.85576
| 80>    C      -12.84947       -11.01468        12.33712
| 81>    F      -13.88041        -9.82228        14.07518
| 82>    F      -13.69719        -7.50928        12.65841
| 83>    C      -11.60197        -9.83210         9.01698
| 84>    C      -11.12767       -11.00601         8.49846
| 85>    C      -10.53978       -11.32136         7.19933
| 86>    C      -10.62604       -10.52624         6.08032
| 87>    C      -10.38823       -10.99284         4.77464
| 88>    N      -10.25785       -11.34214         3.68833
| 89>    C      -10.97919        -9.16887         6.09677
| 90>    N      -11.17938        -8.03818         6.04098
| 91>    H       -9.85748        -1.27161         6.17494
| 92>    H      -10.01036        -6.22249         6.39410
| 93>    H       -8.31820        -1.37824         4.28859
| 94>    H       -8.35746        -6.35965         4.53136
| 95>    H       -5.08274        -3.19811         0.20232
| 96>    H       -1.83875        -3.01066        -1.42410
| 97>    H       -2.65088        -3.47361         0.09115
| 98>    H       -3.27250        -2.10923        -0.87472
| 99>    H       -1.63295        -5.14490        -3.04897
|100>    H       -3.18671        -4.88443        -3.88420
|101>    H       -2.04029        -6.11486        -4.48633
|102>    H       -5.00645        -9.43839         0.52075
|103>    H       -2.73209       -11.40616        -3.58685
|104>    H       -5.05970       -15.34355         0.62949
|105>    H       -3.97522       -16.60353        -1.35884
|106>    H       -5.58371       -10.99889         1.82575
|107>    H       -6.09163       -14.01011         1.99074
|108>    H       -6.52072        -8.36072         3.36924
|109>    H       -6.49332        -8.81661         5.09287
|110>    H       -7.96718        -9.08334         4.12507
|111>    H       -6.29921       -10.68616         7.41931
|112>    H       -7.72133       -11.61257         7.96186
|113>    H       -7.73531        -9.83266         8.04666
|114>    H       -9.14626       -14.43573         6.63236
|115>    H      -11.82150       -13.16161        11.05557
|116>    H      -12.60218        -7.70764        10.32467
|117>    H      -12.92866       -11.92311        12.91348
|118>    H      -11.54979        -8.90305         8.47146
|119> *
|120>
|121>                          ****END OF INPUT****

CARTESIAN COORDINATES (ANGSTROEM)
---------------------------------
  C     -9.869120   -2.349600    6.216700
  C    -10.629360   -2.981580    7.161400
  F    -11.349980   -2.262980    8.034100
  C    -10.667940   -4.388020    7.226410
  F    -11.422040   -4.980630    8.164250
  C     -9.940570   -5.145980    6.351700
  C     -9.134620   -4.523160    5.379940
  C     -9.101740   -3.100870    5.304860
  C     -8.309870   -2.455320    4.326180
  C     -7.562150   -3.208640    3.461290
  C     -7.582300   -4.629010    3.559860
  C     -8.348410   -5.281350    4.482350
  C     -6.678890   -5.186850    2.540770
  O     -6.419650   -6.370540    2.375590
  C     -6.153480   -4.052390    1.785590
  C     -6.668490   -2.832070    2.367030
  C     -6.372430   -1.539880    2.005890
  C     -6.909630   -0.398630    2.636760
  N     -7.304820    0.574410    3.101140
  C     -5.485310   -1.149950    0.985270
  N     -4.767590   -0.741660    0.184770
  C     -5.331060   -4.135520    0.681950
  C     -4.797250   -5.252090    0.034120
  C     -4.007660   -5.149810   -1.136370
  O     -3.629010   -3.966600   -1.691920
  C     -2.805640   -3.094720   -0.919840
  C     -3.701560   -6.390530   -1.707730
  O     -3.022350   -6.673160   -2.840380
  C     -2.443470   -5.630270   -3.598520
  C     -4.197120   -7.463180   -0.954180
  S     -5.067150   -6.923330    0.448990
  C     -4.027840   -8.841900   -1.233960
  C     -4.506390   -9.805550   -0.365490
  C     -4.393020  -11.172840   -0.551690
  C     -3.747940  -11.730870   -1.739910
  C     -3.204990  -10.972450   -2.719600
  S     -3.189290   -9.256460   -2.721700
  C     -3.845220  -13.140400   -1.589470
  C     -4.505140  -13.455470   -0.395480
  C     -4.604570  -14.854060   -0.211300
  C     -4.040710  -15.539740   -1.239140
  S     -3.363240  -14.531440   -2.472130
  C     -4.856450  -12.231120    0.273700
  C     -5.516830  -12.023420    1.496430
  C     -6.097660  -12.972260    2.288320
  C     -6.779560  -12.688050    3.487610
  C     -6.944470  -11.464710    4.164480
  O     -6.378490  -10.341220    3.680160
  C     -6.875600   -9.082570    4.104680
  C     -7.733770  -11.587090    5.317900
  O     -7.955140  -10.542620    6.181590
  C     -7.393260  -10.692070    7.472410
  C     -8.254410  -12.876270    5.516290
  S     -7.593020  -13.966880    4.330470
  C     -9.165960  -13.363490    6.463660
  C    -10.056410  -12.673320    7.253210
  C    -10.586750  -13.310220    8.482540
  O    -10.485710  -14.473650    8.804800
  C    -11.202460  -12.208840    9.257110
  C    -11.760980  -12.237500   10.501120
  C    -12.263000  -11.037960   11.057410
  C    -12.172710   -9.827490   10.311200
  C    -12.664840   -8.633630   10.875310
  C    -13.227790   -8.643460   12.121020
  C    -13.322170   -9.841540   12.855760
  C    -12.849470  -11.014680   12.337120
  F    -13.880410   -9.822280   14.075180
  F    -13.697190   -7.509280   12.658410
  C    -11.601970   -9.832100    9.016980
  C    -11.127670  -11.006010    8.498460
  C    -10.539780  -11.321360    7.199330
  C    -10.626040  -10.526240    6.080320
  C    -10.388230  -10.992840    4.774640
  N    -10.257850  -11.342140    3.688330
  C    -10.979190   -9.168870    6.096770
  N    -11.179380   -8.038180    6.040980
  H     -9.857480   -1.271610    6.174940
  H    -10.010360   -6.222490    6.394100
  H     -8.318200   -1.378240    4.288590
  H     -8.357460   -6.359650    4.531360
  H     -5.082740   -3.198110    0.202320
  H     -1.838750   -3.010660   -1.424100
  H     -2.650880   -3.473610    0.091150
  H     -3.272500   -2.109230   -0.874720
  H     -1.632950   -5.144900   -3.048970
  H     -3.186710   -4.884430   -3.884200
  H     -2.040290   -6.114860   -4.486330
  H     -5.006450   -9.438390    0.520750
  H     -2.732090  -11.406160   -3.586850
  H     -5.059700  -15.343550    0.629490
  H     -3.975220  -16.603530   -1.358840
  H     -5.583710  -10.998890    1.825750
  H     -6.091630  -14.010110    1.990740
  H     -6.520720   -8.360720    3.369240
  H     -6.493320   -8.816610    5.092870
  H     -7.967180   -9.083340    4.125070
  H     -6.299210  -10.686160    7.419310
  H     -7.721330  -11.612570    7.961860
  H     -7.735310   -9.832660    8.046660
  H     -9.146260  -14.435730    6.632360
  H    -11.821500  -13.161610   11.055570
  H    -12.602180   -7.707640   10.324670
  H    -12.928660  -11.923110   12.913480
  H    -11.549790   -8.903050    8.471460

 Total Charge           Charge          ....    0
 Multiplicity           Mult            ....    1
 Number of Electrons    NEL             ....  552
 Basis Dimension        Dim             .... 1220

ORBITAL ENERGIES
----------------

  NO   OCC          E(Eh)            E(eV)
   0   2.0000     -88.978158     -2421.2188
   1   2.0000     -88.972010     -2421.0515
   2   2.0000     -88.962704     -2420.7982
   3   2.0000     -88.959702     -2420.7166
   4   2.0000     -24.792213      -674.6304
   5   2.0000     -24.791374      -674.6076
   6   2.0000     -24.790567      -674.5856
   7   2.0000     -24.789355      -674.5526
   8   2.0000     -19.268777      -524.3301
   9   2.0000     -19.262208      -524.1513
  10   2.0000     -19.258987      -524.0637
  11   2.0000     -19.251843      -523.8693
  12   2.0000     -19.224288      -523.1195
  13   2.0000     -19.205605      -522.6111
  14   2.0000     -14.421453      -392.4277
  15   2.0000     -14.416116      -392.2825
  16   2.0000     -14.412049      -392.1718
  17   2.0000     -14.407541      -392.0491
  18   2.0000     -10.374607      -282.3074
  19   2.0000     -10.374278      -282.2985
  20   2.0000     -10.373316      -282.2723
  21   2.0000     -10.371497      -282.2228
  22   2.0000     -10.370744      -282.2023
  23   2.0000     -10.363208      -281.9972
  24   2.0000     -10.357309      -281.8367
  25   2.0000     -10.354729      -281.7665
  26   2.0000     -10.350614      -281.6545
  27   2.0000     -10.341382      -281.4033
  28   2.0000     -10.341053      -281.3944
  29   2.0000     -10.338689      -281.3300
  30   2.0000     -10.332805      -281.1699
  31   2.0000     -10.332703      -281.1671
  32   2.0000     -10.332459      -281.1605
  33   2.0000     -10.331200      -281.1263
  34   2.0000     -10.329282      -281.0741
  35   2.0000     -10.327903      -281.0365
  36   2.0000     -10.327781      -281.0332
  37   2.0000     -10.326344      -280.9941
  38   2.0000     -10.325805      -280.9794
  39   2.0000     -10.323828      -280.9256
  40   2.0000     -10.322426      -280.8875
  41   2.0000     -10.321781      -280.8699
  42   2.0000     -10.315926      -280.7106
  43   2.0000     -10.315563      -280.7007
  44   2.0000     -10.315105      -280.6883
  45   2.0000     -10.311025      -280.5773
  46   2.0000     -10.309231      -280.5284
  47   2.0000     -10.309148      -280.5262
  48   2.0000     -10.303745      -280.3792
  49   2.0000     -10.303618      -280.3757
  50   2.0000     -10.303413      -280.3701
  51   2.0000     -10.303124      -280.3623
  52   2.0000     -10.302807      -280.3536
  53   2.0000     -10.301912      -280.3293
  54   2.0000     -10.300142      -280.2811
  55   2.0000     -10.300074      -280.2793
  56   2.0000     -10.299840      -280.2729
  57   2.0000     -10.298565      -280.2382
  58   2.0000     -10.297549      -280.2106
  59   2.0000     -10.297363      -280.2055
  60   2.0000     -10.295518      -280.1553
  61   2.0000     -10.294948      -280.1398
  62   2.0000     -10.294698      -280.1330
  63   2.0000     -10.293899      -280.1112
  64   2.0000     -10.292428      -280.0712
  65   2.0000     -10.291937      -280.0578
  66   2.0000     -10.291612      -280.0490
  67   2.0000     -10.289559      -279.9931
  68   2.0000     -10.285827      -279.8916
  69   2.0000     -10.285605      -279.8855
  70   2.0000     -10.285030      -279.8699
  71   2.0000     -10.279984      -279.7326
  72   2.0000     -10.279002      -279.7059
  73   2.0000     -10.278894      -279.7029
  74   2.0000     -10.278615      -279.6953
  75   2.0000     -10.278438      -279.6905
  76   2.0000      -8.072450      -219.6625
  77   2.0000      -8.064745      -219.4529
  78   2.0000      -8.058391      -219.2800
  79   2.0000      -8.055305      -219.1960
  80   2.0000      -6.042108      -164.4141
  81   2.0000      -6.037230      -164.2814
  82   2.0000      -6.034446      -164.2056
  83   2.0000      -6.034423      -164.2050
  84   2.0000      -6.030157      -164.0889
  85   2.0000      -6.027731      -164.0229
  86   2.0000      -6.026223      -163.9819
  87   2.0000      -6.024740      -163.9415
  88   2.0000      -6.023973      -163.9206
  89   2.0000      -6.020476      -163.8255
  90   2.0000      -6.019954      -163.8113
  91   2.0000      -6.017309      -163.7393
  92   2.0000      -1.314436       -35.7676
  93   2.0000      -1.312220       -35.7073
  94   2.0000      -1.299594       -35.3637
  95   2.0000      -1.297349       -35.3027
  96   2.0000      -1.178807       -32.0770
  97   2.0000      -1.167869       -31.7793
  98   2.0000      -1.157577       -31.4993
  99   2.0000      -1.147371       -31.2216
 100   2.0000      -1.138685       -30.9852
 101   2.0000      -1.120379       -30.4871
 102   2.0000      -1.020140       -27.7594
 103   2.0000      -1.014613       -27.6090
 104   2.0000      -1.011645       -27.5283
 105   2.0000      -1.002718       -27.2854
 106   2.0000      -1.000434       -27.2232
 107   2.0000      -0.998940       -27.1825
 108   2.0000      -0.994121       -27.0514
 109   2.0000      -0.993537       -27.0355
 110   2.0000      -0.986836       -26.8532
 111   2.0000      -0.977294       -26.5935
 112   2.0000      -0.973472       -26.4895
 113   2.0000      -0.970774       -26.4161
 114   2.0000      -0.933525       -25.4025
 115   2.0000      -0.927626       -25.2420
 116   2.0000      -0.924692       -25.1621
 117   2.0000      -0.912226       -24.8229
 118   2.0000      -0.904187       -24.6042
 119   2.0000      -0.897049       -24.4099
 120   2.0000      -0.889378       -24.2012
 121   2.0000      -0.885864       -24.1056
 122   2.0000      -0.884409       -24.0660
 123   2.0000      -0.880220       -23.9520
 124   2.0000      -0.870212       -23.6797
 125   2.0000      -0.856357       -23.3027
 126   2.0000      -0.850109       -23.1326
 127   2.0000      -0.847020       -23.0486
 128   2.0000      -0.842050       -22.9134
 129   2.0000      -0.834041       -22.6954
 130   2.0000      -0.833585       -22.6830
 131   2.0000      -0.825586       -22.4653
 132   2.0000      -0.814031       -22.1509
 133   2.0000      -0.811292       -22.0764
 134   2.0000      -0.804407       -21.8890
 135   2.0000      -0.795245       -21.6397
 136   2.0000      -0.777562       -21.1585
 137   2.0000      -0.773533       -21.0489
 138   2.0000      -0.766647       -20.8615
 139   2.0000      -0.764322       -20.7982
 140   2.0000      -0.760336       -20.6898
 141   2.0000      -0.755455       -20.5570
 142   2.0000      -0.741242       -20.1702
 143   2.0000      -0.735171       -20.0050
 144   2.0000      -0.723310       -19.6823
 145   2.0000      -0.719364       -19.5749
 146   2.0000      -0.711243       -19.3539
 147   2.0000      -0.710756       -19.3407
 148   2.0000      -0.697477       -18.9793
 149   2.0000      -0.691557       -18.8182
 150   2.0000      -0.683631       -18.6026
 151   2.0000      -0.680712       -18.5231
 152   2.0000      -0.674824       -18.3629
 153   2.0000      -0.672949       -18.3119
 154   2.0000      -0.667038       -18.1510
 155   2.0000      -0.655246       -17.8301
 156   2.0000      -0.653404       -17.7800
 157   2.0000      -0.649999       -17.6874
 158   2.0000      -0.647618       -17.6226
 159   2.0000      -0.647212       -17.6115
 160   2.0000      -0.638196       -17.3662
 161   2.0000      -0.636666       -17.3246
 162   2.0000      -0.634959       -17.2781
 163   2.0000      -0.632515       -17.2116
 164   2.0000      -0.622211       -16.9312
 165   2.0000      -0.619673       -16.8622
 166   2.0000      -0.612794       -16.6750
 167   2.0000      -0.609789       -16.5932
 168   2.0000      -0.607708       -16.5366
 169   2.0000      -0.599354       -16.3093
 170   2.0000      -0.591280       -16.0895
 171   2.0000      -0.588607       -16.0168
 172   2.0000      -0.585483       -15.9318
 173   2.0000      -0.581843       -15.8327
 174   2.0000      -0.579390       -15.7660
 175   2.0000      -0.579078       -15.7575
 176   2.0000      -0.577872       -15.7247
 177   2.0000      -0.576847       -15.6968
 178   2.0000      -0.573495       -15.6056
 179   2.0000      -0.570635       -15.5278
 180   2.0000      -0.568575       -15.4717
 181   2.0000      -0.565725       -15.3942
 182   2.0000      -0.562003       -15.2929
 183   2.0000      -0.553710       -15.0672
 184   2.0000      -0.551900       -15.0180
 185   2.0000      -0.551539       -15.0081
 186   2.0000      -0.548147       -14.9158
 187   2.0000      -0.546592       -14.8735
 188   2.0000      -0.545969       -14.8566
 189   2.0000      -0.544584       -14.8189
 190   2.0000      -0.540903       -14.7187
 191   2.0000      -0.540396       -14.7049
 192   2.0000      -0.539302       -14.6751
 193   2.0000      -0.538780       -14.6610
 194   2.0000      -0.536464       -14.5979
 195   2.0000      -0.533028       -14.5044
 196   2.0000      -0.528827       -14.3901
 197   2.0000      -0.526866       -14.3367
 198   2.0000      -0.524140       -14.2626
 199   2.0000      -0.523526       -14.2459
 200   2.0000      -0.520173       -14.1546
 201   2.0000      -0.517272       -14.0757
 202   2.0000      -0.516763       -14.0618
 203   2.0000      -0.514449       -13.9989
 204   2.0000      -0.513246       -13.9661
 205   2.0000      -0.509420       -13.8620
 206   2.0000      -0.508323       -13.8322
 207   2.0000      -0.507914       -13.8211
 208   2.0000      -0.501521       -13.6471
 209   2.0000      -0.501103       -13.6357
 210   2.0000      -0.497845       -13.5470
 211   2.0000      -0.496510       -13.5107
 212   2.0000      -0.494105       -13.4453
 213   2.0000      -0.491848       -13.3839
 214   2.0000      -0.487931       -13.2773
 215   2.0000      -0.484442       -13.1823
 216   2.0000      -0.482488       -13.1292
 217   2.0000      -0.480075       -13.0635
 218   2.0000      -0.477226       -12.9860
 219   2.0000      -0.472785       -12.8651
 220   2.0000      -0.466575       -12.6962
 221   2.0000      -0.464642       -12.6435
 222   2.0000      -0.462780       -12.5929
 223   2.0000      -0.461018       -12.5449
 224   2.0000      -0.458939       -12.4884
 225   2.0000      -0.457829       -12.4582
 226   2.0000      -0.456374       -12.4186
 227   2.0000      -0.455430       -12.3929
 228   2.0000      -0.454346       -12.3634
 229   2.0000      -0.450940       -12.2707
 230   2.0000      -0.445409       -12.1202
 231   2.0000      -0.444190       -12.0870
 232   2.0000      -0.443459       -12.0671
 233   2.0000      -0.438734       -11.9386
 234   2.0000      -0.438434       -11.9304
 235   2.0000      -0.436723       -11.8838
 236   2.0000      -0.435357       -11.8467
 237   2.0000      -0.434138       -11.8135
 238   2.0000      -0.432533       -11.7698
 239   2.0000      -0.431565       -11.7435
 240   2.0000      -0.429633       -11.6909
 241   2.0000      -0.429205       -11.6793
 242   2.0000      -0.425803       -11.5867
 243   2.0000      -0.422493       -11.4966
 244   2.0000      -0.421470       -11.4688
 245   2.0000      -0.420878       -11.4527
 246   2.0000      -0.417933       -11.3725
 247   2.0000      -0.415259       -11.2998
 248   2.0000      -0.412957       -11.2371
 249   2.0000      -0.410727       -11.1765
 250   2.0000      -0.407468       -11.0878
 251   2.0000      -0.406675       -11.0662
 252   2.0000      -0.403711       -10.9855
 253   2.0000      -0.403286       -10.9740
 254   2.0000      -0.390497       -10.6260
 255   2.0000      -0.388633       -10.5752
 256   2.0000      -0.381206       -10.3731
 257   2.0000      -0.378258       -10.2929
 258   2.0000      -0.372965       -10.1489
 259   2.0000      -0.371464       -10.1081
 260   2.0000      -0.363113        -9.8808
 261   2.0000      -0.350556        -9.5391
 262   2.0000      -0.343822        -9.3559
 263   2.0000      -0.338119        -9.2007
 264   2.0000      -0.332083        -9.0364
 265   2.0000      -0.324715        -8.8359
 266   2.0000      -0.314517        -8.5585
 267   2.0000      -0.310907        -8.4602
 268   2.0000      -0.304617        -8.2891
 269   2.0000      -0.301328        -8.1996
 270   2.0000      -0.300982        -8.1901
 271   2.0000      -0.293628        -7.9900
 272   2.0000      -0.291912        -7.9433
 273   2.0000      -0.283424        -7.7124
 274   2.0000      -0.264027        -7.1845
 275   2.0000      -0.219622        -5.9762
 276   0.0000      -0.106898        -2.9088
 277   0.0000      -0.086771        -2.3612
 278   0.0000      -0.062999        -1.7143
 279   0.0000      -0.055107        -1.4995
 280   0.0000      -0.046098        -1.2544

MULLIKEN ATOMIC CHARGES
-----------------------
   0 C :   -0.113403
   1 C :    0.239599
   2 F :   -0.173676
   3 C :    0.233904
   4 F :   -0.177104
   5 C :   -0.077485
   6 C :    0.119825
   7 C :    0.108127
   8 C :   -0.086593
   9 C :    0.039708
  10 C :    0.012318
  11 C :   -0.083264
  12 C :    0.180573
  13 O :   -0.192592
  14 C :   -0.103302
  15 C :    0.337447
  16 C :   -0.365551
  17 C :   -0.186003
  18 N :    0.150290
  19 C :   -0.172241
  20 N :    0.129709
  21 C :   -0.030443
  22 C :   -0.108704
  23 C :    0.134017
  24 O :   -0.338321
  25 C :    0.169051
  26 C :    0.192923
  27 O :   -0.330636
  28 C :    0.193548
  29 C :   -0.097534
  30 S :    0.169486
  31 C :   -0.045580
  32 C :   -0.089819
  33 C :    0.069359
  34 C :    0.062287
  35 C :   -0.119476
  36 S :    0.173961
  37 C :   -0.111214
  38 C :    0.054247
  39 C :   -0.004138
  40 C :   -0.065435
  41 S :    0.128910
  42 C :    0.104201
  43 C :   -0.028007
  44 C :    0.031307
  45 C :   -0.113148
  46 C :    0.200357
  47 O :   -0.320437
  48 C :    0.182449
  49 C :    0.113458
  50 O :   -0.351829
  51 C :    0.206402
  52 C :   -0.152460
  53 S :    0.156668
  54 C :    0.070273
  55 C :   -0.176349
  56 C :    0.141069
  57 O :   -0.148882
  58 C :    0.015013
  59 C :   -0.095702
  60 C :    0.116529
  61 C :    0.117053
  62 C :   -0.114879
  63 C :    0.241403
  64 C :    0.239347
  65 C :   -0.108899
  66 F :   -0.174636
  67 F :   -0.172865
  68 C :   -0.103396
  69 C :    0.052964
  70 C :    0.263710
  71 C :   -0.307955
  72 C :   -0.223785
  73 N :    0.173224
  74 C :   -0.140882
  75 N :    0.116417
  76 H :    0.004888
  77 H :   -0.020682
  78 H :   -0.006728
  79 H :   -0.024778
  80 H :    0.005770
  81 H :    0.024862
  82 H :    0.030065
  83 H :    0.066623
  84 H :    0.017477
  85 H :    0.045802
  86 H :    0.033843
  87 H :    0.012157
  88 H :    0.033989
  89 H :   -0.011134
  90 H :    0.028230
  91 H :   -0.002552
  92 H :   -0.051661
  93 H :    0.041165
  94 H :    0.008430
  95 H :    0.035281
  96 H :    0.028375
  97 H :    0.034641
  98 H :    0.035178
  99 H :    0.018154
 100 H :   -0.012604
 101 H :    0.006663
 102 H :   -0.003016
 103 H :   -0.012947
Sum of atomic charges:    0.0000000

LOEWDIN ATOMIC CHARGES
----------------------
   0 C :   -0.035027
   1 C :    0.067654
   2 F :   -0.051501
   3 C :    0.066299
   4 F :   -0.054451
   5 C :   -0.022668
   6 C :   -0.009302
   7 C :   -0.007073
   8 C :    0.017751
   9 C :   -0.024577
  10 C :   -0.054944
  11 C :    0.031544
  12 C :    0.091107
  13 O :   -0.174140
  14 C :   -0.115598
  15 C :    0.080403
  16 C :   -0.153997
  17 C :   -0.018728
  18 N :   -0.058517
  19 C :   -0.008341
  20 N :   -0.063399
  21 C :    0.051270
  22 C :   -0.210327
  23 C :    0.020016
  24 O :   -0.114799
  25 C :    0.080394
  26 C :   -0.009176
  27 O :   -0.106284
  28 C :    0.084148
  29 C :   -0.187010
  30 S :    0.510847
  31 C :   -0.184101
  32 C :   -0.010252
  33 C :   -0.008987
  34 C :   -0.054419
  35 C :   -0.143829
  36 S :    0.490053
  37 C :   -0.197293
  38 C :   -0.036402
  39 C :   -0.064265
  40 C :   -0.162572
  41 S :    0.423626
  42 C :   -0.048624
  43 C :    0.010358
  44 C :   -0.065535
  45 C :   -0.150377
  46 C :    0.005103
  47 O :   -0.090898
  48 C :    0.074030
  49 C :    0.010236
  50 O :   -0.106205
  51 C :    0.082647
  52 C :   -0.212000
  53 S :    0.457563
  54 C :    0.040919
  55 C :   -0.117624
  56 C :    0.078296
  57 O :   -0.153142
  58 C :   -0.053654
  59 C :    0.026476
  60 C :   -0.012059
  61 C :   -0.006952
  62 C :   -0.032277
  63 C :    0.065300
  64 C :    0.064378
  65 C :   -0.034036
  66 F :   -0.052675
  67 F :   -0.050527
  68 C :    0.002968
  69 C :   -0.018896
  70 C :    0.060962
  71 C :   -0.145911
  72 C :   -0.018493
  73 N :   -0.052423
  74 C :    0.002208
  75 N :   -0.074326
  76 H :    0.046264
  77 H :    0.036005
  78 H :    0.039673
  79 H :    0.040607
  80 H :    0.049137
  81 H :    0.017605
  82 H :    0.019433
  83 H :    0.025323
  84 H :    0.016112
  85 H :    0.023482
  86 H :    0.026478
  87 H :    0.032884
  88 H :    0.035831
  89 H :    0.029540
  90 H :    0.024520
  91 H :    0.030783
  92 H :    0.023629
  93 H :    0.018616
  94 H :    0.011036
  95 H :    0.018131
  96 H :    0.019166
  97 H :    0.018144
  98 H :    0.027609
  99 H :    0.044835
 100 H :    0.039218
 101 H :    0.047282
 102 H :    0.043743
 103 H :    0.036969

  Mayer bond orders larger than 0.100000
B(  0-C ,  1-C ) :   1.4359 B(  0-C ,  5-C ) :   0.1093 B(  0-C ,  7-C ) :   1.1964
B(  0-C , 76-H ) :   1.0059 B(  1-C ,  2-F ) :   1.1334 B(  1-C ,  3-C ) :   1.1929
B(  3-C ,  4-F ) :   1.1243 B(  3-C ,  5-C ) :   1.4445 B(  5-C ,  6-C ) :   1.2039
B(  5-C , 77-H ) :   0.9808 B(  6-C ,  7-C ) :   1.2482 B(  6-C , 11-C ) :   1.1928
B(  7-C ,  8-C ) :   1.2105 B(  8-C ,  9-C ) :   1.4597 B(  8-C , 78-H ) :   0.9883
B(  9-C , 10-C ) :   1.2181 B(  9-C , 15-C ) :   0.9825 B( 10-C , 11-C ) :   1.4598
B( 10-C , 12-C ) :   0.9594 B( 11-C , 79-H ) :   1.0203 B( 12-C , 13-O ) :   2.0394
B( 12-C , 14-C ) :   1.0068 B( 14-C , 15-C ) :   1.1004 B( 14-C , 21-C ) :   1.4355
B( 15-C , 16-C ) :   1.5940 B( 16-C , 17-C ) :   1.1492 B( 16-C , 19-C ) :   1.1632
B( 17-C , 18-N ) :   2.9608 B( 19-C , 20-N ) :   2.9192 B( 21-C , 22-C ) :   1.3121
B( 21-C , 80-H ) :   0.9299 B( 22-C , 23-C ) :   1.3091 B( 22-C , 29-C ) :   0.1044
B( 22-C , 30-S ) :   1.0666 B( 23-C , 24-O ) :   1.1723 B( 23-C , 26-C ) :   1.3131
B( 24-O , 25-C ) :   0.8889 B( 25-C , 81-H ) :   0.9695 B( 25-C , 82-H ) :   0.9655
B( 25-C , 83-H ) :   0.9620 B( 26-C , 27-O ) :   1.1581 B( 26-C , 29-C ) :   1.3529
B( 27-O , 28-C ) :   0.9247 B( 28-C , 84-H ) :   0.9760 B( 28-C , 85-H ) :   0.9743
B( 28-C , 86-H ) :   0.9769 B( 29-C , 30-S ) :   1.1055 B( 29-C , 31-C ) :   1.2256
B( 31-C , 32-C ) :   1.4507 B( 31-C , 36-S ) :   1.0711 B( 32-C , 33-C ) :   1.2921
B( 32-C , 87-H ) :   0.9645 B( 33-C , 34-C ) :   1.0572 B( 33-C , 42-C ) :   1.3168
B( 34-C , 35-C ) :   1.5825 B( 34-C , 37-C ) :   1.1844 B( 35-C , 36-S ) :   1.1388
B( 35-C , 88-H ) :   0.9388 B( 37-C , 38-C ) :   1.4372 B( 37-C , 41-S ) :   1.0791
B( 38-C , 39-C ) :   1.2091 B( 38-C , 42-C ) :   1.0825 B( 39-C , 40-C ) :   1.5930
B( 39-C , 89-H ) :   1.0004 B( 40-C , 41-S ) :   1.1509 B( 40-C , 90-H ) :   0.9646
B( 42-C , 43-C ) :   1.2095 B( 43-C , 44-C ) :   1.5594 B( 43-C , 91-H ) :   0.9517
B( 44-C , 45-C ) :   1.1833 B( 44-C , 92-H ) :   0.9568 B( 45-C , 46-C ) :   1.3695
B( 45-C , 53-S ) :   1.1335 B( 46-C , 47-O ) :   1.1767 B( 46-C , 49-C ) :   1.3120
B( 47-O , 48-C ) :   0.9113 B( 48-C , 93-H ) :   0.9617 B( 48-C , 94-H ) :   0.9720
B( 48-C , 95-H ) :   0.9678 B( 49-C , 50-O ) :   1.1194 B( 49-C , 52-C ) :   1.3190
B( 50-O , 51-C ) :   0.9199 B( 51-C , 96-H ) :   0.9666 B( 51-C , 97-H ) :   0.9686
B( 51-C , 98-H ) :   0.9803 B( 52-C , 53-S ) :   1.0749 B( 52-C , 54-C ) :   1.2453
B( 54-C , 55-C ) :   1.5327 B( 54-C , 99-H ) :   0.9291 B( 55-C , 56-C ) :   0.9551
B( 55-C , 70-C ) :   1.1011 B( 56-C , 57-O ) :   2.2696 B( 56-C , 58-C ) :   0.9093
B( 58-C , 59-C ) :   1.4777 B( 58-C , 69-C ) :   1.2247 B( 59-C , 60-C ) :   1.1829
B( 59-C ,100-H ) :   1.0172 B( 60-C , 61-C ) :   1.2634 B( 60-C , 65-C ) :   1.1947
B( 61-C , 62-C ) :   1.1894 B( 61-C , 68-C ) :   1.2036 B( 62-C , 63-C ) :   1.4370
B( 62-C , 65-C ) :   0.1096 B( 62-C ,101-H ) :   1.0074 B( 63-C , 64-C ) :   1.1963
B( 63-C , 67-F ) :   1.1328 B( 64-C , 65-C ) :   1.4387 B( 64-C , 66-F ) :   1.1310
B( 65-C ,102-H ) :   1.0075 B( 68-C , 69-C ) :   1.4574 B( 68-C ,103-H ) :   0.9965
B( 69-C , 70-C ) :   0.9956 B( 70-C , 71-C ) :   1.5926 B( 71-C , 72-C ) :   1.1763
B( 71-C , 74-C ) :   1.1593 B( 72-C , 73-N ) :   2.9897 B( 74-C , 75-N ) :   2.8757

-----------------------------------------------------------------------------
         ABSORPTION SPECTRUM VIA TRANSITION ELECTRIC DIPOLE MOMENTS
-----------------------------------------------------------------------------
State   Energy  Wavelength   fosc         T2         TX        TY        TZ
        (cm-1)    (nm)                  (au**2)     (au)      (au)      (au)
-----------------------------------------------------------------------------
   0   10402.4    961.3   0.517812963  16.38765   1.45363   3.25804  -1.91305
   1   15142.2    660.4   0.678882306  14.75986   2.31238  -1.59066  -2.62346
   2   19795.9    505.2   1.031391328  17.15235   1.79328  -3.10951  -2.06579
   3   20821.7    480.3   0.080230471   1.26852  -0.48367  -0.08631   1.01348
   4   21045.8    475.2   0.056256760   0.88001  -0.49416  -0.15343   0.78248
   5   22806.8    438.5   0.344901857   4.97859   1.10345  -0.12929  -1.93501
   6   23820.2    419.8   0.114934109   1.58847  -0.42151   0.01862   1.18763
   7   25373.4    394.1   0.135563687   1.75890   0.76747   0.44007  -0.98804
   8   25495.3    392.2   0.070654614   0.91234   0.64444  -0.07711  -0.70078
   9   25664.1    389.6   0.102713983   1.31759   0.59764   0.17596  -0.96408
  10   25773.2    388.0   0.033595358   0.42913  -0.34258  -0.12986   0.54305
  11   26227.5    381.3   0.012399290   0.15564   0.28705   0.06316  -0.26315
  12   27369.2    365.4   0.051090807   0.61455  -0.63614   0.24128   0.38943
  13   27939.1    357.9   0.052702214   0.62100   0.02261  -0.19868  -0.76224
  14   28192.4    354.7   0.034962086   0.40826  -0.09149   0.11981   0.62092
  15   28245.2    354.0   0.018446646   0.21501  -0.37510   0.07399   0.26236
  16   28830.4    346.9   0.082132577   0.93787   0.39888  -0.25338  -0.84531
  17   29090.4    343.8   0.046939134   0.53120   0.01197  -0.55401   0.47343
  18   29335.5    340.9   0.074577868   0.83694   0.38204   0.53458  -0.63656
  19   29674.1    337.0   0.168792143   1.87263   0.89297  -0.00879  -1.03690
  20   30215.6    331.0   0.003904341   0.04254  -0.04221  -0.10485  -0.17252
  21   30755.7    325.1   0.100821841   1.07921   0.20979   0.44524  -0.91485
  22   31576.2    316.7   0.053030049   0.55289   0.17706  -0.39475  -0.60474
  23   31800.2    314.5   0.325703927   3.37185  -1.07967  -0.22461   1.46824
  24   32484.3    307.8   0.391829568   3.97100  -0.97124  -0.73400   1.57763
  25   32582.3    306.9   0.171472831   1.73256   0.61336  -0.05320  -1.16341
  26   32795.6    304.9   0.100465191   1.00850   0.02381   0.00353   1.00395
  27   33120.1    301.9   0.071535955   0.71106   0.43256   0.63779  -0.34232
  28   33660.1    297.1   0.145482940   1.42289   0.46984   0.95654  -0.53589
  29   33766.1    296.2   0.001479143   0.01442  -0.06221  -0.09844   0.02935
  30   33940.2    294.6   0.148383119   1.43928   0.57363  -0.02716  -1.05333
  31   34089.0    293.3   0.024765961   0.23918  -0.09703  -0.33586  -0.34199
  32   34589.8    289.1   0.020938042   0.19928   0.01432   0.20576   0.39590
  33   34797.6    287.4   0.032658906   0.30898   0.29680   0.13408  -0.45046
  34   35084.2    285.0   0.046712814   0.43833  -0.13165  -0.33900   0.55324
  35   35119.2    284.7   0.069004929   0.64686   0.11396   0.78786  -0.11466
  36   35378.2    282.7   0.054105967   0.50348   0.20059   0.65846  -0.17228
  37   35789.0    279.4   0.097274077   0.89479   0.20651  -0.88017  -0.27829
  38   36194.4    276.3   0.203412897   1.85017  -0.52056  -0.46278   1.16834
  39   36450.6    274.3   0.299585008   2.70577  -0.52858  -1.33961   0.79487
  40   36655.0    272.8   0.104263372   0.93643   0.30665  -0.06886  -0.91524
  41   36887.5    271.1   0.139103156   1.24146   0.24620  -1.07120  -0.18273
  42   37009.7    270.2   0.086463227   0.76912  -0.00486   0.86006   0.17143
  43   37277.9    268.3   0.134111546   1.18438   0.43713   0.25694  -0.96295
  44   37945.3    263.5   0.050188608   0.43543  -0.19837   0.60425   0.17596
  45   38349.0    260.8   0.054833832   0.47073  -0.55304   0.16276   0.37200
  46   38398.4    260.4   0.149144662   1.27870   0.08714   1.11866  -0.14036
  47   38533.3    259.5   0.062725973   0.53590   0.15481   0.67650  -0.23300
  48   38661.9    258.7   0.048767106   0.41526   0.06375   0.52185  -0.37265
  49   39095.3    255.8   0.049498051   0.41681   0.22173   0.44529  -0.41154
  50   39307.6    254.4   0.033138100   0.27754  -0.07761  -0.33538   0.39880
  51   39455.4    253.5   0.032915150   0.27464  -0.25830  -0.34487   0.29831
  52   39567.2    252.7   0.097314452   0.80969   0.41059  -0.49545  -0.62900
  53   39774.3    251.4   0.047942167   0.39682   0.17309   0.23279  -0.55917
  54   39947.3    250.3   0.006089378   0.05018   0.01324  -0.16701  -0.14871
  55   39970.0    250.2   0.030619439   0.25220   0.20747  -0.04271  -0.45533
  56   40086.9    249.5   0.016443508   0.13504  -0.01763   0.36703   0.00439
  57   40279.5    248.3   0.014234613   0.11634  -0.05545   0.30294  -0.14661
  58   40325.1    248.0   0.034968281   0.28548  -0.29651   0.43681   0.08218

FINAL SINGLE POINT ENERGY     -4884.815353558137

DIPOLE MOMENT
-------------
                                X             Y             Z
Electronic contribution:    -40.80200       5.21622      37.43004
Nuclear contribution   :     44.01565      -6.89733     -38.85357
                        -----------------------------------------
Total Dipole Moment    :      3.21365      -1.68111      -1.42353
                        -----------------------------------------
Magnitude (a.u.)       :      3.89617
Magnitude (Debye)      :      9.90327

Rotational constants in cm-1:     0.000900     0.000494     0.000324
Rotational constants in MHz :    26.994713    14.806427     9.716865

                             ****ORCA TERMINATED NORMALLY****
TOTAL RUN TIME: 0 days 0 hours 17 minutes 5 seconds 289 msec
