                         Program Version 4.2.0 -  RELEASE  -
|  1> # ORCA input file
|  2> # SCF done       -153.198036502890          0.000470891359
|  3> ! CAM-B3LYP def2-SVP def2/J RIJCOSX Grid4 TightSCF
|  4> %maxcore 5000
|  5> %tddft
|  6>     Mode sTDDFT
|  7>     Ethresh 5.0
|  8>     maxcore 5000
|  9> end
| 10>
| 11> %pal
| 12>   nprocs 6
| 13>   end
| 14> * xyz 0 1
| 15>    C       -5.27844        -1.63135        -1.02874
| 16>    C       -5.00420        -1.40402         0.28666
| 17>    C       -4.75101        -0.04035         0.52539
| 18>    C       -4.84405         0.73056        -0.64159
| 19>    S       -5.23341        -0.20542        -2.01085
| 20>    C       -4.57632         2.08767        -0.30810
| 21>    C       -4.31455         2.16774         1.06832
| 22>    C       -4.41383         0.82883         1.63657
| 23>    C       -4.22122         0.47182         2.94004
| 24>    C       -3.88569         1.40565         3.94211
| 25>    N       -3.61092         2.14854         4.77169
| 26>    C       -4.34078        -0.86342         3.37731
| 27>    N       -4.43585        -1.94703         3.74161
| 28>    C       -4.03481         3.46584         1.49554
| 29>    C       -4.08334         4.37654         0.45609
| 30>    S       -4.48040         3.60294        -1.07893
| 31>    C       -3.81023         5.77637         0.48601
| 32>    C       -3.92888         6.56544        -0.65523
| 33>    C       -3.52111         7.88551        -0.70740
| 34>    C       -2.94744         8.55058         0.37934
| 35>    C       -2.96346         7.83088         1.60914
| 36>    C       -3.37211         6.44900         1.66074
| 37>    N       -3.26089         5.94971         2.88876
| 38>    S       -2.70822         7.09149         3.87720
| 39>    N       -2.56788         8.27841         2.79598
| 40>    C       -2.30546         9.81535         0.29310
| 41>    C       -1.71656        10.31199        -0.84305
| 42>    C       -0.97990        11.51554        -0.99584
| 43>    C       -0.35518        11.65323        -2.20357
| 44>    C       -0.55954        10.56272        -3.07212
| 45>    S       -1.61617         9.38859        -2.33165
| 46>    C       -0.06338        10.25160        -4.32992
| 47>    C        0.75530        10.93858        -5.24299
| 48>    C        1.03800        10.22139        -6.37458
| 49>    C        0.47035         8.92517        -6.41091
| 50>    S       -0.46979         8.67259        -4.96005
| 51>    C        0.64447         7.96514        -7.38732
| 52>    C        0.14774         6.65569        -7.36907
| 53>    C       -0.66545         6.01680        -6.42707
| 54>    C       -0.87914         4.68505        -6.72354
| 55>    C       -0.24805         4.25987        -7.91082
| 56>    S        0.61228         5.54001        -8.66147
| 57>    C       -0.51373         2.88667        -8.08185
| 58>    C       -1.30483         2.43595        -7.00193
| 59>    C       -1.56289         3.54513        -6.11768
| 60>    C       -2.27447         3.54400        -4.94915
| 61>    C       -2.86517         2.38066        -4.41753
| 62>    N       -3.34855         1.44558        -3.96015
| 63>    C       -2.47811         4.70216        -4.17302
| 64>    N       -2.66992         5.62729        -3.52107
| 65>    C       -1.60791         1.07350        -7.08177
| 66>    C       -1.06233         0.48240        -8.19961
| 67>    S       -0.15297         1.62948        -9.18489
| 68>    C       -1.15638        -0.87820        -8.59622
| 69>    C       -0.61596        -1.47410        -9.71082
| 70>    C       -0.91748        -2.84088        -9.76241
| 71>    C       -1.68573        -3.29638        -8.69341
| 72>    S       -2.04990        -2.01462        -7.59510
| 73>    C       -1.98263        -4.67113        -8.75249
| 74>    C       -1.43928        -5.24003        -9.85983
| 75>    S       -0.55790        -4.13047       -10.85599
| 76>    H       -5.50729        -2.56893        -1.49485
| 77>    H       -4.98639        -2.17365         1.03652
| 78>    H       -3.80365         3.76326         2.50205
| 79>    H       -4.31661         6.11674        -1.55742
| 80>    H       -3.67700         8.41778        -1.63112
| 81>    H       -2.16921        10.35884         1.21808
| 82>    H       -0.91954        12.23627        -0.19916
| 83>    H        0.26369        12.49056        -2.47438
| 84>    H        1.11669        11.93334        -5.05080
| 85>    H        1.65196        10.58484        -7.18010
| 86>    H        1.26008         8.23918        -8.23402
| 87>    H       -1.08170         6.50347        -5.56757
| 88>    H       -2.19472         0.52826        -6.36418
| 89>    H       -0.03534        -0.94451       -10.44388
| 90>    H       -2.56152        -5.20122        -8.01939
| 91>    H       -1.49875        -6.26527       -10.16656
| 92> *
| 93>
| 94>                          ****END OF INPUT****

CARTESIAN COORDINATES (ANGSTROEM)
---------------------------------
  C     -5.278440   -1.631350   -1.028740
  C     -5.004200   -1.404020    0.286660
  C     -4.751010   -0.040350    0.525390
  C     -4.844050    0.730560   -0.641590
  S     -5.233410   -0.205420   -2.010850
  C     -4.576320    2.087670   -0.308100
  C     -4.314550    2.167740    1.068320
  C     -4.413830    0.828830    1.636570
  C     -4.221220    0.471820    2.940040
  C     -3.885690    1.405650    3.942110
  N     -3.610920    2.148540    4.771690
  C     -4.340780   -0.863420    3.377310
  N     -4.435850   -1.947030    3.741610
  C     -4.034810    3.465840    1.495540
  C     -4.083340    4.376540    0.456090
  S     -4.480400    3.602940   -1.078930
  C     -3.810230    5.776370    0.486010
  C     -3.928880    6.565440   -0.655230
  C     -3.521110    7.885510   -0.707400
  C     -2.947440    8.550580    0.379340
  C     -2.963460    7.830880    1.609140
  C     -3.372110    6.449000    1.660740
  N     -3.260890    5.949710    2.888760
  S     -2.708220    7.091490    3.877200
  N     -2.567880    8.278410    2.795980
  C     -2.305460    9.815350    0.293100
  C     -1.716560   10.311990   -0.843050
  C     -0.979900   11.515540   -0.995840
  C     -0.355180   11.653230   -2.203570
  C     -0.559540   10.562720   -3.072120
  S     -1.616170    9.388590   -2.331650
  C     -0.063380   10.251600   -4.329920
  C      0.755300   10.938580   -5.242990
  C      1.038000   10.221390   -6.374580
  C      0.470350    8.925170   -6.410910
  S     -0.469790    8.672590   -4.960050
  C      0.644470    7.965140   -7.387320
  C      0.147740    6.655690   -7.369070
  C     -0.665450    6.016800   -6.427070
  C     -0.879140    4.685050   -6.723540
  C     -0.248050    4.259870   -7.910820
  S      0.612280    5.540010   -8.661470
  C     -0.513730    2.886670   -8.081850
  C     -1.304830    2.435950   -7.001930
  C     -1.562890    3.545130   -6.117680
  C     -2.274470    3.544000   -4.949150
  C     -2.865170    2.380660   -4.417530
  N     -3.348550    1.445580   -3.960150
  C     -2.478110    4.702160   -4.173020
  N     -2.669920    5.627290   -3.521070
  C     -1.607910    1.073500   -7.081770
  C     -1.062330    0.482400   -8.199610
  S     -0.152970    1.629480   -9.184890
  C     -1.156380   -0.878200   -8.596220
  C     -0.615960   -1.474100   -9.710820
  C     -0.917480   -2.840880   -9.762410
  C     -1.685730   -3.296380   -8.693410
  S     -2.049900   -2.014620   -7.595100
  C     -1.982630   -4.671130   -8.752490
  C     -1.439280   -5.240030   -9.859830
  S     -0.557900   -4.130470  -10.855990
  H     -5.507290   -2.568930   -1.494850
  H     -4.986390   -2.173650    1.036520
  H     -3.803650    3.763260    2.502050
  H     -4.316610    6.116740   -1.557420
  H     -3.677000    8.417780   -1.631120
  H     -2.169210   10.358840    1.218080
  H     -0.919540   12.236270   -0.199160
  H      0.263690   12.490560   -2.474380
  H      1.116690   11.933340   -5.050800
  H      1.651960   10.584840   -7.180100
  H      1.260080    8.239180   -8.234020
  H     -1.081700    6.503470   -5.567570
  H     -2.194720    0.528260   -6.364180
  H     -0.035340   -0.944510  -10.443880
  H     -2.561520   -5.201220   -8.019390
  H     -1.498750   -6.265270  -10.166560

 Total Charge           Charge          ....    0
 Multiplicity           Mult            ....    1
 Number of Electrons    NEL             ....  478
 Basis Dimension        Dim             ....  970

ORBITAL ENERGIES
----------------

  NO   OCC          E(Eh)            E(eV)
   0   2.0000     -89.013680     -2422.1854
   1   2.0000     -88.984745     -2421.3980
   2   2.0000     -88.980396     -2421.2797
   3   2.0000     -88.969843     -2420.9925
   4   2.0000     -88.967854     -2420.9384
   5   2.0000     -88.959662     -2420.7155
   6   2.0000     -88.956724     -2420.6355
   7   2.0000     -88.947465     -2420.3836
   8   2.0000     -88.943553     -2420.2771
   9   2.0000     -14.432232      -392.7210
  10   2.0000     -14.431450      -392.6997
  11   2.0000     -14.429587      -392.6490
  12   2.0000     -14.429442      -392.6451
  13   2.0000     -14.412996      -392.1976
  14   2.0000     -14.411398      -392.1541
  15   2.0000     -10.361513      -281.9511
  16   2.0000     -10.349895      -281.6350
  17   2.0000     -10.344196      -281.4799
  18   2.0000     -10.334116      -281.2056
  19   2.0000     -10.332883      -281.1720
  20   2.0000     -10.332840      -281.1709
  21   2.0000     -10.329421      -281.0778
  22   2.0000     -10.321090      -280.8511
  23   2.0000     -10.320768      -280.8424
  24   2.0000     -10.319213      -280.8000
  25   2.0000     -10.316137      -280.7164
  26   2.0000     -10.314967      -280.6845
  27   2.0000     -10.314939      -280.6838
  28   2.0000     -10.313998      -280.6581
  29   2.0000     -10.313628      -280.6481
  30   2.0000     -10.313199      -280.6364
  31   2.0000     -10.312391      -280.6144
  32   2.0000     -10.312194      -280.6091
  33   2.0000     -10.310423      -280.5609
  34   2.0000     -10.309801      -280.5439
  35   2.0000     -10.308229      -280.5012
  36   2.0000     -10.302697      -280.3506
  37   2.0000     -10.298251      -280.2297
  38   2.0000     -10.297825      -280.2181
  39   2.0000     -10.297767      -280.2165
  40   2.0000     -10.297237      -280.2021
  41   2.0000     -10.295752      -280.1616
  42   2.0000     -10.295122      -280.1445
  43   2.0000     -10.293710      -280.1061
  44   2.0000     -10.293250      -280.0936
  45   2.0000     -10.291563      -280.0477
  46   2.0000     -10.290948      -280.0309
  47   2.0000     -10.290748      -280.0255
  48   2.0000     -10.290534      -280.0197
  49   2.0000     -10.290202      -280.0106
  50   2.0000     -10.288029      -279.9515
  51   2.0000     -10.287061      -279.9252
  52   2.0000     -10.286808      -279.9183
  53   2.0000     -10.283622      -279.8316
  54   2.0000     -10.282217      -279.7934
  55   2.0000     -10.280776      -279.7541
  56   2.0000     -10.280598      -279.7493
  57   2.0000     -10.279746      -279.7261
  58   2.0000     -10.276951      -279.6501
  59   2.0000     -10.276149      -279.6282
  60   2.0000     -10.275865      -279.6205
  61   2.0000      -8.105508      -220.5621
  62   2.0000      -8.079225      -219.8469
  63   2.0000      -8.074863      -219.7282
  64   2.0000      -8.063991      -219.4323
  65   2.0000      -8.062562      -219.3935
  66   2.0000      -8.054853      -219.1837
  67   2.0000      -8.052380      -219.1164
  68   2.0000      -8.043478      -218.8742
  69   2.0000      -8.039782      -218.7736
  70   2.0000      -6.076793      -165.3579
  71   2.0000      -6.069043      -165.1471
  72   2.0000      -6.067745      -165.1117
  73   2.0000      -6.048546      -164.5893
  74   2.0000      -6.044391      -164.4762
  75   2.0000      -6.044151      -164.4697
  76   2.0000      -6.041461      -164.3965
  77   2.0000      -6.040102      -164.3595
  78   2.0000      -6.037080      -164.2773
  79   2.0000      -6.033196      -164.1716
  80   2.0000      -6.031749      -164.1322
  81   2.0000      -6.029034      -164.0584
  82   2.0000      -6.027251      -164.0098
  83   2.0000      -6.026511      -163.9897
  84   2.0000      -6.025299      -163.9567
  85   2.0000      -6.024440      -163.9333
  86   2.0000      -6.021937      -163.8652
  87   2.0000      -6.020489      -163.8258
  88   2.0000      -6.017712      -163.7503
  89   2.0000      -6.016242      -163.7103
  90   2.0000      -6.014095      -163.6518
  91   2.0000      -6.013229      -163.6283
  92   2.0000      -6.009550      -163.5282
  93   2.0000      -6.008977      -163.5126
  94   2.0000      -6.005245      -163.4110
  95   2.0000      -6.004543      -163.3919
  96   2.0000      -6.000750      -163.2887
  97   2.0000      -1.114483       -30.3266
  98   2.0000      -1.038955       -28.2714
  99   2.0000      -1.023634       -27.8545
 100   2.0000      -1.022004       -27.8102
 101   2.0000      -1.009285       -27.4640
 102   2.0000      -1.007831       -27.4245
 103   2.0000      -1.003521       -27.3072
 104   2.0000      -1.000410       -27.2225
 105   2.0000      -0.989719       -26.9316
 106   2.0000      -0.988485       -26.8981
 107   2.0000      -0.979417       -26.6513
 108   2.0000      -0.976916       -26.5832
 109   2.0000      -0.968006       -26.3408
 110   2.0000      -0.956875       -26.0379
 111   2.0000      -0.953258       -25.9395
 112   2.0000      -0.940194       -25.5840
 113   2.0000      -0.935358       -25.4524
 114   2.0000      -0.911509       -24.8034
 115   2.0000      -0.897963       -24.4348
 116   2.0000      -0.886637       -24.1266
 117   2.0000      -0.874356       -23.7924
 118   2.0000      -0.863514       -23.4974
 119   2.0000      -0.859250       -23.3814
 120   2.0000      -0.854817       -23.2608
 121   2.0000      -0.852085       -23.1864
 122   2.0000      -0.847690       -23.0668
 123   2.0000      -0.846460       -23.0333
 124   2.0000      -0.833247       -22.6738
 125   2.0000      -0.830927       -22.6107
 126   2.0000      -0.823149       -22.3990
 127   2.0000      -0.819049       -22.2875
 128   2.0000      -0.801486       -21.8095
 129   2.0000      -0.798522       -21.7289
 130   2.0000      -0.779758       -21.2183
 131   2.0000      -0.771154       -20.9842
 132   2.0000      -0.760400       -20.6915
 133   2.0000      -0.755959       -20.5707
 134   2.0000      -0.743552       -20.2331
 135   2.0000      -0.725675       -19.7466
 136   2.0000      -0.710927       -19.3453
 137   2.0000      -0.702806       -19.1243
 138   2.0000      -0.700190       -19.0531
 139   2.0000      -0.692246       -18.8370
 140   2.0000      -0.683816       -18.6076
 141   2.0000      -0.681843       -18.5539
 142   2.0000      -0.676069       -18.3968
 143   2.0000      -0.663473       -18.0540
 144   2.0000      -0.658648       -17.9227
 145   2.0000      -0.653262       -17.7762
 146   2.0000      -0.646377       -17.5888
 147   2.0000      -0.632076       -17.1997
 148   2.0000      -0.630301       -17.1514
 149   2.0000      -0.627201       -17.0670
 150   2.0000      -0.624995       -17.0070
 151   2.0000      -0.620596       -16.8873
 152   2.0000      -0.615890       -16.7592
 153   2.0000      -0.607517       -16.5314
 154   2.0000      -0.605683       -16.4815
 155   2.0000      -0.600243       -16.3334
 156   2.0000      -0.594494       -16.1770
 157   2.0000      -0.588832       -16.0229
 158   2.0000      -0.580451       -15.7949
 159   2.0000      -0.575344       -15.6559
 160   2.0000      -0.571435       -15.5495
 161   2.0000      -0.564196       -15.3526
 162   2.0000      -0.558899       -15.2084
 163   2.0000      -0.550480       -14.9793
 164   2.0000      -0.542426       -14.7602
 165   2.0000      -0.540276       -14.7016
 166   2.0000      -0.539931       -14.6923
 167   2.0000      -0.533397       -14.5145
 168   2.0000      -0.530079       -14.4242
 169   2.0000      -0.525865       -14.3095
 170   2.0000      -0.519717       -14.1422
 171   2.0000      -0.510485       -13.8910
 172   2.0000      -0.508344       -13.8327
 173   2.0000      -0.502920       -13.6852
 174   2.0000      -0.501270       -13.6403
 175   2.0000      -0.499633       -13.5957
 176   2.0000      -0.498286       -13.5590
 177   2.0000      -0.497083       -13.5263
 178   2.0000      -0.494541       -13.4571
 179   2.0000      -0.490492       -13.3470
 180   2.0000      -0.486757       -13.2453
 181   2.0000      -0.486392       -13.2354
 182   2.0000      -0.481571       -13.1042
 183   2.0000      -0.479802       -13.0561
 184   2.0000      -0.477005       -12.9800
 185   2.0000      -0.475095       -12.9280
 186   2.0000      -0.473132       -12.8746
 187   2.0000      -0.469821       -12.7845
 188   2.0000      -0.467914       -12.7326
 189   2.0000      -0.466175       -12.6853
 190   2.0000      -0.464112       -12.6291
 191   2.0000      -0.462384       -12.5821
 192   2.0000      -0.460602       -12.5336
 193   2.0000      -0.459306       -12.4984
 194   2.0000      -0.454498       -12.3675
 195   2.0000      -0.451838       -12.2951
 196   2.0000      -0.449567       -12.2333
 197   2.0000      -0.446057       -12.1378
 198   2.0000      -0.444688       -12.1006
 199   2.0000      -0.442217       -12.0333
 200   2.0000      -0.439977       -11.9724
 201   2.0000      -0.439781       -11.9670
 202   2.0000      -0.438477       -11.9316
 203   2.0000      -0.435948       -11.8627
 204   2.0000      -0.432229       -11.7616
 205   2.0000      -0.430938       -11.7264
 206   2.0000      -0.428865       -11.6700
 207   2.0000      -0.425381       -11.5752
 208   2.0000      -0.424720       -11.5572
 209   2.0000      -0.422819       -11.5055
 210   2.0000      -0.421559       -11.4712
 211   2.0000      -0.419701       -11.4206
 212   2.0000      -0.416890       -11.3442
 213   2.0000      -0.415100       -11.2955
 214   2.0000      -0.408920       -11.1273
 215   2.0000      -0.407263       -11.0822
 216   2.0000      -0.405544       -11.0354
 217   2.0000      -0.393748       -10.7144
 218   2.0000      -0.391601       -10.6560
 219   2.0000      -0.387883       -10.5548
 220   2.0000      -0.382903       -10.4193
 221   2.0000      -0.370093       -10.0708
 222   2.0000      -0.359500        -9.7825
 223   2.0000      -0.358914        -9.7665
 224   2.0000      -0.353573        -9.6212
 225   2.0000      -0.345026        -9.3886
 226   2.0000      -0.340547        -9.2668
 227   2.0000      -0.336900        -9.1675
 228   2.0000      -0.327535        -8.9127
 229   2.0000      -0.323513        -8.8032
 230   2.0000      -0.321832        -8.7575
 231   2.0000      -0.317701        -8.6451
 232   2.0000      -0.309282        -8.4160
 233   2.0000      -0.300976        -8.1900
 234   2.0000      -0.295172        -8.0320
 235   2.0000      -0.287522        -7.8239
 236   2.0000      -0.258947        -7.0463
 237   2.0000      -0.240920        -6.5558
 238   2.0000      -0.206852        -5.6287
 239   0.0000      -0.106613        -2.9011
 240   0.0000      -0.089588        -2.4378
 241   0.0000      -0.079936        -2.1752
 242   0.0000      -0.049880        -1.3573
 243   0.0000      -0.030121        -0.8196

MULLIKEN ATOMIC CHARGES
-----------------------
   0 C :   -0.090847
   1 C :    0.031655
   2 C :   -0.034670
   3 C :   -0.115577
   4 S :    0.215134
   5 C :   -0.084202
   6 C :    0.019827
   7 C :    0.304356
   8 C :   -0.310030
   9 C :   -0.187038
  10 N :    0.169770
  11 C :   -0.191850
  12 N :    0.164503
  13 C :   -0.053759
  14 C :   -0.122501
  15 S :    0.157246
  16 C :    0.148849
  17 C :   -0.044623
  18 C :   -0.042561
  19 C :    0.040355
  20 C :    0.020364
  21 C :   -0.008206
  22 N :   -0.278756
  23 S :    0.509041
  24 N :   -0.275224
  25 C :   -0.010236
  26 C :   -0.027062
  27 C :    0.042472
  28 C :    0.034412
  29 C :   -0.032332
  30 S :    0.060495
  31 C :   -0.024239
  32 C :    0.035625
  33 C :    0.025834
  34 C :   -0.024767
  35 S :    0.026038
  36 C :    0.034745
  37 C :   -0.092890
  38 C :   -0.052549
  39 C :   -0.004954
  40 C :   -0.101426
  41 S :    0.173463
  42 C :   -0.099778
  43 C :   -0.008585
  44 C :    0.331174
  45 C :   -0.319120
  46 C :   -0.196048
  47 N :    0.173108
  48 C :   -0.175555
  49 N :    0.161897
  50 C :   -0.061436
  51 C :   -0.038211
  52 S :    0.176989
  53 C :   -0.059668
  54 C :   -0.054914
  55 C :   -0.043838
  56 C :   -0.042031
  57 S :    0.130238
  58 C :    0.026185
  59 C :   -0.083352
  60 S :    0.127128
  61 H :    0.027962
  62 H :    0.007692
  63 H :    0.017916
  64 H :   -0.002727
  65 H :    0.007543
  66 H :    0.002780
  67 H :   -0.005221
  68 H :   -0.012367
  69 H :   -0.012869
  70 H :   -0.013252
  71 H :   -0.020814
  72 H :    0.033066
  73 H :    0.010461
  74 H :   -0.012120
  75 H :   -0.007912
  76 H :    0.031793
Sum of atomic charges:   -0.0000000

LOEWDIN ATOMIC CHARGES
----------------------
   0 C :   -0.185701
   1 C :   -0.038966
   2 C :   -0.078449
   3 C :   -0.184070
   4 S :    0.508126
   5 C :   -0.173617
   6 C :   -0.076580
   7 C :    0.085725
   8 C :   -0.110545
   9 C :   -0.017623
  10 N :   -0.038029
  11 C :   -0.015724
  12 N :   -0.042975
  13 C :   -0.019105
  14 C :   -0.160902
  15 S :    0.479140
  16 C :   -0.041213
  17 C :   -0.015660
  18 C :   -0.018751
  19 C :   -0.046498
  20 C :   -0.040742
  21 C :   -0.041988
  22 N :   -0.278591
  23 S :    0.639189
  24 N :   -0.287768
  25 C :   -0.027600
  26 C :   -0.144757
  27 C :   -0.021410
  28 C :   -0.037846
  29 C :   -0.170691
  30 S :    0.407118
  31 C :   -0.185464
  32 C :   -0.032658
  33 C :   -0.038348
  34 C :   -0.142235
  35 S :    0.401983
  36 C :   -0.089620
  37 C :   -0.156939
  38 C :   -0.048852
  39 C :   -0.063250
  40 C :   -0.197985
  41 S :    0.458902
  42 C :   -0.168506
  43 C :   -0.081663
  44 C :    0.090744
  45 C :   -0.111956
  46 C :   -0.009727
  47 N :   -0.053232
  48 C :   -0.009611
  49 N :   -0.039423
  50 C :   -0.038820
  51 C :   -0.177640
  52 S :    0.467962
  53 C :   -0.177248
  54 C :   -0.076210
  55 C :   -0.206311
  56 C :   -0.204937
  57 S :    0.420752
  58 C :   -0.073388
  59 C :   -0.172957
  60 S :    0.417710
  61 H :    0.024206
  62 H :    0.040020
  63 H :    0.038830
  64 H :    0.022322
  65 H :    0.022556
  66 H :    0.039480
  67 H :    0.035461
  68 H :    0.032828
  69 H :    0.033336
  70 H :    0.032448
  71 H :    0.032343
  72 H :    0.020043
  73 H :    0.035325
  74 H :    0.027502
  75 H :    0.034088
  76 H :    0.024642

  Mayer bond orders larger than 0.100000
B(  0-C ,  1-C ) :   1.5343 B(  0-C ,  4-S ) :   1.1615 B(  0-C , 61-H ) :   0.9648
B(  1-C ,  2-C ) :   1.2829 B(  1-C , 62-H ) :   0.9960 B(  2-C ,  3-C ) :   1.4443
B(  2-C ,  7-C ) :   1.0139 B(  3-C ,  4-S ) :   1.1599 B(  3-C ,  5-C ) :   1.1792
B(  5-C ,  6-C ) :   1.4473 B(  5-C , 15-S ) :   1.1376 B(  6-C ,  7-C ) :   0.9943
B(  6-C , 13-C ) :   1.2421 B(  7-C ,  8-C ) :   1.7023 B(  8-C ,  9-C ) :   1.1368
B(  8-C , 11-C ) :   1.1311 B(  9-C , 10-N ) :   2.9904 B( 11-C , 12-N ) :   3.0015
B( 13-C , 14-C ) :   1.4807 B( 13-C , 63-H ) :   0.9859 B( 14-C , 15-S ) :   1.0869
B( 14-C , 16-C ) :   1.1339 B( 16-C , 17-C ) :   1.4263 B( 16-C , 19-C ) :   0.1049
B( 16-C , 21-C ) :   1.1846 B( 17-C , 18-C ) :   1.2980 B( 17-C , 64-H ) :   0.9761
B( 18-C , 19-C ) :   1.3833 B( 18-C , 65-H ) :   0.9623 B( 19-C , 20-C ) :   1.1664
B( 19-C , 25-C ) :   1.1468 B( 20-C , 21-C ) :   1.1622 B( 20-C , 24-N ) :   1.5710
B( 21-C , 22-N ) :   1.5435 B( 22-N , 23-S ) :   1.2531 B( 22-N , 24-N ) :   0.1449
B( 23-S , 24-N ) :   1.2541 B( 25-C , 26-C ) :   1.5655 B( 25-C , 66-H ) :   0.9725
B( 26-C , 27-C ) :   1.1488 B( 26-C , 30-S ) :   1.0350 B( 27-C , 28-C ) :   1.5843
B( 27-C , 67-H ) :   0.9961 B( 28-C , 29-C ) :   1.1939 B( 28-C , 68-H ) :   0.9962
B( 29-C , 30-S ) :   1.0568 B( 29-C , 31-C ) :   1.4700 B( 31-C , 32-C ) :   1.2108
B( 31-C , 35-S ) :   1.0404 B( 32-C , 33-C ) :   1.5662 B( 32-C , 69-H ) :   0.9951
B( 33-C , 34-C ) :   1.1683 B( 33-C , 70-H ) :   0.9977 B( 34-C , 35-S ) :   1.0536
B( 34-C , 36-C ) :   1.5533 B( 36-C , 37-C ) :   1.2032 B( 36-C , 71-H ) :   0.9541
B( 37-C , 38-C ) :   1.3769 B( 37-C , 41-S ) :   1.0950 B( 38-C , 39-C ) :   1.3634
B( 38-C , 72-H ) :   0.9619 B( 39-C , 40-C ) :   1.4220 B( 39-C , 44-C ) :   0.9889
B( 40-C , 41-S ) :   1.1002 B( 40-C , 42-C ) :   1.2159 B( 42-C , 43-C ) :   1.4264
B( 42-C , 52-S ) :   1.1218 B( 43-C , 44-C ) :   1.0167 B( 43-C , 50-C ) :   1.2742
B( 44-C , 45-C ) :   1.6774 B( 45-C , 46-C ) :   1.1424 B( 45-C , 48-C ) :   1.1487
B( 46-C , 47-N ) :   2.9970 B( 48-C , 49-N ) :   2.9525 B( 50-C , 51-C ) :   1.4860
B( 50-C , 73-H ) :   0.9884 B( 51-C , 52-S ) :   1.0897 B( 51-C , 53-C ) :   1.1667
B( 53-C , 54-C ) :   1.5310 B( 53-C , 57-S ) :   1.1039 B( 54-C , 55-C ) :   1.2464
B( 54-C , 74-H ) :   0.9960 B( 55-C , 56-C ) :   1.4529 B( 55-C , 60-S ) :   1.0800
B( 56-C , 57-S ) :   1.0650 B( 56-C , 58-C ) :   1.2447 B( 58-C , 59-C ) :   1.5944
B( 58-C , 75-H ) :   1.0025 B( 59-C , 60-S ) :   1.1465 B( 59-C , 76-H ) :   0.9684

-----------------------------------------------------------------------------
         ABSORPTION SPECTRUM VIA TRANSITION ELECTRIC DIPOLE MOMENTS
-----------------------------------------------------------------------------
State   Energy  Wavelength   fosc         T2         TX        TY        TZ
        (cm-1)    (nm)                  (au**2)     (au)      (au)      (au)
-----------------------------------------------------------------------------
   0    5897.4   1695.7   0.091454377   5.10528   0.26120  -1.59095  -1.58302
   1   11453.8    873.1   0.373049223  10.72245   1.44668   0.63987  -2.86708
   2   13619.3    734.3   0.262097688   6.33555  -0.69545   0.94358   2.22746
   3   13961.2    716.3   0.072054358   1.69908   0.31710   1.26007   0.10364
   4   17704.1    564.8   0.018630475   0.34644  -0.24299  -0.51848   0.13628
   5   18545.5    539.2   0.015177545   0.26943  -0.15508   0.18527   0.45940
   6   19812.2    504.7   0.167944713   2.79068  -0.05353  -1.54080  -0.64322
   7   20547.6    486.7   1.470365491  23.55811   0.86283   4.69360   0.88532
   8   23986.8    416.9   0.044806485   0.61496   0.18637  -0.46631  -0.60231
   9   24550.7    407.3   0.020089559   0.26939   0.03324   0.50218   0.12690
  10   25579.9    390.9   0.499295216   6.42591   0.65990   2.44713  -0.04482
  11   26336.1    379.7   0.083808101   1.04764  -0.39049  -0.83744   0.44028
  12   27333.0    365.9   0.021754023   0.26202   0.08760   0.50009   0.06519
  13   27797.0    359.8   0.009785779   0.11590  -0.13267  -0.31328   0.01237
  14   28555.8    350.2   0.064209127   0.74025   0.25010  -0.26625  -0.77898
  15   29073.8    344.0   0.027141739   0.30733   0.22756   0.48018  -0.15805
  16   29459.6    339.4   0.025856085   0.28894   0.18192   0.20604  -0.46194
  17   29933.0    334.1   0.289074586   3.17933   0.73731   0.91921  -1.33819
  18   30313.2    329.9   0.022567651   0.24509   0.25305  -0.42432  -0.03175
  19   30869.3    323.9   0.806083294   8.59665   0.96671   0.22774  -2.75867
  20   31325.3    319.2   0.226790909   2.38345  -0.47307   0.32292  -1.43366
  21   31796.7    314.5   0.085517906   0.88542  -0.27447  -0.82790  -0.35308
  22   32058.3    311.9   0.546519141   5.61230   0.42380   2.14233   0.91823
  23   32181.9    310.7   0.187401475   1.91707   0.64515  -1.02652  -0.66866
  24   32793.0    304.9   0.037374458   0.37521  -0.18128  -0.30098   0.50175
  25   33000.0    303.0   0.123377193   1.23082   0.08276   0.80682   0.75698
  26   33170.7    301.5   0.070908642   0.70375   0.02903   0.68072  -0.48942
  27   33384.7    299.5   0.087307119   0.86095  -0.37072  -0.80471  -0.27559
  28   33709.4    296.7   0.085735195   0.83730   0.14094  -0.81213   0.39736
  29   33802.1    295.8   0.057350860   0.55856   0.04154   0.66406  -0.34038
  30   34135.9    292.9   0.075760904   0.73065   0.23178  -0.01188   0.82267
  31   34262.5    291.9   0.034797279   0.33435  -0.19816   0.53084   0.11527
  32   34438.4    290.4   0.005445213   0.05205   0.14898   0.17096   0.02509
  33   34569.0    289.3   0.053064954   0.50536  -0.15825  -0.68988  -0.06618
  34   35096.9    284.9   0.098337068   0.92241  -0.29577  -0.10550   0.90764
  35   35564.7    281.2   0.006842506   0.06334   0.21849  -0.10323  -0.07031
  36   35730.4    279.9   0.138144635   1.27284  -0.44230  -0.09777   1.03327
  37   36114.1    276.9   0.023012179   0.20978   0.32343  -0.17022   0.27603
  38   36205.4    276.2   0.006724919   0.06115   0.01255   0.23973   0.05935
  39   36859.5    271.3   0.026305879   0.23495   0.16266   0.44728   0.09183
  40   36964.7    270.5   0.018856494   0.16794  -0.06152   0.31440   0.25555
  41   37032.8    270.0   0.130011174   1.15576  -0.10652   0.84223   0.65960
  42   37131.9    269.3   0.021072499   0.18683   0.10987  -0.17336  -0.38040
  43   37623.8    265.8   0.010881825   0.09522   0.07057   0.11347  -0.27814
  44   37913.6    263.8   0.011724956   0.10181   0.01931   0.31811  -0.01560
  45   38092.8    262.5   0.092145154   0.79635   0.22264   0.86363   0.03037
  46   38200.8    261.8   0.000489753   0.00422   0.03087  -0.05548   0.01378
  47   38630.7    258.9   0.009235987   0.07871  -0.08153  -0.23770   0.12474
  48   38777.2    257.9   0.025169456   0.21368  -0.22330  -0.38233   0.13285
  49   39090.2    255.8   0.010310720   0.08684   0.11926   0.24747  -0.10665
  50   39361.3    254.1   0.079147567   0.66198  -0.26451  -0.66547   0.38621
  51   39869.3    250.8   0.033951298   0.28035  -0.18047  -0.11948  -0.48322

FINAL SINGLE POINT ENERGY     -5670.824407717418

DIPOLE MOMENT
-------------
                                X             Y             Z
Electronic contribution:     -4.63812     -12.21239       4.41868
Nuclear contribution   :      5.84241      13.74883      -8.30593
                        -----------------------------------------
Total Dipole Moment    :      1.20429       1.53644      -3.88726
                        -----------------------------------------
Magnitude (a.u.)       :      4.34991
Magnitude (Debye)      :     11.05660

Rotational constants in cm-1:     0.001029     0.000671     0.000416
Rotational constants in MHz :    30.857452    20.125698    12.480117

                             ****ORCA TERMINATED NORMALLY****
TOTAL RUN TIME: 0 days 0 hours 7 minutes 23 seconds 214 msec
