                         Program Version 4.2.0 -  RELEASE  -
|  1> # ORCA input file
|  2> # SCF done       -147.992031620216          0.000486510510
|  3> ! CAM-B3LYP def2-SVP def2/J RIJCOSX Grid4 TightSCF
|  4> %maxcore 5000
|  5> %tddft
|  6>     Mode sTDDFT
|  7>     Ethresh 5.0
|  8>     maxcore 5000
|  9> end
| 10>
| 11> %pal
| 12>   nprocs 6
| 13>   end
| 14> * xyz 0 1
| 15>    C        2.43243        -2.32737        -0.57317
| 16>    C        2.09777        -1.99110         0.70308
| 17>    C        1.60231        -0.67482         0.77299
| 18>    C        1.57721        -0.04663        -0.47672
| 19>    S        2.15546        -1.05987        -1.72240
| 20>    C        1.06873         1.27476        -0.31158
| 21>    C        0.77768         1.47188         1.04402
| 22>    C        1.09963         0.25185         1.77236
| 23>    C        0.95386         0.02981         3.11045
| 24>    C        0.44776         1.00936         3.99091
| 25>    N        0.03703         1.79258         4.72078
| 26>    C        1.29676        -1.20109         3.70805
| 27>    N        1.57380        -2.19962         4.19917
| 28>    C        0.27586         2.74749         1.31351
| 29>    C        0.18105         3.51999         0.17449
| 30>    S        0.72216         2.65000        -1.25644
| 31>    C       -0.28080         4.87265         0.06399
| 32>    C       -0.37551         5.53105        -1.15232
| 33>    C       -0.80916         6.85030        -1.28118
| 34>    C       -1.19196         7.61533        -0.19226
| 35>    C       -1.09727         6.98686         1.07629
| 36>    C       -0.65572         5.62467         1.21002
| 37>    N       -0.64862         5.23383         2.48336
| 38>    S       -1.14721         6.44416         3.41270
| 39>    N       -1.39838         7.52849         2.25537
| 40>    C       -1.61657         8.99318        -0.27694
| 41>    C       -2.27141         9.67898        -1.28013
| 42>    C       -2.85893         9.07030        -2.49238
| 43>    O       -2.29021         8.40298        -3.31965
| 44>    O       -4.16685         9.35030        -2.58428
| 45>    C       -2.50837        11.05040        -0.95158
| 46>    C       -2.03680        11.36160         0.29405
| 47>    S       -1.32896        10.02945         1.08908
| 48>    C       -3.10379        12.02711        -1.84929
| 49>    C       -2.93094        11.98479        -3.21920
| 50>    C       -3.50098        12.92414        -4.07933
| 51>    C       -4.28071        13.97949        -3.63546
| 52>    C       -4.46860        14.07088        -2.22985
| 53>    C       -3.87437        13.10214        -1.34585
| 54>    N       -4.16306        13.35500        -0.06833
| 55>    S       -5.08278        14.66770         0.01141
| 56>    N       -5.16427        14.98798        -1.55968
| 57>    C       -4.86330        14.93561        -4.53260
| 58>    C       -5.59180        16.06224        -4.21451
| 59>    C       -6.00056        16.76392        -5.35196
| 60>    C       -5.58214        16.16236        -6.54460
| 61>    S       -4.68276        14.74029        -6.27246
| 62>    C       -6.05192        16.94880        -7.63691
| 63>    C       -6.76141        18.04128        -7.12735
| 64>    C       -6.75350        17.96834        -5.67656
| 65>    C       -7.32394        18.84325        -4.79901
| 66>    C       -8.03112        19.98479        -5.23100
| 67>    N       -8.60697        20.91440        -5.57660
| 68>    C       -7.24574        18.67379        -3.40042
| 69>    N       -7.19047        18.55313        -2.26141
| 70>    C       -7.26577        18.87584        -8.14344
| 71>    C       -6.93540        18.40800        -9.37856
| 72>    S       -6.00506        16.94587        -9.34293
| 73>    H        2.83316        -3.25694        -0.92459
| 74>    H        2.20345        -2.65397         1.54226
| 75>    H       -0.01047         3.11875         2.28014
| 76>    H       -0.09172         5.00076        -2.05011
| 77>    H       -0.83715         7.28521        -2.26615
| 78>    H       -4.53721         8.95572        -3.38984
| 79>    H       -2.07782        12.31824         0.77360
| 80>    H       -2.31483        11.20868        -3.64869
| 81>    H       -3.31922        12.82474        -5.14011
| 82>    H       -5.80181        16.33747        -3.19756
| 83>    H       -7.83930        19.76929        -7.97733
| 84>    H       -7.18174        18.83342       -10.33066
| 85> *
| 86>
| 87>                          ****END OF INPUT****

CARTESIAN COORDINATES (ANGSTROEM)
---------------------------------
  C      2.432430   -2.327370   -0.573170
  C      2.097770   -1.991100    0.703080
  C      1.602310   -0.674820    0.772990
  C      1.577210   -0.046630   -0.476720
  S      2.155460   -1.059870   -1.722400
  C      1.068730    1.274760   -0.311580
  C      0.777680    1.471880    1.044020
  C      1.099630    0.251850    1.772360
  C      0.953860    0.029810    3.110450
  C      0.447760    1.009360    3.990910
  N      0.037030    1.792580    4.720780
  C      1.296760   -1.201090    3.708050
  N      1.573800   -2.199620    4.199170
  C      0.275860    2.747490    1.313510
  C      0.181050    3.519990    0.174490
  S      0.722160    2.650000   -1.256440
  C     -0.280800    4.872650    0.063990
  C     -0.375510    5.531050   -1.152320
  C     -0.809160    6.850300   -1.281180
  C     -1.191960    7.615330   -0.192260
  C     -1.097270    6.986860    1.076290
  C     -0.655720    5.624670    1.210020
  N     -0.648620    5.233830    2.483360
  S     -1.147210    6.444160    3.412700
  N     -1.398380    7.528490    2.255370
  C     -1.616570    8.993180   -0.276940
  C     -2.271410    9.678980   -1.280130
  C     -2.858930    9.070300   -2.492380
  O     -2.290210    8.402980   -3.319650
  O     -4.166850    9.350300   -2.584280
  C     -2.508370   11.050400   -0.951580
  C     -2.036800   11.361600    0.294050
  S     -1.328960   10.029450    1.089080
  C     -3.103790   12.027110   -1.849290
  C     -2.930940   11.984790   -3.219200
  C     -3.500980   12.924140   -4.079330
  C     -4.280710   13.979490   -3.635460
  C     -4.468600   14.070880   -2.229850
  C     -3.874370   13.102140   -1.345850
  N     -4.163060   13.355000   -0.068330
  S     -5.082780   14.667700    0.011410
  N     -5.164270   14.987980   -1.559680
  C     -4.863300   14.935610   -4.532600
  C     -5.591800   16.062240   -4.214510
  C     -6.000560   16.763920   -5.351960
  C     -5.582140   16.162360   -6.544600
  S     -4.682760   14.740290   -6.272460
  C     -6.051920   16.948800   -7.636910
  C     -6.761410   18.041280   -7.127350
  C     -6.753500   17.968340   -5.676560
  C     -7.323940   18.843250   -4.799010
  C     -8.031120   19.984790   -5.231000
  N     -8.606970   20.914400   -5.576600
  C     -7.245740   18.673790   -3.400420
  N     -7.190470   18.553130   -2.261410
  C     -7.265770   18.875840   -8.143440
  C     -6.935400   18.408000   -9.378560
  S     -6.005060   16.945870   -9.342930
  H      2.833160   -3.256940   -0.924590
  H      2.203450   -2.653970    1.542260
  H     -0.010470    3.118750    2.280140
  H     -0.091720    5.000760   -2.050110
  H     -0.837150    7.285210   -2.266150
  H     -4.537210    8.955720   -3.389840
  H     -2.077820   12.318240    0.773600
  H     -2.314830   11.208680   -3.648690
  H     -3.319220   12.824740   -5.140110
  H     -5.801810   16.337470   -3.197560
  H     -7.839300   19.769290   -7.977330
  H     -7.181740   18.833420  -10.330660

 Total Charge           Charge          ....    0
 Multiplicity           Mult            ....    1
 Number of Electrons    NEL             ....  442
 Basis Dimension        Dim             ....  900

ORBITAL ENERGIES
----------------

  NO   OCC          E(Eh)            E(eV)
   0   2.0000     -89.026873     -2422.5444
   1   2.0000     -89.024993     -2422.4932
   2   2.0000     -88.983289     -2421.3584
   3   2.0000     -88.982700     -2421.3424
   4   2.0000     -88.981952     -2421.3220
   5   2.0000     -88.981066     -2421.2979
   6   2.0000     -88.958942     -2420.6959
   7   2.0000     -19.267997      -524.3089
   8   2.0000     -19.216265      -522.9012
   9   2.0000     -14.441489      -392.9729
  10   2.0000     -14.440518      -392.9465
  11   2.0000     -14.439047      -392.9064
  12   2.0000     -14.438645      -392.8955
  13   2.0000     -14.423586      -392.4857
  14   2.0000     -14.423108      -392.4727
  15   2.0000     -14.422224      -392.4487
  16   2.0000     -14.421578      -392.4311
  17   2.0000     -10.415869      -283.4302
  18   2.0000     -10.356673      -281.8194
  19   2.0000     -10.356025      -281.8018
  20   2.0000     -10.344226      -281.4807
  21   2.0000     -10.343562      -281.4626
  22   2.0000     -10.327762      -281.0327
  23   2.0000     -10.326633      -281.0020
  24   2.0000     -10.325616      -280.9743
  25   2.0000     -10.325142      -280.9614
  26   2.0000     -10.324487      -280.9436
  27   2.0000     -10.324132      -280.9339
  28   2.0000     -10.323936      -280.9286
  29   2.0000     -10.323717      -280.9226
  30   2.0000     -10.323702      -280.9222
  31   2.0000     -10.323570      -280.9186
  32   2.0000     -10.322617      -280.8927
  33   2.0000     -10.321999      -280.8759
  34   2.0000     -10.315895      -280.7098
  35   2.0000     -10.314817      -280.6804
  36   2.0000     -10.314073      -280.6602
  37   2.0000     -10.307863      -280.4912
  38   2.0000     -10.307032      -280.4686
  39   2.0000     -10.307002      -280.4678
  40   2.0000     -10.304570      -280.4016
  41   2.0000     -10.301664      -280.3225
  42   2.0000     -10.297153      -280.1998
  43   2.0000     -10.294667      -280.1321
  44   2.0000     -10.293682      -280.1053
  45   2.0000     -10.293258      -280.0938
  46   2.0000     -10.292572      -280.0751
  47   2.0000     -10.292466      -280.0722
  48   2.0000     -10.291693      -280.0512
  49   2.0000     -10.291618      -280.0492
  50   2.0000     -10.291541      -280.0471
  51   2.0000     -10.291157      -280.0366
  52   2.0000     -10.290192      -280.0104
  53   2.0000     -10.287868      -279.9471
  54   2.0000     -10.287081      -279.9257
  55   2.0000     -10.286457      -279.9087
  56   2.0000     -10.284795      -279.8635
  57   2.0000     -10.284560      -279.8571
  58   2.0000      -8.118561      -220.9173
  59   2.0000      -8.116737      -220.8677
  60   2.0000      -8.078382      -219.8240
  61   2.0000      -8.077754      -219.8069
  62   2.0000      -8.076519      -219.7733
  63   2.0000      -8.075654      -219.7497
  64   2.0000      -8.054268      -219.1678
  65   2.0000      -6.089808      -165.7121
  66   2.0000      -6.087960      -165.6618
  67   2.0000      -6.081994      -165.4995
  68   2.0000      -6.080932      -165.4706
  69   2.0000      -6.080127      -165.4487
  70   2.0000      -6.079186      -165.4231
  71   2.0000      -6.047620      -164.5641
  72   2.0000      -6.047004      -164.5473
  73   2.0000      -6.045705      -164.5120
  74   2.0000      -6.044867      -164.4892
  75   2.0000      -6.043196      -164.4437
  76   2.0000      -6.042569      -164.4267
  77   2.0000      -6.041598      -164.4002
  78   2.0000      -6.040983      -164.3835
  79   2.0000      -6.040731      -164.3767
  80   2.0000      -6.040370      -164.3668
  81   2.0000      -6.038974      -164.3288
  82   2.0000      -6.038089      -164.3048
  83   2.0000      -6.023519      -163.9083
  84   2.0000      -6.018885      -163.7822
  85   2.0000      -6.016830      -163.7263
  86   2.0000      -1.198559       -32.6145
  87   2.0000      -1.128165       -30.6989
  88   2.0000      -1.125539       -30.6275
  89   2.0000      -1.102785       -30.0083
  90   2.0000      -1.036388       -28.2016
  91   2.0000      -1.035573       -28.1794
  92   2.0000      -1.014602       -27.6087
  93   2.0000      -1.013971       -27.5915
  94   2.0000      -1.000402       -27.2223
  95   2.0000      -0.999789       -27.2057
  96   2.0000      -0.999518       -27.1983
  97   2.0000      -0.992644       -27.0112
  98   2.0000      -0.991620       -26.9833
  99   2.0000      -0.980945       -26.6929
 100   2.0000      -0.975881       -26.5551
 101   2.0000      -0.966658       -26.3041
 102   2.0000      -0.959694       -26.1146
 103   2.0000      -0.947262       -25.7763
 104   2.0000      -0.945785       -25.7361
 105   2.0000      -0.905741       -24.6465
 106   2.0000      -0.902747       -24.5650
 107   2.0000      -0.882878       -24.0243
 108   2.0000      -0.872712       -23.7477
 109   2.0000      -0.864166       -23.5152
 110   2.0000      -0.863261       -23.4905
 111   2.0000      -0.857441       -23.3322
 112   2.0000      -0.856150       -23.2970
 113   2.0000      -0.844585       -22.9823
 114   2.0000      -0.843742       -22.9594
 115   2.0000      -0.842969       -22.9384
 116   2.0000      -0.822328       -22.3767
 117   2.0000      -0.792063       -21.5531
 118   2.0000      -0.777120       -21.1465
 119   2.0000      -0.769721       -20.9452
 120   2.0000      -0.767704       -20.8903
 121   2.0000      -0.753001       -20.4902
 122   2.0000      -0.741315       -20.1722
 123   2.0000      -0.737241       -20.0614
 124   2.0000      -0.719387       -19.5755
 125   2.0000      -0.713615       -19.4184
 126   2.0000      -0.709729       -19.3127
 127   2.0000      -0.708889       -19.2899
 128   2.0000      -0.695053       -18.9134
 129   2.0000      -0.694361       -18.8945
 130   2.0000      -0.678452       -18.4616
 131   2.0000      -0.671530       -18.2733
 132   2.0000      -0.667297       -18.1581
 133   2.0000      -0.665656       -18.1134
 134   2.0000      -0.645977       -17.5779
 135   2.0000      -0.640937       -17.4408
 136   2.0000      -0.632561       -17.2129
 137   2.0000      -0.631099       -17.1731
 138   2.0000      -0.619507       -16.8576
 139   2.0000      -0.615276       -16.7425
 140   2.0000      -0.606881       -16.5141
 141   2.0000      -0.606353       -16.4997
 142   2.0000      -0.605995       -16.4900
 143   2.0000      -0.599805       -16.3215
 144   2.0000      -0.588885       -16.0244
 145   2.0000      -0.583346       -15.8737
 146   2.0000      -0.577871       -15.7247
 147   2.0000      -0.572283       -15.5726
 148   2.0000      -0.563295       -15.3280
 149   2.0000      -0.562562       -15.3081
 150   2.0000      -0.553272       -15.0553
 151   2.0000      -0.550684       -14.9849
 152   2.0000      -0.548364       -14.9217
 153   2.0000      -0.542163       -14.7530
 154   2.0000      -0.541076       -14.7234
 155   2.0000      -0.538233       -14.6461
 156   2.0000      -0.537379       -14.6228
 157   2.0000      -0.532719       -14.4960
 158   2.0000      -0.521933       -14.2025
 159   2.0000      -0.512550       -13.9472
 160   2.0000      -0.508578       -13.8391
 161   2.0000      -0.502797       -13.6818
 162   2.0000      -0.497456       -13.5365
 163   2.0000      -0.496750       -13.5172
 164   2.0000      -0.494083       -13.4447
 165   2.0000      -0.489580       -13.3222
 166   2.0000      -0.487827       -13.2744
 167   2.0000      -0.486452       -13.2370
 168   2.0000      -0.484183       -13.1753
 169   2.0000      -0.483753       -13.1636
 170   2.0000      -0.479489       -13.0476
 171   2.0000      -0.478902       -13.0316
 172   2.0000      -0.475954       -12.9514
 173   2.0000      -0.471586       -12.8325
 174   2.0000      -0.470503       -12.8030
 175   2.0000      -0.467643       -12.7252
 176   2.0000      -0.464318       -12.6347
 177   2.0000      -0.463434       -12.6107
 178   2.0000      -0.460167       -12.5218
 179   2.0000      -0.456366       -12.4184
 180   2.0000      -0.454649       -12.3716
 181   2.0000      -0.454124       -12.3574
 182   2.0000      -0.450583       -12.2610
 183   2.0000      -0.450031       -12.2460
 184   2.0000      -0.447869       -12.1871
 185   2.0000      -0.443107       -12.0576
 186   2.0000      -0.442546       -12.0423
 187   2.0000      -0.441267       -12.0075
 188   2.0000      -0.435031       -11.8378
 189   2.0000      -0.433239       -11.7890
 190   2.0000      -0.432644       -11.7728
 191   2.0000      -0.431600       -11.7444
 192   2.0000      -0.431568       -11.7436
 193   2.0000      -0.430736       -11.7209
 194   2.0000      -0.427851       -11.6424
 195   2.0000      -0.425328       -11.5738
 196   2.0000      -0.418805       -11.3963
 197   2.0000      -0.418309       -11.3828
 198   2.0000      -0.414340       -11.2748
 199   2.0000      -0.403844       -10.9892
 200   2.0000      -0.400850       -10.9077
 201   2.0000      -0.399925       -10.8825
 202   2.0000      -0.395562       -10.7638
 203   2.0000      -0.393874       -10.7179
 204   2.0000      -0.370087       -10.0706
 205   2.0000      -0.369037       -10.0420
 206   2.0000      -0.367318        -9.9952
 207   2.0000      -0.365248        -9.9389
 208   2.0000      -0.362227        -9.8567
 209   2.0000      -0.341048        -9.2804
 210   2.0000      -0.340955        -9.2779
 211   2.0000      -0.340101        -9.2546
 212   2.0000      -0.335946        -9.1416
 213   2.0000      -0.334897        -9.1130
 214   2.0000      -0.330773        -9.0008
 215   2.0000      -0.314513        -8.5583
 216   2.0000      -0.313909        -8.5419
 217   2.0000      -0.306485        -8.3399
 218   2.0000      -0.292824        -7.9681
 219   2.0000      -0.256725        -6.9858
 220   2.0000      -0.246152        -6.6981
 221   0.0000      -0.097175        -2.6443
 222   0.0000      -0.095936        -2.6105
 223   0.0000      -0.071815        -1.9542
 224   0.0000      -0.066105        -1.7988
 225   0.0000      -0.009861        -0.2683

MULLIKEN ATOMIC CHARGES
-----------------------
   0 C :   -0.081787
   1 C :    0.033955
   2 C :   -0.031496
   3 C :   -0.118921
   4 S :    0.177724
   5 C :   -0.089103
   6 C :    0.024541
   7 C :    0.304589
   8 C :   -0.306059
   9 C :   -0.185474
  10 N :    0.171790
  11 C :   -0.190555
  12 N :    0.171401
  13 C :   -0.055483
  14 C :   -0.118140
  15 S :    0.157590
  16 C :    0.161792
  17 C :   -0.074248
  18 C :   -0.043939
  19 C :    0.086208
  20 C :    0.002205
  21 C :    0.001548
  22 N :   -0.280559
  23 S :    0.530525
  24 N :   -0.294455
  25 C :   -0.173506
  26 C :    0.073382
  27 C :    0.086927
  28 O :   -0.197767
  29 O :   -0.163071
  30 C :    0.059416
  31 C :   -0.095775
  32 S :    0.191715
  33 C :    0.084416
  34 C :   -0.049404
  35 C :   -0.080616
  36 C :    0.162538
  37 C :   -0.004692
  38 C :    0.003719
  39 N :   -0.274442
  40 S :    0.524699
  41 N :   -0.281017
  42 C :   -0.119196
  43 C :   -0.055257
  44 C :    0.022667
  45 C :   -0.091047
  46 S :    0.151955
  47 C :   -0.117979
  48 C :   -0.031507
  49 C :    0.303065
  50 C :   -0.303417
  51 C :   -0.191349
  52 N :    0.170076
  53 C :   -0.185351
  54 N :    0.170696
  55 C :    0.035214
  56 C :   -0.082160
  57 S :    0.176441
  58 H :    0.034646
  59 H :    0.012161
  60 H :    0.019751
  61 H :   -0.009681
  62 H :    0.004960
  63 H :    0.190655
  64 H :    0.027520
  65 H :   -0.005560
  66 H :   -0.012131
  67 H :    0.019601
  68 H :    0.011042
  69 H :    0.034016
Sum of atomic charges:    0.0000000

LOEWDIN ATOMIC CHARGES
----------------------
   0 C :   -0.178774
   1 C :   -0.034906
   2 C :   -0.075370
   3 C :   -0.184923
   4 S :    0.474701
   5 C :   -0.177062
   6 C :   -0.074892
   7 C :    0.083563
   8 C :   -0.104408
   9 C :   -0.017319
  10 N :   -0.033105
  11 C :   -0.016428
  12 N :   -0.036905
  13 C :   -0.018543
  14 C :   -0.163116
  15 S :    0.471310
  16 C :   -0.037924
  17 C :   -0.024977
  18 C :    0.002369
  19 C :   -0.055868
  20 C :   -0.047087
  21 C :   -0.040002
  22 N :   -0.275556
  23 S :    0.655655
  24 N :   -0.297981
  25 C :   -0.144047
  26 C :   -0.094360
  27 C :    0.086424
  28 O :   -0.174336
  29 O :   -0.024886
  30 C :   -0.053044
  31 C :   -0.165478
  32 S :    0.505660
  33 C :   -0.018844
  34 C :   -0.016070
  35 C :   -0.025345
  36 C :   -0.043414
  37 C :   -0.039294
  38 C :   -0.040048
  39 N :   -0.282078
  40 S :    0.653377
  41 N :   -0.278271
  42 C :   -0.161490
  43 C :   -0.020903
  44 C :   -0.074484
  45 C :   -0.179019
  46 S :    0.466783
  47 C :   -0.184400
  48 C :   -0.076432
  49 C :    0.083814
  50 C :   -0.104680
  51 C :   -0.016356
  52 N :   -0.037329
  53 C :   -0.017256
  54 N :   -0.033476
  55 C :   -0.034765
  56 C :   -0.179609
  57 S :    0.473322
  58 H :    0.026932
  59 H :    0.042376
  60 H :    0.038412
  61 H :    0.024540
  62 H :    0.035177
  63 H :    0.100449
  64 H :    0.025270
  65 H :    0.034568
  66 H :    0.023129
  67 H :    0.038221
  68 H :    0.042153
  69 H :    0.026653

  Mayer bond orders larger than 0.100000
B(  0-C ,  1-C ) :   1.5473 B(  0-C ,  4-S ) :   1.1506 B(  0-C , 58-H ) :   0.9643
B(  1-C ,  2-C ) :   1.2763 B(  1-C , 59-H ) :   0.9965 B(  2-C ,  3-C ) :   1.4625
B(  2-C ,  7-C ) :   1.0106 B(  3-C ,  4-S ) :   1.1340 B(  3-C ,  5-C ) :   1.1751
B(  5-C ,  6-C ) :   1.4580 B(  5-C , 15-S ) :   1.1307 B(  6-C ,  7-C ) :   0.9950
B(  6-C , 13-C ) :   1.2339 B(  7-C ,  8-C ) :   1.7099 B(  8-C ,  9-C ) :   1.1376
B(  8-C , 11-C ) :   1.1288 B(  9-C , 10-N ) :   2.9876 B( 11-C , 12-N ) :   3.0024
B( 13-C , 14-C ) :   1.4959 B( 13-C , 60-H ) :   0.9835 B( 14-C , 15-S ) :   1.0877
B( 14-C , 16-C ) :   1.1125 B( 16-C , 17-C ) :   1.4417 B( 16-C , 19-C ) :   0.1118
B( 16-C , 21-C ) :   1.1894 B( 17-C , 18-C ) :   1.2297 B( 17-C , 61-H ) :   0.9901
B( 18-C , 19-C ) :   1.4817 B( 18-C , 62-H ) :   0.9786 B( 19-C , 20-C ) :   1.1778
B( 19-C , 25-C ) :   1.0590 B( 20-C , 21-C ) :   1.1670 B( 20-C , 24-N ) :   1.5135
B( 21-C , 22-N ) :   1.5319 B( 22-N , 23-S ) :   1.2632 B( 22-N , 24-N ) :   0.1454
B( 23-S , 24-N ) :   1.2636 B( 25-C , 26-C ) :   1.5392 B( 25-C , 32-S ) :   1.1867
B( 26-C , 27-C ) :   0.8911 B( 26-C , 30-C ) :   1.2565 B( 27-C , 28-O ) :   2.0684
B( 27-C , 29-O ) :   1.2737 B( 29-O , 63-H ) :   0.9437 B( 30-C , 31-C ) :   1.5535
B( 30-C , 33-C ) :   0.9917 B( 31-C , 32-S ) :   1.1675 B( 31-C , 64-H ) :   0.9572
B( 33-C , 34-C ) :   1.4788 B( 33-C , 36-C ) :   0.1196 B( 33-C , 38-C ) :   1.2272
B( 34-C , 35-C ) :   1.2297 B( 34-C , 65-H ) :   0.9770 B( 35-C , 36-C ) :   1.4488
B( 35-C , 66-H ) :   0.9887 B( 36-C , 37-C ) :   1.1909 B( 36-C , 42-C ) :   1.1074
B( 37-C , 38-C ) :   1.1612 B( 37-C , 41-N ) :   1.5282 B( 38-C , 39-N ) :   1.5312
B( 39-N , 40-S ) :   1.2707 B( 39-N , 41-N ) :   0.1467 B( 40-S , 41-N ) :   1.2614
B( 42-C , 43-C ) :   1.5014 B( 42-C , 46-S ) :   1.0885 B( 43-C , 44-C ) :   1.2283
B( 43-C , 67-H ) :   0.9839 B( 44-C , 45-C ) :   1.4633 B( 44-C , 49-C ) :   0.9963
B( 45-C , 46-S ) :   1.1264 B( 45-C , 47-C ) :   1.1740 B( 47-C , 48-C ) :   1.4617
B( 47-C , 57-S ) :   1.1343 B( 48-C , 49-C ) :   1.0116 B( 48-C , 55-C ) :   1.2770
B( 49-C , 50-C ) :   1.7081 B( 50-C , 51-C ) :   1.1299 B( 50-C , 53-C ) :   1.1357
B( 51-C , 52-N ) :   3.0020 B( 53-C , 54-N ) :   2.9885 B( 55-C , 56-C ) :   1.5480
B( 55-C , 68-H ) :   0.9962 B( 56-C , 57-S ) :   1.1484 B( 56-C , 69-H ) :   0.9646

-----------------------------------------------------------------------------
         ABSORPTION SPECTRUM VIA TRANSITION ELECTRIC DIPOLE MOMENTS
-----------------------------------------------------------------------------
State   Energy  Wavelength   fosc         T2         TX        TY        TZ
        (cm-1)    (nm)                  (au**2)     (au)      (au)      (au)
-----------------------------------------------------------------------------
   0   14706.5    680.0   0.163437804   3.65863   0.73588  -1.53329   0.87528
   1   14813.3    675.1   0.041205677   0.91576  -0.21808   0.79992   0.47783
   2   21200.2    471.7   1.173569228  18.22399  -1.58202   3.73265  -1.33736
   3   22808.4    438.4   0.123912945   1.78853   0.39547   0.08100   1.27498
   4   24875.1    402.0   0.009203276   0.12180   0.16510  -0.29298   0.09332
   5   25169.1    397.3   0.014416188   0.18856  -0.15603   0.33944  -0.22137
   6   27468.4    364.1   0.044477748   0.53307  -0.30498   0.65648  -0.09531
   7   27997.6    357.2   0.074199241   0.87248   0.33120  -0.64585   0.58793
   8   28619.6    349.4   0.003898658   0.04485   0.04340  -0.20278   0.04294
   9   28963.5    345.3   0.001094691   0.01244   0.09671  -0.05523   0.00623
  10   31772.9    314.7   0.791978123   8.20601   0.61644  -0.09745  -2.79580
  11   31921.3    313.3   0.438252580   4.51980   0.94597  -1.84629  -0.46492
  12   32554.8    307.2   0.046455162   0.46978   0.12369  -0.33194  -0.58677
  13   33395.1    299.4   0.016130896   0.15902  -0.11000   0.27638  -0.26558
  14   33592.2    297.7   0.093929720   0.92054   0.39617  -0.83990  -0.24115
  15   33726.0    296.5   0.112070841   1.09397  -0.29753   0.49456  -0.87227
  16   34026.7    293.9   0.471744344   4.56418  -0.77873   1.98156   0.17654
  17   34401.3    290.7   0.653619380   6.25497  -0.78438   2.13205  -1.04598
  18   35305.2    283.2   0.008447835   0.07877   0.00273   0.08344  -0.26796
  19   35723.8    279.9   0.469328173   4.32509  -0.76460   0.97457  -1.67053
  20   36194.4    276.3   0.019653518   0.17876   0.16844  -0.11765  -0.36952
  21   36520.0    273.8   0.076227093   0.68715  -0.27821   0.42771   0.65331
  22   36671.5    272.7   0.115821647   1.03977  -0.61802   0.77457   0.24053
  23   36956.3    270.6   0.069093480   0.61549  -0.13786   0.15028   0.75756
  24   37352.1    267.7   0.067273877   0.59294  -0.04598   0.02017  -0.76838
  25   37556.8    266.3   0.009544042   0.08366  -0.04244   0.01281   0.28582
  26   37745.0    264.9   0.040360461   0.35202  -0.01449   0.14228  -0.57582
  27   38093.5    262.5   0.149852798   1.29506  -0.00053  -0.05850  -1.13650
  28   38664.4    258.6   0.101548462   0.86464   0.45181  -0.79230  -0.18104
  29   38830.6    257.5   0.029681396   0.25164  -0.12672   0.48521  -0.01265
  30   38950.9    256.7   0.052833720   0.44655   0.10012  -0.15655  -0.64189
  31   39886.1    250.7   0.120472350   0.99436  -0.40193   0.54516  -0.73185
  32   40176.5    248.9   0.039466220   0.32339   0.36645  -0.39820  -0.17477

FINAL SINGLE POINT ENERGY     -4941.717061711567

DIPOLE MOMENT
-------------
                                X             Y             Z
Electronic contribution:     -0.39569       1.31998      10.11416
Nuclear contribution   :      1.24766      -2.28272     -13.24599
                        -----------------------------------------
Total Dipole Moment    :      0.85197      -0.96275      -3.13183
                        -----------------------------------------
Magnitude (a.u.)       :      3.38542
Magnitude (Debye)      :      8.60506

Rotational constants in cm-1:     0.003553     0.000306     0.000284
Rotational constants in MHz :   106.528852     9.177264     8.520412

                             ****ORCA TERMINATED NORMALLY****
TOTAL RUN TIME: 0 days 0 hours 6 minutes 7 seconds 565 msec
