                         Program Version 4.2.0 -  RELEASE  -
|  1> # ORCA input file
|  2> # SCF done       -209.318394646038          0.000554585096
|  3> ! CAM-B3LYP def2-SVP def2/J RIJCOSX Grid4 TightSCF
|  4> %maxcore 5000
|  5> %tddft
|  6>     Mode sTDDFT
|  7>     Ethresh 5.0
|  8>     maxcore 5000
|  9> end
| 10>
| 11> %pal
| 12>   nprocs 6
| 13>   end
| 14> * xyz 0 1
| 15>    C       -2.77491         2.72766         9.06235
| 16>    C       -3.89433         3.38194         8.54189
| 17>    O       -4.17832         4.59452         9.08571
| 18>    C       -5.26112         5.34361         8.57085
| 19>    C       -5.29541         6.67163         9.31084
| 20>    C       -4.61899         2.76958         7.53219
| 21>    C       -4.24462         1.52650         7.00699
| 22>    C       -3.13872         0.86814         7.56820
| 23>    C       -2.41990         1.48530         8.58621
| 24>    O       -2.71732        -0.37609         7.14227
| 25>    C       -3.54049        -1.46124         7.53898
| 26>    C       -3.46628        -1.73266         9.03802
| 27>    C       -5.01328         1.01495         5.88727
| 28>    C       -4.54216         0.20228         4.92249
| 29>    C       -5.28218        -0.24980         3.78036
| 30>    C       -6.62812        -0.25983         3.67712
| 31>    C       -7.39375        -0.66963         2.54517
| 32>    O       -8.73007        -0.76235         2.71121
| 33>    C       -9.29808        -1.13476         1.53957
| 34>    C       -8.31307        -1.28618         0.58610
| 35>    C       -7.09340        -0.99165         1.22426
| 36>    C       -5.77547        -1.01227         0.54501
| 37>    F       -4.94461        -1.96760         1.01501
| 38>    F       -5.89444        -1.24646        -0.77028
| 39>    F       -5.09885         0.14812         0.65702
| 40>    C      -10.71486        -1.30715         1.48749
| 41>    C      -11.39245        -1.57428         0.35430
| 42>    C      -12.81321        -1.78386         0.23678
| 43>    C      -13.40718        -1.76952        -1.05021
| 44>    O      -12.57071        -1.49349        -2.08531
| 45>    C      -13.03692        -1.55605        -3.41910
| 46>    C      -13.18469        -2.98762        -3.92569
| 47>    C      -14.76467        -2.00024        -1.17179
| 48>    C      -15.58398        -2.27756        -0.07009
| 49>    C      -14.99763        -2.25060         1.20921
| 50>    C      -13.64234        -2.00873         1.33508
| 51>    O      -15.72533        -2.47020         2.36261
| 52>    C      -16.55663        -1.38941         2.75844
| 53>    C      -15.75922        -0.17622         3.22549
| 54>    C      -16.96626        -2.60597        -0.33278
| 55>    C      -17.77504        -3.35516         0.44556
| 56>    C      -19.10858        -3.68200         0.06451
| 57>    C      -19.89304        -4.51424         0.78395
| 58>    C      -21.22235        -4.92329         0.47441
| 59>    O      -21.76757        -5.87423         1.26175
| 60>    C      -23.01766        -6.15149         0.82202
| 61>    C      -23.30134        -5.35904        -0.27096
| 62>    C      -22.15653        -4.57201        -0.49746
| 63>    C      -22.03998        -3.56544        -1.57950
| 64>    F      -21.72599        -2.33228        -1.13192
| 65>    F      -21.09426        -3.86999        -2.49527
| 66>    F      -23.18348        -3.43070        -2.26579
| 67>    C      -23.76792        -7.16010         1.49957
| 68>    C      -25.00662        -7.54540         1.13893
| 69>    C      -25.80322        -8.56952         1.77013
| 70>    C      -26.92464        -9.08458         1.09319
| 71>    O      -27.25722        -8.62909        -0.16827
| 72>    C      -26.52308        -9.21432        -1.23247
| 73>    C      -26.88869       -10.67470        -1.47592
| 74>    C      -27.72271       -10.03656         1.69773
| 75>    C      -27.45638       -10.52699         2.97502
| 76>    C      -26.32119       -10.01724         3.65453
| 77>    C      -25.52690        -9.06000         3.05100
| 78>    O      -26.09100       -10.52129         4.89566
| 79>    C      -24.97774       -10.06781         5.63856
| 80>    C      -24.97935       -10.81440         6.96370
| 81>    C      -28.27738       -11.52166         3.62455
| 82>    C      -29.33162       -12.16773         3.09636
| 83>    C      -30.08813       -13.15230         3.82132
| 84>    C      -31.12688       -13.81077         3.30921
| 85>    H       -2.21110         3.20981         9.84453
| 86>    H       -6.20386         4.79928         8.72395
| 87>    H       -5.12395         5.51362         7.49382
| 88>    H       -5.42530         6.49973        10.37571
| 89>    H       -6.11721         7.27936         8.94322
| 90>    H       -4.36065         7.20391         9.15814
| 91>    H       -5.47932         3.25708         7.09942
| 92>    H       -1.56472         0.96842         8.99385
| 93>    H       -3.15894        -2.31778         6.97779
| 94>    H       -4.58200        -1.27975         7.24229
| 95>    H       -2.43651        -1.91526         9.33519
| 96>    H       -4.06511        -2.60585         9.28229
| 97>    H       -3.84387        -0.87790         9.59593
| 98>    H       -6.01843         1.40989         5.80342
| 99>    H       -3.50809        -0.10872         4.96422
|100>    H       -4.67980        -0.62807         2.96971
|101>    H       -7.23832         0.04253         4.51723
|102>    H       -8.43615        -1.57153        -0.43748
|103>    H      -11.22000        -1.19100         2.43510
|104>    H      -10.84970        -1.62438        -0.57791
|105>    H      -12.26480        -1.03791        -3.99493
|106>    H      -13.97582        -1.00037        -3.52916
|107>    H      -12.23300        -3.50673        -3.84525
|108>    H      -13.49321        -2.97615        -4.96734
|109>    H      -13.92290        -3.53443        -3.34427
|110>    H      -15.23401        -2.00295        -2.14336
|111>    H      -13.22261        -2.02255         2.32814
|112>    H      -17.15635        -1.78917         3.57992
|113>    H      -17.22720        -1.10289         1.93758
|114>    H      -15.09289        -0.45493         4.03814
|115>    H      -16.43987         0.59494         3.57530
|116>    H      -15.16383         0.22398         2.40715
|117>    H      -17.34881        -2.26684        -1.28910
|118>    H      -17.40884        -3.75753         1.37885
|119>    H      -19.46482        -3.24206        -0.85371
|120>    H      -19.50012        -4.96251         1.68725
|121>    H      -24.20652        -5.33402        -0.84077
|122>    H      -23.25028        -7.62448         2.32638
|123>    H      -25.47504        -7.06666         0.29006
|124>    H      -25.44376        -9.12944        -1.04122
|125>    H      -26.77694        -8.60964        -2.10700
|126>    H      -26.63379       -11.27977        -0.60815
|127>    H      -26.34257       -11.04812        -2.33782
|128>    H      -27.95498       -10.76683        -1.66652
|129>    H      -28.58322       -10.39223         1.15448
|130>    H      -24.68278        -8.64871         3.57924
|131>    H      -25.05422        -8.98568         5.81368
|132>    H      -24.04814       -10.27257         5.08933
|133>    H      -25.90343       -10.61560         7.49957
|134>    H      -24.13841       -10.49256         7.57105
|135>    H      -24.90402       -11.88394         6.78733
|136>    H      -27.98137       -11.75788         4.63754
|137>    H      -29.65640       -11.97406         2.08362
|138>    H      -29.77191       -13.34749         4.83817
|139>    H      -31.46435       -13.63398         2.30098
|140>    H      -31.67654       -14.54143         3.87668
|141> *
|142>
|143>                          ****END OF INPUT****

CARTESIAN COORDINATES (ANGSTROEM)
---------------------------------
  C     -2.774910    2.727660    9.062350
  C     -3.894330    3.381940    8.541890
  O     -4.178320    4.594520    9.085710
  C     -5.261120    5.343610    8.570850
  C     -5.295410    6.671630    9.310840
  C     -4.618990    2.769580    7.532190
  C     -4.244620    1.526500    7.006990
  C     -3.138720    0.868140    7.568200
  C     -2.419900    1.485300    8.586210
  O     -2.717320   -0.376090    7.142270
  C     -3.540490   -1.461240    7.538980
  C     -3.466280   -1.732660    9.038020
  C     -5.013280    1.014950    5.887270
  C     -4.542160    0.202280    4.922490
  C     -5.282180   -0.249800    3.780360
  C     -6.628120   -0.259830    3.677120
  C     -7.393750   -0.669630    2.545170
  O     -8.730070   -0.762350    2.711210
  C     -9.298080   -1.134760    1.539570
  C     -8.313070   -1.286180    0.586100
  C     -7.093400   -0.991650    1.224260
  C     -5.775470   -1.012270    0.545010
  F     -4.944610   -1.967600    1.015010
  F     -5.894440   -1.246460   -0.770280
  F     -5.098850    0.148120    0.657020
  C    -10.714860   -1.307150    1.487490
  C    -11.392450   -1.574280    0.354300
  C    -12.813210   -1.783860    0.236780
  C    -13.407180   -1.769520   -1.050210
  O    -12.570710   -1.493490   -2.085310
  C    -13.036920   -1.556050   -3.419100
  C    -13.184690   -2.987620   -3.925690
  C    -14.764670   -2.000240   -1.171790
  C    -15.583980   -2.277560   -0.070090
  C    -14.997630   -2.250600    1.209210
  C    -13.642340   -2.008730    1.335080
  O    -15.725330   -2.470200    2.362610
  C    -16.556630   -1.389410    2.758440
  C    -15.759220   -0.176220    3.225490
  C    -16.966260   -2.605970   -0.332780
  C    -17.775040   -3.355160    0.445560
  C    -19.108580   -3.682000    0.064510
  C    -19.893040   -4.514240    0.783950
  C    -21.222350   -4.923290    0.474410
  O    -21.767570   -5.874230    1.261750
  C    -23.017660   -6.151490    0.822020
  C    -23.301340   -5.359040   -0.270960
  C    -22.156530   -4.572010   -0.497460
  C    -22.039980   -3.565440   -1.579500
  F    -21.725990   -2.332280   -1.131920
  F    -21.094260   -3.869990   -2.495270
  F    -23.183480   -3.430700   -2.265790
  C    -23.767920   -7.160100    1.499570
  C    -25.006620   -7.545400    1.138930
  C    -25.803220   -8.569520    1.770130
  C    -26.924640   -9.084580    1.093190
  O    -27.257220   -8.629090   -0.168270
  C    -26.523080   -9.214320   -1.232470
  C    -26.888690  -10.674700   -1.475920
  C    -27.722710  -10.036560    1.697730
  C    -27.456380  -10.526990    2.975020
  C    -26.321190  -10.017240    3.654530
  C    -25.526900   -9.060000    3.051000
  O    -26.091000  -10.521290    4.895660
  C    -24.977740  -10.067810    5.638560
  C    -24.979350  -10.814400    6.963700
  C    -28.277380  -11.521660    3.624550
  C    -29.331620  -12.167730    3.096360
  C    -30.088130  -13.152300    3.821320
  C    -31.126880  -13.810770    3.309210
  H     -2.211100    3.209810    9.844530
  H     -6.203860    4.799280    8.723950
  H     -5.123950    5.513620    7.493820
  H     -5.425300    6.499730   10.375710
  H     -6.117210    7.279360    8.943220
  H     -4.360650    7.203910    9.158140
  H     -5.479320    3.257080    7.099420
  H     -1.564720    0.968420    8.993850
  H     -3.158940   -2.317780    6.977790
  H     -4.582000   -1.279750    7.242290
  H     -2.436510   -1.915260    9.335190
  H     -4.065110   -2.605850    9.282290
  H     -3.843870   -0.877900    9.595930
  H     -6.018430    1.409890    5.803420
  H     -3.508090   -0.108720    4.964220
  H     -4.679800   -0.628070    2.969710
  H     -7.238320    0.042530    4.517230
  H     -8.436150   -1.571530   -0.437480
  H    -11.220000   -1.191000    2.435100
  H    -10.849700   -1.624380   -0.577910
  H    -12.264800   -1.037910   -3.994930
  H    -13.975820   -1.000370   -3.529160
  H    -12.233000   -3.506730   -3.845250
  H    -13.493210   -2.976150   -4.967340
  H    -13.922900   -3.534430   -3.344270
  H    -15.234010   -2.002950   -2.143360
  H    -13.222610   -2.022550    2.328140
  H    -17.156350   -1.789170    3.579920
  H    -17.227200   -1.102890    1.937580
  H    -15.092890   -0.454930    4.038140
  H    -16.439870    0.594940    3.575300
  H    -15.163830    0.223980    2.407150
  H    -17.348810   -2.266840   -1.289100
  H    -17.408840   -3.757530    1.378850
  H    -19.464820   -3.242060   -0.853710
  H    -19.500120   -4.962510    1.687250
  H    -24.206520   -5.334020   -0.840770
  H    -23.250280   -7.624480    2.326380
  H    -25.475040   -7.066660    0.290060
  H    -25.443760   -9.129440   -1.041220
  H    -26.776940   -8.609640   -2.107000
  H    -26.633790  -11.279770   -0.608150
  H    -26.342570  -11.048120   -2.337820
  H    -27.954980  -10.766830   -1.666520
  H    -28.583220  -10.392230    1.154480
  H    -24.682780   -8.648710    3.579240
  H    -25.054220   -8.985680    5.813680
  H    -24.048140  -10.272570    5.089330
  H    -25.903430  -10.615600    7.499570
  H    -24.138410  -10.492560    7.571050
  H    -24.904020  -11.883940    6.787330
  H    -27.981370  -11.757880    4.637540
  H    -29.656400  -11.974060    2.083620
  H    -29.771910  -13.347490    4.838170
  H    -31.464350  -13.633980    2.300980
  H    -31.676540  -14.541430    3.876680

 Total Charge           Charge          ....    0
 Multiplicity           Mult            ....    1
 Number of Electrons    NEL             ....  510
 Basis Dimension        Dim             .... 1260

ORBITAL ENERGIES
----------------

  NO   OCC          E(Eh)            E(eV)
   0   2.0000     -24.795023      -674.7069
   1   2.0000     -24.790413      -674.5814
   2   2.0000     -24.789979      -674.5696
   3   2.0000     -24.789944      -674.5687
   4   2.0000     -24.785688      -674.4529
   5   2.0000     -24.784794      -674.4285
   6   2.0000     -19.294701      -525.0355
   7   2.0000     -19.290138      -524.9114
   8   2.0000     -19.243416      -523.6400
   9   2.0000     -19.242101      -523.6042
  10   2.0000     -19.232538      -523.3440
  11   2.0000     -19.222593      -523.0733
  12   2.0000     -19.221877      -523.0539
  13   2.0000     -19.215600      -522.8831
  14   2.0000     -10.514087      -286.1029
  15   2.0000     -10.509101      -285.9672
  16   2.0000     -10.341502      -281.4066
  17   2.0000     -10.336897      -281.2813
  18   2.0000     -10.331644      -281.1383
  19   2.0000     -10.330313      -281.1021
  20   2.0000     -10.328022      -281.0398
  21   2.0000     -10.326703      -281.0039
  22   2.0000     -10.325514      -280.9715
  23   2.0000     -10.324969      -280.9567
  24   2.0000     -10.319794      -280.8159
  25   2.0000     -10.318054      -280.7685
  26   2.0000     -10.316721      -280.7323
  27   2.0000     -10.314325      -280.6671
  28   2.0000     -10.313523      -280.6452
  29   2.0000     -10.311193      -280.5818
  30   2.0000     -10.308776      -280.5161
  31   2.0000     -10.305277      -280.4209
  32   2.0000     -10.286986      -279.9231
  33   2.0000     -10.281862      -279.7837
  34   2.0000     -10.279989      -279.7327
  35   2.0000     -10.279829      -279.7284
  36   2.0000     -10.279207      -279.7114
  37   2.0000     -10.277473      -279.6643
  38   2.0000     -10.277307      -279.6597
  39   2.0000     -10.276464      -279.6368
  40   2.0000     -10.276024      -279.6248
  41   2.0000     -10.275276      -279.6045
  42   2.0000     -10.274984      -279.5965
  43   2.0000     -10.274676      -279.5882
  44   2.0000     -10.274393      -279.5804
  45   2.0000     -10.272839      -279.5382
  46   2.0000     -10.272406      -279.5264
  47   2.0000     -10.272207      -279.5210
  48   2.0000     -10.271181      -279.4931
  49   2.0000     -10.270928      -279.4862
  50   2.0000     -10.269074      -279.4357
  51   2.0000     -10.268683      -279.4251
  52   2.0000     -10.267859      -279.4026
  53   2.0000     -10.266856      -279.3753
  54   2.0000     -10.266345      -279.3614
  55   2.0000     -10.264065      -279.2994
  56   2.0000     -10.263183      -279.2754
  57   2.0000     -10.262698      -279.2622
  58   2.0000     -10.262413      -279.2544
  59   2.0000     -10.261776      -279.2371
  60   2.0000     -10.261483      -279.2291
  61   2.0000     -10.261392      -279.2267
  62   2.0000     -10.261067      -279.2178
  63   2.0000     -10.259898      -279.1860
  64   2.0000     -10.257723      -279.1268
  65   2.0000     -10.257157      -279.1114
  66   2.0000     -10.254474      -279.0384
  67   2.0000     -10.254263      -279.0327
  68   2.0000     -10.253689      -279.0171
  69   2.0000     -10.248691      -278.8811
  70   2.0000      -1.381066       -37.5807
  71   2.0000      -1.376164       -37.4473
  72   2.0000      -1.285001       -34.9667
  73   2.0000      -1.279922       -34.8284
  74   2.0000      -1.279799       -34.8251
  75   2.0000      -1.275165       -34.6990
  76   2.0000      -1.213887       -33.0315
  77   2.0000      -1.209130       -32.9021
  78   2.0000      -1.148641       -31.2561
  79   2.0000      -1.147850       -31.2346
  80   2.0000      -1.138239       -30.9731
  81   2.0000      -1.127049       -30.6686
  82   2.0000      -1.126356       -30.6497
  83   2.0000      -1.120143       -30.4807
  84   2.0000      -0.951571       -25.8936
  85   2.0000      -0.949682       -25.8422
  86   2.0000      -0.940113       -25.5818
  87   2.0000      -0.923281       -25.1238
  88   2.0000      -0.917437       -24.9647
  89   2.0000      -0.916190       -24.9308
  90   2.0000      -0.912096       -24.8194
  91   2.0000      -0.904397       -24.6099
  92   2.0000      -0.896695       -24.4003
  93   2.0000      -0.889377       -24.2012
  94   2.0000      -0.878925       -23.9168
  95   2.0000      -0.869229       -23.6529
  96   2.0000      -0.862984       -23.4830
  97   2.0000      -0.858286       -23.3551
  98   2.0000      -0.854121       -23.2418
  99   2.0000      -0.848357       -23.0850
 100   2.0000      -0.839915       -22.8553
 101   2.0000      -0.839251       -22.8372
 102   2.0000      -0.836683       -22.7673
 103   2.0000      -0.831555       -22.6278
 104   2.0000      -0.821632       -22.3577
 105   2.0000      -0.810990       -22.0682
 106   2.0000      -0.804250       -21.8847
 107   2.0000      -0.802901       -21.8480
 108   2.0000      -0.795521       -21.6472
 109   2.0000      -0.792926       -21.5766
 110   2.0000      -0.789903       -21.4943
 111   2.0000      -0.781671       -21.2704
 112   2.0000      -0.770966       -20.9791
 113   2.0000      -0.748011       -20.3544
 114   2.0000      -0.736840       -20.0504
 115   2.0000      -0.733778       -19.9671
 116   2.0000      -0.725086       -19.7306
 117   2.0000      -0.720837       -19.6150
 118   2.0000      -0.718964       -19.5640
 119   2.0000      -0.715377       -19.4664
 120   2.0000      -0.711033       -19.3482
 121   2.0000      -0.700068       -19.0498
 122   2.0000      -0.698497       -19.0071
 123   2.0000      -0.693639       -18.8749
 124   2.0000      -0.690157       -18.7801
 125   2.0000      -0.687332       -18.7032
 126   2.0000      -0.683116       -18.5885
 127   2.0000      -0.675560       -18.3829
 128   2.0000      -0.670658       -18.2495
 129   2.0000      -0.669456       -18.2168
 130   2.0000      -0.663824       -18.0636
 131   2.0000      -0.660949       -17.9853
 132   2.0000      -0.659134       -17.9360
 133   2.0000      -0.658881       -17.9291
 134   2.0000      -0.654822       -17.8186
 135   2.0000      -0.646688       -17.5973
 136   2.0000      -0.640564       -17.4306
 137   2.0000      -0.638214       -17.3667
 138   2.0000      -0.629939       -17.1415
 139   2.0000      -0.627566       -17.0769
 140   2.0000      -0.618922       -16.8417
 141   2.0000      -0.614639       -16.7252
 142   2.0000      -0.613425       -16.6921
 143   2.0000      -0.609308       -16.5801
 144   2.0000      -0.598866       -16.2960
 145   2.0000      -0.593007       -16.1365
 146   2.0000      -0.590198       -16.0601
 147   2.0000      -0.586310       -15.9543
 148   2.0000      -0.583326       -15.8731
 149   2.0000      -0.580586       -15.7986
 150   2.0000      -0.578193       -15.7334
 151   2.0000      -0.575473       -15.6594
 152   2.0000      -0.569529       -15.4977
 153   2.0000      -0.567436       -15.4407
 154   2.0000      -0.563481       -15.3331
 155   2.0000      -0.562124       -15.2962
 156   2.0000      -0.561177       -15.2704
 157   2.0000      -0.556203       -15.1351
 158   2.0000      -0.555940       -15.1279
 159   2.0000      -0.553884       -15.0719
 160   2.0000      -0.549871       -14.9628
 161   2.0000      -0.547455       -14.8970
 162   2.0000      -0.545251       -14.8370
 163   2.0000      -0.541964       -14.7476
 164   2.0000      -0.540925       -14.7193
 165   2.0000      -0.540054       -14.6956
 166   2.0000      -0.537230       -14.6188
 167   2.0000      -0.535298       -14.5662
 168   2.0000      -0.533998       -14.5308
 169   2.0000      -0.529289       -14.4027
 170   2.0000      -0.526835       -14.3359
 171   2.0000      -0.525967       -14.3123
 172   2.0000      -0.521195       -14.1824
 173   2.0000      -0.520573       -14.1655
 174   2.0000      -0.518043       -14.0967
 175   2.0000      -0.512034       -13.9332
 176   2.0000      -0.508185       -13.8284
 177   2.0000      -0.506962       -13.7951
 178   2.0000      -0.505190       -13.7469
 179   2.0000      -0.502963       -13.6863
 180   2.0000      -0.500664       -13.6238
 181   2.0000      -0.499397       -13.5893
 182   2.0000      -0.498861       -13.5747
 183   2.0000      -0.498339       -13.5605
 184   2.0000      -0.496418       -13.5082
 185   2.0000      -0.495681       -13.4882
 186   2.0000      -0.493498       -13.4288
 187   2.0000      -0.486259       -13.2318
 188   2.0000      -0.485513       -13.2115
 189   2.0000      -0.484285       -13.1781
 190   2.0000      -0.482195       -13.1212
 191   2.0000      -0.479656       -13.0521
 192   2.0000      -0.478054       -13.0085
 193   2.0000      -0.476473       -12.9655
 194   2.0000      -0.475200       -12.9308
 195   2.0000      -0.474747       -12.9185
 196   2.0000      -0.473035       -12.8719
 197   2.0000      -0.472231       -12.8500
 198   2.0000      -0.470443       -12.8014
 199   2.0000      -0.466813       -12.7026
 200   2.0000      -0.466682       -12.6991
 201   2.0000      -0.464485       -12.6393
 202   2.0000      -0.462250       -12.5785
 203   2.0000      -0.460724       -12.5369
 204   2.0000      -0.458506       -12.4766
 205   2.0000      -0.457132       -12.4392
 206   2.0000      -0.455936       -12.4066
 207   2.0000      -0.454050       -12.3553
 208   2.0000      -0.453085       -12.3291
 209   2.0000      -0.450031       -12.2460
 210   2.0000      -0.449275       -12.2254
 211   2.0000      -0.448609       -12.2073
 212   2.0000      -0.447062       -12.1652
 213   2.0000      -0.445370       -12.1191
 214   2.0000      -0.440311       -11.9815
 215   2.0000      -0.439372       -11.9559
 216   2.0000      -0.437126       -11.8948
 217   2.0000      -0.435248       -11.8437
 218   2.0000      -0.432372       -11.7654
 219   2.0000      -0.431656       -11.7460
 220   2.0000      -0.426642       -11.6095
 221   2.0000      -0.426571       -11.6076
 222   2.0000      -0.425790       -11.5863
 223   2.0000      -0.422404       -11.4942
 224   2.0000      -0.421315       -11.4646
 225   2.0000      -0.416269       -11.3272
 226   2.0000      -0.414576       -11.2812
 227   2.0000      -0.411931       -11.2092
 228   2.0000      -0.407837       -11.0978
 229   2.0000      -0.404042       -10.9945
 230   2.0000      -0.399290       -10.8652
 231   2.0000      -0.398845       -10.8531
 232   2.0000      -0.396896       -10.8001
 233   2.0000      -0.395328       -10.7574
 234   2.0000      -0.394278       -10.7288
 235   2.0000      -0.392438       -10.6788
 236   2.0000      -0.388163       -10.5625
 237   2.0000      -0.378672       -10.3042
 238   2.0000      -0.373499       -10.1634
 239   2.0000      -0.366370        -9.9694
 240   2.0000      -0.362306        -9.8589
 241   2.0000      -0.351813        -9.5733
 242   2.0000      -0.343854        -9.3567
 243   2.0000      -0.342238        -9.3128
 244   2.0000      -0.339500        -9.2383
 245   2.0000      -0.335214        -9.1216
 246   2.0000      -0.326205        -8.8765
 247   2.0000      -0.305721        -8.3191
 248   2.0000      -0.294684        -8.0188
 249   2.0000      -0.291230        -7.9248
 250   2.0000      -0.280644        -7.6367
 251   2.0000      -0.269352        -7.3294
 252   2.0000      -0.257521        -7.0075
 253   2.0000      -0.236651        -6.4396
 254   2.0000      -0.223589        -6.0842
 255   0.0000      -0.057606        -1.5675
 256   0.0000      -0.040951        -1.1143
 257   0.0000      -0.026277        -0.7150
 258   0.0000      -0.000914        -0.0249
 259   0.0000       0.021777         0.5926

MULLIKEN ATOMIC CHARGES
-----------------------
   0 C :   -0.023147
   1 C :    0.260620
   2 O :   -0.312853
   3 C :    0.134578
   4 C :    0.022383
   5 C :   -0.170081
   6 C :    0.112347
   7 C :    0.107462
   8 C :    0.010614
   9 O :   -0.347344
  10 C :    0.179706
  11 C :   -0.014565
  12 C :   -0.046459
  13 C :    0.021636
  14 C :   -0.005318
  15 C :    0.008050
  16 C :    0.157712
  17 O :   -0.190855
  18 C :    0.185671
  19 C :   -0.085461
  20 C :   -0.149705
  21 C :    0.537332
  22 F :   -0.172109
  23 F :   -0.158159
  24 F :   -0.168716
  25 C :    0.028566
  26 C :    0.000740
  27 C :    0.049680
  28 C :    0.241429
  29 O :   -0.313776
  30 C :    0.160747
  31 C :   -0.019063
  32 C :   -0.162832
  33 C :    0.112262
  34 C :    0.122273
  35 C :   -0.059375
  36 O :   -0.345700
  37 C :    0.175682
  38 C :   -0.016491
  39 C :   -0.059543
  40 C :    0.024639
  41 C :   -0.002772
  42 C :   -0.009242
  43 C :    0.166572
  44 O :   -0.190517
  45 C :    0.188192
  46 C :   -0.089698
  47 C :   -0.142383
  48 C :    0.535663
  49 F :   -0.170802
  50 F :   -0.173630
  51 F :   -0.155927
  52 C :    0.023335
  53 C :   -0.034092
  54 C :    0.085718
  55 C :    0.129177
  56 O :   -0.342885
  57 C :    0.183705
  58 C :   -0.024639
  59 C :   -0.063794
  60 C :    0.046837
  61 C :    0.245845
  62 C :   -0.172885
  63 O :   -0.316959
  64 C :    0.134405
  65 C :    0.023371
  66 C :    0.002614
  67 C :    0.024406
  68 C :    0.007501
  69 C :   -0.022494
  70 H :   -0.021324
  71 H :    0.011524
  72 H :    0.015771
  73 H :    0.025534
  74 H :    0.014143
  75 H :    0.025967
  76 H :   -0.037529
  77 H :   -0.025208
  78 H :    0.012955
  79 H :    0.015499
  80 H :    0.019325
  81 H :    0.013595
  82 H :    0.027035
  83 H :   -0.016999
  84 H :    0.014379
  85 H :   -0.000483
  86 H :   -0.011017
  87 H :   -0.006986
  88 H :   -0.011507
  89 H :   -0.009438
  90 H :    0.024027
  91 H :    0.014964
  92 H :    0.028407
  93 H :    0.022850
  94 H :    0.027832
  95 H :   -0.038557
  96 H :   -0.037214
  97 H :    0.013843
  98 H :    0.018514
  99 H :    0.019604
 100 H :    0.016333
 101 H :    0.030563
 102 H :   -0.014353
 103 H :    0.013686
 104 H :    0.000957
 105 H :   -0.007773
 106 H :   -0.005253
 107 H :   -0.011336
 108 H :    0.001793
 109 H :    0.008813
 110 H :    0.017240
 111 H :    0.031124
 112 H :    0.016964
 113 H :    0.023741
 114 H :   -0.039676
 115 H :   -0.039897
 116 H :    0.018932
 117 H :    0.013981
 118 H :    0.027313
 119 H :    0.016291
 120 H :    0.027695
 121 H :   -0.012416
 122 H :   -0.018288
 123 H :   -0.012201
 124 H :    0.010118
 125 H :    0.018945
Sum of atomic charges:   -0.0000000

LOEWDIN ATOMIC CHARGES
----------------------
   0 C :   -0.040465
   1 C :    0.048745
   2 O :   -0.107886
   3 C :    0.080347
   4 C :   -0.060335
   5 C :   -0.067720
   6 C :   -0.037490
   7 C :    0.032798
   8 C :   -0.027470
   9 O :   -0.134348
  10 C :    0.080646
  11 C :   -0.072681
  12 C :   -0.010655
  13 C :   -0.024814
  14 C :   -0.010350
  15 C :   -0.045817
  16 C :    0.048305
  17 O :    0.022954
  18 C :    0.029597
  19 C :   -0.045320
  20 C :   -0.129858
  21 C :    0.172974
  22 F :   -0.069547
  23 F :   -0.057375
  24 F :   -0.065626
  25 C :   -0.038912
  26 C :   -0.002601
  27 C :   -0.047630
  28 C :    0.059306
  29 O :   -0.098686
  30 C :    0.080065
  31 C :   -0.071182
  32 C :   -0.064047
  33 C :   -0.036004
  34 C :    0.036119
  35 C :   -0.018183
  36 O :   -0.135018
  37 C :    0.080530
  38 C :   -0.072542
  39 C :   -0.018256
  40 C :   -0.017702
  41 C :   -0.005369
  42 C :   -0.050487
  43 C :    0.048149
  44 O :    0.024226
  45 C :    0.029295
  46 C :   -0.045490
  47 C :   -0.129293
  48 C :    0.173134
  49 F :   -0.067221
  50 F :   -0.070698
  51 F :   -0.055605
  52 C :   -0.041053
  53 C :   -0.005052
  54 C :   -0.039127
  55 C :    0.036400
  56 O :   -0.136900
  57 C :    0.080230
  58 C :   -0.073504
  59 C :   -0.020113
  60 C :   -0.043830
  61 C :    0.060007
  62 C :   -0.063685
  63 O :   -0.101454
  64 C :    0.081261
  65 C :   -0.060049
  66 C :   -0.018231
  67 C :   -0.021201
  68 C :   -0.023061
  69 C :   -0.051885
  70 H :    0.031747
  71 H :    0.010648
  72 H :    0.012251
  73 H :    0.029505
  74 H :    0.029444
  75 H :    0.029829
  76 H :    0.025105
  77 H :    0.032336
  78 H :    0.020501
  79 H :    0.009807
  80 H :    0.025232
  81 H :    0.028878
  82 H :    0.026892
  83 H :    0.023555
  84 H :    0.033604
  85 H :    0.025511
  86 H :    0.033225
  87 H :    0.033385
  88 H :    0.031629
  89 H :    0.028906
  90 H :    0.027049
  91 H :    0.012003
  92 H :    0.030975
  93 H :    0.032630
  94 H :    0.027212
  95 H :    0.026098
  96 H :    0.030813
  97 H :    0.020448
  98 H :    0.011053
  99 H :    0.025219
 100 H :    0.030236
 101 H :    0.027520
 102 H :    0.027749
 103 H :    0.031084
 104 H :    0.022851
 105 H :    0.037146
 106 H :    0.033987
 107 H :    0.031699
 108 H :    0.031158
 109 H :    0.009246
 110 H :    0.020931
 111 H :    0.027769
 112 H :    0.030443
 113 H :    0.026360
 114 H :    0.030532
 115 H :    0.025163
 116 H :    0.013522
 117 H :    0.012468
 118 H :    0.030152
 119 H :    0.030581
 120 H :    0.030177
 121 H :    0.027872
 122 H :    0.022292
 123 H :    0.027593
 124 H :    0.019811
 125 H :    0.022902

  Mayer bond orders larger than 0.100000
B(  0-C ,  1-C ) :   1.3472 B(  0-C ,  8-C ) :   1.3520 B(  0-C , 70-H ) :   0.9997
B(  1-C ,  2-O ) :   1.1329 B(  1-C ,  5-C ) :   1.3059 B(  2-O ,  3-C ) :   0.9561
B(  3-C ,  4-C ) :   1.0961 B(  3-C , 71-H ) :   0.9510 B(  3-C , 72-H ) :   0.9500
B(  4-C , 73-H ) :   0.9687 B(  4-C , 74-H ) :   0.9618 B(  4-C , 75-H ) :   0.9691
B(  5-C ,  6-C ) :   1.2706 B(  5-C , 76-H ) :   1.0029 B(  6-C ,  7-C ) :   1.3484
B(  6-C , 12-C ) :   1.0566 B(  7-C ,  8-C ) :   1.3835 B(  7-C ,  9-O ) :   1.0683
B(  8-C , 77-H ) :   0.9953 B(  9-O , 10-C ) :   0.9473 B( 10-C , 11-C ) :   1.1047
B( 10-C , 78-H ) :   0.9610 B( 10-C , 79-H ) :   0.9466 B( 11-C , 80-H ) :   0.9644
B( 11-C , 81-H ) :   0.9613 B( 11-C , 82-H ) :   0.9662 B( 12-C , 13-C ) :   1.7339
B( 12-C , 83-H ) :   0.9652 B( 13-C , 14-C ) :   1.1170 B( 13-C , 84-H ) :   0.9657
B( 14-C , 15-C ) :   1.6900 B( 14-C , 85-H ) :   0.9636 B( 15-C , 16-C ) :   1.1498
B( 15-C , 86-H ) :   0.9458 B( 16-C , 17-O ) :   1.1614 B( 16-C , 20-C ) :   1.4552
B( 17-O , 18-C ) :   1.1244 B( 18-C , 19-C ) :   1.4638 B( 18-C , 25-C ) :   1.1040
B( 19-C , 20-C ) :   1.2537 B( 19-C , 87-H ) :   1.0142 B( 20-C , 21-C ) :   0.9501
B( 21-C , 22-F ) :   1.1355 B( 21-C , 23-F ) :   1.1725 B( 21-C , 24-F ) :   1.1603
B( 25-C , 26-C ) :   1.6815 B( 25-C , 88-H ) :   0.9597 B( 26-C , 27-C ) :   1.1027
B( 26-C , 89-H ) :   0.9727 B( 27-C , 28-C ) :   1.3147 B( 27-C , 35-C ) :   1.2885
B( 28-C , 29-O ) :   1.1527 B( 28-C , 32-C ) :   1.2975 B( 29-O , 30-C ) :   0.9526
B( 30-C , 31-C ) :   1.1080 B( 30-C , 90-H ) :   0.9573 B( 30-C , 91-H ) :   0.9488
B( 31-C , 92-H ) :   0.9635 B( 31-C , 93-H ) :   0.9628 B( 31-C , 94-H ) :   0.9669
B( 32-C , 33-C ) :   1.2772 B( 32-C , 95-H ) :   0.9987 B( 33-C , 34-C ) :   1.3257
B( 33-C , 39-C ) :   1.0477 B( 34-C , 35-C ) :   1.3887 B( 34-C , 36-O ) :   1.0772
B( 35-C , 96-H ) :   1.0029 B( 36-O , 37-C ) :   0.9435 B( 37-C , 38-C ) :   1.1051
B( 37-C , 97-H ) :   0.9610 B( 37-C , 98-H ) :   0.9475 B( 38-C , 99-H ) :   0.9645
B( 38-C ,100-H ) :   0.9611 B( 38-C ,101-H ) :   0.9658 B( 39-C , 40-C ) :   1.6688
B( 39-C ,102-H ) :   0.9757 B( 40-C , 41-C ) :   1.1191 B( 40-C ,103-H ) :   0.9852
B( 41-C , 42-C ) :   1.6393 B( 41-C ,104-H ) :   0.9766 B( 42-C , 43-C ) :   1.1278
B( 42-C ,105-H ) :   0.9606 B( 43-C , 44-O ) :   1.1571 B( 43-C , 45-C ) :   0.1005
B( 43-C , 47-C ) :   1.4554 B( 44-O , 45-C ) :   1.1281 B( 45-C , 46-C ) :   1.4612
B( 45-C , 52-C ) :   1.1024 B( 46-C , 47-C ) :   1.2567 B( 46-C ,106-H ) :   1.0137
B( 47-C , 48-C ) :   0.9492 B( 48-C , 49-F ) :   1.1530 B( 48-C , 50-F ) :   1.1352
B( 48-C , 51-F ) :   1.1767 B( 52-C , 53-C ) :   1.6808 B( 52-C ,107-H ) :   0.9579
B( 53-C , 54-C ) :   1.0843 B( 53-C ,108-H ) :   0.9734 B( 54-C , 55-C ) :   1.3379
B( 54-C , 62-C ) :   1.2637 B( 55-C , 56-O ) :   1.0890 B( 55-C , 59-C ) :   1.3786
B( 56-O , 57-C ) :   0.9478 B( 57-C , 58-C ) :   1.1097 B( 57-C ,109-H ) :   0.9444
B( 57-C ,110-H ) :   0.9601 B( 58-C ,111-H ) :   0.9655 B( 58-C ,112-H ) :   0.9603
B( 58-C ,113-H ) :   0.9649 B( 59-C , 60-C ) :   1.3054 B( 59-C ,114-H ) :   1.0035
B( 60-C , 61-C ) :   1.3138 B( 60-C , 66-C ) :   1.0851 B( 61-C , 62-C ) :   1.3182
B( 61-C , 63-O ) :   1.1549 B( 62-C ,115-H ) :   0.9943 B( 63-O , 64-C ) :   0.9481
B( 64-C , 65-C ) :   1.0939 B( 64-C ,116-H ) :   0.9499 B( 64-C ,117-H ) :   0.9502
B( 65-C ,118-H ) :   0.9691 B( 65-C ,119-H ) :   0.9614 B( 65-C ,120-H ) :   0.9688
B( 66-C , 67-C ) :   1.7096 B( 66-C , 69-C ) :   0.1012 B( 66-C ,121-H ) :   0.9773
B( 67-C , 68-C ) :   1.1118 B( 67-C ,122-H ) :   0.9652 B( 68-C , 69-C ) :   1.9012
B( 68-C ,123-H ) :   0.9763 B( 69-C ,124-H ) :   0.9569 B( 69-C ,125-H ) :   0.9524

-----------------------------------------------------------------------------
         ABSORPTION SPECTRUM VIA TRANSITION ELECTRIC DIPOLE MOMENTS
-----------------------------------------------------------------------------
State   Energy  Wavelength   fosc         T2         TX        TY        TZ
        (cm-1)    (nm)                  (au**2)     (au)      (au)      (au)
-----------------------------------------------------------------------------
   0   21927.0    456.1   3.405060466  51.12361  -6.38591  -3.03443  -1.06581
   1   25665.6    389.6   0.713565192   9.15289   0.49202   1.35201  -2.66137
   2   28507.5    350.8   0.138654659   1.60122  -0.60252  -0.66631  -0.89119
   3   29473.1    339.3   0.232096751   2.59250   0.75390   1.33915   0.48043
   4   30862.0    324.0   0.009532277   0.10168  -0.13509   0.28498  -0.04711
   5   32107.8    311.5   0.009079426   0.09309   0.03199  -0.00926   0.30329
   6   32491.9    307.8   0.020196680   0.20464   0.07903   0.20339  -0.39626
   7   33941.3    294.6   0.094880849   0.92029  -0.62074  -0.20165   0.70307
   8   34668.3    288.4   0.131786774   1.25146  -0.78467  -0.77898  -0.17012
   9   35545.1    281.3   0.092866168   0.86011   0.87090  -0.09762   0.30350
  10   36624.5    273.0   0.208168304   1.87119  -0.83732  -0.28240   1.04419
  11   37996.9    263.2   0.031403507   0.27209  -0.39224   0.12029   0.32212
  12   38357.1    260.7   0.027583736   0.23675   0.42709  -0.23311   0.00231
  13   38777.9    257.9   0.150113999   1.27442   0.46462   0.95810   0.37495
  14   39565.6    252.7   0.029785034   0.24783   0.31488   0.33467   0.19152

FINAL SINGLE POINT ENERGY     -3364.342258112479

DIPOLE MOMENT
-------------
                                X             Y             Z
Electronic contribution:     35.26256      27.26963     -61.77449
Nuclear contribution   :    -36.41941     -27.53657      62.39549
                        -----------------------------------------
Total Dipole Moment    :     -1.15685      -0.26695       0.62100
                        -----------------------------------------
Magnitude (a.u.)       :      1.33985
Magnitude (Debye)      :      3.40563

Rotational constants in cm-1:     0.001308     0.000167     0.000157
Rotational constants in MHz :    39.209803     5.006134     4.696877

                             ****ORCA TERMINATED NORMALLY****
TOTAL RUN TIME: 0 days 0 hours 8 minutes 54 seconds 655 msec
