                         Program Version 4.2.0 -  RELEASE  -
|  1> # ORCA input file
|  2> # SCF done       -170.864815195670          0.000905236367
|  3> ! CAM-B3LYP def2-SVP def2/J RIJCOSX Grid4 TightSCF
|  4> %maxcore 5000
|  5> %tddft
|  6>     Mode sTDDFT
|  7>     Ethresh 5.0
|  8>     maxcore 5000
|  9> end
| 10>
| 11> %pal
| 12>   nprocs 6
| 13>   end
| 14> * xyz 0 1
| 15>    C       10.73130        -4.92157         9.94831
| 16>    C       11.43697        -5.64394         9.06947
| 17>    C       12.59699        -6.45185         9.32705
| 18>    C       13.10416        -7.06736         8.23901
| 19>    C       12.39603        -6.80483         7.02921
| 20>    S       11.04198        -5.73046         7.34512
| 21>    C       12.67513        -7.28393         5.77850
| 22>    C       13.73918        -8.15330         5.39814
| 23>    C       13.76647        -8.45894         4.08340
| 24>    C       12.71817        -7.85494         3.31510
| 25>    S       11.70168        -6.86505         4.37656
| 26>    C       12.46061        -8.00814         2.00245
| 27>    C       11.37484        -7.29245         1.31467
| 28>    C       10.18725        -7.87478         0.85951
| 29>    N        9.71561        -9.16719         0.97315
| 30>    C       10.40116       -10.21164         1.68816
| 31>    C       10.02479       -10.22984         3.17029
| 32>    C        8.46810        -9.24249         0.38952
| 33>    C        8.14823        -7.97401        -0.15384
| 34>    C        9.23111        -7.09422         0.17143
| 35>    C        9.43427        -5.74037        -0.05681
| 36>    C       10.59106        -5.16320         0.42213
| 37>    C       11.53513        -5.92840         1.09640
| 38>    C        6.97853        -7.75764        -0.86740
| 39>    C        6.11802        -8.82213        -1.04698
| 40>    C        6.41765       -10.06497        -0.51503
| 41>    C        7.57845       -10.32517         0.22236
| 42>    C        7.77525       -11.63431         0.79820
| 43>    C        7.37382       -12.83494         0.30384
| 44>    C        7.61386       -14.09189         0.93909
| 45>    C        7.20620       -15.17322         0.23289
| 46>    C        6.59381       -14.85727        -1.00746
| 47>    S        6.57213       -13.11801        -1.24337
| 48>    C        6.05347       -15.72390        -1.92456
| 49>    C        6.02546       -17.14148        -1.87093
| 50>    C        5.42120       -17.72358        -2.93390
| 51>    C        4.90772       -16.80960        -3.90480
| 52>    S        5.27828       -15.16027        -3.39599
| 53>    C        4.17817       -17.16718        -4.99333
| 54>    C        3.62418       -16.29406        -6.00360
| 55>    C        2.40200       -16.51574        -6.67064
| 56>    N        1.42860       -17.48217        -6.50008
| 57>    C        1.43873       -18.51050        -5.49349
| 58>    C        2.09206       -19.80447        -5.98475
| 59>    C        0.38343       -17.23103        -7.36668
| 60>    C        0.68075       -16.06305        -8.10663
| 61>    C        1.96716       -15.61109        -7.66721
| 62>    C        2.71727       -14.50130        -8.02766
| 63>    C        3.91450       -14.28530        -7.37536
| 64>    C        4.34388       -15.15783        -6.38945
| 65>    C       -0.21586       -15.52864        -9.01986
| 66>    C       -1.43176       -16.16122        -9.18595
| 67>    C       -1.73461       -17.30276        -8.46260
| 68>    C       -0.85101       -17.88524        -7.54791
| 69>    C       -1.22768       -19.12546        -6.90463
| 70>    C       -2.46486       -19.48740        -6.48130
| 71>    C       -2.79324       -20.75007        -5.89635
| 72>    C       -4.07460       -20.86463        -5.47887
| 73>    C       -4.86399       -19.70259        -5.69950
| 74>    S       -3.89824       -18.45474        -6.46976
| 75>    C       -6.18719       -19.51994        -5.39593
| 76>    C       -7.07538       -20.45614        -4.79267
| 77>    C       -8.33301       -19.99886        -4.61483
| 78>    C       -8.54701       -18.65289        -5.06768
| 79>    S       -7.03306       -18.01674        -5.73075
| 80>    C       -9.68254       -17.94390        -5.02110
| 81>    H       11.00806        -4.89743        10.98739
| 82>    H        9.87361        -4.34779         9.64949
| 83>    H       12.99672        -6.53165        10.32246
| 84>    H       13.96853        -7.70784         8.25219
| 85>    H       14.44826        -8.51891         6.11982
| 86>    H       14.49446        -9.09835         3.61521
| 87>    H       13.12795        -8.61856         1.40596
| 88>    H       11.47485       -10.03783         1.59820
| 89>    H       10.17578       -11.16891         1.21115
| 90>    H       10.31483        -9.29211         3.63739
| 91>    H       10.53567       -11.04475         3.67750
| 92>    H        8.95137       -10.34845         3.30069
| 93>    H        8.69656        -5.15816        -0.58714
| 94>    H       10.77455        -4.10953         0.27570
| 95>    H       12.43847        -5.45752         1.45620
| 96>    H        6.75773        -6.78177        -1.27119
| 97>    H        5.19799        -8.69162        -1.59627
| 98>    H        5.70032       -10.86124        -0.63533
| 99>    H        8.27359       -11.68659         1.75473
|100>    H        8.09344       -14.14007         1.90172
|101>    H        7.31964       -16.19062         0.56310
|102>    H        6.45359       -17.68301        -1.04606
|103>    H        5.30616       -18.78626        -3.06185
|104>    H        4.02999       -18.23013        -5.11147
|105>    H        0.40419       -18.70301        -5.19417
|106>    H        1.97322       -18.12851        -4.61896
|107>    H        1.55888       -20.20848        -6.84225
|108>    H        2.09059       -20.54653        -5.18995
|109>    H        3.11804       -19.62922        -6.30051
|110>    H        2.36445       -13.82789        -8.79324
|111>    H        4.52813       -13.43481        -7.63106
|112>    H        5.29939       -14.97765        -5.92241
|113>    H        0.03434       -14.63829        -9.57550
|114>    H       -2.15465       -15.77449        -9.88811
|115>    H       -2.67744       -17.79471        -8.64375
|116>    H       -0.46188       -19.87832        -6.78551
|117>    H       -2.05239       -21.52624        -5.80884
|118>    H       -4.48405       -21.74396        -5.01432
|119>    H       -6.74315       -21.44046        -4.51241
|120>    H       -9.13735       -20.56284        -4.17624
|121>    H      -10.57981       -18.37130        -4.60962
|122>    H       -9.73653       -16.93646        -5.39132
|123> *
|124>
|125>                          ****END OF INPUT****

CARTESIAN COORDINATES (ANGSTROEM)
---------------------------------
  C     10.731300   -4.921570    9.948310
  C     11.436970   -5.643940    9.069470
  C     12.596990   -6.451850    9.327050
  C     13.104160   -7.067360    8.239010
  C     12.396030   -6.804830    7.029210
  S     11.041980   -5.730460    7.345120
  C     12.675130   -7.283930    5.778500
  C     13.739180   -8.153300    5.398140
  C     13.766470   -8.458940    4.083400
  C     12.718170   -7.854940    3.315100
  S     11.701680   -6.865050    4.376560
  C     12.460610   -8.008140    2.002450
  C     11.374840   -7.292450    1.314670
  C     10.187250   -7.874780    0.859510
  N      9.715610   -9.167190    0.973150
  C     10.401160  -10.211640    1.688160
  C     10.024790  -10.229840    3.170290
  C      8.468100   -9.242490    0.389520
  C      8.148230   -7.974010   -0.153840
  C      9.231110   -7.094220    0.171430
  C      9.434270   -5.740370   -0.056810
  C     10.591060   -5.163200    0.422130
  C     11.535130   -5.928400    1.096400
  C      6.978530   -7.757640   -0.867400
  C      6.118020   -8.822130   -1.046980
  C      6.417650  -10.064970   -0.515030
  C      7.578450  -10.325170    0.222360
  C      7.775250  -11.634310    0.798200
  C      7.373820  -12.834940    0.303840
  C      7.613860  -14.091890    0.939090
  C      7.206200  -15.173220    0.232890
  C      6.593810  -14.857270   -1.007460
  S      6.572130  -13.118010   -1.243370
  C      6.053470  -15.723900   -1.924560
  C      6.025460  -17.141480   -1.870930
  C      5.421200  -17.723580   -2.933900
  C      4.907720  -16.809600   -3.904800
  S      5.278280  -15.160270   -3.395990
  C      4.178170  -17.167180   -4.993330
  C      3.624180  -16.294060   -6.003600
  C      2.402000  -16.515740   -6.670640
  N      1.428600  -17.482170   -6.500080
  C      1.438730  -18.510500   -5.493490
  C      2.092060  -19.804470   -5.984750
  C      0.383430  -17.231030   -7.366680
  C      0.680750  -16.063050   -8.106630
  C      1.967160  -15.611090   -7.667210
  C      2.717270  -14.501300   -8.027660
  C      3.914500  -14.285300   -7.375360
  C      4.343880  -15.157830   -6.389450
  C     -0.215860  -15.528640   -9.019860
  C     -1.431760  -16.161220   -9.185950
  C     -1.734610  -17.302760   -8.462600
  C     -0.851010  -17.885240   -7.547910
  C     -1.227680  -19.125460   -6.904630
  C     -2.464860  -19.487400   -6.481300
  C     -2.793240  -20.750070   -5.896350
  C     -4.074600  -20.864630   -5.478870
  C     -4.863990  -19.702590   -5.699500
  S     -3.898240  -18.454740   -6.469760
  C     -6.187190  -19.519940   -5.395930
  C     -7.075380  -20.456140   -4.792670
  C     -8.333010  -19.998860   -4.614830
  C     -8.547010  -18.652890   -5.067680
  S     -7.033060  -18.016740   -5.730750
  C     -9.682540  -17.943900   -5.021100
  H     11.008060   -4.897430   10.987390
  H      9.873610   -4.347790    9.649490
  H     12.996720   -6.531650   10.322460
  H     13.968530   -7.707840    8.252190
  H     14.448260   -8.518910    6.119820
  H     14.494460   -9.098350    3.615210
  H     13.127950   -8.618560    1.405960
  H     11.474850  -10.037830    1.598200
  H     10.175780  -11.168910    1.211150
  H     10.314830   -9.292110    3.637390
  H     10.535670  -11.044750    3.677500
  H      8.951370  -10.348450    3.300690
  H      8.696560   -5.158160   -0.587140
  H     10.774550   -4.109530    0.275700
  H     12.438470   -5.457520    1.456200
  H      6.757730   -6.781770   -1.271190
  H      5.197990   -8.691620   -1.596270
  H      5.700320  -10.861240   -0.635330
  H      8.273590  -11.686590    1.754730
  H      8.093440  -14.140070    1.901720
  H      7.319640  -16.190620    0.563100
  H      6.453590  -17.683010   -1.046060
  H      5.306160  -18.786260   -3.061850
  H      4.029990  -18.230130   -5.111470
  H      0.404190  -18.703010   -5.194170
  H      1.973220  -18.128510   -4.618960
  H      1.558880  -20.208480   -6.842250
  H      2.090590  -20.546530   -5.189950
  H      3.118040  -19.629220   -6.300510
  H      2.364450  -13.827890   -8.793240
  H      4.528130  -13.434810   -7.631060
  H      5.299390  -14.977650   -5.922410
  H      0.034340  -14.638290   -9.575500
  H     -2.154650  -15.774490   -9.888110
  H     -2.677440  -17.794710   -8.643750
  H     -0.461880  -19.878320   -6.785510
  H     -2.052390  -21.526240   -5.808840
  H     -4.484050  -21.743960   -5.014320
  H     -6.743150  -21.440460   -4.512410
  H     -9.137350  -20.562840   -4.176240
  H    -10.579810  -18.371300   -4.609620
  H     -9.736530  -16.936460   -5.391320

 Total Charge           Charge          ....    0
 Multiplicity           Mult            ....    1
 Number of Electrons    NEL             ....  500
 Basis Dimension        Dim             .... 1158

ORBITAL ENERGIES
----------------

  NO   OCC          E(Eh)            E(eV)
   0   2.0000     -88.935490     -2420.0577
   1   2.0000     -88.932371     -2419.9728
   2   2.0000     -88.931643     -2419.9530
   3   2.0000     -88.931371     -2419.9456
   4   2.0000     -88.931281     -2419.9432
   5   2.0000     -88.928356     -2419.8636
   6   2.0000     -14.445599      -393.0847
   7   2.0000     -14.441686      -392.9783
   8   2.0000     -10.305009      -280.4136
   9   2.0000     -10.303607      -280.3754
  10   2.0000     -10.302248      -280.3384
  11   2.0000     -10.301823      -280.3269
  12   2.0000     -10.301055      -280.3059
  13   2.0000     -10.299470      -280.2628
  14   2.0000     -10.299411      -280.2612
  15   2.0000     -10.298881      -280.2468
  16   2.0000     -10.297759      -280.2163
  17   2.0000     -10.297664      -280.2137
  18   2.0000     -10.297484      -280.2088
  19   2.0000     -10.297295      -280.2036
  20   2.0000     -10.297236      -280.2020
  21   2.0000     -10.296751      -280.1888
  22   2.0000     -10.296520      -280.1825
  23   2.0000     -10.296306      -280.1767
  24   2.0000     -10.295317      -280.1498
  25   2.0000     -10.294652      -280.1317
  26   2.0000     -10.285809      -279.8911
  27   2.0000     -10.285270      -279.8764
  28   2.0000     -10.281662      -279.7782
  29   2.0000     -10.281359      -279.7700
  30   2.0000     -10.280026      -279.7337
  31   2.0000     -10.279780      -279.7270
  32   2.0000     -10.278033      -279.6795
  33   2.0000     -10.277498      -279.6649
  34   2.0000     -10.277169      -279.6560
  35   2.0000     -10.275988      -279.6239
  36   2.0000     -10.275560      -279.6122
  37   2.0000     -10.275425      -279.6085
  38   2.0000     -10.274422      -279.5812
  39   2.0000     -10.272405      -279.5263
  40   2.0000     -10.271578      -279.5039
  41   2.0000     -10.271250      -279.4949
  42   2.0000     -10.270404      -279.4719
  43   2.0000     -10.270084      -279.4632
  44   2.0000     -10.269574      -279.4493
  45   2.0000     -10.269436      -279.4456
  46   2.0000     -10.266376      -279.3623
  47   2.0000     -10.264189      -279.3028
  48   2.0000     -10.260540      -279.2035
  49   2.0000     -10.258767      -279.1553
  50   2.0000     -10.258009      -279.1346
  51   2.0000     -10.257903      -279.1317
  52   2.0000     -10.256974      -279.1065
  53   2.0000     -10.256643      -279.0974
  54   2.0000     -10.255629      -279.0698
  55   2.0000     -10.254732      -279.0455
  56   2.0000     -10.254119      -279.0288
  57   2.0000     -10.253890      -279.0225
  58   2.0000     -10.253511      -279.0122
  59   2.0000     -10.253381      -279.0087
  60   2.0000     -10.252995      -278.9982
  61   2.0000     -10.252673      -278.9894
  62   2.0000     -10.250075      -278.9187
  63   2.0000     -10.249663      -278.9075
  64   2.0000     -10.249425      -278.9010
  65   2.0000     -10.247979      -278.8617
  66   2.0000      -8.030834      -218.5301
  67   2.0000      -8.028318      -218.4616
  68   2.0000      -8.028317      -218.4616
  69   2.0000      -8.027239      -218.4323
  70   2.0000      -8.027191      -218.4310
  71   2.0000      -8.024981      -218.3708
  72   2.0000      -6.000736      -163.2883
  73   2.0000      -5.998180      -163.2188
  74   2.0000      -5.998164      -163.2183
  75   2.0000      -5.997110      -163.1897
  76   2.0000      -5.997060      -163.1883
  77   2.0000      -5.996757      -163.1801
  78   2.0000      -5.994848      -163.1281
  79   2.0000      -5.994284      -163.1128
  80   2.0000      -5.994163      -163.1095
  81   2.0000      -5.992988      -163.0775
  82   2.0000      -5.992968      -163.0770
  83   2.0000      -5.991457      -163.0358
  84   2.0000      -5.990933      -163.0216
  85   2.0000      -5.988964      -162.9680
  86   2.0000      -5.988744      -162.9620
  87   2.0000      -5.987942      -162.9402
  88   2.0000      -5.987920      -162.9396
  89   2.0000      -5.985447      -162.8723
  90   2.0000      -1.072834       -29.1933
  91   2.0000      -1.070731       -29.1361
  92   2.0000      -0.985400       -26.8141
  93   2.0000      -0.982103       -26.7244
  94   2.0000      -0.981847       -26.7174
  95   2.0000      -0.963059       -26.2062
  96   2.0000      -0.960994       -26.1500
  97   2.0000      -0.959740       -26.1159
  98   2.0000      -0.936328       -25.4788
  99   2.0000      -0.935057       -25.4442
 100   2.0000      -0.934850       -25.4386
 101   2.0000      -0.932821       -25.3834
 102   2.0000      -0.897501       -24.4222
 103   2.0000      -0.893591       -24.3158
 104   2.0000      -0.880237       -23.9525
 105   2.0000      -0.874597       -23.7990
 106   2.0000      -0.867734       -23.6122
 107   2.0000      -0.858878       -23.3713
 108   2.0000      -0.853833       -23.2340
 109   2.0000      -0.853713       -23.2307
 110   2.0000      -0.842588       -22.9280
 111   2.0000      -0.839447       -22.8425
 112   2.0000      -0.835842       -22.7444
 113   2.0000      -0.828609       -22.5476
 114   2.0000      -0.826124       -22.4800
 115   2.0000      -0.824794       -22.4438
 116   2.0000      -0.819975       -22.3126
 117   2.0000      -0.811814       -22.0906
 118   2.0000      -0.810840       -22.0641
 119   2.0000      -0.808156       -21.9910
 120   2.0000      -0.799895       -21.7662
 121   2.0000      -0.794061       -21.6075
 122   2.0000      -0.793038       -21.5797
 123   2.0000      -0.788057       -21.4441
 124   2.0000      -0.767284       -20.8789
 125   2.0000      -0.765840       -20.8396
 126   2.0000      -0.762975       -20.7616
 127   2.0000      -0.738944       -20.1077
 128   2.0000      -0.731865       -19.9151
 129   2.0000      -0.714975       -19.4555
 130   2.0000      -0.709269       -19.3002
 131   2.0000      -0.705330       -19.1930
 132   2.0000      -0.696326       -18.9480
 133   2.0000      -0.692563       -18.8456
 134   2.0000      -0.687715       -18.7137
 135   2.0000      -0.684979       -18.6392
 136   2.0000      -0.675754       -18.3882
 137   2.0000      -0.673947       -18.3390
 138   2.0000      -0.672789       -18.3075
 139   2.0000      -0.650437       -17.6993
 140   2.0000      -0.648917       -17.6579
 141   2.0000      -0.646504       -17.5923
 142   2.0000      -0.642652       -17.4874
 143   2.0000      -0.631163       -17.1748
 144   2.0000      -0.624928       -17.0052
 145   2.0000      -0.617952       -16.8153
 146   2.0000      -0.614086       -16.7101
 147   2.0000      -0.611970       -16.6525
 148   2.0000      -0.611066       -16.6279
 149   2.0000      -0.602727       -16.4010
 150   2.0000      -0.599920       -16.3246
 151   2.0000      -0.594582       -16.1794
 152   2.0000      -0.593500       -16.1499
 153   2.0000      -0.591048       -16.0832
 154   2.0000      -0.590280       -16.0623
 155   2.0000      -0.588845       -16.0233
 156   2.0000      -0.587014       -15.9735
 157   2.0000      -0.583619       -15.8811
 158   2.0000      -0.578895       -15.7525
 159   2.0000      -0.564997       -15.3744
 160   2.0000      -0.560001       -15.2384
 161   2.0000      -0.546164       -14.8619
 162   2.0000      -0.544963       -14.8292
 163   2.0000      -0.542867       -14.7722
 164   2.0000      -0.542320       -14.7573
 165   2.0000      -0.541050       -14.7227
 166   2.0000      -0.539867       -14.6905
 167   2.0000      -0.534773       -14.5519
 168   2.0000      -0.530890       -14.4462
 169   2.0000      -0.524471       -14.2716
 170   2.0000      -0.521690       -14.1959
 171   2.0000      -0.517897       -14.0927
 172   2.0000      -0.513029       -13.9602
 173   2.0000      -0.510275       -13.8853
 174   2.0000      -0.506764       -13.7898
 175   2.0000      -0.504263       -13.7217
 176   2.0000      -0.501584       -13.6488
 177   2.0000      -0.501342       -13.6422
 178   2.0000      -0.498678       -13.5697
 179   2.0000      -0.497148       -13.5281
 180   2.0000      -0.496605       -13.5133
 181   2.0000      -0.491964       -13.3870
 182   2.0000      -0.490319       -13.3423
 183   2.0000      -0.487655       -13.2698
 184   2.0000      -0.486520       -13.2389
 185   2.0000      -0.485315       -13.2061
 186   2.0000      -0.484597       -13.1866
 187   2.0000      -0.483093       -13.1456
 188   2.0000      -0.481580       -13.1044
 189   2.0000      -0.477669       -12.9980
 190   2.0000      -0.477272       -12.9872
 191   2.0000      -0.476186       -12.9577
 192   2.0000      -0.473085       -12.8733
 193   2.0000      -0.472337       -12.8529
 194   2.0000      -0.469454       -12.7745
 195   2.0000      -0.464231       -12.6324
 196   2.0000      -0.457755       -12.4562
 197   2.0000      -0.455220       -12.3872
 198   2.0000      -0.453490       -12.3401
 199   2.0000      -0.450837       -12.2679
 200   2.0000      -0.449395       -12.2287
 201   2.0000      -0.448466       -12.2034
 202   2.0000      -0.447462       -12.1761
 203   2.0000      -0.443898       -12.0791
 204   2.0000      -0.438107       -11.9215
 205   2.0000      -0.435319       -11.8456
 206   2.0000      -0.431919       -11.7531
 207   2.0000      -0.430508       -11.7147
 208   2.0000      -0.430097       -11.7035
 209   2.0000      -0.426581       -11.6079
 210   2.0000      -0.424662       -11.5556
 211   2.0000      -0.422902       -11.5078
 212   2.0000      -0.420608       -11.4453
 213   2.0000      -0.418246       -11.3811
 214   2.0000      -0.416757       -11.3405
 215   2.0000      -0.415038       -11.2938
 216   2.0000      -0.413251       -11.2451
 217   2.0000      -0.411573       -11.1995
 218   2.0000      -0.407120       -11.0783
 219   2.0000      -0.402694       -10.9579
 220   2.0000      -0.399806       -10.8793
 221   2.0000      -0.398068       -10.8320
 222   2.0000      -0.391869       -10.6633
 223   2.0000      -0.389310       -10.5937
 224   2.0000      -0.385080       -10.4786
 225   2.0000      -0.384383       -10.4596
 226   2.0000      -0.381619       -10.3844
 227   2.0000      -0.380315       -10.3489
 228   2.0000      -0.378343       -10.2952
 229   2.0000      -0.376935       -10.2569
 230   2.0000      -0.353179        -9.6105
 231   2.0000      -0.341996        -9.3062
 232   2.0000      -0.332910        -9.0589
 233   2.0000      -0.332106        -9.0371
 234   2.0000      -0.328789        -8.9468
 235   2.0000      -0.328403        -8.9363
 236   2.0000      -0.325875        -8.8675
 237   2.0000      -0.320985        -8.7345
 238   2.0000      -0.313685        -8.5358
 239   2.0000      -0.313064        -8.5189
 240   2.0000      -0.304554        -8.2873
 241   2.0000      -0.300796        -8.1851
 242   2.0000      -0.291017        -7.9190
 243   2.0000      -0.267538        -7.2801
 244   2.0000      -0.265116        -7.2142
 245   2.0000      -0.260367        -7.0849
 246   2.0000      -0.248699        -6.7674
 247   2.0000      -0.222888        -6.0651
 248   2.0000      -0.213114        -5.7991
 249   2.0000      -0.203322        -5.5327
 250   0.0000      -0.054809        -1.4914
 251   0.0000      -0.050333        -1.3696
 252   0.0000      -0.049378        -1.3437
 253   0.0000      -0.000900        -0.0245
 254   0.0000       0.009318         0.2536

MULLIKEN ATOMIC CHARGES
-----------------------
   0 C :   -0.034783
   1 C :   -0.060902
   2 C :    0.050800
   3 C :    0.028511
   4 C :   -0.070612
   5 S :    0.077602
   6 C :   -0.054895
   7 C :    0.026606
   8 C :    0.051002
   9 C :   -0.017745
  10 S :    0.087894
  11 C :   -0.109532
  12 C :   -0.055550
  13 C :    0.130497
  14 N :   -0.191092
  15 C :    0.109820
  16 C :    0.017677
  17 C :    0.104153
  18 C :    0.053622
  19 C :    0.060771
  20 C :   -0.047028
  21 C :    0.030958
  22 C :   -0.015901
  23 C :   -0.048269
  24 C :    0.032600
  25 C :   -0.059836
  26 C :    0.054710
  27 C :   -0.070715
  28 C :   -0.033092
  29 C :    0.032605
  30 C :    0.028948
  31 C :   -0.058563
  32 S :    0.080389
  33 C :   -0.060715
  34 C :    0.033561
  35 C :    0.025865
  36 C :   -0.030877
  37 S :    0.081600
  38 C :   -0.076156
  39 C :    0.049124
  40 C :    0.102212
  41 N :   -0.191605
  42 C :    0.078505
  43 C :    0.014482
  44 C :    0.105235
  45 C :    0.058411
  46 C :    0.061241
  47 C :   -0.051112
  48 C :    0.033012
  49 C :   -0.055166
  50 C :   -0.046897
  51 C :    0.029885
  52 C :   -0.047824
  53 C :    0.038942
  54 C :   -0.073626
  55 C :   -0.034170
  56 C :    0.028847
  57 C :    0.035071
  58 C :   -0.058648
  59 S :    0.084268
  60 C :   -0.071877
  61 C :    0.030078
  62 C :    0.050255
  63 C :   -0.064987
  64 S :    0.074831
  65 C :   -0.031380
  66 H :    0.018210
  67 H :    0.021751
  68 H :   -0.013716
  69 H :   -0.013273
  70 H :   -0.016146
  71 H :   -0.015613
  72 H :    0.020614
  73 H :    0.008018
  74 H :    0.024131
  75 H :    0.026486
  76 H :    0.012623
  77 H :    0.026681
  78 H :   -0.035150
  79 H :   -0.024600
  80 H :   -0.026101
  81 H :   -0.036325
  82 H :   -0.024851
  83 H :   -0.012788
  84 H :   -0.024960
  85 H :   -0.018493
  86 H :   -0.019632
  87 H :   -0.019053
  88 H :   -0.017825
  89 H :   -0.031758
  90 H :    0.035660
  91 H :    0.034029
  92 H :    0.026203
  93 H :    0.021712
  94 H :    0.028097
  95 H :   -0.034695
  96 H :   -0.024369
  97 H :   -0.013335
  98 H :   -0.035109
  99 H :   -0.024271
 100 H :   -0.016078
 101 H :   -0.026426
 102 H :   -0.016889
 103 H :   -0.018905
 104 H :   -0.015390
 105 H :   -0.014959
 106 H :    0.015957
 107 H :    0.019499
Sum of atomic charges:   -0.0000000

LOEWDIN ATOMIC CHARGES
----------------------
   0 C :   -0.079988
   1 C :   -0.139152
   2 C :   -0.032371
   3 C :   -0.027457
   4 C :   -0.178585
   5 S :    0.346893
   6 C :   -0.183674
   7 C :   -0.027466
   8 C :   -0.036413
   9 C :   -0.138575
  10 S :    0.365065
  11 C :   -0.058526
  12 C :   -0.071011
  13 C :    0.034312
  14 N :    0.023198
  15 C :    0.035819
  16 C :   -0.064919
  17 C :    0.037970
  18 C :   -0.042755
  19 C :   -0.040632
  20 C :   -0.011502
  21 C :   -0.045669
  22 C :   -0.016393
  23 C :   -0.010544
  24 C :   -0.044085
  25 C :   -0.021991
  26 C :   -0.060417
  27 C :   -0.055833
  28 C :   -0.146329
  29 C :   -0.032851
  30 C :   -0.038251
  31 C :   -0.181288
  32 S :    0.371393
  33 C :   -0.184032
  34 C :   -0.035392
  35 C :   -0.036629
  36 C :   -0.144187
  37 S :    0.370427
  38 C :   -0.062076
  39 C :   -0.059394
  40 C :    0.035375
  41 N :    0.023104
  42 C :    0.035338
  43 C :   -0.065047
  44 C :    0.035396
  45 C :   -0.041547
  46 C :   -0.041356
  47 C :   -0.011479
  48 C :   -0.042292
  49 C :   -0.022654
  50 C :   -0.010116
  51 C :   -0.043544
  52 C :   -0.020696
  53 C :   -0.061505
  54 C :   -0.059435
  55 C :   -0.145075
  56 C :   -0.034352
  57 C :   -0.034958
  58 C :   -0.181409
  59 S :    0.369270
  60 C :   -0.181565
  61 C :   -0.026803
  62 C :   -0.035160
  63 C :   -0.138801
  64 S :    0.345050
  65 C :   -0.083277
  66 H :    0.027790
  67 H :    0.026193
  68 H :    0.032521
  69 H :    0.031234
  70 H :    0.030728
  71 H :    0.032077
  72 H :    0.031337
  73 H :    0.027649
  74 H :    0.026489
  75 H :    0.023928
  76 H :    0.027081
  77 H :    0.023989
  78 H :    0.026570
  79 H :    0.025586
  80 H :    0.027754
  81 H :    0.026187
  82 H :    0.026428
  83 H :    0.016889
  84 H :    0.030095
  85 H :    0.030297
  86 H :    0.029520
  87 H :    0.029764
  88 H :    0.029918
  89 H :    0.027963
  90 H :    0.032762
  91 H :    0.031851
  92 H :    0.025088
  93 H :    0.029735
  94 H :    0.025811
  95 H :    0.026512
  96 H :    0.026553
  97 H :    0.018294
  98 H :    0.026573
  99 H :    0.026443
 100 H :    0.019107
 101 H :    0.028622
 102 H :    0.030549
 103 H :    0.029798
 104 H :    0.030839
 105 H :    0.031959
 106 H :    0.026978
 107 H :    0.025392

  Mayer bond orders larger than 0.100000
B(  0-C ,  1-C ) :   1.8693 B(  0-C , 66-H ) :   0.9510 B(  0-C , 67-H ) :   0.9420
B(  1-C ,  2-C ) :   1.0760 B(  1-C ,  5-S ) :   1.0073 B(  2-C ,  3-C ) :   1.6732
B(  2-C , 68-H ) :   0.9927 B(  3-C ,  4-C ) :   1.1413 B(  3-C , 69-H ) :   0.9911
B(  4-C ,  5-S ) :   1.0373 B(  4-C ,  6-C ) :   1.5956 B(  6-C ,  7-C ) :   1.1454
B(  6-C , 10-S ) :   1.0225 B(  7-C ,  8-C ) :   1.6563 B(  7-C , 70-H ) :   0.9915
B(  8-C ,  9-C ) :   1.0807 B(  8-C , 71-H ) :   0.9980 B(  9-C , 10-S ) :   1.0246
B(  9-C , 11-C ) :   1.7749 B( 11-C , 12-C ) :   0.9504 B( 11-C , 72-H ) :   0.9521
B( 12-C , 13-C ) :   1.3287 B( 12-C , 22-C ) :   1.4213 B( 13-C , 14-N ) :   1.1358
B( 13-C , 19-C ) :   1.2899 B( 14-N , 15-C ) :   0.9601 B( 14-N , 17-C ) :   1.1366
B( 15-C , 16-C ) :   1.1132 B( 15-C , 73-H ) :   0.9229 B( 15-C , 74-H ) :   0.9368
B( 16-C , 75-H ) :   0.9506 B( 16-C , 76-H ) :   0.9651 B( 16-C , 77-H ) :   0.9578
B( 17-C , 18-C ) :   1.2871 B( 17-C , 26-C ) :   1.2890 B( 18-C , 19-C ) :   1.0760
B( 18-C , 23-C ) :   1.3407 B( 19-C , 20-C ) :   1.3378 B( 20-C , 21-C ) :   1.3890
B( 20-C , 78-H ) :   0.9982 B( 21-C , 22-C ) :   1.3308 B( 21-C , 79-H ) :   0.9870
B( 22-C , 80-H ) :   0.9942 B( 23-C , 24-C ) :   1.3774 B( 23-C , 81-H ) :   0.9990
B( 24-C , 25-C ) :   1.3649 B( 24-C , 82-H ) :   0.9842 B( 25-C , 26-C ) :   1.3764
B( 25-C , 83-H ) :   0.9741 B( 26-C , 27-C ) :   1.0152 B( 27-C , 28-C ) :   1.6867
B( 27-C , 84-H ) :   0.9547 B( 28-C , 29-C ) :   1.1099 B( 28-C , 32-S ) :   1.0164
B( 29-C , 30-C ) :   1.6298 B( 29-C , 85-H ) :   0.9949 B( 30-C , 31-C ) :   1.1568
B( 30-C , 86-H ) :   0.9930 B( 31-C , 32-S ) :   1.0320 B( 31-C , 33-C ) :   1.5620
B( 33-C , 34-C ) :   1.1576 B( 33-C , 37-S ) :   1.0286 B( 34-C , 35-C ) :   1.6315
B( 34-C , 87-H ) :   0.9922 B( 35-C , 36-C ) :   1.1059 B( 35-C , 88-H ) :   0.9958
B( 36-C , 37-S ) :   1.0203 B( 36-C , 38-C ) :   1.6939 B( 38-C , 39-C ) :   1.0025
B( 38-C , 89-H ) :   0.9531 B( 39-C , 40-C ) :   1.2970 B( 39-C , 49-C ) :   1.3820
B( 40-C , 41-N ) :   1.1335 B( 40-C , 46-C ) :   1.2918 B( 41-N , 42-C ) :   0.9597
B( 41-N , 44-C ) :   1.1349 B( 42-C , 43-C ) :   1.1084 B( 42-C , 90-H ) :   0.9347
B( 42-C , 91-H ) :   0.9358 B( 43-C , 92-H ) :   0.9514 B( 43-C , 93-H ) :   0.9680
B( 43-C , 94-H ) :   0.9522 B( 44-C , 45-C ) :   1.2899 B( 44-C , 53-C ) :   1.2966
B( 45-C , 46-C ) :   1.0784 B( 45-C , 50-C ) :   1.3392 B( 46-C , 47-C ) :   1.3380
B( 47-C , 48-C ) :   1.3763 B( 47-C , 95-H ) :   1.0006 B( 48-C , 49-C ) :   1.3627
B( 48-C , 96-H ) :   0.9852 B( 49-C , 97-H ) :   0.9760 B( 50-C , 51-C ) :   1.3762
B( 50-C , 98-H ) :   1.0004 B( 51-C , 52-C ) :   1.3597 B( 51-C , 99-H ) :   0.9856
B( 52-C , 53-C ) :   1.3885 B( 52-C ,100-H ) :   0.9785 B( 53-C , 54-C ) :   0.9962
B( 54-C , 55-C ) :   1.7009 B( 54-C ,101-H ) :   0.9537 B( 55-C , 56-C ) :   1.1024
B( 55-C , 59-S ) :   1.0186 B( 56-C , 57-C ) :   1.6415 B( 56-C ,102-H ) :   0.9952
B( 57-C , 58-C ) :   1.1493 B( 57-C ,103-H ) :   0.9916 B( 58-C , 59-S ) :   1.0300
B( 58-C , 60-C ) :   1.5841 B( 60-C , 61-C ) :   1.1462 B( 60-C , 64-S ) :   1.0363
B( 61-C , 62-C ) :   1.6696 B( 61-C ,104-H ) :   0.9907 B( 62-C , 63-C ) :   1.0780
B( 62-C ,105-H ) :   0.9919 B( 63-C , 64-S ) :   1.0085 B( 63-C , 65-C ) :   1.8684
B( 65-C ,106-H ) :   0.9502 B( 65-C ,107-H ) :   0.9408

-----------------------------------------------------------------------------
         ABSORPTION SPECTRUM VIA TRANSITION ELECTRIC DIPOLE MOMENTS
-----------------------------------------------------------------------------
State   Energy  Wavelength   fosc         T2         TX        TY        TZ
        (cm-1)    (nm)                  (au**2)     (au)      (au)      (au)
-----------------------------------------------------------------------------
   0   18027.7    554.7   1.823503685  33.29975  -3.28531  -3.44150  -3.26536
   1   21168.0    472.4   1.124852533  17.49407  -3.81681   0.02807   1.71033
   2   23354.6    428.2   0.376485570   5.30703  -0.33966   0.77700   2.14195
   3   23867.5    419.0   0.086192693   1.18888   0.96558  -0.41817  -0.28576
   4   24216.9    412.9   0.414281332   5.63187   0.42112  -1.33157  -1.91871
   5   24343.6    410.8   0.326461888   4.41492  -0.28010   0.04017   2.08203
   6   26870.1    372.2   0.042591028   0.52182  -0.01544  -0.31388   0.65043
   7   27552.2    362.9   0.025844370   0.30881   0.05195  -0.19513   0.51772
   8   28568.8    350.0   0.280734533   3.23504   0.34596  -1.19913   1.29516
   9   29769.2    335.9   0.045802288   0.50652  -0.48669   0.51925   0.00526
  10   30366.4    329.3   0.018430531   0.19981  -0.14221   0.42285  -0.02807
  11   30532.6    327.5   0.092614273   0.99860   0.48860  -0.86505   0.10753
  12   31021.2    322.4   0.042830110   0.45453  -0.32620   0.42154  -0.41284
  13   31095.5    321.6   0.006037917   0.06392  -0.02334   0.03592  -0.24918
  14   31386.3    318.6   0.010072632   0.10565   0.15176  -0.01990   0.28675
  15   31843.1    314.0   0.090943392   0.94022  -0.04762   0.91331  -0.32222
  16   32280.8    309.8   0.011483331   0.11711   0.10423  -0.09308  -0.31238
  17   33098.8    302.1   0.000941228   0.00936  -0.09184   0.02239  -0.02064
  18   33158.7    301.6   0.187190840   1.85850   0.75291  -1.06259   0.40316
  19   33507.8    298.4   0.149590496   1.46971  -0.96660  -0.47896  -0.55317
  20   34523.0    289.7   0.008542227   0.08146   0.00935  -0.28523  -0.00385
  21   34958.4    286.1   0.011597612   0.10922  -0.02990   0.02729  -0.32799
  22   35085.2    285.0   0.019132045   0.17952   0.26403   0.33129   0.00728
  23   35270.7    283.5   0.054970271   0.51308  -0.59075   0.13080  -0.38340
  24   36274.9    275.7   0.009343670   0.08480   0.02959  -0.24542  -0.15391
  25   36777.0    271.9   0.070252747   0.62887  -0.00926   0.75774  -0.23370
  26   36816.4    271.6   0.007505896   0.06712  -0.25212  -0.03179   0.05043
  27   37479.4    266.8   0.012900943   0.11332   0.31483   0.09946   0.06566
  28   37629.4    265.7   0.012371031   0.10823  -0.31848  -0.03075  -0.07652
  29   37755.5    264.9   0.092118710   0.80324  -0.82484   0.17692  -0.30260
  30   38216.1    261.7   0.067212789   0.57900   0.17585  -0.66524   0.32487
  31   38303.6    261.1   0.040911944   0.35163   0.55301  -0.02621   0.21242
  32   38604.0    259.0   0.017265392   0.14724  -0.17304   0.24277  -0.24158
  33   38940.7    256.8   0.168317699   1.42299  -0.03600  -1.02275   0.61293
  34   39362.8    254.0   0.056359007   0.47136   0.54490   0.32250   0.26539
  35   39780.8    251.4   0.098538071   0.81547   0.42273   0.71478   0.35476
  36   40124.6    249.2   0.092282674   0.75716  -0.55439  -0.65242  -0.15541
  37   40194.7    248.8   0.030611885   0.25072  -0.45934   0.19932  -0.00163

FINAL SINGLE POINT ENERGY     -4730.265975470763

DIPOLE MOMENT
-------------
                                X             Y             Z
Electronic contribution:     -6.13961      12.28418      -5.87033
Nuclear contribution   :      7.47952     -14.45837       7.72000
                        -----------------------------------------
Total Dipole Moment    :      1.33991      -2.17419       1.84966
                        -----------------------------------------
Magnitude (a.u.)       :      3.15337
Magnitude (Debye)      :      8.01522

Rotational constants in cm-1:     0.001858     0.000204     0.000198
Rotational constants in MHz :    55.700571     6.114949     5.922485

                             ****ORCA TERMINATED NORMALLY****
TOTAL RUN TIME: 0 days 0 hours 8 minutes 3 seconds 622 msec
