                         Program Version 4.2.0 -  RELEASE  -
|  1> # ORCA input file
|  2> # SCF done       -155.098513393309          0.000540637540
|  3> ! CAM-B3LYP def2-SVP def2/J RIJCOSX Grid4 TightSCF
|  4> %maxcore 5000
|  5> %tddft
|  6>     Mode sTDDFT
|  7>     Ethresh 5.0
|  8>     maxcore 5000
|  9> end
| 10>
| 11> %pal
| 12>   nprocs 6
| 13>   end
| 14> * xyz 0 1
| 15>    C      -13.82275       -13.02234        -8.97263
| 16>    C      -13.03862       -13.07082        -7.88774
| 17>    C      -13.28733       -13.77444        -6.66022
| 18>    C      -12.31032       -13.64620        -5.73868
| 19>    C      -11.21056       -12.83659        -6.15253
| 20>    S      -11.47919       -12.23691        -7.77532
| 21>    C      -10.07638       -12.54199        -5.43982
| 22>    C       -9.75326       -12.99551        -4.13174
| 23>    C       -8.54709       -12.56446        -3.69361
| 24>    C       -7.84720       -11.74684        -4.62926
| 25>    S       -8.78624       -11.52244        -6.08591
| 26>    C       -6.60700       -11.20819        -4.48033
| 27>    C       -6.01631       -10.42918        -5.52234
| 28>    N       -6.77479       -10.20069        -6.60512
| 29>    C       -6.25043        -9.48170        -7.57678
| 30>    C       -4.95298        -8.99606        -7.51341
| 31>    C       -4.21816        -9.30463        -6.35828
| 32>    N       -4.76519       -10.00337        -5.36797
| 33>    C       -2.82605        -8.91247        -6.20873
| 34>    C       -2.14826        -9.13271        -5.07539
| 35>    C       -0.73784        -8.85411        -4.88396
| 36>    N       -0.26136        -9.10310        -3.65894
| 37>    C        1.03074        -8.91903        -3.46315
| 38>    C        1.88107        -8.50785        -4.47428
| 39>    C        1.29590        -8.25452        -5.72557
| 40>    N       -0.01608        -8.41981        -5.90986
| 41>    C        2.10138        -7.83485        -6.84372
| 42>    C        1.58761        -7.44884        -8.03760
| 43>    C        2.38839        -7.07438        -9.13429
| 44>    C        1.91412        -6.59279       -10.32594
| 45>    C        2.68837        -6.23077       -11.45826
| 46>    C        1.96016        -5.74280       -12.49832
| 47>    C        0.57016        -5.68092       -12.24216
| 48>    S        0.21262        -6.29594       -10.64917
| 49>    C       -0.41178        -5.17492       -13.07727
| 50>    C       -0.24554        -4.63885       -14.37182
| 51>    C       -1.40139        -4.16662       -14.92116
| 52>    C       -2.53440        -4.30320       -14.08815
| 53>    S       -2.08804        -5.07930       -12.58586
| 54>    C       -3.81347        -3.86578       -14.37494
| 55>    C       -4.88562        -3.99793       -13.50021
| 56>    C       -6.15038        -3.49058       -13.73005
| 57>    C       -7.28782        -3.58304       -12.85297
| 58>    C       -7.38694        -4.31471       -11.69099
| 59>    C       -8.54009        -4.35750       -10.88328
| 60>    N       -9.44511        -4.43351       -10.17966
| 61>    C       -6.38340        -5.14169       -11.14994
| 62>    N       -5.63019        -5.84733       -10.64323
| 63>    C       -8.36246        -2.77661       -13.43125
| 64>    C       -7.91596        -2.24896       -14.66671
| 65>    C       -6.52542        -2.68823       -14.90950
| 66>    O       -5.85096        -2.41845       -15.88531
| 67>    C       -8.69840        -1.44558       -15.45782
| 68>    C       -9.98665        -1.13991       -15.00476
| 69>    C      -10.42276        -1.66596       -13.76730
| 70>    C       -9.63108        -2.48442       -12.96917
| 71>    S      -12.04199        -1.15627       -13.39206
| 72>    C      -12.10788        -0.25637       -14.88405
| 73>    C      -10.97848        -0.33210       -15.62628
| 74>   Br      -13.66182         0.70049       -15.32062
| 75>    H      -14.76192       -13.54680        -8.99601
| 76>    H      -13.54370       -12.46372        -9.84698
| 77>    H      -14.18965       -14.34520        -6.52815
| 78>    H      -12.33095       -14.10466        -4.76583
| 79>    H      -10.41328       -13.62540        -3.56142
| 80>    H       -8.11839       -12.80119        -2.73552
| 81>    H       -6.03056       -11.37225        -3.58451
| 82>    H       -6.88833        -9.29716        -8.43158
| 83>    H       -4.53107        -8.41068        -8.31336
| 84>    H       -2.34543        -8.45196        -7.05974
| 85>    H       -2.64995        -9.57549        -4.22763
| 86>    H        1.39148        -9.12018        -2.46164
| 87>    H        2.93966        -8.38139        -4.31396
| 88>    H        3.17271        -7.83601        -6.68993
| 89>    H        0.51232        -7.42483        -8.15154
| 90>    H        3.46243        -7.17007        -9.03379
| 91>    H        3.75812        -6.34343       -11.46261
| 92>    H        2.38146        -5.41771       -13.43226
| 93>    H        0.71117        -4.61062       -14.86132
| 94>    H       -1.47566        -3.71635       -15.89492
| 95>    H       -3.97377        -3.37640       -15.32488
| 96>    H       -4.69810        -4.51426       -12.56638
| 97>    H       -8.32811        -1.06097       -16.39523
| 98>    H      -10.01101        -2.85753       -12.03299
| 99>    H      -10.84716         0.16079       -16.57228
|100> *
|101>
|102>                          ****END OF INPUT****

CARTESIAN COORDINATES (ANGSTROEM)
---------------------------------
  C    -13.822750  -13.022340   -8.972630
  C    -13.038620  -13.070820   -7.887740
  C    -13.287330  -13.774440   -6.660220
  C    -12.310320  -13.646200   -5.738680
  C    -11.210560  -12.836590   -6.152530
  S    -11.479190  -12.236910   -7.775320
  C    -10.076380  -12.541990   -5.439820
  C     -9.753260  -12.995510   -4.131740
  C     -8.547090  -12.564460   -3.693610
  C     -7.847200  -11.746840   -4.629260
  S     -8.786240  -11.522440   -6.085910
  C     -6.607000  -11.208190   -4.480330
  C     -6.016310  -10.429180   -5.522340
  N     -6.774790  -10.200690   -6.605120
  C     -6.250430   -9.481700   -7.576780
  C     -4.952980   -8.996060   -7.513410
  C     -4.218160   -9.304630   -6.358280
  N     -4.765190  -10.003370   -5.367970
  C     -2.826050   -8.912470   -6.208730
  C     -2.148260   -9.132710   -5.075390
  C     -0.737840   -8.854110   -4.883960
  N     -0.261360   -9.103100   -3.658940
  C      1.030740   -8.919030   -3.463150
  C      1.881070   -8.507850   -4.474280
  C      1.295900   -8.254520   -5.725570
  N     -0.016080   -8.419810   -5.909860
  C      2.101380   -7.834850   -6.843720
  C      1.587610   -7.448840   -8.037600
  C      2.388390   -7.074380   -9.134290
  C      1.914120   -6.592790  -10.325940
  C      2.688370   -6.230770  -11.458260
  C      1.960160   -5.742800  -12.498320
  C      0.570160   -5.680920  -12.242160
  S      0.212620   -6.295940  -10.649170
  C     -0.411780   -5.174920  -13.077270
  C     -0.245540   -4.638850  -14.371820
  C     -1.401390   -4.166620  -14.921160
  C     -2.534400   -4.303200  -14.088150
  S     -2.088040   -5.079300  -12.585860
  C     -3.813470   -3.865780  -14.374940
  C     -4.885620   -3.997930  -13.500210
  C     -6.150380   -3.490580  -13.730050
  C     -7.287820   -3.583040  -12.852970
  C     -7.386940   -4.314710  -11.690990
  C     -8.540090   -4.357500  -10.883280
  N     -9.445110   -4.433510  -10.179660
  C     -6.383400   -5.141690  -11.149940
  N     -5.630190   -5.847330  -10.643230
  C     -8.362460   -2.776610  -13.431250
  C     -7.915960   -2.248960  -14.666710
  C     -6.525420   -2.688230  -14.909500
  O     -5.850960   -2.418450  -15.885310
  C     -8.698400   -1.445580  -15.457820
  C     -9.986650   -1.139910  -15.004760
  C    -10.422760   -1.665960  -13.767300
  C     -9.631080   -2.484420  -12.969170
  S    -12.041990   -1.156270  -13.392060
  C    -12.107880   -0.256370  -14.884050
  C    -10.978480   -0.332100  -15.626280
  Br   -13.661820    0.700490  -15.320620
  H    -14.761920  -13.546800   -8.996010
  H    -13.543700  -12.463720   -9.846980
  H    -14.189650  -14.345200   -6.528150
  H    -12.330950  -14.104660   -4.765830
  H    -10.413280  -13.625400   -3.561420
  H     -8.118390  -12.801190   -2.735520
  H     -6.030560  -11.372250   -3.584510
  H     -6.888330   -9.297160   -8.431580
  H     -4.531070   -8.410680   -8.313360
  H     -2.345430   -8.451960   -7.059740
  H     -2.649950   -9.575490   -4.227630
  H      1.391480   -9.120180   -2.461640
  H      2.939660   -8.381390   -4.313960
  H      3.172710   -7.836010   -6.689930
  H      0.512320   -7.424830   -8.151540
  H      3.462430   -7.170070   -9.033790
  H      3.758120   -6.343430  -11.462610
  H      2.381460   -5.417710  -13.432260
  H      0.711170   -4.610620  -14.861320
  H     -1.475660   -3.716350  -15.894920
  H     -3.973770   -3.376400  -15.324880
  H     -4.698100   -4.514260  -12.566380
  H     -8.328110   -1.060970  -16.395230
  H    -10.011010   -2.857530  -12.032990
  H    -10.847160    0.160790  -16.572280

 Total Charge           Charge          ....    0
 Multiplicity           Mult            ....    1
 Number of Electrons    NEL             ....  472
 Basis Dimension        Dim             .... 1003

ORBITAL ENERGIES
----------------

  NO   OCC          E(Eh)            E(eV)
   0   2.0000    -482.878023    -13139.7790
   1   2.0000     -88.966187     -2420.8930
   2   2.0000     -88.966022     -2420.8885
   3   2.0000     -88.962184     -2420.7841
   4   2.0000     -88.923109     -2419.7208
   5   2.0000     -88.919314     -2419.6175
   6   2.0000     -62.555739     -1702.2282
   7   2.0000     -56.389680     -1534.4412
   8   2.0000     -56.386983     -1534.3678
   9   2.0000     -56.386943     -1534.3667
  10   2.0000     -19.202998      -522.5401
  11   2.0000     -14.406313      -392.0157
  12   2.0000     -14.405234      -391.9863
  13   2.0000     -14.401707      -391.8904
  14   2.0000     -14.400249      -391.8507
  15   2.0000     -14.389636      -391.5619
  16   2.0000     -14.384783      -391.4298
  17   2.0000     -10.353236      -281.7259
  18   2.0000     -10.349704      -281.6298
  19   2.0000     -10.338958      -281.3374
  20   2.0000     -10.336259      -281.2639
  21   2.0000     -10.329633      -281.0836
  22   2.0000     -10.328107      -281.0421
  23   2.0000     -10.327783      -281.0333
  24   2.0000     -10.326963      -281.0110
  25   2.0000     -10.326391      -280.9954
  26   2.0000     -10.325159      -280.9619
  27   2.0000     -10.319371      -280.8044
  28   2.0000     -10.317116      -280.7430
  29   2.0000     -10.314679      -280.6767
  30   2.0000     -10.309231      -280.5284
  31   2.0000     -10.309041      -280.5233
  32   2.0000     -10.308613      -280.5116
  33   2.0000     -10.308238      -280.5014
  34   2.0000     -10.307283      -280.4754
  35   2.0000     -10.304254      -280.3930
  36   2.0000     -10.303562      -280.3742
  37   2.0000     -10.301886      -280.3286
  38   2.0000     -10.301587      -280.3204
  39   2.0000     -10.296721      -280.1880
  40   2.0000     -10.296101      -280.1712
  41   2.0000     -10.295923      -280.1663
  42   2.0000     -10.295433      -280.1530
  43   2.0000     -10.293613      -280.1034
  44   2.0000     -10.293497      -280.1003
  45   2.0000     -10.293131      -280.0903
  46   2.0000     -10.290385      -280.0156
  47   2.0000     -10.289567      -279.9933
  48   2.0000     -10.289246      -279.9846
  49   2.0000     -10.287938      -279.9490
  50   2.0000     -10.284212      -279.8476
  51   2.0000     -10.280382      -279.7434
  52   2.0000     -10.279655      -279.7236
  53   2.0000     -10.278088      -279.6810
  54   2.0000     -10.276708      -279.6434
  55   2.0000     -10.276676      -279.6426
  56   2.0000     -10.273021      -279.5431
  57   2.0000     -10.271266      -279.4954
  58   2.0000     -10.265202      -279.3304
  59   2.0000     -10.265160      -279.3292
  60   2.0000     -10.260913      -279.2136
  61   2.0000     -10.259300      -279.1698
  62   2.0000     -10.258000      -279.1344
  63   2.0000     -10.246522      -278.8220
  64   2.0000      -8.785164      -239.0565
  65   2.0000      -8.062425      -219.3897
  66   2.0000      -8.062014      -219.3786
  67   2.0000      -8.058268      -219.2766
  68   2.0000      -8.019849      -218.2312
  69   2.0000      -8.012930      -218.0429
  70   2.0000      -6.621433      -180.1784
  71   2.0000      -6.606890      -179.7826
  72   2.0000      -6.606746      -179.7787
  73   2.0000      -6.032072      -164.1410
  74   2.0000      -6.031704      -164.1310
  75   2.0000      -6.028086      -164.0326
  76   2.0000      -6.027875      -164.0268
  77   2.0000      -6.027443      -164.0151
  78   2.0000      -6.023851      -163.9173
  79   2.0000      -6.023406      -163.9052
  80   2.0000      -6.023236      -163.9006
  81   2.0000      -6.019396      -163.7961
  82   2.0000      -5.989687      -162.9877
  83   2.0000      -5.985707      -162.8794
  84   2.0000      -5.983089      -162.8081
  85   2.0000      -5.980382      -162.7345
  86   2.0000      -5.978424      -162.6812
  87   2.0000      -5.973819      -162.5559
  88   2.0000      -2.737301       -74.4857
  89   2.0000      -2.733249       -74.3755
  90   2.0000      -2.733083       -74.3710
  91   2.0000      -2.721564       -74.0575
  92   2.0000      -2.721543       -74.0569
  93   2.0000      -1.116331       -30.3769
  94   2.0000      -1.077462       -29.3192
  95   2.0000      -1.061777       -28.8924
  96   2.0000      -1.015623       -27.6365
  97   2.0000      -1.011330       -27.5197
  98   2.0000      -1.001642       -27.2561
  99   2.0000      -0.992820       -27.0160
 100   2.0000      -0.981605       -26.7108
 101   2.0000      -0.977558       -26.6007
 102   2.0000      -0.976792       -26.5799
 103   2.0000      -0.973956       -26.5027
 104   2.0000      -0.963529       -26.2190
 105   2.0000      -0.949480       -25.8367
 106   2.0000      -0.933166       -25.3927
 107   2.0000      -0.925835       -25.1933
 108   2.0000      -0.910494       -24.7758
 109   2.0000      -0.900975       -24.5168
 110   2.0000      -0.896880       -24.4054
 111   2.0000      -0.888832       -24.1864
 112   2.0000      -0.877828       -23.8869
 113   2.0000      -0.874740       -23.8029
 114   2.0000      -0.865575       -23.5535
 115   2.0000      -0.862972       -23.4827
 116   2.0000      -0.855922       -23.2908
 117   2.0000      -0.842436       -22.9239
 118   2.0000      -0.841371       -22.8949
 119   2.0000      -0.829702       -22.5773
 120   2.0000      -0.828836       -22.5538
 121   2.0000      -0.820390       -22.3240
 122   2.0000      -0.818383       -22.2693
 123   2.0000      -0.799392       -21.7526
 124   2.0000      -0.797726       -21.7072
 125   2.0000      -0.771685       -20.9986
 126   2.0000      -0.770798       -20.9745
 127   2.0000      -0.761335       -20.7170
 128   2.0000      -0.748628       -20.3712
 129   2.0000      -0.743204       -20.2236
 130   2.0000      -0.725164       -19.7327
 131   2.0000      -0.722291       -19.6545
 132   2.0000      -0.710773       -19.3411
 133   2.0000      -0.701780       -19.0964
 134   2.0000      -0.685692       -18.6586
 135   2.0000      -0.683777       -18.6065
 136   2.0000      -0.679074       -18.4785
 137   2.0000      -0.668713       -18.1966
 138   2.0000      -0.662703       -18.0331
 139   2.0000      -0.660489       -17.9728
 140   2.0000      -0.654485       -17.8094
 141   2.0000      -0.647574       -17.6214
 142   2.0000      -0.644290       -17.5320
 143   2.0000      -0.635832       -17.3019
 144   2.0000      -0.628179       -17.0936
 145   2.0000      -0.621882       -16.9223
 146   2.0000      -0.619330       -16.8528
 147   2.0000      -0.612249       -16.6601
 148   2.0000      -0.609563       -16.5871
 149   2.0000      -0.607614       -16.5340
 150   2.0000      -0.594408       -16.1747
 151   2.0000      -0.588936       -16.0258
 152   2.0000      -0.584702       -15.9105
 153   2.0000      -0.583237       -15.8707
 154   2.0000      -0.581094       -15.8124
 155   2.0000      -0.578040       -15.7293
 156   2.0000      -0.573070       -15.5940
 157   2.0000      -0.558182       -15.1889
 158   2.0000      -0.552693       -15.0395
 159   2.0000      -0.541440       -14.7333
 160   2.0000      -0.539466       -14.6796
 161   2.0000      -0.536918       -14.6103
 162   2.0000      -0.533784       -14.5250
 163   2.0000      -0.530802       -14.4439
 164   2.0000      -0.527768       -14.3613
 165   2.0000      -0.522667       -14.2225
 166   2.0000      -0.521140       -14.1809
 167   2.0000      -0.518079       -14.0976
 168   2.0000      -0.516180       -14.0460
 169   2.0000      -0.515186       -14.0189
 170   2.0000      -0.513621       -13.9763
 171   2.0000      -0.506273       -13.7764
 172   2.0000      -0.505381       -13.7521
 173   2.0000      -0.503412       -13.6985
 174   2.0000      -0.498641       -13.5687
 175   2.0000      -0.497834       -13.5468
 176   2.0000      -0.497596       -13.5403
 177   2.0000      -0.488953       -13.3051
 178   2.0000      -0.486181       -13.2297
 179   2.0000      -0.486058       -13.2263
 180   2.0000      -0.483147       -13.1471
 181   2.0000      -0.482327       -13.1248
 182   2.0000      -0.480092       -13.0640
 183   2.0000      -0.478275       -13.0145
 184   2.0000      -0.476980       -12.9793
 185   2.0000      -0.475012       -12.9257
 186   2.0000      -0.470142       -12.7932
 187   2.0000      -0.468970       -12.7613
 188   2.0000      -0.465754       -12.6738
 189   2.0000      -0.461118       -12.5477
 190   2.0000      -0.460735       -12.5372
 191   2.0000      -0.451183       -12.2773
 192   2.0000      -0.447987       -12.1904
 193   2.0000      -0.443042       -12.0558
 194   2.0000      -0.441068       -12.0021
 195   2.0000      -0.439768       -11.9667
 196   2.0000      -0.439242       -11.9524
 197   2.0000      -0.436325       -11.8730
 198   2.0000      -0.435571       -11.8525
 199   2.0000      -0.431217       -11.7340
 200   2.0000      -0.429496       -11.6872
 201   2.0000      -0.428560       -11.6617
 202   2.0000      -0.417709       -11.3664
 203   2.0000      -0.415530       -11.3071
 204   2.0000      -0.414597       -11.2818
 205   2.0000      -0.412939       -11.2366
 206   2.0000      -0.411830       -11.2065
 207   2.0000      -0.408192       -11.1075
 208   2.0000      -0.405919       -11.0456
 209   2.0000      -0.399412       -10.8685
 210   2.0000      -0.395592       -10.7646
 211   2.0000      -0.391596       -10.6559
 212   2.0000      -0.383798       -10.4437
 213   2.0000      -0.377939       -10.2842
 214   2.0000      -0.375967       -10.2306
 215   2.0000      -0.373791       -10.1714
 216   2.0000      -0.371811       -10.1175
 217   2.0000      -0.367576       -10.0022
 218   2.0000      -0.358617        -9.7585
 219   2.0000      -0.353198        -9.6110
 220   2.0000      -0.347742        -9.4625
 221   2.0000      -0.341414        -9.2903
 222   2.0000      -0.340849        -9.2750
 223   2.0000      -0.330316        -8.9884
 224   2.0000      -0.323072        -8.7912
 225   2.0000      -0.321609        -8.7514
 226   2.0000      -0.320095        -8.7102
 227   2.0000      -0.310256        -8.4425
 228   2.0000      -0.305096        -8.3021
 229   2.0000      -0.294878        -8.0240
 230   2.0000      -0.293512        -7.9869
 231   2.0000      -0.289282        -7.8718
 232   2.0000      -0.283811        -7.7229
 233   2.0000      -0.282014        -7.6740
 234   2.0000      -0.230864        -6.2821
 235   2.0000      -0.211503        -5.7553
 236   0.0000      -0.113060        -3.0765
 237   0.0000      -0.064071        -1.7435
 238   0.0000      -0.051309        -1.3962
 239   0.0000      -0.046885        -1.2758
 240   0.0000      -0.035184        -0.9574

MULLIKEN ATOMIC CHARGES
-----------------------
   0 C :   -0.031370
   1 C :   -0.063997
   2 C :    0.051579
   3 C :    0.033355
   4 C :   -0.075002
   5 S :    0.087202
   6 C :   -0.041151
   7 C :    0.026982
   8 C :    0.039541
   9 C :    0.019365
  10 S :    0.121141
  11 C :   -0.031215
  12 C :   -0.000149
  13 N :   -0.151008
  14 C :    0.101961
  15 C :   -0.059688
  16 C :    0.050569
  17 N :   -0.055279
  18 C :    0.018743
  19 C :    0.078216
  20 C :   -0.057591
  21 N :   -0.073282
  22 C :    0.083677
  23 C :   -0.044802
  24 C :    0.055339
  25 N :   -0.060467
  26 C :   -0.009113
  27 C :    0.041966
  28 C :   -0.003531
  29 C :   -0.020880
  30 C :    0.052130
  31 C :    0.023901
  32 C :   -0.033586
  33 S :    0.117357
  34 C :   -0.052723
  35 C :    0.039294
  36 C :    0.031026
  37 C :    0.004599
  38 S :    0.116236
  39 C :   -0.025600
  40 C :   -0.034625
  41 C :   -0.092004
  42 C :    0.325496
  43 C :   -0.360630
  44 C :   -0.188891
  45 N :    0.141339
  46 C :   -0.193099
  47 N :    0.132939
  48 C :    0.013075
  49 C :   -0.008393
  50 C :    0.139293
  51 O :   -0.166246
  52 C :   -0.076200
  53 C :    0.117381
  54 C :   -0.091924
  55 C :   -0.023719
  56 S :    0.181877
  57 C :   -0.123254
  58 C :    0.037669
  59 Br:    0.015838
  60 H :    0.016071
  61 H :    0.020860
  62 H :   -0.014573
  63 H :   -0.015478
  64 H :   -0.019929
  65 H :   -0.018205
  66 H :   -0.025650
  67 H :    0.010349
  68 H :    0.004473
  69 H :   -0.007632
  70 H :    0.006745
  71 H :    0.005690
  72 H :   -0.008483
  73 H :   -0.016338
  74 H :    0.026265
  75 H :   -0.004649
  76 H :   -0.000853
  77 H :   -0.005508
  78 H :   -0.004846
  79 H :    0.000528
  80 H :    0.018154
  81 H :    0.014180
  82 H :   -0.015806
  83 H :   -0.008256
  84 H :   -0.006778
Sum of atomic charges:   -0.0000000

LOEWDIN ATOMIC CHARGES
----------------------
   0 C :   -0.079038
   1 C :   -0.139587
   2 C :   -0.031267
   3 C :   -0.026539
   4 C :   -0.168960
   5 S :    0.355571
   6 C :   -0.197423
   7 C :   -0.023414
   8 C :   -0.039506
   9 C :   -0.115410
  10 S :    0.411904
  11 C :   -0.091778
  12 C :    0.027722
  13 N :   -0.110696
  14 C :    0.061928
  15 C :   -0.070494
  16 C :    0.032313
  17 N :   -0.089063
  18 C :   -0.003454
  19 C :   -0.002722
  20 C :    0.030973
  21 N :   -0.087277
  22 C :    0.049582
  23 C :   -0.065386
  24 C :    0.028090
  25 N :   -0.085215
  26 C :   -0.020604
  27 C :    0.001325
  28 C :   -0.029972
  29 C :   -0.144688
  30 C :   -0.013424
  31 C :   -0.031638
  32 C :   -0.150130
  33 S :    0.401222
  34 C :   -0.189742
  35 C :   -0.008644
  36 C :   -0.038371
  37 C :   -0.104141
  38 S :    0.410302
  39 C :   -0.071083
  40 C :    0.050616
  41 C :   -0.105333
  42 C :    0.073775
  43 C :   -0.155076
  44 C :   -0.019771
  45 N :   -0.064312
  46 C :   -0.017399
  47 N :   -0.071991
  48 C :   -0.018519
  49 C :   -0.048846
  50 C :    0.082801
  51 O :   -0.157958
  52 C :    0.017965
  53 C :   -0.035469
  54 C :   -0.145321
  55 C :   -0.012392
  56 S :    0.428713
  57 C :   -0.274046
  58 C :   -0.071048
  59 Br:    0.130790
  60 H :    0.027016
  61 H :    0.025850
  62 H :    0.032068
  63 H :    0.031051
  64 H :    0.026925
  65 H :    0.031051
  66 H :    0.032653
  67 H :    0.029363
  68 H :    0.036681
  69 H :    0.029550
  70 H :    0.037460
  71 H :    0.026407
  72 H :    0.031696
  73 H :    0.028927
  74 H :    0.032062
  75 H :    0.036561
  76 H :    0.038335
  77 H :    0.035065
  78 H :    0.035306
  79 H :    0.039469
  80 H :    0.039040
  81 H :    0.032186
  82 H :    0.038837
  83 H :    0.040420
  84 H :    0.037576

  Mayer bond orders larger than 0.100000
B(  0-C ,  1-C ) :   1.8683 B(  0-C , 60-H ) :   0.9502 B(  0-C , 61-H ) :   0.9412
B(  1-C ,  2-C ) :   1.0764 B(  1-C ,  5-S ) :   1.0076 B(  2-C ,  3-C ) :   1.6687
B(  2-C , 62-H ) :   0.9921 B(  3-C ,  4-C ) :   1.1428 B(  3-C , 63-H ) :   0.9903
B(  4-C ,  5-S ) :   1.0470 B(  4-C ,  6-C ) :   1.5879 B(  6-C ,  7-C ) :   1.1557
B(  6-C , 10-S ) :   0.9689 B(  7-C ,  8-C ) :   1.6257 B(  7-C , 64-H ) :   0.9933
B(  8-C ,  9-C ) :   1.1126 B(  8-C , 65-H ) :   1.0009 B(  9-C , 10-S ) :   1.0685
B(  9-C , 11-C ) :   1.5709 B( 10-S , 13-N ) :   0.1020 B( 11-C , 12-C ) :   1.0980
B( 11-C , 66-H ) :   0.9811 B( 12-C , 13-N ) :   1.4146 B( 12-C , 17-N ) :   1.5054
B( 13-N , 14-C ) :   1.5266 B( 14-C , 15-C ) :   1.3793 B( 14-C , 67-H ) :   0.9776
B( 15-C , 16-C ) :   1.3194 B( 15-C , 68-H ) :   0.9784 B( 16-C , 17-N ) :   1.5415
B( 16-C , 18-C ) :   1.0353 B( 18-C , 19-C ) :   1.7412 B( 18-C , 69-H ) :   0.9775
B( 19-C , 20-C ) :   1.0091 B( 19-C , 70-H ) :   0.9650 B( 20-C , 21-N ) :   1.5137
B( 20-C , 25-N ) :   1.5456 B( 21-N , 22-C ) :   1.5495 B( 22-C , 23-C ) :   1.3727
B( 22-C , 71-H ) :   0.9794 B( 23-C , 24-C ) :   1.3221 B( 23-C , 72-H ) :   0.9764
B( 24-C , 25-N ) :   1.5164 B( 24-C , 26-C ) :   1.0662 B( 26-C , 27-C ) :   1.6731
B( 26-C , 73-H ) :   0.9816 B( 27-C , 28-C ) :   1.1224 B( 27-C , 74-H ) :   0.9697
B( 28-C , 29-C ) :   1.5767 B( 28-C , 75-H ) :   0.9819 B( 29-C , 30-C ) :   1.1348
B( 29-C , 33-S ) :   1.0284 B( 30-C , 31-C ) :   1.5932 B( 30-C , 76-H ) :   1.0003
B( 31-C , 32-C ) :   1.1890 B( 31-C , 77-H ) :   0.9938 B( 32-C , 33-S ) :   1.0781
B( 32-C , 34-C ) :   1.4751 B( 34-C , 35-C ) :   1.2104 B( 34-C , 38-S ) :   1.0456
B( 35-C , 36-C ) :   1.5462 B( 35-C , 78-H ) :   0.9948 B( 36-C , 37-C ) :   1.1776
B( 36-C , 79-H ) :   1.0018 B( 37-C , 38-S ) :   1.0833 B( 37-C , 39-C ) :   1.4224
B( 39-C , 40-C ) :   1.2555 B( 39-C , 80-H ) :   0.9753 B( 40-C , 41-C ) :   1.4846
B( 40-C , 81-H ) :   0.9458 B( 41-C , 42-C ) :   1.1078 B( 41-C , 50-C ) :   0.9661
B( 42-C , 43-C ) :   1.5864 B( 42-C , 48-C ) :   0.9894 B( 43-C , 44-C ) :   1.1484
B( 43-C , 46-C ) :   1.1545 B( 44-C , 45-N ) :   2.9637 B( 46-C , 47-N ) :   2.9657
B( 48-C , 49-C ) :   1.2794 B( 48-C , 55-C ) :   1.4181 B( 49-C , 50-C ) :   0.9390
B( 49-C , 52-C ) :   1.4290 B( 50-C , 51-O ) :   2.1804 B( 52-C , 53-C ) :   1.2384
B( 52-C , 82-H ) :   1.0170 B( 53-C , 54-C ) :   1.3170 B( 53-C , 58-C ) :   1.1607
B( 54-C , 55-C ) :   1.3192 B( 54-C , 56-S ) :   1.0843 B( 55-C , 83-H ) :   0.9800
B( 56-S , 57-C ) :   1.0863 B( 57-C , 58-C ) :   1.6196 B( 57-C , 59-Br) :   1.0137
B( 58-C , 84-H ) :   1.0000

-----------------------------------------------------------------------------
         ABSORPTION SPECTRUM VIA TRANSITION ELECTRIC DIPOLE MOMENTS
-----------------------------------------------------------------------------
State   Energy  Wavelength   fosc         T2         TX        TY        TZ
        (cm-1)    (nm)                  (au**2)     (au)      (au)      (au)
-----------------------------------------------------------------------------
   0   12220.0    818.3   1.176330886  31.69081  -4.47699   2.24527  -2.57024
   1   12764.3    783.4   0.000492905   0.01271   0.10424  -0.02031   0.03788
   2   20605.5    485.3   1.199085727  19.15771  -3.99136  -1.49663  -0.99340
   3   21452.2    466.2   0.123102791   1.88918  -0.09761  -0.27776   1.34257
   4   22965.7    435.4   0.008328146   0.11938   0.30416   0.08240   0.14170
   5   23717.3    421.6   0.154702710   2.14738   0.74736   0.64419  -1.08344
   6   23775.8    420.6   0.170879701   2.36609   1.07427   0.06322   1.09910
   7   24252.7    412.3   0.370073071   5.02345   0.13674  -0.89264   2.05133
   8   25030.2    399.5   0.049150663   0.64646  -0.71555   0.36408  -0.04350
   9   26490.6    377.5   0.068288964   0.84866  -0.72188   0.01464   0.57213
  10   26835.9    372.6   0.495372128   6.07703   1.83475   0.08458  -1.64425
  11   27247.5    367.0   0.000861085   0.01040  -0.06211   0.00497   0.08076
  12   27971.5    357.5   0.010550521   0.12418   0.20170  -0.10244  -0.27018
  13   28140.9    355.4   0.005445227   0.06370   0.21398  -0.13245   0.01927
  14   28560.6    350.1   0.001317715   0.01519  -0.03588   0.09654   0.06769
  15   28886.7    346.2   0.004283596   0.04882   0.14666   0.00944   0.16499
  16   29267.8    341.7   0.005140960   0.05783  -0.16957   0.05347  -0.16191
  17   30385.2    329.1   0.029675409   0.32152  -0.44926  -0.14677   0.31328
  18   30385.2    329.1   0.082202332   0.89063  -0.63199  -0.00747   0.70083
  19   31037.2    322.2   0.142367677   1.51009  -1.09474   0.48551  -0.27553
  20   31216.6    320.3   0.015061243   0.15884   0.29899  -0.24683   0.09230
  21   31501.9    317.4   0.001245402   0.01302  -0.04938  -0.09081   0.04827
  22   31926.0    313.2   0.031914827   0.32910   0.41135  -0.33125   0.22397
  23   32203.5    310.5   0.404059084   4.13065   1.49554  -1.11386   0.80829
  24   32461.7    308.1   0.007880118   0.07992  -0.04279   0.26226   0.09645
  25   32657.6    306.2   0.095272746   0.96042   0.22215  -0.45789   0.83750
  26   32760.4    305.2   0.113197626   1.13753   0.46679  -0.68359   0.67256
  27   33541.9    298.1   0.002791284   0.02740  -0.10892   0.08019  -0.09541
  28   33966.1    294.4   0.000060881   0.00059   0.00872  -0.00854   0.02100
  29   34894.8    286.6   0.008723894   0.08230   0.28219  -0.03234  -0.04036
  30   34965.1    286.0   0.001325201   0.01248  -0.05620  -0.09575   0.01229
  31   35375.8    282.7   0.004529591   0.04215   0.05618   0.13359  -0.14544
  32   35518.2    281.5   0.296582397   2.74897  -0.80349  -0.76796   1.23029
  33   35825.0    279.1   0.180608957   1.65969   0.88761   0.63502  -0.68454
  34   35912.2    278.5   0.036668750   0.33615   0.27897  -0.21023   0.46274
  35   36090.7    277.1   0.025924527   0.23648   0.48263  -0.00536   0.05928
  36   36873.3    271.2   0.093840340   0.83782  -0.79156   0.30796  -0.34121
  37   37846.8    264.2   0.000014502   0.00013   0.00273  -0.00167  -0.01077
  38   37897.9    263.9   0.268668546   2.33388  -0.27584   0.48472  -1.42227
  39   38281.9    261.2   0.140060960   1.20448   0.98668   0.29039   0.38290
  40   38360.0    260.7   0.024513522   0.21038  -0.37327  -0.03050  -0.26480
  41   38378.1    260.6   0.004685856   0.04020  -0.18086  -0.00689  -0.08624
  42   38777.5    257.9   0.199166406   1.69087  -1.13510  -0.63303  -0.04123
  43   39044.1    256.1   0.019049392   0.16062   0.38514  -0.09484   0.05742
  44   39150.4    255.4   0.112536192   0.94631   0.86106   0.15795   0.42418
  45   39195.1    255.1   0.245262816   2.06004  -1.34492  -0.22251  -0.44914
  46   39343.3    254.2   0.039629207   0.33160  -0.50486   0.15066  -0.23242
  47   39411.7    253.7   0.005431918   0.04537   0.09187  -0.03475   0.18902
  48   39522.6    253.0   0.008304381   0.06917   0.20599  -0.05834   0.15277
  49   40222.5    248.6   0.175623461   1.43744  -0.93800   0.15134  -0.73123
  50   40322.6    248.0   0.024473968   0.19982  -0.25932   0.11320  -0.34605

FINAL SINGLE POINT ENERGY     -6771.163471570020

DIPOLE MOMENT
-------------
                                X             Y             Z
Electronic contribution:   -101.59623     103.44998     -74.40503
Nuclear contribution   :    105.44011    -103.09525      73.05550
                        -----------------------------------------
Total Dipole Moment    :      3.84388       0.35473      -1.34953
                        -----------------------------------------
Magnitude (a.u.)       :      4.08931
Magnitude (Debye)      :     10.39420

Rotational constants in cm-1:     0.000719     0.000478     0.000305
Rotational constants in MHz :    21.549606    14.330525     9.128882

                             ****ORCA TERMINATED NORMALLY****
TOTAL RUN TIME: 0 days 0 hours 6 minutes 57 seconds 204 msec
