                         Program Version 4.2.0 -  RELEASE  -
|  1> # ORCA input file
|  2> # SCF done       -165.179358592056          0.000661065457
|  3> ! CAM-B3LYP def2-SVP def2/J RIJCOSX Grid4 TightSCF
|  4> %maxcore 5000
|  5> %tddft
|  6>     Mode sTDDFT
|  7>     Ethresh 5.0
|  8>     maxcore 5000
|  9> end
| 10>
| 11> %pal
| 12>   nprocs 6
| 13>   end
| 14> * xyz 0 1
| 15>    C        4.90188       -21.43797        -8.01006
| 16>    C        4.92258       -20.41007        -8.86812
| 17>    C        5.07773       -20.46315       -10.29504
| 18>    C        5.04910       -19.25818       -10.90184
| 19>    C        4.87239       -18.15717       -10.01257
| 20>    S        4.74668       -18.72031        -8.36332
| 21>    C        4.78788       -16.82616       -10.34378
| 22>    C        4.84711       -16.25176       -11.64030
| 23>    C        4.69201       -14.90517       -11.64443
| 24>    C        4.51399       -14.33192       -10.35175
| 25>    S        4.56947       -15.57722        -9.13062
| 26>    C        4.24239       -13.00812       -10.12373
| 27>    C        4.08931       -12.36879        -8.87892
| 28>    O        3.42208       -11.17387        -8.87370
| 29>    C        4.47481       -12.64596        -7.57348
| 30>    C        5.25121       -13.53944        -6.72507
| 31>    O        5.91993       -14.51234        -6.97552
| 32>    N        5.11432       -12.99117        -5.44467
| 33>    C        4.39349       -11.80868        -5.38245
| 34>    O        4.19390       -11.16313        -4.38128
| 35>    C        3.98925       -11.57850        -6.76855
| 36>    C        3.34357       -10.69353        -7.60366
| 37>    C        2.63371        -9.47969        -7.37317
| 38>    C        2.51569        -8.91235        -6.15620
| 39>    C        1.77304        -7.70929        -5.87299
| 40>    C        0.60539        -7.33303        -6.41310
| 41>    C       -0.18135        -8.14482        -7.39230
| 42>    C       -0.01076        -5.99921        -6.05025
| 43>    N        0.14748        -5.05643        -7.13904
| 44>    C       -0.61773        -5.09029        -8.24035
| 45>    C       -0.32128        -4.45973        -9.40812
| 46>    C       -1.14446        -4.55628       -10.54834
| 47>    O       -2.25036        -5.31976       -10.53822
| 48>    C       -2.80128        -5.28985       -11.79163
| 49>    C       -2.03395        -4.47358       -12.60688
| 50>    C       -0.96801        -3.99216       -11.82900
| 51>    C        0.11895        -3.10266       -12.23188
| 52>    O        1.01603        -2.78104       -11.47788
| 53>    C        0.05291        -2.60989       -13.65633
| 54>    C       -3.94920        -6.06590       -12.03924
| 55>    C       -4.54103        -6.21194       -13.26146
| 56>    C       -5.64913        -7.05400       -13.44295
| 57>    C       -6.24816        -7.32015       -14.65042
| 58>    C       -7.36441        -8.20865       -14.88286
| 59>    C       -8.07472        -8.91685       -13.94353
| 60>    C       -9.15415        -9.77129       -14.24502
| 61>    N      -10.03765       -10.48394       -14.42058
| 62>    C       -7.84355        -8.90354       -12.55354
| 63>    N       -7.72693        -8.95328       -11.41127
| 64>    C       -7.62060        -8.23384       -16.32091
| 65>    C       -6.69908        -7.37125       -16.96182
| 66>    C       -5.81429        -6.76071       -15.94725
| 67>    O       -4.91848        -5.96853       -16.16555
| 68>    C       -6.67910        -7.18534       -18.32196
| 69>    C       -7.61395        -7.88706       -19.09072
| 70>    C       -8.53169        -8.74566       -18.44235
| 71>    C       -8.55281        -8.93190       -17.06536
| 72>    S       -9.59674        -9.51803       -19.57878
| 73>    C       -8.80308        -8.68821       -20.89080
| 74>    C       -7.79397        -7.87414       -20.50131
| 75>   Br       -9.38118        -8.97612       -22.65236
| 76>    H        5.00951       -22.44949        -8.36036
| 77>    H        4.77779       -21.28862        -6.95325
| 78>    H        5.20400       -21.40500       -10.79891
| 79>    H        5.15009       -19.11001       -11.96203
| 80>    H        4.99535       -16.84763       -12.52282
| 81>    H        4.70004       -14.29076       -12.52739
| 82>    H        4.06596       -12.37960       -10.98625
| 83>    H        5.55603       -13.40398        -4.63601
| 84>    H        2.21084        -9.02214        -8.25514
| 85>    H        3.03687        -9.35927        -5.31929
| 86>    H        2.20242        -7.08838        -5.09531
| 87>    H        0.10694        -9.19141        -7.34580
| 88>    H       -0.02580        -7.78967        -8.41188
| 89>    H       -1.24549        -8.06617        -7.17362
| 90>    H        0.46613        -5.57884        -5.16266
| 91>    H       -1.08045        -6.11529        -5.85344
| 92>    H        1.06048        -4.63386        -7.23569
| 93>    H       -1.54536        -5.63936        -8.15076
| 94>    H        0.57938        -3.87827        -9.52338
| 95>    H       -2.23349        -4.26473       -13.63746
| 96>    H       -0.88514        -2.08670       -13.82683
| 97>    H        0.10541        -3.45342       -14.34128
| 98>    H        0.88481        -1.93732       -13.84707
| 99>    H       -4.35123        -6.59809       -11.18608
|100>    H       -4.14379        -5.69742       -14.12196
|101>    H       -6.03525        -7.54196       -12.55742
|102>    H       -5.96262        -6.52142       -18.77983
|103>    H       -9.27201        -9.59924       -16.62124
|104>    H       -7.19942        -7.28861       -21.17858
|105> *
|106>
|107>                          ****END OF INPUT****

CARTESIAN COORDINATES (ANGSTROEM)
---------------------------------
  C      4.901880  -21.437970   -8.010060
  C      4.922580  -20.410070   -8.868120
  C      5.077730  -20.463150  -10.295040
  C      5.049100  -19.258180  -10.901840
  C      4.872390  -18.157170  -10.012570
  S      4.746680  -18.720310   -8.363320
  C      4.787880  -16.826160  -10.343780
  C      4.847110  -16.251760  -11.640300
  C      4.692010  -14.905170  -11.644430
  C      4.513990  -14.331920  -10.351750
  S      4.569470  -15.577220   -9.130620
  C      4.242390  -13.008120  -10.123730
  C      4.089310  -12.368790   -8.878920
  O      3.422080  -11.173870   -8.873700
  C      4.474810  -12.645960   -7.573480
  C      5.251210  -13.539440   -6.725070
  O      5.919930  -14.512340   -6.975520
  N      5.114320  -12.991170   -5.444670
  C      4.393490  -11.808680   -5.382450
  O      4.193900  -11.163130   -4.381280
  C      3.989250  -11.578500   -6.768550
  C      3.343570  -10.693530   -7.603660
  C      2.633710   -9.479690   -7.373170
  C      2.515690   -8.912350   -6.156200
  C      1.773040   -7.709290   -5.872990
  C      0.605390   -7.333030   -6.413100
  C     -0.181350   -8.144820   -7.392300
  C     -0.010760   -5.999210   -6.050250
  N      0.147480   -5.056430   -7.139040
  C     -0.617730   -5.090290   -8.240350
  C     -0.321280   -4.459730   -9.408120
  C     -1.144460   -4.556280  -10.548340
  O     -2.250360   -5.319760  -10.538220
  C     -2.801280   -5.289850  -11.791630
  C     -2.033950   -4.473580  -12.606880
  C     -0.968010   -3.992160  -11.829000
  C      0.118950   -3.102660  -12.231880
  O      1.016030   -2.781040  -11.477880
  C      0.052910   -2.609890  -13.656330
  C     -3.949200   -6.065900  -12.039240
  C     -4.541030   -6.211940  -13.261460
  C     -5.649130   -7.054000  -13.442950
  C     -6.248160   -7.320150  -14.650420
  C     -7.364410   -8.208650  -14.882860
  C     -8.074720   -8.916850  -13.943530
  C     -9.154150   -9.771290  -14.245020
  N    -10.037650  -10.483940  -14.420580
  C     -7.843550   -8.903540  -12.553540
  N     -7.726930   -8.953280  -11.411270
  C     -7.620600   -8.233840  -16.320910
  C     -6.699080   -7.371250  -16.961820
  C     -5.814290   -6.760710  -15.947250
  O     -4.918480   -5.968530  -16.165550
  C     -6.679100   -7.185340  -18.321960
  C     -7.613950   -7.887060  -19.090720
  C     -8.531690   -8.745660  -18.442350
  C     -8.552810   -8.931900  -17.065360
  S     -9.596740   -9.518030  -19.578780
  C     -8.803080   -8.688210  -20.890800
  C     -7.793970   -7.874140  -20.501310
  Br    -9.381180   -8.976120  -22.652360
  H      5.009510  -22.449490   -8.360360
  H      4.777790  -21.288620   -6.953250
  H      5.204000  -21.405000  -10.798910
  H      5.150090  -19.110010  -11.962030
  H      4.995350  -16.847630  -12.522820
  H      4.700040  -14.290760  -12.527390
  H      4.065960  -12.379600  -10.986250
  H      5.556030  -13.403980   -4.636010
  H      2.210840   -9.022140   -8.255140
  H      3.036870   -9.359270   -5.319290
  H      2.202420   -7.088380   -5.095310
  H      0.106940   -9.191410   -7.345800
  H     -0.025800   -7.789670   -8.411880
  H     -1.245490   -8.066170   -7.173620
  H      0.466130   -5.578840   -5.162660
  H     -1.080450   -6.115290   -5.853440
  H      1.060480   -4.633860   -7.235690
  H     -1.545360   -5.639360   -8.150760
  H      0.579380   -3.878270   -9.523380
  H     -2.233490   -4.264730  -13.637460
  H     -0.885140   -2.086700  -13.826830
  H      0.105410   -3.453420  -14.341280
  H      0.884810   -1.937320  -13.847070
  H     -4.351230   -6.598090  -11.186080
  H     -4.143790   -5.697420  -14.121960
  H     -6.035250   -7.541960  -12.557420
  H     -5.962620   -6.521420  -18.779830
  H     -9.272010   -9.599240  -16.621240
  H     -7.199420   -7.288610  -21.178580

 Total Charge           Charge          ....    0
 Multiplicity           Mult            ....    1
 Number of Electrons    NEL             ....  470
 Basis Dimension        Dim             .... 1029

ORBITAL ENERGIES
----------------

  NO   OCC          E(Eh)            E(eV)
   0   2.0000    -482.880176    -13139.8376
   1   2.0000     -88.968478     -2420.9554
   2   2.0000     -88.942516     -2420.2489
   3   2.0000     -88.942307     -2420.2432
   4   2.0000     -62.557889     -1702.2867
   5   2.0000     -56.391831     -1534.4997
   6   2.0000     -56.389131     -1534.4263
   7   2.0000     -56.389095     -1534.4253
   8   2.0000     -19.298117      -525.1285
   9   2.0000     -19.297956      -525.1241
  10   2.0000     -19.204958      -522.5935
  11   2.0000     -19.201966      -522.5121
  12   2.0000     -19.197000      -522.3769
  13   2.0000     -19.196768      -522.3706
  14   2.0000     -14.455215      -393.3464
  15   2.0000     -14.443635      -393.0313
  16   2.0000     -14.405457      -391.9924
  17   2.0000     -14.403063      -391.9273
  18   2.0000     -10.389746      -282.7194
  19   2.0000     -10.386761      -282.6381
  20   2.0000     -10.355404      -281.7849
  21   2.0000     -10.355062      -281.7756
  22   2.0000     -10.354833      -281.7693
  23   2.0000     -10.353102      -281.7222
  24   2.0000     -10.352199      -281.6977
  25   2.0000     -10.350835      -281.6605
  26   2.0000     -10.335104      -281.2325
  27   2.0000     -10.333388      -281.1858
  28   2.0000     -10.329309      -281.0748
  29   2.0000     -10.327515      -281.0260
  30   2.0000     -10.324471      -280.9431
  31   2.0000     -10.317201      -280.7453
  32   2.0000     -10.317099      -280.7425
  33   2.0000     -10.316047      -280.7139
  34   2.0000     -10.310569      -280.5648
  35   2.0000     -10.309249      -280.5289
  36   2.0000     -10.307694      -280.4866
  37   2.0000     -10.307070      -280.4696
  38   2.0000     -10.304396      -280.3969
  39   2.0000     -10.302507      -280.3455
  40   2.0000     -10.299266      -280.2573
  41   2.0000     -10.298075      -280.2249
  42   2.0000     -10.296113      -280.1715
  43   2.0000     -10.293807      -280.1087
  44   2.0000     -10.292001      -280.0596
  45   2.0000     -10.291872      -280.0561
  46   2.0000     -10.291247      -280.0391
  47   2.0000     -10.290927      -280.0304
  48   2.0000     -10.290861      -280.0286
  49   2.0000     -10.290232      -280.0114
  50   2.0000     -10.286920      -279.9213
  51   2.0000     -10.284422      -279.8534
  52   2.0000     -10.283321      -279.8234
  53   2.0000     -10.282031      -279.7883
  54   2.0000     -10.281086      -279.7626
  55   2.0000     -10.280438      -279.7449
  56   2.0000     -10.278681      -279.6971
  57   2.0000     -10.278466      -279.6913
  58   2.0000     -10.278214      -279.6844
  59   2.0000     -10.276302      -279.6324
  60   2.0000     -10.274324      -279.5786
  61   2.0000     -10.273824      -279.5650
  62   2.0000     -10.273290      -279.5504
  63   2.0000     -10.265224      -279.3309
  64   2.0000     -10.264014      -279.2980
  65   2.0000      -8.787317      -239.1150
  66   2.0000      -8.064411      -219.4438
  67   2.0000      -8.039311      -218.7608
  68   2.0000      -8.038199      -218.7305
  69   2.0000      -6.623572      -180.2366
  70   2.0000      -6.609067      -179.8419
  71   2.0000      -6.608887      -179.8370
  72   2.0000      -6.034089      -164.1959
  73   2.0000      -6.029850      -164.0806
  74   2.0000      -6.025640      -163.9660
  75   2.0000      -6.009110      -163.5162
  76   2.0000      -6.007914      -163.4837
  77   2.0000      -6.005173      -163.4091
  78   2.0000      -6.003803      -163.3718
  79   2.0000      -5.999838      -163.2639
  80   2.0000      -5.999065      -163.2429
  81   2.0000      -2.739461       -74.5445
  82   2.0000      -2.735367       -74.4331
  83   2.0000      -2.735249       -74.4299
  84   2.0000      -2.723707       -74.1158
  85   2.0000      -2.723699       -74.1156
  86   2.0000      -1.216895       -33.1134
  87   2.0000      -1.213427       -33.0190
  88   2.0000      -1.144168       -31.1344
  89   2.0000      -1.122953       -30.5571
  90   2.0000      -1.118671       -30.4406
  91   2.0000      -1.113889       -30.3105
  92   2.0000      -1.055919       -28.7330
  93   2.0000      -1.031423       -28.0665
  94   2.0000      -1.013572       -27.5807
  95   2.0000      -1.003557       -27.3082
  96   2.0000      -0.995517       -27.0894
  97   2.0000      -0.983379       -26.7591
  98   2.0000      -0.978891       -26.6370
  99   2.0000      -0.973143       -26.4806
 100   2.0000      -0.936638       -25.4872
 101   2.0000      -0.933347       -25.3977
 102   2.0000      -0.925228       -25.1767
 103   2.0000      -0.914450       -24.8835
 104   2.0000      -0.912068       -24.8186
 105   2.0000      -0.909638       -24.7525
 106   2.0000      -0.899446       -24.4752
 107   2.0000      -0.895760       -24.3749
 108   2.0000      -0.884895       -24.0792
 109   2.0000      -0.877242       -23.8710
 110   2.0000      -0.872741       -23.7485
 111   2.0000      -0.863816       -23.5056
 112   2.0000      -0.848532       -23.0897
 113   2.0000      -0.846335       -23.0299
 114   2.0000      -0.833205       -22.6727
 115   2.0000      -0.826735       -22.4966
 116   2.0000      -0.821289       -22.3484
 117   2.0000      -0.820543       -22.3281
 118   2.0000      -0.810868       -22.0648
 119   2.0000      -0.797629       -21.7046
 120   2.0000      -0.783254       -21.3134
 121   2.0000      -0.771679       -20.9984
 122   2.0000      -0.758106       -20.6291
 123   2.0000      -0.755717       -20.5641
 124   2.0000      -0.751801       -20.4575
 125   2.0000      -0.747474       -20.3398
 126   2.0000      -0.731196       -19.8968
 127   2.0000      -0.724762       -19.7218
 128   2.0000      -0.719830       -19.5876
 129   2.0000      -0.700320       -19.0567
 130   2.0000      -0.696732       -18.9590
 131   2.0000      -0.685801       -18.6616
 132   2.0000      -0.682102       -18.5609
 133   2.0000      -0.679285       -18.4843
 134   2.0000      -0.674043       -18.3416
 135   2.0000      -0.670474       -18.2445
 136   2.0000      -0.650078       -17.6895
 137   2.0000      -0.647123       -17.6091
 138   2.0000      -0.643620       -17.5138
 139   2.0000      -0.629046       -17.1172
 140   2.0000      -0.628402       -17.0997
 141   2.0000      -0.617077       -16.7915
 142   2.0000      -0.614781       -16.7290
 143   2.0000      -0.611623       -16.6431
 144   2.0000      -0.605820       -16.4852
 145   2.0000      -0.603619       -16.4253
 146   2.0000      -0.596594       -16.2341
 147   2.0000      -0.592076       -16.1112
 148   2.0000      -0.590457       -16.0671
 149   2.0000      -0.586194       -15.9511
 150   2.0000      -0.584896       -15.9158
 151   2.0000      -0.583556       -15.8794
 152   2.0000      -0.572805       -15.5868
 153   2.0000      -0.569786       -15.5047
 154   2.0000      -0.566880       -15.4256
 155   2.0000      -0.563482       -15.3331
 156   2.0000      -0.560857       -15.2617
 157   2.0000      -0.556513       -15.1435
 158   2.0000      -0.544701       -14.8221
 159   2.0000      -0.542768       -14.7695
 160   2.0000      -0.537446       -14.6246
 161   2.0000      -0.535918       -14.5831
 162   2.0000      -0.533853       -14.5269
 163   2.0000      -0.532890       -14.5007
 164   2.0000      -0.531859       -14.4726
 165   2.0000      -0.529503       -14.4085
 166   2.0000      -0.524553       -14.2738
 167   2.0000      -0.520540       -14.1646
 168   2.0000      -0.515591       -14.0299
 169   2.0000      -0.514241       -13.9932
 170   2.0000      -0.511536       -13.9196
 171   2.0000      -0.509997       -13.8777
 172   2.0000      -0.505912       -13.7666
 173   2.0000      -0.500453       -13.6180
 174   2.0000      -0.500383       -13.6161
 175   2.0000      -0.499419       -13.5899
 176   2.0000      -0.497254       -13.5310
 177   2.0000      -0.495191       -13.4748
 178   2.0000      -0.492872       -13.4117
 179   2.0000      -0.492119       -13.3912
 180   2.0000      -0.488545       -13.2940
 181   2.0000      -0.487713       -13.2714
 182   2.0000      -0.484676       -13.1887
 183   2.0000      -0.484293       -13.1783
 184   2.0000      -0.483170       -13.1477
 185   2.0000      -0.479235       -13.0406
 186   2.0000      -0.473821       -12.8933
 187   2.0000      -0.470668       -12.8075
 188   2.0000      -0.465424       -12.6648
 189   2.0000      -0.464108       -12.6290
 190   2.0000      -0.463688       -12.6176
 191   2.0000      -0.462491       -12.5850
 192   2.0000      -0.459391       -12.5007
 193   2.0000      -0.457926       -12.4608
 194   2.0000      -0.454397       -12.3648
 195   2.0000      -0.449731       -12.2378
 196   2.0000      -0.447960       -12.1896
 197   2.0000      -0.444653       -12.0996
 198   2.0000      -0.440821       -11.9954
 199   2.0000      -0.439244       -11.9524
 200   2.0000      -0.438288       -11.9264
 201   2.0000      -0.433569       -11.7980
 202   2.0000      -0.432028       -11.7561
 203   2.0000      -0.430660       -11.7189
 204   2.0000      -0.428888       -11.6706
 205   2.0000      -0.421678       -11.4744
 206   2.0000      -0.418559       -11.3896
 207   2.0000      -0.416217       -11.3258
 208   2.0000      -0.413244       -11.2449
 209   2.0000      -0.410353       -11.1663
 210   2.0000      -0.399503       -10.8710
 211   2.0000      -0.399366       -10.8673
 212   2.0000      -0.397019       -10.8034
 213   2.0000      -0.391624       -10.6566
 214   2.0000      -0.380212       -10.3461
 215   2.0000      -0.370267       -10.0755
 216   2.0000      -0.369655       -10.0588
 217   2.0000      -0.365760        -9.9528
 218   2.0000      -0.362173        -9.8552
 219   2.0000      -0.359642        -9.7863
 220   2.0000      -0.354333        -9.6419
 221   2.0000      -0.350105        -9.5268
 222   2.0000      -0.342699        -9.3253
 223   2.0000      -0.340936        -9.2773
 224   2.0000      -0.336607        -9.1595
 225   2.0000      -0.325093        -8.8462
 226   2.0000      -0.323022        -8.7899
 227   2.0000      -0.322488        -8.7753
 228   2.0000      -0.310826        -8.4580
 229   2.0000      -0.307427        -8.3655
 230   2.0000      -0.298461        -8.1215
 231   2.0000      -0.284955        -7.7540
 232   2.0000      -0.275815        -7.5053
 233   2.0000      -0.237139        -6.4529
 234   2.0000      -0.222078        -6.0431
 235   0.0000      -0.086599        -2.3565
 236   0.0000      -0.074426        -2.0252
 237   0.0000      -0.052245        -1.4217
 238   0.0000      -0.042944        -1.1686
 239   0.0000      -0.016765        -0.4562

MULLIKEN ATOMIC CHARGES
-----------------------
   0 C :   -0.026669
   1 C :   -0.065087
   2 C :    0.058370
   3 C :    0.028527
   4 C :   -0.062302
   5 S :    0.100217
   6 C :   -0.062475
   7 C :    0.043078
   8 C :    0.024408
   9 C :   -0.011430
  10 S :    0.145492
  11 C :   -0.069279
  12 C :    0.126731
  13 O :   -0.214751
  14 C :   -0.065084
  15 C :    0.154161
  16 O :   -0.152979
  17 N :   -0.158366
  18 C :    0.183729
  19 O :   -0.167842
  20 C :   -0.085927
  21 C :    0.114720
  22 C :   -0.010499
  23 C :    0.001366
  24 C :    0.005406
  25 C :   -0.192873
  26 C :    0.080282
  27 C :    0.188728
  28 N :   -0.127332
  29 C :    0.083266
  30 C :   -0.087889
  31 C :    0.132093
  32 O :   -0.214173
  33 C :    0.192081
  34 C :   -0.062686
  35 C :    0.007364
  36 C :   -0.014355
  37 O :   -0.195769
  38 C :    0.044451
  39 C :    0.033609
  40 C :   -0.023947
  41 C :   -0.029651
  42 C :   -0.080442
  43 C :    0.334202
  44 C :   -0.361677
  45 C :   -0.186330
  46 N :    0.138615
  47 C :   -0.189939
  48 N :    0.134111
  49 C :    0.010947
  50 C :   -0.010408
  51 C :    0.141248
  52 O :   -0.165891
  53 C :   -0.075957
  54 C :    0.118234
  55 C :   -0.094449
  56 C :   -0.022681
  57 S :    0.181905
  58 C :   -0.124362
  59 C :    0.039194
  60 Br:    0.017283
  61 H :    0.024181
  62 H :    0.027863
  63 H :   -0.008124
  64 H :   -0.008318
  65 H :   -0.012826
  66 H :   -0.011556
  67 H :   -0.007544
  68 H :    0.133814
  69 H :   -0.011188
  70 H :    0.026863
  71 H :   -0.009824
  72 H :    0.039131
  73 H :    0.047098
  74 H :    0.013065
  75 H :    0.015863
  76 H :    0.024399
  77 H :    0.128784
  78 H :    0.018291
  79 H :    0.007794
  80 H :    0.002907
  81 H :    0.036913
  82 H :    0.038462
  83 H :    0.030902
  84 H :    0.009798
  85 H :    0.018574
  86 H :    0.002909
  87 H :   -0.014908
  88 H :   -0.007888
  89 H :   -0.005753
Sum of atomic charges:    0.0000000

LOEWDIN ATOMIC CHARGES
----------------------
   0 C :   -0.064686
   1 C :   -0.140662
   2 C :   -0.022384
   3 C :   -0.027439
   4 C :   -0.163160
   5 S :    0.367650
   6 C :   -0.188954
   7 C :   -0.021211
   8 C :   -0.039842
   9 C :   -0.123374
  10 S :    0.431360
  11 C :   -0.102941
  12 C :    0.068829
  13 O :    0.006754
  14 C :   -0.120039
  15 C :    0.075258
  16 O :   -0.169602
  17 N :   -0.003843
  18 C :    0.084301
  19 O :   -0.174440
  20 C :   -0.102100
  21 C :    0.064580
  22 C :   -0.044656
  23 C :    0.005148
  24 C :   -0.047944
  25 C :   -0.031324
  26 C :   -0.054314
  27 C :    0.047104
  28 N :    0.021849
  29 C :    0.076222
  30 C :   -0.144352
  31 C :    0.106362
  32 O :    0.003748
  33 C :    0.000611
  34 C :   -0.003382
  35 C :   -0.135082
  36 C :    0.078942
  37 O :   -0.164790
  38 C :   -0.075148
  39 C :    0.026414
  40 C :   -0.046179
  41 C :    0.066651
  42 C :   -0.113520
  43 C :    0.076712
  44 C :   -0.152928
  45 C :   -0.018477
  46 N :   -0.064745
  47 C :   -0.019490
  48 N :   -0.064803
  49 C :   -0.019467
  50 C :   -0.049014
  51 C :    0.083328
  52 O :   -0.159223
  53 C :    0.017858
  54 C :   -0.034741
  55 C :   -0.145394
  56 C :   -0.011931
  57 S :    0.428835
  58 C :   -0.273678
  59 C :   -0.071084
  60 Br:    0.131752
  61 H :    0.030484
  62 H :    0.028809
  63 H :    0.035048
  64 H :    0.033267
  65 H :    0.031860
  66 H :    0.033098
  67 H :    0.040683
  68 H :    0.092440
  69 H :    0.035612
  70 H :    0.036439
  71 H :    0.029038
  72 H :    0.038633
  73 H :    0.038076
  74 H :    0.029204
  75 H :    0.030823
  76 H :    0.031015
  77 H :    0.086160
  78 H :    0.031574
  79 H :    0.036463
  80 H :    0.037422
  81 H :    0.041512
  82 H :    0.042621
  83 H :    0.038652
  84 H :    0.043140
  85 H :    0.030475
  86 H :    0.040354
  87 H :    0.038963
  88 H :    0.040492
  89 H :    0.037717

  Mayer bond orders larger than 0.100000
B(  0-C ,  1-C ) :   1.8645 B(  0-C , 61-H ) :   0.9521 B(  0-C , 62-H ) :   0.9423
B(  1-C ,  2-C ) :   1.0762 B(  1-C ,  5-S ) :   1.0063 B(  2-C ,  3-C ) :   1.6674
B(  2-C , 63-H ) :   0.9933 B(  3-C ,  4-C ) :   1.1446 B(  3-C , 64-H ) :   0.9921
B(  4-C ,  5-S ) :   1.0597 B(  4-C ,  6-C ) :   1.5551 B(  6-C ,  7-C ) :   1.1616
B(  6-C , 10-S ) :   1.0496 B(  7-C ,  8-C ) :   1.6158 B(  7-C , 65-H ) :   0.9918
B(  8-C ,  9-C ) :   1.1271 B(  8-C , 66-H ) :   0.9996 B(  9-C , 10-S ) :   1.0858
B(  9-C , 11-C ) :   1.5564 B( 11-C , 12-C ) :   1.1832 B( 11-C , 67-H ) :   0.9526
B( 12-C , 13-O ) :   1.1173 B( 12-C , 14-C ) :   1.3922 B( 13-O , 21-C ) :   1.1406
B( 14-C , 15-C ) :   0.9016 B( 14-C , 20-C ) :   1.2553 B( 15-C , 16-O ) :   2.2119
B( 15-C , 17-N ) :   1.0647 B( 17-N , 18-C ) :   1.1075 B( 17-N , 68-H ) :   0.9171
B( 18-C , 19-O ) :   2.1685 B( 18-C , 20-C ) :   0.8892 B( 20-C , 21-C ) :   1.4453
B( 21-C , 22-C ) :   1.1478 B( 22-C , 23-C ) :   1.7110 B( 22-C , 69-H ) :   0.9605
B( 23-C , 24-C ) :   1.0711 B( 23-C , 70-H ) :   0.9377 B( 24-C , 25-C ) :   1.8427
B( 24-C , 71-H ) :   0.9520 B( 25-C , 26-C ) :   1.0820 B( 25-C , 27-C ) :   1.0379
B( 26-C , 72-H ) :   0.9408 B( 26-C , 73-H ) :   0.9365 B( 26-C , 74-H ) :   0.9463
B( 27-C , 28-N ) :   1.0021 B( 27-C , 75-H ) :   0.9454 B( 27-C , 76-H ) :   0.9346
B( 28-N , 29-C ) :   1.2867 B( 28-N , 77-H ) :   0.9332 B( 29-C , 30-C ) :   1.4966
B( 29-C , 78-H ) :   0.9638 B( 30-C , 31-C ) :   1.2855 B( 30-C , 79-H ) :   0.9332
B( 31-C , 32-O ) :   1.1953 B( 31-C , 35-C ) :   1.3063 B( 32-O , 33-C ) :   1.0599
B( 33-C , 34-C ) :   1.4299 B( 33-C , 39-C ) :   1.1566 B( 34-C , 35-C ) :   1.2543
B( 34-C , 80-H ) :   0.9965 B( 35-C , 36-C ) :   0.9519 B( 36-C , 37-O ) :   2.1410
B( 36-C , 38-C ) :   1.0765 B( 38-C , 81-H ) :   0.9471 B( 38-C , 82-H ) :   0.9450
B( 38-C , 83-H ) :   0.9477 B( 39-C , 40-C ) :   1.4988 B( 39-C , 84-H ) :   0.9767
B( 40-C , 41-C ) :   1.2303 B( 40-C , 85-H ) :   0.9765 B( 41-C , 42-C ) :   1.4653
B( 41-C , 86-H ) :   0.9618 B( 42-C , 43-C ) :   1.0934 B( 42-C , 51-C ) :   0.9641
B( 43-C , 44-C ) :   1.5990 B( 43-C , 49-C ) :   0.9955 B( 44-C , 45-C ) :   1.1449
B( 44-C , 47-C ) :   1.1529 B( 45-C , 46-N ) :   2.9633 B( 47-C , 48-N ) :   2.9557
B( 49-C , 50-C ) :   1.2793 B( 49-C , 56-C ) :   1.4148 B( 50-C , 51-C ) :   0.9404
B( 50-C , 53-C ) :   1.4278 B( 51-C , 52-O ) :   2.1837 B( 53-C , 54-C ) :   1.2414
B( 53-C , 87-H ) :   1.0162 B( 54-C , 55-C ) :   1.3134 B( 54-C , 59-C ) :   1.1613
B( 55-C , 56-C ) :   1.3269 B( 55-C , 57-S ) :   1.0826 B( 56-C , 88-H ) :   0.9787
B( 57-S , 58-C ) :   1.0863 B( 58-C , 59-C ) :   1.6189 B( 58-C , 60-Br) :   1.0152
B( 59-C , 89-H ) :   1.0001

-----------------------------------------------------------------------------
         ABSORPTION SPECTRUM VIA TRANSITION ELECTRIC DIPOLE MOMENTS
-----------------------------------------------------------------------------
State   Energy  Wavelength   fosc         T2         TX        TY        TZ
        (cm-1)    (nm)                  (au**2)     (au)      (au)      (au)
-----------------------------------------------------------------------------
   0   17219.5    580.7   1.014658161  19.39881   3.72776  -0.59401   2.26930
   1   18147.8    551.0   1.620371142  29.39453   1.19418   4.93756   1.89447
   2   21658.2    461.7   0.013052734   0.19841   0.11152   0.40852   0.13813
   3   23969.2    417.2   0.186913716   2.56722  -0.84113   1.29138  -0.43824
   4   24649.1    405.7   0.082009785   1.09532   0.27488   0.15420   0.99799
   5   26381.2    379.1   0.006962324   0.08688  -0.08305   0.28265  -0.00972
   6   27895.5    358.5   0.358653794   4.23269  -0.24423   0.18147  -2.03473
   7   28057.8    356.4   0.025737590   0.30199  -0.10543  -0.10954   0.52808
   8   28779.1    347.5   0.000362245   0.00414  -0.00356   0.00929   0.06360
   9   29460.9    339.4   0.124534999   1.39162  -0.30340   0.89707  -0.70345
  10   29950.4    333.9   0.008369194   0.09199   0.06124   0.06428   0.29002
  11   30212.3    331.0   0.031551128   0.34380   0.32995   0.36636   0.31735
  12   30688.7    325.9   0.019089018   0.20478  -0.08058   0.43487  -0.09577
  13   31184.0    320.7   0.238043519   2.51304   0.31819   0.53477   1.45802
  14   31390.2    318.6   0.150287176   1.57617   0.31442   0.53945  -1.08918
  15   31996.7    312.5   0.000174012   0.00179   0.01030  -0.03023  -0.02776
  16   32088.4    311.6   0.376951725   3.86734   0.07999  -0.65463   1.85268
  17   32926.6    303.7   0.096420274   0.96404  -0.43534  -0.34178   0.81099
  18   33407.3    299.3   0.435337837   4.29003   0.05173  -0.23564   2.05714
  19   34718.7    288.0   0.406906189   3.85839  -1.16838   1.48650   0.53254
  20   34871.3    286.8   0.000948513   0.00895   0.05171  -0.07554   0.02396
  21   35364.5    282.8   0.020926511   0.19481  -0.09227   0.28839  -0.32113
  22   35579.7    281.1   0.184544334   1.70755   0.56282   0.57868  -1.02758
  23   35853.4    278.9   0.011428538   0.10494  -0.01197   0.27034   0.17808
  24   36626.5    273.0   0.050992097   0.45833   0.02254  -0.21634  -0.64111
  25   37429.1    267.2   0.084666314   0.74469  -0.08870   0.20937  -0.83246
  26   37657.1    265.6   0.055986571   0.48945   0.46609   0.20482   0.47986
  27   38029.3    263.0   0.067137447   0.58120   0.17068   0.64113  -0.37552
  28   38724.1    258.2   0.003375259   0.02869  -0.16431   0.04119  -0.00026
  29   38805.4    257.7   0.245706353   2.08449   1.08263   0.95470   0.03107
  30   39013.6    256.3   0.013555745   0.11439  -0.08265  -0.26086   0.19877
  31   39442.5    253.5   0.017784820   0.14844  -0.15212  -0.33070   0.12626
  32   39742.4    251.6   0.005462667   0.04525   0.16096   0.13497  -0.03357

FINAL SINGLE POINT ENERGY     -6243.787062264997

DIPOLE MOMENT
-------------
                                X             Y             Z
Electronic contribution:   -117.43380      -9.14512    -144.57120
Nuclear contribution   :    119.85362       8.96303     143.90772
                        -----------------------------------------
Total Dipole Moment    :      2.41982      -0.18209      -0.66348
                        -----------------------------------------
Magnitude (a.u.)       :      2.51573
Magnitude (Debye)      :      6.39447

Rotational constants in cm-1:     0.000920     0.000292     0.000239
Rotational constants in MHz :    27.583139     8.756271     7.175901

                             ****ORCA TERMINATED NORMALLY****
TOTAL RUN TIME: 0 days 0 hours 7 minutes 23 seconds 740 msec
