                         Program Version 4.2.0 -  RELEASE  -
|  1> # ORCA input file
|  2> # SCF done       -188.382544701570          0.000447264469
|  3> ! CAM-B3LYP def2-SVP def2/J RIJCOSX Grid4 TightSCF
|  4> %maxcore 5000
|  5> %tddft
|  6>     Mode sTDDFT
|  7>     Ethresh 5.0
|  8>     maxcore 5000
|  9> end
| 10>
| 11> %pal
| 12>   nprocs 6
| 13>   end
| 14> * xyz 0 1
| 15>    C       14.75216       -15.26181        -5.33508
| 16>    C       13.54235       -15.05451        -5.86988
| 17>    C       13.10640       -15.36338        -7.20322
| 18>    C       11.82248       -15.03846        -7.46186
| 19>    C       11.13157       -14.44852        -6.36350
| 20>    S       12.19937       -14.32456        -4.97525
| 21>    C        9.83188       -14.01908        -6.32780
| 22>    C        8.86656       -14.06554        -7.37143
| 23>    C        7.65963       -13.55689        -7.03398
| 24>    C        7.57202       -13.07321        -5.69152
| 25>    S        9.13247       -13.28839        -4.89178
| 26>    C        6.45557       -12.59590        -5.08965
| 27>    C        6.39417       -12.08584        -3.73807
| 28>    C        7.39187       -11.29026        -3.25263
| 29>    S        7.13421       -10.69933        -1.66305
| 30>    C        5.62950       -11.56081        -1.59178
| 31>    C        5.34110       -12.27502        -2.76382
| 32>    C        4.18760       -13.09500        -2.79050
| 33>    C        3.93988       -13.94373        -4.01106
| 34>    C        3.04419       -13.23016        -5.02747
| 35>    C        3.31738       -13.12674        -1.70797
| 36>    C        2.08512       -13.99531        -1.74909
| 37>    C        2.28530       -15.28619        -0.95324
| 38>    C        3.60153       -12.38139        -0.53523
| 39>    C        2.92833       -12.30675         0.74591
| 40>    C        3.61392       -11.52464         1.63263
| 41>    S        5.05052       -10.82225         1.01799
| 42>    C        4.77954       -11.61796        -0.50084
| 43>    C        1.70100       -12.94260         1.17237
| 44>    C        1.53572       -13.43982         2.41630
| 45>    C        0.35377       -14.05098         2.90700
| 46>    S        0.37454       -14.85410         4.45550
| 47>    C       -1.29658       -15.35750         4.38012
| 48>    C       -1.85060       -14.90133         3.18095
| 49>    C       -0.92265       -14.18117         2.37217
| 50>    N       -1.60460       -13.81093         1.25788
| 51>    N       -2.87729       -14.23392         1.30386
| 52>    C       -3.05030       -14.88505         2.42518
| 53>    C       -1.83674       -16.10437         5.44096
| 54>    C       -3.13143       -16.51198         5.54346
| 55>    C       -3.61866       -17.27447         6.63031
| 56>    O       -2.74753       -17.68568         7.61487
| 57>    C       -3.49170       -18.37820         8.49334
| 58>    C       -3.40221       -19.09269         9.69009
| 59>    C       -2.20794       -19.39179        10.50821
| 60>    O       -2.20553       -20.17223        11.43631
| 61>    N       -1.10351       -18.72095        10.10835
| 62>    C       -4.72708       -19.51833         9.93898
| 63>    O       -5.57556       -19.09198         8.96044
| 64>    C       -4.83697       -18.41177         8.08612
| 65>    C       -4.91868       -17.70338         6.88516
| 66>    C       -5.15743       -20.22247        11.07851
| 67>    C       -6.36668       -20.81244        11.31898
| 68>    C       -6.72844       -21.43276        12.57925
| 69>    C       -6.13867       -21.19454        13.79330
| 70>    C       -6.53073       -21.82460        14.99189
| 71>    N       -6.80623       -22.31694        15.99197
| 72>    C       -5.13608       -20.22808        14.02931
| 73>    N       -4.37858       -19.41794        14.32481
| 74>    C       -7.91252       -22.25131        12.35185
| 75>    C       -8.35268       -22.04359        11.02260
| 76>    C       -7.43189       -21.11456        10.32838
| 77>    O       -7.53019       -20.74765         9.17998
| 78>    C       -9.47152       -22.65323        10.51026
| 79>    C      -10.18745       -23.51424        11.34841
| 80>    C       -9.73249       -23.72538        12.67152
| 81>    C       -8.60333       -23.10522        13.19150
| 82>    S      -10.75869       -24.83438        13.53057
| 83>    C      -11.77286       -24.99286        12.12088
| 84>    C      -11.36603       -24.25609        11.06062
| 85>   Br      -13.27329       -26.11652        12.18216
| 86>    H       15.53977       -15.70945        -5.91511
| 87>    H       14.97555       -14.99073        -4.31962
| 88>    H       13.78128       -15.81665        -7.90765
| 89>    H       11.33435       -15.19936        -8.40692
| 90>    H        9.10063       -14.48116        -8.33535
| 91>    H        6.80956       -13.51161        -7.69235
| 92>    H        5.55818       -12.55327        -5.68835
| 93>    H        8.26726       -10.96828        -3.78123
| 94>    H        4.90089       -14.17817        -4.47028
| 95>    H        3.48758       -14.89476        -3.73024
| 96>    H        3.44571       -12.24993        -5.27507
| 97>    H        2.04410       -13.07943        -4.62740
| 98>    H        2.96394       -13.81746        -5.93988
| 99>    H        1.82766       -14.25108        -2.77356
|100>    H        1.23763       -13.43702        -1.35501
|101>    H        3.10899       -15.85976        -1.37229
|102>    H        1.38530       -15.89657        -0.98803
|103>    H        2.51693       -15.07030         0.08656
|104>    H        3.31222       -11.28593         2.63388
|105>    H        0.88720       -13.00944         0.46951
|106>    H        2.36939       -13.42991         3.10518
|107>    H       -1.29905       -13.25679         0.47672
|108>    H       -4.00510       -15.31230         2.65271
|109>    H       -1.15114       -16.36316         6.23659
|110>    H       -3.85294       -16.25589         4.78516
|111>    H       -1.11648       -18.08323         9.33282
|112>    H       -0.24593       -18.86562        10.61399
|113>    H       -5.77676       -17.51709         6.27512
|114>    H       -4.37816       -20.31087        11.82718
|115>    H       -9.78576       -22.47025         9.49468
|116>    H       -8.29316       -23.29996        14.20451
|117>    H      -11.87380       -24.23495        10.11372
|118> *
|119>
|120>                          ****END OF INPUT****

CARTESIAN COORDINATES (ANGSTROEM)
---------------------------------
  C     14.752160  -15.261810   -5.335080
  C     13.542350  -15.054510   -5.869880
  C     13.106400  -15.363380   -7.203220
  C     11.822480  -15.038460   -7.461860
  C     11.131570  -14.448520   -6.363500
  S     12.199370  -14.324560   -4.975250
  C      9.831880  -14.019080   -6.327800
  C      8.866560  -14.065540   -7.371430
  C      7.659630  -13.556890   -7.033980
  C      7.572020  -13.073210   -5.691520
  S      9.132470  -13.288390   -4.891780
  C      6.455570  -12.595900   -5.089650
  C      6.394170  -12.085840   -3.738070
  C      7.391870  -11.290260   -3.252630
  S      7.134210  -10.699330   -1.663050
  C      5.629500  -11.560810   -1.591780
  C      5.341100  -12.275020   -2.763820
  C      4.187600  -13.095000   -2.790500
  C      3.939880  -13.943730   -4.011060
  C      3.044190  -13.230160   -5.027470
  C      3.317380  -13.126740   -1.707970
  C      2.085120  -13.995310   -1.749090
  C      2.285300  -15.286190   -0.953240
  C      3.601530  -12.381390   -0.535230
  C      2.928330  -12.306750    0.745910
  C      3.613920  -11.524640    1.632630
  S      5.050520  -10.822250    1.017990
  C      4.779540  -11.617960   -0.500840
  C      1.701000  -12.942600    1.172370
  C      1.535720  -13.439820    2.416300
  C      0.353770  -14.050980    2.907000
  S      0.374540  -14.854100    4.455500
  C     -1.296580  -15.357500    4.380120
  C     -1.850600  -14.901330    3.180950
  C     -0.922650  -14.181170    2.372170
  N     -1.604600  -13.810930    1.257880
  N     -2.877290  -14.233920    1.303860
  C     -3.050300  -14.885050    2.425180
  C     -1.836740  -16.104370    5.440960
  C     -3.131430  -16.511980    5.543460
  C     -3.618660  -17.274470    6.630310
  O     -2.747530  -17.685680    7.614870
  C     -3.491700  -18.378200    8.493340
  C     -3.402210  -19.092690    9.690090
  C     -2.207940  -19.391790   10.508210
  O     -2.205530  -20.172230   11.436310
  N     -1.103510  -18.720950   10.108350
  C     -4.727080  -19.518330    9.938980
  O     -5.575560  -19.091980    8.960440
  C     -4.836970  -18.411770    8.086120
  C     -4.918680  -17.703380    6.885160
  C     -5.157430  -20.222470   11.078510
  C     -6.366680  -20.812440   11.318980
  C     -6.728440  -21.432760   12.579250
  C     -6.138670  -21.194540   13.793300
  C     -6.530730  -21.824600   14.991890
  N     -6.806230  -22.316940   15.991970
  C     -5.136080  -20.228080   14.029310
  N     -4.378580  -19.417940   14.324810
  C     -7.912520  -22.251310   12.351850
  C     -8.352680  -22.043590   11.022600
  C     -7.431890  -21.114560   10.328380
  O     -7.530190  -20.747650    9.179980
  C     -9.471520  -22.653230   10.510260
  C    -10.187450  -23.514240   11.348410
  C     -9.732490  -23.725380   12.671520
  C     -8.603330  -23.105220   13.191500
  S    -10.758690  -24.834380   13.530570
  C    -11.772860  -24.992860   12.120880
  C    -11.366030  -24.256090   11.060620
  Br   -13.273290  -26.116520   12.182160
  H     15.539770  -15.709450   -5.915110
  H     14.975550  -14.990730   -4.319620
  H     13.781280  -15.816650   -7.907650
  H     11.334350  -15.199360   -8.406920
  H      9.100630  -14.481160   -8.335350
  H      6.809560  -13.511610   -7.692350
  H      5.558180  -12.553270   -5.688350
  H      8.267260  -10.968280   -3.781230
  H      4.900890  -14.178170   -4.470280
  H      3.487580  -14.894760   -3.730240
  H      3.445710  -12.249930   -5.275070
  H      2.044100  -13.079430   -4.627400
  H      2.963940  -13.817460   -5.939880
  H      1.827660  -14.251080   -2.773560
  H      1.237630  -13.437020   -1.355010
  H      3.108990  -15.859760   -1.372290
  H      1.385300  -15.896570   -0.988030
  H      2.516930  -15.070300    0.086560
  H      3.312220  -11.285930    2.633880
  H      0.887200  -13.009440    0.469510
  H      2.369390  -13.429910    3.105180
  H     -1.299050  -13.256790    0.476720
  H     -4.005100  -15.312300    2.652710
  H     -1.151140  -16.363160    6.236590
  H     -3.852940  -16.255890    4.785160
  H     -1.116480  -18.083230    9.332820
  H     -0.245930  -18.865620   10.613990
  H     -5.776760  -17.517090    6.275120
  H     -4.378160  -20.310870   11.827180
  H     -9.785760  -22.470250    9.494680
  H     -8.293160  -23.299960   14.204510
  H    -11.873800  -24.234950   10.113720

 Total Charge           Charge          ....    0
 Multiplicity           Mult            ....    1
 Number of Electrons    NEL             ....  560
 Basis Dimension        Dim             .... 1196

ORBITAL ENERGIES
----------------

  NO   OCC          E(Eh)            E(eV)
   0   2.0000    -482.879700    -13139.8247
   1   2.0000     -88.973813     -2421.1005
   2   2.0000     -88.967821     -2420.9375
   3   2.0000     -88.953790     -2420.5557
   4   2.0000     -88.950876     -2420.4764
   5   2.0000     -88.937756     -2420.1194
   6   2.0000     -88.933886     -2420.0141
   7   2.0000     -62.557412     -1702.2737
   8   2.0000     -56.391352     -1534.4867
   9   2.0000     -56.388655     -1534.4133
  10   2.0000     -56.388619     -1534.4123
  11   2.0000     -19.316813      -525.6372
  12   2.0000     -19.307533      -525.3847
  13   2.0000     -19.201773      -522.5068
  14   2.0000     -19.185191      -522.0556
  15   2.0000     -14.491490      -394.3335
  16   2.0000     -14.446839      -393.1185
  17   2.0000     -14.435722      -392.8160
  18   2.0000     -14.404305      -391.9611
  19   2.0000     -14.399650      -391.8344
  20   2.0000     -10.385612      -282.6069
  21   2.0000     -10.360604      -281.9264
  22   2.0000     -10.355494      -281.7873
  23   2.0000     -10.353330      -281.7284
  24   2.0000     -10.351712      -281.6844
  25   2.0000     -10.348212      -281.5892
  26   2.0000     -10.345135      -281.5054
  27   2.0000     -10.330142      -281.0975
  28   2.0000     -10.328331      -281.0482
  29   2.0000     -10.324176      -280.9351
  30   2.0000     -10.319422      -280.8057
  31   2.0000     -10.317610      -280.7565
  32   2.0000     -10.317083      -280.7421
  33   2.0000     -10.309980      -280.5488
  34   2.0000     -10.307309      -280.4761
  35   2.0000     -10.306530      -280.4549
  36   2.0000     -10.305388      -280.4239
  37   2.0000     -10.304730      -280.4059
  38   2.0000     -10.304125      -280.3895
  39   2.0000     -10.304058      -280.3877
  40   2.0000     -10.303701      -280.3779
  41   2.0000     -10.302914      -280.3565
  42   2.0000     -10.302246      -280.3384
  43   2.0000     -10.299466      -280.2627
  44   2.0000     -10.298983      -280.2496
  45   2.0000     -10.298474      -280.2357
  46   2.0000     -10.298128      -280.2263
  47   2.0000     -10.297634      -280.2129
  48   2.0000     -10.296896      -280.1928
  49   2.0000     -10.296609      -280.1850
  50   2.0000     -10.296098      -280.1711
  51   2.0000     -10.293170      -280.0914
  52   2.0000     -10.292286      -280.0674
  53   2.0000     -10.291431      -280.0441
  54   2.0000     -10.289922      -280.0030
  55   2.0000     -10.289627      -279.9950
  56   2.0000     -10.289448      -279.9901
  57   2.0000     -10.289162      -279.9823
  58   2.0000     -10.287199      -279.9289
  59   2.0000     -10.286745      -279.9166
  60   2.0000     -10.285850      -279.8922
  61   2.0000     -10.282708      -279.8067
  62   2.0000     -10.282469      -279.8002
  63   2.0000     -10.282160      -279.7918
  64   2.0000     -10.281996      -279.7873
  65   2.0000     -10.281406      -279.7713
  66   2.0000     -10.278631      -279.6958
  67   2.0000     -10.278578      -279.6943
  68   2.0000     -10.276901      -279.6487
  69   2.0000     -10.275538      -279.6116
  70   2.0000     -10.270146      -279.4649
  71   2.0000     -10.266040      -279.3532
  72   2.0000     -10.265501      -279.3385
  73   2.0000     -10.261609      -279.2326
  74   2.0000     -10.257278      -279.1147
  75   2.0000      -8.786836      -239.1020
  76   2.0000      -8.068830      -219.5640
  77   2.0000      -8.063820      -219.4277
  78   2.0000      -8.050096      -219.0542
  79   2.0000      -8.047126      -218.9734
  80   2.0000      -8.033740      -218.6092
  81   2.0000      -8.030562      -218.5227
  82   2.0000      -6.623087      -180.2234
  83   2.0000      -6.608582      -179.8287
  84   2.0000      -6.608414      -179.8241
  85   2.0000      -6.038026      -164.3030
  86   2.0000      -6.033945      -164.1920
  87   2.0000      -6.033518      -164.1804
  88   2.0000      -6.031200      -164.1173
  89   2.0000      -6.029247      -164.0642
  90   2.0000      -6.025033      -163.9495
  91   2.0000      -6.019553      -163.8004
  92   2.0000      -6.016635      -163.7210
  93   2.0000      -6.015364      -163.6864
  94   2.0000      -6.012375      -163.6051
  95   2.0000      -6.011799      -163.5894
  96   2.0000      -6.008800      -163.5078
  97   2.0000      -6.003603      -163.3663
  98   2.0000      -6.000436      -163.2802
  99   2.0000      -5.999619      -163.2579
 100   2.0000      -5.996501      -163.1731
 101   2.0000      -5.994349      -163.1145
 102   2.0000      -5.991019      -163.0239
 103   2.0000      -2.739002       -74.5320
 104   2.0000      -2.734887       -74.4201
 105   2.0000      -2.734744       -74.4162
 106   2.0000      -2.723237       -74.1031
 107   2.0000      -2.723212       -74.1024
 108   2.0000      -1.237674       -33.6788
 109   2.0000      -1.219437       -33.1826
 110   2.0000      -1.152084       -31.3498
 111   2.0000      -1.125808       -30.6348
 112   2.0000      -1.118083       -30.4246
 113   2.0000      -1.013333       -27.5742
 114   2.0000      -1.003536       -27.3076
 115   2.0000      -1.001999       -27.2658
 116   2.0000      -0.996173       -27.1073
 117   2.0000      -0.994980       -27.0748
 118   2.0000      -0.987891       -26.8819
 119   2.0000      -0.981047       -26.6956
 120   2.0000      -0.978098       -26.6154
 121   2.0000      -0.973632       -26.4939
 122   2.0000      -0.963202       -26.2101
 123   2.0000      -0.939495       -25.5650
 124   2.0000      -0.935958       -25.4687
 125   2.0000      -0.927804       -25.2468
 126   2.0000      -0.927288       -25.2328
 127   2.0000      -0.922150       -25.0930
 128   2.0000      -0.912947       -24.8425
 129   2.0000      -0.906065       -24.6553
 130   2.0000      -0.898899       -24.4603
 131   2.0000      -0.892076       -24.2746
 132   2.0000      -0.885663       -24.1001
 133   2.0000      -0.876759       -23.8578
 134   2.0000      -0.869621       -23.6636
 135   2.0000      -0.867547       -23.6072
 136   2.0000      -0.863030       -23.4843
 137   2.0000      -0.856860       -23.3163
 138   2.0000      -0.852926       -23.2093
 139   2.0000      -0.843264       -22.9464
 140   2.0000      -0.841272       -22.8922
 141   2.0000      -0.825937       -22.4749
 142   2.0000      -0.821510       -22.3544
 143   2.0000      -0.819737       -22.3062
 144   2.0000      -0.813778       -22.1440
 145   2.0000      -0.801562       -21.8116
 146   2.0000      -0.791548       -21.5391
 147   2.0000      -0.783906       -21.3312
 148   2.0000      -0.767426       -20.8827
 149   2.0000      -0.761297       -20.7159
 150   2.0000      -0.748781       -20.3754
 151   2.0000      -0.747274       -20.3344
 152   2.0000      -0.735500       -20.0140
 153   2.0000      -0.726956       -19.7815
 154   2.0000      -0.724004       -19.7012
 155   2.0000      -0.720533       -19.6067
 156   2.0000      -0.713595       -19.4179
 157   2.0000      -0.710727       -19.3399
 158   2.0000      -0.703758       -19.1502
 159   2.0000      -0.701906       -19.0998
 160   2.0000      -0.694127       -18.8881
 161   2.0000      -0.690344       -18.7852
 162   2.0000      -0.682718       -18.5777
 163   2.0000      -0.679039       -18.4776
 164   2.0000      -0.675702       -18.3868
 165   2.0000      -0.670606       -18.2481
 166   2.0000      -0.653124       -17.7724
 167   2.0000      -0.650535       -17.7020
 168   2.0000      -0.647592       -17.6219
 169   2.0000      -0.643854       -17.5202
 170   2.0000      -0.636066       -17.3082
 171   2.0000      -0.630818       -17.1654
 172   2.0000      -0.629180       -17.1209
 173   2.0000      -0.619812       -16.8659
 174   2.0000      -0.618086       -16.8190
 175   2.0000      -0.613475       -16.6935
 176   2.0000      -0.610496       -16.6124
 177   2.0000      -0.603288       -16.4163
 178   2.0000      -0.599790       -16.3211
 179   2.0000      -0.597292       -16.2531
 180   2.0000      -0.595473       -16.2036
 181   2.0000      -0.591466       -16.0946
 182   2.0000      -0.588585       -16.0162
 183   2.0000      -0.583187       -15.8693
 184   2.0000      -0.580118       -15.7858
 185   2.0000      -0.569374       -15.4935
 186   2.0000      -0.566030       -15.4025
 187   2.0000      -0.558848       -15.2070
 188   2.0000      -0.553676       -15.0663
 189   2.0000      -0.552050       -15.0221
 190   2.0000      -0.547440       -14.8966
 191   2.0000      -0.545270       -14.8376
 192   2.0000      -0.544547       -14.8179
 193   2.0000      -0.542290       -14.7565
 194   2.0000      -0.538509       -14.6536
 195   2.0000      -0.536987       -14.6122
 196   2.0000      -0.531938       -14.4748
 197   2.0000      -0.529841       -14.4177
 198   2.0000      -0.527746       -14.3607
 199   2.0000      -0.521881       -14.2011
 200   2.0000      -0.517936       -14.0937
 201   2.0000      -0.515305       -14.0222
 202   2.0000      -0.514621       -14.0035
 203   2.0000      -0.511947       -13.9308
 204   2.0000      -0.510890       -13.9020
 205   2.0000      -0.508392       -13.8340
 206   2.0000      -0.506285       -13.7767
 207   2.0000      -0.503550       -13.7023
 208   2.0000      -0.499103       -13.5813
 209   2.0000      -0.498503       -13.5650
 210   2.0000      -0.496402       -13.5078
 211   2.0000      -0.494574       -13.4580
 212   2.0000      -0.492689       -13.4068
 213   2.0000      -0.490285       -13.3413
 214   2.0000      -0.487904       -13.2765
 215   2.0000      -0.487426       -13.2635
 216   2.0000      -0.484278       -13.1779
 217   2.0000      -0.483687       -13.1618
 218   2.0000      -0.481043       -13.0898
 219   2.0000      -0.479571       -13.0498
 220   2.0000      -0.475761       -12.9461
 221   2.0000      -0.474585       -12.9141
 222   2.0000      -0.473269       -12.8783
 223   2.0000      -0.465537       -12.6679
 224   2.0000      -0.464187       -12.6312
 225   2.0000      -0.462000       -12.5717
 226   2.0000      -0.457414       -12.4469
 227   2.0000      -0.454892       -12.3782
 228   2.0000      -0.452956       -12.3256
 229   2.0000      -0.452029       -12.3003
 230   2.0000      -0.450150       -12.2492
 231   2.0000      -0.448335       -12.1998
 232   2.0000      -0.446061       -12.1379
 233   2.0000      -0.444144       -12.0858
 234   2.0000      -0.440906       -11.9977
 235   2.0000      -0.437642       -11.9089
 236   2.0000      -0.437227       -11.8976
 237   2.0000      -0.436720       -11.8837
 238   2.0000      -0.434217       -11.8156
 239   2.0000      -0.431831       -11.7507
 240   2.0000      -0.428275       -11.6540
 241   2.0000      -0.427702       -11.6384
 242   2.0000      -0.425946       -11.5906
 243   2.0000      -0.421369       -11.4660
 244   2.0000      -0.420233       -11.4351
 245   2.0000      -0.416556       -11.3351
 246   2.0000      -0.415377       -11.3030
 247   2.0000      -0.411514       -11.1979
 248   2.0000      -0.410299       -11.1648
 249   2.0000      -0.409802       -11.1513
 250   2.0000      -0.400107       -10.8875
 251   2.0000      -0.396280       -10.7833
 252   2.0000      -0.393384       -10.7045
 253   2.0000      -0.389649       -10.6029
 254   2.0000      -0.384680       -10.4677
 255   2.0000      -0.383334       -10.4311
 256   2.0000      -0.377092       -10.2612
 257   2.0000      -0.375952       -10.2302
 258   2.0000      -0.373152       -10.1540
 259   2.0000      -0.369140       -10.0448
 260   2.0000      -0.366131        -9.9629
 261   2.0000      -0.358363        -9.7516
 262   2.0000      -0.354792        -9.6544
 263   2.0000      -0.348919        -9.4946
 264   2.0000      -0.345847        -9.4110
 265   2.0000      -0.340744        -9.2721
 266   2.0000      -0.334643        -9.1061
 267   2.0000      -0.332747        -9.0545
 268   2.0000      -0.326261        -8.8780
 269   2.0000      -0.325183        -8.8487
 270   2.0000      -0.322936        -8.7875
 271   2.0000      -0.319563        -8.6958
 272   2.0000      -0.307445        -8.3660
 273   2.0000      -0.306382        -8.3371
 274   2.0000      -0.287929        -7.8350
 275   2.0000      -0.282560        -7.6888
 276   2.0000      -0.271358        -7.3840
 277   2.0000      -0.266417        -7.2496
 278   2.0000      -0.230709        -6.2779
 279   2.0000      -0.219964        -5.9855
 280   0.0000      -0.095581        -2.6009
 281   0.0000      -0.063393        -1.7250
 282   0.0000      -0.054848        -1.4925
 283   0.0000      -0.046726        -1.2715
 284   0.0000      -0.010667        -0.2903

MULLIKEN ATOMIC CHARGES
-----------------------
   0 C :   -0.029540
   1 C :   -0.064517
   2 C :    0.051531
   3 C :    0.031122
   4 C :   -0.070700
   5 S :    0.074277
   6 C :   -0.058084
   7 C :    0.037327
   8 C :    0.029745
   9 C :   -0.034885
  10 S :    0.075027
  11 C :   -0.048503
  12 C :    0.046670
  13 C :   -0.115938
  14 S :    0.130857
  15 C :   -0.143559
  16 C :    0.112340
  17 C :   -0.120303
  18 C :    0.013533
  19 C :    0.040112
  20 C :   -0.118140
  21 C :    0.042806
  22 C :    0.033456
  23 C :    0.116788
  24 C :    0.061002
  25 C :   -0.119682
  26 S :    0.132363
  27 C :   -0.150109
  28 C :   -0.033942
  29 C :    0.064288
  30 C :   -0.198606
  31 S :    0.154929
  32 C :   -0.130642
  33 C :    0.023477
  34 C :    0.149865
  35 N :   -0.050292
  36 N :   -0.054206
  37 C :   -0.019110
  38 C :    0.075880
  39 C :   -0.032128
  40 C :    0.194875
  41 O :   -0.234649
  42 C :    0.100467
  43 C :   -0.048626
  44 C :    0.082043
  45 O :   -0.195551
  46 N :   -0.083022
  47 C :    0.087978
  48 O :   -0.143094
  49 C :    0.239849
  50 C :   -0.146473
  51 C :   -0.072195
  52 C :   -0.056887
  53 C :    0.286239
  54 C :   -0.328950
  55 C :   -0.187428
  56 N :    0.145550
  57 C :   -0.207895
  58 N :    0.163860
  59 C :    0.019954
  60 C :   -0.023179
  61 C :    0.133300
  62 O :   -0.133700
  63 C :   -0.074199
  64 C :    0.116412
  65 C :   -0.089359
  66 C :   -0.020646
  67 S :    0.181751
  68 C :   -0.123437
  69 C :    0.038256
  70 Br:    0.018010
  71 H :    0.018117
  72 H :    0.020097
  73 H :   -0.012876
  74 H :   -0.014125
  75 H :   -0.016772
  76 H :   -0.014270
  77 H :   -0.009892
  78 H :    0.030859
  79 H :    0.017019
  80 H :    0.002916
  81 H :    0.017078
  82 H :    0.005774
  83 H :    0.015553
  84 H :   -0.004115
  85 H :   -0.015770
  86 H :    0.010110
  87 H :    0.012826
  88 H :    0.025547
  89 H :    0.019099
  90 H :   -0.040597
  91 H :   -0.020575
  92 H :    0.140623
  93 H :    0.001640
  94 H :   -0.014077
  95 H :   -0.015639
  96 H :    0.123782
  97 H :    0.136803
  98 H :    0.003957
  99 H :    0.060377
 100 H :   -0.014362
 101 H :   -0.007049
 102 H :   -0.005817
Sum of atomic charges:    0.0000000

LOEWDIN ATOMIC CHARGES
----------------------
   0 C :   -0.080028
   1 C :   -0.138953
   2 C :   -0.032844
   3 C :   -0.026797
   4 C :   -0.179576
   5 S :    0.345661
   6 C :   -0.182679
   7 C :   -0.030863
   8 C :   -0.034760
   9 C :   -0.141191
  10 S :    0.362617
  11 C :   -0.059610
  12 C :   -0.068908
  13 C :   -0.171420
  14 S :    0.417268
  15 C :   -0.178146
  16 C :   -0.040712
  17 C :   -0.019289
  18 C :   -0.032752
  19 C :   -0.051455
  20 C :   -0.022367
  21 C :   -0.030297
  22 C :   -0.050855
  23 C :   -0.042174
  24 C :   -0.064618
  25 C :   -0.170096
  26 S :    0.418379
  27 C :   -0.176651
  28 C :   -0.023511
  29 C :   -0.042902
  30 C :   -0.202293
  31 S :    0.465819
  32 C :   -0.178883
  33 C :   -0.085471
  34 C :   -0.020535
  35 N :    0.088844
  36 N :   -0.047811
  37 C :   -0.042295
  38 C :   -0.022073
  39 C :   -0.053203
  40 C :    0.067635
  41 O :   -0.009799
  42 C :   -0.006784
  43 C :   -0.081562
  44 C :    0.067667
  45 O :   -0.197954
  46 N :    0.003992
  47 C :    0.047368
  48 O :    0.051323
  49 C :    0.028423
  50 C :   -0.072596
  51 C :    0.048867
  52 C :   -0.089053
  53 C :    0.072610
  54 C :   -0.137403
  55 C :   -0.017098
  56 N :   -0.058095
  57 C :   -0.027436
  58 N :   -0.045696
  59 C :   -0.019878
  60 C :   -0.049648
  61 C :    0.073674
  62 O :   -0.138605
  63 C :    0.018614
  64 C :   -0.034135
  65 C :   -0.144620
  66 C :   -0.011862
  67 S :    0.428795
  68 C :   -0.273246
  69 C :   -0.071062
  70 Br:    0.132558
  71 H :    0.027920
  72 H :    0.025721
  73 H :    0.032795
  74 H :    0.031379
  75 H :    0.030616
  76 H :    0.031924
  77 H :    0.032585
  78 H :    0.018980
  79 H :    0.031361
  80 H :    0.025892
  81 H :    0.021912
  82 H :    0.022424
  83 H :    0.024391
  84 H :    0.025469
  85 H :    0.017494
  86 H :    0.025432
  87 H :    0.023766
  88 H :    0.025472
  89 H :    0.022241
  90 H :    0.015777
  91 H :    0.029705
  92 H :    0.083690
  93 H :    0.020709
  94 H :    0.030141
  95 H :    0.038519
  96 H :    0.073869
  97 H :    0.086067
  98 H :    0.041465
  99 H :    0.057319
 100 H :    0.039126
 101 H :    0.040446
 102 H :    0.037827

  Mayer bond orders larger than 0.100000
B(  0-C ,  1-C ) :   1.8707 B(  0-C , 71-H ) :   0.9499 B(  0-C , 72-H ) :   0.9411
B(  1-C ,  2-C ) :   1.0767 B(  1-C ,  5-S ) :   1.0068 B(  2-C ,  3-C ) :   1.6718
B(  2-C , 73-H ) :   0.9921 B(  3-C ,  4-C ) :   1.1440 B(  3-C , 74-H ) :   0.9911
B(  4-C ,  5-S ) :   1.0388 B(  4-C ,  6-C ) :   1.5873 B(  6-C ,  7-C ) :   1.1486
B(  6-C , 10-S ) :   1.0267 B(  7-C ,  8-C ) :   1.6439 B(  7-C , 75-H ) :   0.9919
B(  8-C ,  9-C ) :   1.0985 B(  8-C , 76-H ) :   0.9969 B(  9-C , 10-S ) :   1.0206
B(  9-C , 11-C ) :   1.7108 B( 11-C , 12-C ) :   0.9988 B( 11-C , 77-H ) :   0.9515
B( 12-C , 13-C ) :   1.6088 B( 12-C , 16-C ) :   1.1573 B( 13-C , 14-S ) :   1.1188
B( 13-C , 78-H ) :   0.9566 B( 14-S , 15-C ) :   1.0793 B( 15-C , 16-C ) :   1.3739
B( 15-C , 27-C ) :   1.3766 B( 16-C , 17-C ) :   1.2624 B( 17-C , 18-C ) :   1.0596
B( 17-C , 20-C ) :   1.5209 B( 18-C , 19-C ) :   1.1090 B( 18-C , 79-H ) :   0.9178
B( 18-C , 80-H ) :   0.9132 B( 19-C , 81-H ) :   0.9567 B( 19-C , 82-H ) :   0.9585
B( 19-C , 83-H ) :   0.9672 B( 20-C , 21-C ) :   1.0638 B( 20-C , 23-C ) :   1.2516
B( 21-C , 22-C ) :   1.1060 B( 21-C , 84-H ) :   0.9079 B( 21-C , 85-H ) :   0.9254
B( 22-C , 86-H ) :   0.9568 B( 22-C , 87-H ) :   0.9660 B( 22-C , 88-H ) :   0.9645
B( 23-C , 24-C ) :   1.1424 B( 23-C , 27-C ) :   1.3748 B( 24-C , 25-C ) :   1.6047
B( 24-C , 28-C ) :   1.0349 B( 25-C , 26-S ) :   1.1179 B( 25-C , 89-H ) :   0.9632
B( 26-S , 27-C ) :   1.0798 B( 28-C , 29-C ) :   1.7313 B( 28-C , 90-H ) :   0.9561
B( 29-C , 30-C ) :   1.1347 B( 29-C , 91-H ) :   0.9482 B( 30-C , 31-S ) :   1.1212
B( 30-C , 32-C ) :   0.1128 B( 30-C , 34-C ) :   1.3678 B( 31-S , 32-C ) :   1.1351
B( 32-C , 33-C ) :   1.3048 B( 32-C , 38-C ) :   1.1843 B( 33-C , 34-C ) :   1.2683
B( 33-C , 37-C ) :   1.1586 B( 34-C , 35-N ) :   1.1432 B( 35-N , 36-N ) :   1.1379
B( 35-N , 92-H ) :   0.9471 B( 36-N , 37-C ) :   1.7341 B( 37-C , 93-H ) :   0.9967
B( 38-C , 39-C ) :   1.6078 B( 38-C , 94-H ) :   0.9581 B( 39-C , 40-C ) :   1.1994
B( 39-C , 95-H ) :   0.9573 B( 40-C , 41-O ) :   1.0945 B( 40-C , 50-C ) :   1.4036
B( 41-O , 42-C ) :   1.1059 B( 42-C , 43-C ) :   1.2571 B( 42-C , 49-C ) :   1.3262
B( 43-C , 44-C ) :   0.8858 B( 43-C , 47-C ) :   1.3544 B( 44-C , 45-O ) :   2.1259
B( 44-C , 46-N ) :   1.3069 B( 46-N , 96-H ) :   0.9397 B( 46-N , 97-H ) :   0.9324
B( 47-C , 48-O ) :   1.1319 B( 47-C , 51-C ) :   1.2633 B( 48-O , 49-C ) :   1.1847
B( 49-C , 50-C ) :   1.2069 B( 50-C , 98-H ) :   1.0342 B( 51-C , 52-C ) :   1.5216
B( 51-C , 99-H ) :   0.9120 B( 52-C , 53-C ) :   1.0684 B( 52-C , 61-C ) :   0.9323
B( 53-C , 54-C ) :   1.6411 B( 53-C , 59-C ) :   1.0038 B( 54-C , 55-C ) :   1.1411
B( 54-C , 57-C ) :   1.1341 B( 55-C , 56-N ) :   2.9731 B( 57-C , 58-N ) :   3.0096
B( 59-C , 60-C ) :   1.2762 B( 59-C , 66-C ) :   1.4106 B( 60-C , 61-C ) :   0.9347
B( 60-C , 63-C ) :   1.4286 B( 61-C , 62-O ) :   2.2722 B( 63-C , 64-C ) :   1.2470
B( 63-C ,100-H ) :   1.0159 B( 64-C , 65-C ) :   1.3079 B( 64-C , 69-C ) :   1.1617
B( 65-C , 66-C ) :   1.3281 B( 65-C , 67-S ) :   1.0825 B( 66-C ,101-H ) :   0.9808
B( 67-S , 68-C ) :   1.0852 B( 68-C , 69-C ) :   1.6214 B( 68-C , 70-Br) :   1.0154
B( 69-C ,102-H ) :   0.9998

-----------------------------------------------------------------------------
         ABSORPTION SPECTRUM VIA TRANSITION ELECTRIC DIPOLE MOMENTS
-----------------------------------------------------------------------------
State   Energy  Wavelength   fosc         T2         TX        TY        TZ
        (cm-1)    (nm)                  (au**2)     (au)      (au)      (au)
-----------------------------------------------------------------------------
   0   15847.6    631.0   2.312547814  48.03986   3.93352   3.37748  -4.59999
   1   20973.1    476.8   0.001854580   0.02911  -0.13140   0.02534   0.10584
   2   21712.0    460.6   1.184743058  17.96385   3.81554  -1.55059  -1.00059
   3   23278.0    429.6   0.115421720   1.63237  -0.68734  -1.01068   0.37208
   4   24641.5    405.8   0.071150810   0.95058  -0.30498  -0.31364   0.87132
   5   25946.8    385.4   0.147876202   1.87624   0.92799   0.80538  -0.60534
   6   26842.4    372.5   0.005668280   0.06952   0.15815   0.04059   0.20703
   7   27062.4    369.5   0.158326021   1.92602   1.00296   0.89559   0.34354
   8   27557.6    362.9   0.005636394   0.06733  -0.23161  -0.06251   0.09891
   9   29209.6    342.4   0.049756888   0.56079   0.64752   0.36962  -0.06997
  10   29510.9    338.9   0.009301403   0.10376   0.25507   0.08944   0.17522
  11   29633.0    337.5   0.004739514   0.05265  -0.21939  -0.02567   0.06217
  12   29842.1    335.1   0.009541582   0.10526  -0.27749  -0.14347  -0.08760
  13   30157.3    331.6   0.030561532   0.33363  -0.37671  -0.00269   0.43784
  14   31715.8    315.3   0.024624880   0.25561   0.33964   0.34091   0.15501
  15   31994.7    312.6   0.014172731   0.14583  -0.18522   0.06369   0.32782
  16   32275.0    309.8   0.229625408   2.34223   1.23191   0.26087   0.86981
  17   32405.1    308.6   0.011262562   0.11442   0.33106   0.05642   0.04044
  18   33042.1    302.6   0.020473409   0.20398   0.30934   0.05776   0.32397
  19   33231.6    300.9   0.500514699   4.95840   1.75940   1.14489   0.74306
  20   33839.1    295.5   0.191089705   1.85906   1.07775   0.68284   0.48088
  21   34398.1    290.7   0.048471010   0.46390   0.20829   0.09020   0.64217
  22   34925.7    286.3   0.020669125   0.19483  -0.42887  -0.08097   0.06591
  23   35209.1    284.0   0.004819604   0.04506   0.08891   0.04962   0.18627
  24   35684.1    280.2   0.040518447   0.37381   0.20183  -0.09372  -0.56947
  25   35790.4    279.4   0.195377596   1.79715  -1.14613  -0.36569  -0.59145
  26   36192.7    276.3   0.002372489   0.02158  -0.09098   0.10821  -0.03992
  27   36420.6    274.6   0.011392516   0.10298  -0.26390  -0.12921   0.12900
  28   36638.7    272.9   0.048122232   0.43240  -0.04090   0.27582  -0.59552
  29   36770.5    272.0   0.035577550   0.31853  -0.49171  -0.02967  -0.27544
  30   37064.6    269.8   0.020861003   0.18529  -0.24041   0.05052   0.35347
  31   37315.5    268.0   0.062526798   0.55164   0.50856  -0.12700   0.52619
  32   37720.3    265.1   0.012499957   0.10910   0.18993  -0.20693  -0.17379
  33   38071.6    262.7   0.038527939   0.33316   0.32650  -0.23120  -0.41606
  34   38122.8    262.3   0.003931510   0.03395   0.16359   0.03992  -0.07480
  35   38366.8    260.6   0.029373959   0.25205  -0.14016   0.13119  -0.46389
  36   38575.8    259.2   0.157398231   1.34326  -0.45561   0.10620   1.06038
  37   39253.9    254.8   0.155796599   1.30662  -0.24242  -0.29612   1.07711
  38   39619.2    252.4   0.067545362   0.56126   0.48098   0.20258  -0.53748
  39   39769.3    251.5   0.172379483   1.42697   1.05597   0.43372  -0.35182
  40   40073.9    249.5   0.097523414   0.80117  -0.35915   0.21879  -0.79013

FINAL SINGLE POINT ENERGY     -7648.638847533836

DIPOLE MOMENT
-------------
                                X             Y             Z
Electronic contribution:   -197.05539    -128.94348     184.75476
Nuclear contribution   :    198.19491     130.09354    -190.05116
                        -----------------------------------------
Total Dipole Moment    :      1.13952       1.15006      -5.29639
                        -----------------------------------------
Magnitude (a.u.)       :      5.53832
Magnitude (Debye)      :     14.07728

Rotational constants in cm-1:     0.001731     0.000122     0.000121
Rotational constants in MHz :    51.888059     3.649990     3.637067

                             ****ORCA TERMINATED NORMALLY****
TOTAL RUN TIME: 0 days 0 hours 9 minutes 25 seconds 967 msec
