                         Program Version 4.2.0 -  RELEASE  -
|  1> # ORCA input file
|  2> # SCF done       -145.600009773736          0.000379722194
|  3> ! CAM-B3LYP def2-SVP def2/J RIJCOSX Grid4 TightSCF
|  4> %maxcore 5000
|  5> %tddft
|  6>     Mode sTDDFT
|  7>     Ethresh 5.0
|  8>     maxcore 5000
|  9> end
| 10>
| 11> %pal
| 12>   nprocs 6
| 13>   end
| 14> * xyz 0 1
| 15>    C        1.01026        -2.61198         1.50637
| 16>    C        1.63611        -3.63706         2.09979
| 17>    C        1.96638        -3.78188         3.48944
| 18>    C        2.60494        -4.93243         3.79287
| 19>    C        2.81943        -5.79166         2.67715
| 20>    S        2.19533        -5.06184         1.22048
| 21>    C        3.42035        -7.02912         2.66497
| 22>    C        4.07588        -7.70997         3.71910
| 23>    C        4.61072        -8.90611         3.35246
| 24>    C        4.39497        -9.25028         1.99293
| 25>    S        3.47354        -7.99121         1.20084
| 26>    C        4.83854       -10.37103         1.33300
| 27>    C        4.54033       -10.61396        -0.01562
| 28>    O        3.70536        -9.75581        -0.66739
| 29>    C        4.93178       -11.59372        -0.91968
| 30>    C        5.73536       -12.79967        -1.08079
| 31>    O        6.42583       -13.41235        -0.30470
| 32>    N        5.53964       -13.14703        -2.42027
| 33>    C        4.70071       -12.29851        -3.13915
| 34>    O        4.41536       -12.42969        -4.30309
| 35>    C        4.30749       -11.29041        -2.15452
| 36>    C        3.54569       -10.14967        -1.96389
| 37>    C        2.68510        -9.41368        -2.80623
| 38>    C        1.92174        -8.39513        -2.31848
| 39>    C        1.03646        -7.59226        -3.05477
| 40>    S        0.91668        -7.66237        -4.77956
| 41>    C       -0.27528        -6.40657        -4.85678
| 42>    C       -0.59683        -5.95945        -3.56707
| 43>    C        0.14742        -6.62561        -2.54268
| 44>    C       -0.07329        -6.30499        -1.19933
| 45>    C       -1.00379        -5.34014        -0.86626
| 46>    C       -1.24207        -5.01627         0.53693
| 47>    O       -0.69503        -5.53701         1.48101
| 48>    C       -1.73195        -4.67399        -1.88459
| 49>    C       -1.53995        -4.97309        -3.19948
| 50>    C       -0.80731        -5.88368        -6.06932
| 51>    C       -0.55052        -6.26453        -7.33365
| 52>    C        0.35394        -7.39073        -7.70891
| 53>    C       -1.17494        -5.54752        -8.51033
| 54>    N       -1.95594        -4.38005        -8.20526
| 55>    C       -3.24476        -4.42662        -7.76239
| 56>    C       -4.02716        -5.52854        -7.68069
| 57>    C       -5.38865        -5.48116        -7.30515
| 58>    C       -6.20987        -6.56996        -7.26596
| 59>    C       -7.58660        -6.60338        -6.91930
| 60>    C       -8.16070        -7.82999        -7.00394
| 61>    C       -7.27633        -8.85826        -7.42286
| 62>    S       -5.67436        -8.19841        -7.69362
| 63>    C       -7.56053       -10.18564        -7.62108
| 64>    C       -8.81090       -10.84100        -7.45132
| 65>    C       -8.79483       -12.16206        -7.73580
| 66>    C       -7.51873       -12.66499        -8.15673
| 67>    S       -6.34653       -11.33775        -8.16062
| 68>    C       -7.20471       -13.92058        -8.50394
| 69>    H        0.68087        -1.76274         2.07879
| 70>    H        0.81182        -2.60705         0.44973
| 71>    H        1.70437        -3.01614         4.19791
| 72>    H        2.91978        -5.21231         4.78263
| 73>    H        4.15035        -7.29279         4.70758
| 74>    H        5.15599        -9.55957         4.01027
| 75>    H        5.44771       -11.09752         1.84615
| 76>    H        5.97627       -13.95620        -2.83741
| 77>    H        2.64345        -9.71536        -3.84204
| 78>    H        1.98858        -8.17773        -1.26114
| 79>    H        0.46687        -6.80370        -0.40985
| 80>    H       -1.99585        -4.21760         0.69254
| 81>    H       -2.45587        -3.92511        -1.59698
| 82>    H       -2.11502        -4.46907        -3.96124
| 83>    H       -1.50331        -5.06948        -5.91896
| 84>    H        0.34524        -7.55187        -8.78383
| 85>    H        0.04455        -8.31241        -7.21669
| 86>    H        1.37837        -7.18585        -7.39627
| 87>    H       -1.80950        -6.25304        -9.05783
| 88>    H       -0.37034        -5.24285        -9.19020
| 89>    H       -1.43276        -3.54483        -7.99692
| 90>    H       -3.65960        -3.45797        -7.51419
| 91>    H       -3.62841        -6.50540        -7.90953
| 92>    H       -5.81498        -4.52124        -7.04290
| 93>    H       -8.10532        -5.70784        -6.62303
| 94>    H       -9.19363        -8.03173        -6.78238
| 95>    H       -9.68318       -10.30299        -7.12334
| 96>    H       -9.64540       -12.81715        -7.66666
| 97>    H       -7.94950       -14.69655        -8.48775
| 98>    H       -6.21018       -14.19216        -8.80633
| 99> *
|100>
|101>                          ****END OF INPUT****

CARTESIAN COORDINATES (ANGSTROEM)
---------------------------------
  C      1.010260   -2.611980    1.506370
  C      1.636110   -3.637060    2.099790
  C      1.966380   -3.781880    3.489440
  C      2.604940   -4.932430    3.792870
  C      2.819430   -5.791660    2.677150
  S      2.195330   -5.061840    1.220480
  C      3.420350   -7.029120    2.664970
  C      4.075880   -7.709970    3.719100
  C      4.610720   -8.906110    3.352460
  C      4.394970   -9.250280    1.992930
  S      3.473540   -7.991210    1.200840
  C      4.838540  -10.371030    1.333000
  C      4.540330  -10.613960   -0.015620
  O      3.705360   -9.755810   -0.667390
  C      4.931780  -11.593720   -0.919680
  C      5.735360  -12.799670   -1.080790
  O      6.425830  -13.412350   -0.304700
  N      5.539640  -13.147030   -2.420270
  C      4.700710  -12.298510   -3.139150
  O      4.415360  -12.429690   -4.303090
  C      4.307490  -11.290410   -2.154520
  C      3.545690  -10.149670   -1.963890
  C      2.685100   -9.413680   -2.806230
  C      1.921740   -8.395130   -2.318480
  C      1.036460   -7.592260   -3.054770
  S      0.916680   -7.662370   -4.779560
  C     -0.275280   -6.406570   -4.856780
  C     -0.596830   -5.959450   -3.567070
  C      0.147420   -6.625610   -2.542680
  C     -0.073290   -6.304990   -1.199330
  C     -1.003790   -5.340140   -0.866260
  C     -1.242070   -5.016270    0.536930
  O     -0.695030   -5.537010    1.481010
  C     -1.731950   -4.673990   -1.884590
  C     -1.539950   -4.973090   -3.199480
  C     -0.807310   -5.883680   -6.069320
  C     -0.550520   -6.264530   -7.333650
  C      0.353940   -7.390730   -7.708910
  C     -1.174940   -5.547520   -8.510330
  N     -1.955940   -4.380050   -8.205260
  C     -3.244760   -4.426620   -7.762390
  C     -4.027160   -5.528540   -7.680690
  C     -5.388650   -5.481160   -7.305150
  C     -6.209870   -6.569960   -7.265960
  C     -7.586600   -6.603380   -6.919300
  C     -8.160700   -7.829990   -7.003940
  C     -7.276330   -8.858260   -7.422860
  S     -5.674360   -8.198410   -7.693620
  C     -7.560530  -10.185640   -7.621080
  C     -8.810900  -10.841000   -7.451320
  C     -8.794830  -12.162060   -7.735800
  C     -7.518730  -12.664990   -8.156730
  S     -6.346530  -11.337750   -8.160620
  C     -7.204710  -13.920580   -8.503940
  H      0.680870   -1.762740    2.078790
  H      0.811820   -2.607050    0.449730
  H      1.704370   -3.016140    4.197910
  H      2.919780   -5.212310    4.782630
  H      4.150350   -7.292790    4.707580
  H      5.155990   -9.559570    4.010270
  H      5.447710  -11.097520    1.846150
  H      5.976270  -13.956200   -2.837410
  H      2.643450   -9.715360   -3.842040
  H      1.988580   -8.177730   -1.261140
  H      0.466870   -6.803700   -0.409850
  H     -1.995850   -4.217600    0.692540
  H     -2.455870   -3.925110   -1.596980
  H     -2.115020   -4.469070   -3.961240
  H     -1.503310   -5.069480   -5.918960
  H      0.345240   -7.551870   -8.783830
  H      0.044550   -8.312410   -7.216690
  H      1.378370   -7.185850   -7.396270
  H     -1.809500   -6.253040   -9.057830
  H     -0.370340   -5.242850   -9.190200
  H     -1.432760   -3.544830   -7.996920
  H     -3.659600   -3.457970   -7.514190
  H     -3.628410   -6.505400   -7.909530
  H     -5.814980   -4.521240   -7.042900
  H     -8.105320   -5.707840   -6.623030
  H     -9.193630   -8.031730   -6.782380
  H     -9.683180  -10.302990   -7.123340
  H     -9.645400  -12.817150   -7.666660
  H     -7.949500  -14.696550   -8.487750
  H     -6.210180  -14.192160   -8.806330

 Total Charge           Charge          ....    0
 Multiplicity           Mult            ....    1
 Number of Electrons    NEL             ....  414
 Basis Dimension        Dim             ....  926

ORBITAL ENERGIES
----------------

  NO   OCC          E(Eh)            E(eV)
   0   2.0000     -88.969711     -2420.9889
   1   2.0000     -88.944030     -2420.2901
   2   2.0000     -88.939853     -2420.1764
   3   2.0000     -88.922795     -2419.7123
   4   2.0000     -88.917744     -2419.5748
   5   2.0000     -19.295493      -525.0570
   6   2.0000     -19.202352      -522.5226
   7   2.0000     -19.193896      -522.2925
   8   2.0000     -19.192400      -522.2518
   9   2.0000     -14.437847      -392.8738
  10   2.0000     -14.437201      -392.8562
  11   2.0000     -10.383342      -282.5451
  12   2.0000     -10.382051      -282.5100
  13   2.0000     -10.348369      -281.5934
  14   2.0000     -10.346384      -281.5394
  15   2.0000     -10.345594      -281.5179
  16   2.0000     -10.316989      -280.7395
  17   2.0000     -10.314263      -280.6654
  18   2.0000     -10.313932      -280.6564
  19   2.0000     -10.313389      -280.6416
  20   2.0000     -10.309358      -280.5319
  21   2.0000     -10.307021      -280.4683
  22   2.0000     -10.304473      -280.3990
  23   2.0000     -10.302908      -280.3564
  24   2.0000     -10.291230      -280.0386
  25   2.0000     -10.289750      -279.9983
  26   2.0000     -10.289547      -279.9928
  27   2.0000     -10.288033      -279.9516
  28   2.0000     -10.287563      -279.9388
  29   2.0000     -10.287244      -279.9302
  30   2.0000     -10.287073      -279.9255
  31   2.0000     -10.285532      -279.8836
  32   2.0000     -10.285361      -279.8789
  33   2.0000     -10.284689      -279.8606
  34   2.0000     -10.283911      -279.8395
  35   2.0000     -10.282586      -279.8034
  36   2.0000     -10.282030      -279.7883
  37   2.0000     -10.281909      -279.7850
  38   2.0000     -10.279736      -279.7258
  39   2.0000     -10.279735      -279.7258
  40   2.0000     -10.278868      -279.7022
  41   2.0000     -10.276509      -279.6380
  42   2.0000     -10.275640      -279.6144
  43   2.0000     -10.275197      -279.6023
  44   2.0000     -10.273398      -279.5534
  45   2.0000     -10.272882      -279.5393
  46   2.0000     -10.272852      -279.5385
  47   2.0000     -10.271375      -279.4983
  48   2.0000     -10.269020      -279.4342
  49   2.0000     -10.268712      -279.4259
  50   2.0000     -10.267305      -279.3876
  51   2.0000     -10.263822      -279.2928
  52   2.0000     -10.253507      -279.0121
  53   2.0000     -10.248676      -278.8807
  54   2.0000      -8.064013      -219.4329
  55   2.0000      -8.039171      -218.7570
  56   2.0000      -8.036019      -218.6712
  57   2.0000      -8.018906      -218.2055
  58   2.0000      -8.014444      -218.0841
  59   2.0000      -6.032903      -164.1636
  60   2.0000      -6.028798      -164.0519
  61   2.0000      -6.027123      -164.0063
  62   2.0000      -6.009082      -163.5154
  63   2.0000      -6.005824      -163.4268
  64   2.0000      -6.004710      -163.3965
  65   2.0000      -6.001866      -163.3191
  66   2.0000      -6.000132      -163.2719
  67   2.0000      -5.996682      -163.1780
  68   2.0000      -5.988686      -162.9604
  69   2.0000      -5.984858      -162.8563
  70   2.0000      -5.984291      -162.8408
  71   2.0000      -5.980445      -162.7362
  72   2.0000      -5.979622      -162.7138
  73   2.0000      -5.974890      -162.5850
  74   2.0000      -1.213139       -33.0112
  75   2.0000      -1.137214       -30.9452
  76   2.0000      -1.116244       -30.3745
  77   2.0000      -1.113883       -30.3103
  78   2.0000      -1.036759       -28.2116
  79   2.0000      -1.024869       -27.8881
  80   2.0000      -0.999254       -27.1911
  81   2.0000      -0.993526       -27.0352
  82   2.0000      -0.971630       -26.4394
  83   2.0000      -0.971217       -26.4282
  84   2.0000      -0.948835       -25.8191
  85   2.0000      -0.938338       -25.5335
  86   2.0000      -0.924889       -25.1675
  87   2.0000      -0.911113       -24.7927
  88   2.0000      -0.906394       -24.6642
  89   2.0000      -0.891735       -24.2653
  90   2.0000      -0.883599       -24.0440
  91   2.0000      -0.873139       -23.7593
  92   2.0000      -0.857955       -23.3462
  93   2.0000      -0.851597       -23.1731
  94   2.0000      -0.845739       -23.0137
  95   2.0000      -0.842181       -22.9169
  96   2.0000      -0.829778       -22.5794
  97   2.0000      -0.825092       -22.4519
  98   2.0000      -0.821630       -22.3577
  99   2.0000      -0.817393       -22.2424
 100   2.0000      -0.810842       -22.0641
 101   2.0000      -0.798281       -21.7223
 102   2.0000      -0.789651       -21.4875
 103   2.0000      -0.785446       -21.3731
 104   2.0000      -0.765710       -20.8360
 105   2.0000      -0.752536       -20.4775
 106   2.0000      -0.751070       -20.4377
 107   2.0000      -0.746869       -20.3233
 108   2.0000      -0.739743       -20.1294
 109   2.0000      -0.723092       -19.6763
 110   2.0000      -0.705608       -19.2006
 111   2.0000      -0.702036       -19.1034
 112   2.0000      -0.686364       -18.6769
 113   2.0000      -0.683440       -18.5974
 114   2.0000      -0.678319       -18.4580
 115   2.0000      -0.668481       -18.1903
 116   2.0000      -0.658005       -17.9052
 117   2.0000      -0.645750       -17.5718
 118   2.0000      -0.642011       -17.4700
 119   2.0000      -0.639358       -17.3978
 120   2.0000      -0.633416       -17.2361
 121   2.0000      -0.624747       -17.0002
 122   2.0000      -0.618350       -16.8262
 123   2.0000      -0.614460       -16.7203
 124   2.0000      -0.611077       -16.6283
 125   2.0000      -0.602404       -16.3922
 126   2.0000      -0.599579       -16.3154
 127   2.0000      -0.591668       -16.1001
 128   2.0000      -0.589410       -16.0387
 129   2.0000      -0.582644       -15.8545
 130   2.0000      -0.578792       -15.7497
 131   2.0000      -0.575645       -15.6641
 132   2.0000      -0.574264       -15.6265
 133   2.0000      -0.570927       -15.5357
 134   2.0000      -0.566251       -15.4085
 135   2.0000      -0.559902       -15.2357
 136   2.0000      -0.550318       -14.9749
 137   2.0000      -0.544507       -14.8168
 138   2.0000      -0.540365       -14.7041
 139   2.0000      -0.536672       -14.6036
 140   2.0000      -0.534277       -14.5384
 141   2.0000      -0.528751       -14.3880
 142   2.0000      -0.528407       -14.3787
 143   2.0000      -0.524035       -14.2597
 144   2.0000      -0.522910       -14.2291
 145   2.0000      -0.517884       -14.0923
 146   2.0000      -0.514555       -14.0018
 147   2.0000      -0.510796       -13.8995
 148   2.0000      -0.508582       -13.8392
 149   2.0000      -0.503954       -13.7133
 150   2.0000      -0.502159       -13.6644
 151   2.0000      -0.499514       -13.5925
 152   2.0000      -0.497114       -13.5272
 153   2.0000      -0.492377       -13.3983
 154   2.0000      -0.490808       -13.3556
 155   2.0000      -0.488607       -13.2957
 156   2.0000      -0.487438       -13.2639
 157   2.0000      -0.485942       -13.2232
 158   2.0000      -0.483326       -13.1520
 159   2.0000      -0.478499       -13.0206
 160   2.0000      -0.476707       -12.9718
 161   2.0000      -0.475451       -12.9377
 162   2.0000      -0.473545       -12.8858
 163   2.0000      -0.471683       -12.8352
 164   2.0000      -0.467268       -12.7150
 165   2.0000      -0.465174       -12.6580
 166   2.0000      -0.460392       -12.5279
 167   2.0000      -0.459732       -12.5099
 168   2.0000      -0.457894       -12.4599
 169   2.0000      -0.454250       -12.3608
 170   2.0000      -0.450779       -12.2663
 171   2.0000      -0.447164       -12.1680
 172   2.0000      -0.444677       -12.1003
 173   2.0000      -0.436190       -11.8693
 174   2.0000      -0.433499       -11.7961
 175   2.0000      -0.430888       -11.7250
 176   2.0000      -0.426104       -11.5949
 177   2.0000      -0.422538       -11.4978
 178   2.0000      -0.418698       -11.3933
 179   2.0000      -0.414116       -11.2687
 180   2.0000      -0.408431       -11.1140
 181   2.0000      -0.407868       -11.0987
 182   2.0000      -0.406594       -11.0640
 183   2.0000      -0.400346       -10.8940
 184   2.0000      -0.396661       -10.7937
 185   2.0000      -0.390105       -10.6153
 186   2.0000      -0.377117       -10.2619
 187   2.0000      -0.373861       -10.1733
 188   2.0000      -0.370196       -10.0735
 189   2.0000      -0.362899        -9.8750
 190   2.0000      -0.352743        -9.5986
 191   2.0000      -0.345672        -9.4062
 192   2.0000      -0.338653        -9.2152
 193   2.0000      -0.334841        -9.1115
 194   2.0000      -0.333228        -9.0676
 195   2.0000      -0.328775        -8.9464
 196   2.0000      -0.328564        -8.9407
 197   2.0000      -0.324741        -8.8366
 198   2.0000      -0.318884        -8.6773
 199   2.0000      -0.318322        -8.6620
 200   2.0000      -0.313398        -8.5280
 201   2.0000      -0.302912        -8.2427
 202   2.0000      -0.288040        -7.8380
 203   2.0000      -0.266473        -7.2511
 204   2.0000      -0.241712        -6.5773
 205   2.0000      -0.211167        -5.7462
 206   2.0000      -0.195424        -5.3178
 207   0.0000      -0.078250        -2.1293
 208   0.0000      -0.066726        -1.8157
 209   0.0000      -0.040360        -1.0982
 210   0.0000      -0.016168        -0.4400
 211   0.0000      -0.004621        -0.1257

MULLIKEN ATOMIC CHARGES
-----------------------
   0 C :   -0.024607
   1 C :   -0.055635
   2 C :    0.065896
   3 C :    0.028514
   4 C :   -0.045346
   5 S :    0.100188
   6 C :   -0.041140
   7 C :    0.036104
   8 C :    0.022348
   9 C :    0.004708
  10 S :    0.081441
  11 C :   -0.054962
  12 C :    0.103054
  13 O :   -0.253263
  14 C :   -0.036785
  15 C :    0.152208
  16 O :   -0.152895
  17 N :   -0.169472
  18 C :    0.153170
  19 O :   -0.151255
  20 C :   -0.031117
  21 C :    0.096599
  22 C :   -0.036684
  23 C :    0.001938
  24 C :   -0.070869
  25 S :    0.120641
  26 C :   -0.090136
  27 C :    0.108566
  28 C :    0.140329
  29 C :   -0.053137
  30 C :   -0.012738
  31 C :    0.154904
  32 O :   -0.185720
  33 C :    0.007405
  34 C :   -0.023162
  35 C :    0.029920
  36 C :   -0.249866
  37 C :    0.084860
  38 C :    0.190702
  39 N :   -0.158920
  40 C :    0.050364
  41 C :   -0.034457
  42 C :   -0.010663
  43 C :   -0.037200
  44 C :    0.042926
  45 C :    0.015125
  46 C :   -0.042123
  47 S :    0.044684
  48 C :   -0.074181
  49 C :    0.030514
  50 C :    0.042206
  51 C :   -0.057845
  52 S :    0.060613
  53 C :   -0.042491
  54 H :    0.020875
  55 H :    0.020560
  56 H :   -0.009756
  57 H :   -0.011106
  58 H :   -0.012593
  59 H :   -0.008252
  60 H :    0.004619
  61 H :    0.133152
  62 H :    0.007669
  63 H :    0.008396
  64 H :   -0.007788
  65 H :   -0.028430
  66 H :   -0.024519
  67 H :   -0.026371
  68 H :   -0.037036
  69 H :    0.015792
  70 H :    0.045364
  71 H :    0.041985
  72 H :    0.038749
  73 H :    0.025202
  74 H :    0.125421
  75 H :   -0.002508
  76 H :   -0.004803
  77 H :   -0.028565
  78 H :   -0.023756
  79 H :   -0.022420
  80 H :   -0.019154
  81 H :   -0.019584
  82 H :    0.011872
  83 H :    0.013728
Sum of atomic charges:   -0.0000000

LOEWDIN ATOMIC CHARGES
----------------------
   0 C :   -0.071261
   1 C :   -0.133669
   2 C :   -0.017111
   3 C :   -0.026142
   4 C :   -0.156660
   5 S :    0.395623
   6 C :   -0.194119
   7 C :   -0.019737
   8 C :   -0.042013
   9 C :   -0.123732
  10 S :    0.397327
  11 C :   -0.089979
  12 C :    0.070031
  13 O :   -0.004347
  14 C :   -0.108482
  15 C :    0.082022
  16 O :   -0.171278
  17 N :   -0.010606
  18 C :    0.082069
  19 O :   -0.170118
  20 C :   -0.097925
  21 C :    0.067160
  22 C :   -0.052453
  23 C :   -0.020589
  24 C :   -0.180328
  25 S :    0.504477
  26 C :   -0.165228
  27 C :   -0.042024
  28 C :   -0.041014
  29 C :    0.037494
  30 C :   -0.096955
  31 C :    0.100737
  32 O :   -0.143950
  33 C :   -0.019411
  34 C :   -0.015533
  35 C :   -0.068649
  36 C :   -0.035046
  37 C :   -0.062558
  38 C :    0.036395
  39 N :   -0.008323
  40 C :    0.032656
  41 C :   -0.121014
  42 C :   -0.042553
  43 C :   -0.169544
  44 C :   -0.031382
  45 C :   -0.048087
  46 C :   -0.173256
  47 S :    0.344426
  48 C :   -0.193431
  49 C :   -0.026300
  50 C :   -0.045245
  51 C :   -0.137254
  52 S :    0.335039
  53 C :   -0.096441
  54 H :    0.029171
  55 H :    0.025060
  56 H :    0.034711
  57 H :    0.033103
  58 H :    0.032050
  59 H :    0.034783
  60 H :    0.048013
  61 H :    0.091387
  62 H :    0.037596
  63 H :    0.032243
  64 H :    0.027153
  65 H :   -0.009389
  66 H :    0.027290
  67 H :    0.027924
  68 H :    0.028698
  69 H :    0.032441
  70 H :    0.036006
  71 H :    0.034741
  72 H :    0.037997
  73 H :    0.034520
  74 H :    0.077857
  75 H :    0.025652
  76 H :    0.018463
  77 H :    0.027302
  78 H :    0.029280
  79 H :    0.027704
  80 H :    0.029533
  81 H :    0.029688
  82 H :    0.024776
  83 H :    0.022544

  Mayer bond orders larger than 0.100000
B(  0-C ,  1-C ) :   1.8616 B(  0-C , 54-H ) :   0.9488 B(  0-C , 55-H ) :   0.9375
B(  1-C ,  2-C ) :   1.0799 B(  1-C ,  5-S ) :   1.0194 B(  2-C ,  3-C ) :   1.6652
B(  2-C , 56-H ) :   0.9918 B(  3-C ,  4-C ) :   1.1497 B(  3-C , 57-H ) :   0.9918
B(  4-C ,  5-S ) :   1.0744 B(  4-C ,  6-C ) :   1.5369 B(  6-C ,  7-C ) :   1.1827
B(  6-C , 10-S ) :   1.0137 B(  7-C ,  8-C ) :   1.5928 B(  7-C , 58-H ) :   0.9945
B(  8-C ,  9-C ) :   1.1447 B(  8-C , 59-H ) :   1.0009 B(  9-C , 10-S ) :   1.0690
B(  9-C , 11-C ) :   1.5139 B( 11-C , 12-C ) :   1.2372 B( 11-C , 60-H ) :   0.9680
B( 12-C , 13-O ) :   1.1094 B( 12-C , 14-C ) :   1.3488 B( 13-O , 21-C ) :   1.1173
B( 14-C , 15-C ) :   0.8961 B( 14-C , 20-C ) :   1.2841 B( 15-C , 16-O ) :   2.2649
B( 15-C , 17-N ) :   1.0665 B( 17-N , 18-C ) :   1.0802 B( 17-N , 61-H ) :   0.9152
B( 18-C , 19-O ) :   2.2668 B( 18-C , 20-C ) :   0.8840 B( 20-C , 21-C ) :   1.3663
B( 21-C , 22-C ) :   1.2266 B( 22-C , 23-C ) :   1.5634 B( 22-C , 62-H ) :   0.9609
B( 23-C , 24-C ) :   1.2016 B( 23-C , 63-H ) :   0.9711 B( 24-C , 25-S ) :   1.1316
B( 24-C , 26-C ) :   0.1068 B( 24-C , 28-C ) :   1.2852 B( 25-S , 26-C ) :   1.1370
B( 26-C , 27-C ) :   1.3477 B( 26-C , 35-C ) :   1.1472 B( 27-C , 28-C ) :   1.1974
B( 27-C , 34-C ) :   1.1938 B( 28-C , 29-C ) :   1.2132 B( 29-C , 30-C ) :   1.4721
B( 29-C , 64-H ) :   0.9887 B( 30-C , 31-C ) :   0.9783 B( 30-C , 33-C ) :   1.1710
B( 31-C , 32-O ) :   2.1338 B( 31-C , 65-H ) :   0.9570 B( 33-C , 34-C ) :   1.5641
B( 33-C , 66-H ) :   0.9861 B( 34-C , 67-H ) :   0.9897 B( 35-C , 36-C ) :   1.7854
B( 35-C , 68-H ) :   0.9377 B( 36-C , 37-C ) :   1.1004 B( 36-C , 38-C ) :   1.0061
B( 37-C , 69-H ) :   0.9464 B( 37-C , 70-H ) :   0.9359 B( 37-C , 71-H ) :   0.9354
B( 38-C , 39-N ) :   1.0508 B( 38-C , 72-H ) :   0.9139 B( 38-C , 73-H ) :   0.9329
B( 39-N , 40-C ) :   1.1825 B( 39-N , 74-H ) :   0.9401 B( 40-C , 41-C ) :   1.6540
B( 40-C , 75-H ) :   0.9689 B( 41-C , 42-C ) :   1.1358 B( 41-C , 76-H ) :   0.9592
B( 42-C , 43-C ) :   1.6165 B( 42-C , 77-H ) :   0.9811 B( 43-C , 44-C ) :   1.1281
B( 43-C , 47-S ) :   1.0068 B( 44-C , 45-C ) :   1.6172 B( 44-C , 78-H ) :   0.9963
B( 45-C , 46-C ) :   1.1663 B( 45-C , 79-H ) :   0.9914 B( 46-C , 47-S ) :   1.0394
B( 46-C , 48-C ) :   1.5665 B( 48-C , 49-C ) :   1.1579 B( 48-C , 52-S ) :   1.0262
B( 49-C , 50-C ) :   1.6570 B( 49-C , 80-H ) :   0.9903 B( 50-C , 51-C ) :   1.0832
B( 50-C , 81-H ) :   0.9925 B( 51-C , 52-S ) :   1.0112 B( 51-C , 53-C ) :   1.8615
B( 53-C , 82-H ) :   0.9502 B( 53-C , 83-H ) :   0.9412

-----------------------------------------------------------------------------
         ABSORPTION SPECTRUM VIA TRANSITION ELECTRIC DIPOLE MOMENTS
-----------------------------------------------------------------------------
State   Energy  Wavelength   fosc         T2         TX        TY        TZ
        (cm-1)    (nm)                  (au**2)     (au)      (au)      (au)
-----------------------------------------------------------------------------
   0   13576.4    736.6   0.362521525   8.79072   1.42405   0.83080   2.46426
   1   14637.2    683.2   0.013455769   0.30264   0.02252  -0.24812  -0.49048
   2   16722.3    598.0   0.299964165   5.90539  -1.18826   2.00792   0.67946
   3   19317.5    517.7   0.010526112   0.17939  -0.03728   0.40811   0.10699
   4   20324.7    492.0   0.781765531  12.66272  -2.84393  -2.07891  -0.50288
   5   21562.9    463.8   1.670982971  25.51172  -1.20020   4.90169  -0.21139
   6   22780.1    439.0   0.020663108   0.29862   0.35196  -0.32656   0.26096
   7   25878.4    386.4   0.170557611   2.16975   0.62645  -1.31151   0.23925
   8   27409.1    364.8   0.005265391   0.06324  -0.01629   0.22950  -0.10153
   9   27803.3    359.7   0.004412694   0.05225   0.00273   0.02693  -0.22697
  10   28076.8    356.2   0.012940875   0.15174  -0.24997   0.27911   0.10653
  11   29113.0    343.5   0.098998963   1.11949   0.32818  -0.66719   0.75276
  12   29239.8    342.0   0.008730422   0.09830   0.21011  -0.22024  -0.07512
  13   30121.8    332.0   0.013426677   0.14674   0.30734  -0.22761  -0.02187
  14   30339.0    329.6   0.006964192   0.07557   0.16475  -0.12790  -0.17907
  15   30543.2    327.4   0.010192656   0.10986  -0.07501   0.07824   0.31323
  16   30864.4    324.0   0.202817449   2.16333   0.59803  -0.34224   1.29944
  17   31844.7    314.0   0.034507698   0.35674  -0.14150  -0.16082  -0.55754
  18   32333.0    309.3   0.198431033   2.02041  -0.83389   1.04868   0.47465
  19   33180.8    301.4   0.002322035   0.02304  -0.10009   0.11406  -0.00324
  20   33216.3    301.1   0.093936675   0.93102   0.46978  -0.42105   0.73010
  21   33806.5    295.8   0.009799917   0.09543   0.08914  -0.02614  -0.29463
  22   33835.1    295.6   0.022198364   0.21599  -0.45427   0.01060  -0.09754
  23   34521.6    289.7   0.163723642   1.56134   1.18661  -0.35485  -0.16547
  24   34579.4    289.2   0.030039138   0.28599   0.05895  -0.37877   0.37288
  25   34698.3    288.2   0.032750690   0.31073   0.06249  -0.50097   0.23634
  26   34806.5    287.3   0.000483598   0.00457   0.01419   0.03138  -0.05821
  27   35299.2    283.3   0.001404322   0.01310   0.10743   0.03531  -0.01757
  28   35649.7    280.5   0.017063532   0.15758   0.06087  -0.12554  -0.37163
  29   36185.2    276.4   0.019189036   0.17458   0.18550  -0.24613  -0.28212
  30   36660.7    272.8   0.376654454   3.38234  -0.08204   0.46707   1.77692
  31   37052.2    269.9   0.118669685   1.05439  -0.01528   0.50039   0.89653
  32   37198.0    268.8   0.148774581   1.31669   0.64592  -0.02715  -0.94802
  33   37829.1    264.3   0.323016905   2.81109   0.96446  -0.98722  -0.95200
  34   37951.2    263.5   0.001117574   0.00969  -0.04786   0.05352   0.06738
  35   38275.4    261.3   0.104339065   0.89743   0.49470  -0.72808  -0.35016
  36   38411.7    260.3   0.029025795   0.24877   0.29836  -0.32752  -0.22909
  37   38726.3    258.2   0.026919477   0.22884  -0.01163  -0.20897  -0.43016
  38   39157.4    255.4   0.191580449   1.61069   0.20764  -0.20849  -1.23455
  39   40083.1    249.5   0.004822398   0.03961   0.01408  -0.13698  -0.14369

FINAL SINGLE POINT ENERGY     -4054.672430575652

DIPOLE MOMENT
-------------
                                X             Y             Z
Electronic contribution:     29.53207     -20.46925      21.17467
Nuclear contribution   :    -30.07521      24.03899     -20.85187
                        -----------------------------------------
Total Dipole Moment    :     -0.54314       3.56974       0.32280
                        -----------------------------------------
Magnitude (a.u.)       :      3.62522
Magnitude (Debye)      :      9.21459

Rotational constants in cm-1:     0.001671     0.000611     0.000519
Rotational constants in MHz :    50.081193    18.319300    15.568731

                             ****ORCA TERMINATED NORMALLY****
TOTAL RUN TIME: 0 days 0 hours 6 minutes 15 seconds 212 msec
