                         Program Version 4.2.0 -  RELEASE  -
|  1> # ORCA input file
|  2> # SCF done       -199.305015268505          0.000730162810
|  3> ! CAM-B3LYP def2-SVP def2/J RIJCOSX Grid4 TightSCF
|  4> %maxcore 5000
|  5> %tddft
|  6>     Mode sTDDFT
|  7>     Ethresh 5.0
|  8>     maxcore 5000
|  9> end
| 10>
| 11> %pal
| 12>   nprocs 6
| 13>   end
| 14> * xyz 0 1
| 15>    C       -1.88586       -14.77624        -6.33083
| 16>    C       -1.71556       -13.44930        -6.31266
| 17>    C       -2.53310       -12.44261        -6.93107
| 18>    C       -2.12043       -11.17587        -6.71817
| 19>    C       -0.94323       -11.06940        -5.91887
| 20>    S       -0.37747       -12.66136        -5.46513
| 21>    C       -0.31046        -9.92095        -5.51809
| 22>    C       -0.67180        -8.57807        -5.79932
| 23>    C        0.14582        -7.65679        -5.23661
| 24>    C        1.22142        -8.19727        -4.46725
| 25>    S        1.12357        -9.95173        -4.50221
| 26>    C        2.18849        -7.43972        -3.87648
| 27>    C        3.31013        -7.85057        -3.08253
| 28>    C        3.28914        -9.06925        -2.37767
| 29>    C        4.34064        -9.38946        -1.55726
| 30>    C        5.44346        -8.53340        -1.42913
| 31>    C        6.40682        -9.15805        -0.50820
| 32>    O        7.49246        -8.77574        -0.14123
| 33>    N        5.82036       -10.35894        -0.11764
| 34>    C        4.57699       -10.56950        -0.69726
| 35>    O        3.88662       -11.54192        -0.50675
| 36>    C        6.40542       -11.24844         0.86215
| 37>    C        5.92087       -10.91823         2.26935
| 38>    C        5.49674        -7.34360        -2.11733
| 39>    C        4.43003        -6.98253        -2.94716
| 40>    C        4.51431        -5.75650        -3.72544
| 41>    C        5.21923        -4.67585        -3.36118
| 42>    C        5.34684        -3.45412        -4.14272
| 43>    C        4.22999        -2.95371        -4.82414
| 44>    C        4.32677        -1.74099        -5.46351
| 45>    C        5.50777        -0.98998        -5.41917
| 46>    C        5.27605         0.26989        -6.16654
| 47>    O        6.02179         1.19286        -6.36839
| 48>    N        3.96231         0.19508        -6.61319
| 49>    C        3.32265        -0.97621        -6.24156
| 50>    O        2.18384        -1.26412        -6.51238
| 51>    C        3.34062         1.21963        -7.42508
| 52>    C        3.61915         0.99367        -8.90676
| 53>    C        6.61930        -1.46115        -4.76218
| 54>    C        6.55918        -2.72169        -4.14877
| 55>    C        7.77200        -3.26147        -3.56755
| 56>    C        8.04309        -4.57987        -3.55493
| 57>    C        9.15695        -5.19478        -2.91624
| 58>    O        9.14862        -6.54714        -2.86170
| 59>    C       10.27111        -4.74300        -2.23776
| 60>    C       11.00537        -3.54435        -1.82244
| 61>    O       10.77449        -2.37736        -2.00710
| 62>    N       12.09188        -4.05431        -1.12020
| 63>    C       12.14589        -5.44670        -1.02295
| 64>    O       13.00606        -6.06581        -0.45847
| 65>    C       10.95091        -5.88931        -1.75378
| 66>    C       10.21453        -6.99288        -2.14711
| 67>    C       10.31281        -8.38263        -1.87273
| 68>    C        9.35296        -9.23258        -2.31919
| 69>    C        9.26492       -10.59285        -1.94421
| 70>    C        8.20754       -11.39005        -2.27527
| 71>    C        7.94962       -12.73699        -1.79304
| 72>    C        8.83682       -13.56369        -1.15647
| 73>    C        8.52144       -14.86494        -0.71091
| 74>    N        8.32359       -15.92762        -0.32462
| 75>    C       10.18825       -13.25716        -0.88921
| 76>    N       11.29824       -13.09056        -0.64872
| 77>    C        6.57296       -13.07098        -2.13333
| 78>    C        6.03633       -12.03438        -2.93714
| 79>    C        7.03147       -10.95999        -3.07896
| 80>    O        6.88400        -9.92805        -3.70243
| 81>    C        4.75114       -12.06194        -3.42481
| 82>    C        3.94383       -13.14404        -3.06662
| 83>    C        4.47912       -14.16039        -2.23838
| 84>    C        5.78711       -14.14977        -1.77333
| 85>    S        3.30205       -15.38279        -1.88725
| 86>    C        2.12445       -14.52765        -2.84475
| 87>    C        2.58426       -13.38338        -3.40183
| 88>   Br        0.40823       -15.24476        -3.02722
| 89>    H       -2.71477       -15.21447        -6.85828
| 90>    H       -1.21660       -15.43977        -5.81449
| 91>    H       -3.40043       -12.71993        -7.50338
| 92>    H       -2.61678       -10.30204        -7.10117
| 93>    H       -1.52390        -8.33833        -6.40944
| 94>    H        0.02511        -6.59301        -5.34217
| 95>    H        2.08724        -6.37542        -4.04103
| 96>    H        2.43899        -9.72914        -2.44219
| 97>    H        7.49073       -11.13382         0.79774
| 98>    H        6.11900       -12.26938         0.59537
| 99>    H        6.19831        -9.90017         2.53241
|100>    H        6.37335       -11.60081         2.98294
|101>    H        4.83936       -11.01793         2.32490
|102>    H        6.37255        -6.72020        -2.03550
|103>    H        4.01661        -5.75811        -4.68557
|104>    H        5.73527        -4.66777        -2.40971
|105>    H        3.29779        -3.49675        -4.82097
|106>    H        3.74532         2.18289        -7.10565
|107>    H        2.26663         1.18247        -7.22794
|108>    H        4.68959         1.02403        -9.09599
|109>    H        3.13812         1.77050        -9.49397
|110>    H        3.23086         0.02705        -9.21932
|111>    H        7.53390        -0.88882        -4.73912
|112>    H        8.49204        -2.55923        -3.16810
|113>    H        7.37492        -5.28359        -4.03223
|114>    H       12.79478        -3.46008        -0.70364
|115>    H       11.13759        -8.70508        -1.25486
|116>    H        8.56728        -8.84036        -2.94851
|117>    H       10.04365       -10.97762        -1.29830
|118>    H        4.37125       -11.26090        -4.03947
|119>    H        6.14637       -14.94701        -1.14383
|120>    H        1.99243       -12.72954        -4.01542
|121> *
|122>
|123>                          ****END OF INPUT****

CARTESIAN COORDINATES (ANGSTROEM)
---------------------------------
  C     -1.885860  -14.776240   -6.330830
  C     -1.715560  -13.449300   -6.312660
  C     -2.533100  -12.442610   -6.931070
  C     -2.120430  -11.175870   -6.718170
  C     -0.943230  -11.069400   -5.918870
  S     -0.377470  -12.661360   -5.465130
  C     -0.310460   -9.920950   -5.518090
  C     -0.671800   -8.578070   -5.799320
  C      0.145820   -7.656790   -5.236610
  C      1.221420   -8.197270   -4.467250
  S      1.123570   -9.951730   -4.502210
  C      2.188490   -7.439720   -3.876480
  C      3.310130   -7.850570   -3.082530
  C      3.289140   -9.069250   -2.377670
  C      4.340640   -9.389460   -1.557260
  C      5.443460   -8.533400   -1.429130
  C      6.406820   -9.158050   -0.508200
  O      7.492460   -8.775740   -0.141230
  N      5.820360  -10.358940   -0.117640
  C      4.576990  -10.569500   -0.697260
  O      3.886620  -11.541920   -0.506750
  C      6.405420  -11.248440    0.862150
  C      5.920870  -10.918230    2.269350
  C      5.496740   -7.343600   -2.117330
  C      4.430030   -6.982530   -2.947160
  C      4.514310   -5.756500   -3.725440
  C      5.219230   -4.675850   -3.361180
  C      5.346840   -3.454120   -4.142720
  C      4.229990   -2.953710   -4.824140
  C      4.326770   -1.740990   -5.463510
  C      5.507770   -0.989980   -5.419170
  C      5.276050    0.269890   -6.166540
  O      6.021790    1.192860   -6.368390
  N      3.962310    0.195080   -6.613190
  C      3.322650   -0.976210   -6.241560
  O      2.183840   -1.264120   -6.512380
  C      3.340620    1.219630   -7.425080
  C      3.619150    0.993670   -8.906760
  C      6.619300   -1.461150   -4.762180
  C      6.559180   -2.721690   -4.148770
  C      7.772000   -3.261470   -3.567550
  C      8.043090   -4.579870   -3.554930
  C      9.156950   -5.194780   -2.916240
  O      9.148620   -6.547140   -2.861700
  C     10.271110   -4.743000   -2.237760
  C     11.005370   -3.544350   -1.822440
  O     10.774490   -2.377360   -2.007100
  N     12.091880   -4.054310   -1.120200
  C     12.145890   -5.446700   -1.022950
  O     13.006060   -6.065810   -0.458470
  C     10.950910   -5.889310   -1.753780
  C     10.214530   -6.992880   -2.147110
  C     10.312810   -8.382630   -1.872730
  C      9.352960   -9.232580   -2.319190
  C      9.264920  -10.592850   -1.944210
  C      8.207540  -11.390050   -2.275270
  C      7.949620  -12.736990   -1.793040
  C      8.836820  -13.563690   -1.156470
  C      8.521440  -14.864940   -0.710910
  N      8.323590  -15.927620   -0.324620
  C     10.188250  -13.257160   -0.889210
  N     11.298240  -13.090560   -0.648720
  C      6.572960  -13.070980   -2.133330
  C      6.036330  -12.034380   -2.937140
  C      7.031470  -10.959990   -3.078960
  O      6.884000   -9.928050   -3.702430
  C      4.751140  -12.061940   -3.424810
  C      3.943830  -13.144040   -3.066620
  C      4.479120  -14.160390   -2.238380
  C      5.787110  -14.149770   -1.773330
  S      3.302050  -15.382790   -1.887250
  C      2.124450  -14.527650   -2.844750
  C      2.584260  -13.383380   -3.401830
  Br     0.408230  -15.244760   -3.027220
  H     -2.714770  -15.214470   -6.858280
  H     -1.216600  -15.439770   -5.814490
  H     -3.400430  -12.719930   -7.503380
  H     -2.616780  -10.302040   -7.101170
  H     -1.523900   -8.338330   -6.409440
  H      0.025110   -6.593010   -5.342170
  H      2.087240   -6.375420   -4.041030
  H      2.438990   -9.729140   -2.442190
  H      7.490730  -11.133820    0.797740
  H      6.119000  -12.269380    0.595370
  H      6.198310   -9.900170    2.532410
  H      6.373350  -11.600810    2.982940
  H      4.839360  -11.017930    2.324900
  H      6.372550   -6.720200   -2.035500
  H      4.016610   -5.758110   -4.685570
  H      5.735270   -4.667770   -2.409710
  H      3.297790   -3.496750   -4.820970
  H      3.745320    2.182890   -7.105650
  H      2.266630    1.182470   -7.227940
  H      4.689590    1.024030   -9.095990
  H      3.138120    1.770500   -9.493970
  H      3.230860    0.027050   -9.219320
  H      7.533900   -0.888820   -4.739120
  H      8.492040   -2.559230   -3.168100
  H      7.374920   -5.283590   -4.032230
  H     12.794780   -3.460080   -0.703640
  H     11.137590   -8.705080   -1.254860
  H      8.567280   -8.840360   -2.948510
  H     10.043650  -10.977620   -1.298300
  H      4.371250  -11.260900   -4.039470
  H      6.146370  -14.947010   -1.143830
  H      1.992430  -12.729540   -4.015420

 Total Charge           Charge          ....    0
 Multiplicity           Mult            ....    1
 Number of Electrons    NEL             ....  556
 Basis Dimension        Dim             .... 1226

ORBITAL ENERGIES
----------------

  NO   OCC          E(Eh)            E(eV)
   0   2.0000    -482.883843    -13139.9374
   1   2.0000     -88.970372     -2421.0069
   2   2.0000     -88.959538     -2420.7121
   3   2.0000     -88.951780     -2420.5010
   4   2.0000     -62.561290     -1702.3793
   5   2.0000     -56.395202     -1534.5915
   6   2.0000     -56.392540     -1534.5190
   7   2.0000     -56.392528     -1534.5187
   8   2.0000     -19.318551      -525.6845
   9   2.0000     -19.219929      -523.0008
  10   2.0000     -19.218932      -522.9737
  11   2.0000     -19.215841      -522.8896
  12   2.0000     -19.215165      -522.8712
  13   2.0000     -19.214103      -522.8423
  14   2.0000     -19.213627      -522.8294
  15   2.0000     -19.212827      -522.8076
  16   2.0000     -14.460019      -393.4771
  17   2.0000     -14.455850      -393.3637
  18   2.0000     -14.455009      -393.3408
  19   2.0000     -14.415107      -392.2550
  20   2.0000     -14.414801      -392.2467
  21   2.0000     -10.407048      -283.1902
  22   2.0000     -10.405552      -283.1495
  23   2.0000     -10.393942      -282.8335
  24   2.0000     -10.393527      -282.8223
  25   2.0000     -10.392985      -282.8075
  26   2.0000     -10.392343      -282.7900
  27   2.0000     -10.371910      -282.2340
  28   2.0000     -10.369349      -282.1643
  29   2.0000     -10.367082      -282.1026
  30   2.0000     -10.353154      -281.7236
  31   2.0000     -10.342218      -281.4261
  32   2.0000     -10.340993      -281.3927
  33   2.0000     -10.324158      -280.9346
  34   2.0000     -10.323530      -280.9175
  35   2.0000     -10.320642      -280.8389
  36   2.0000     -10.319208      -280.7999
  37   2.0000     -10.318103      -280.7698
  38   2.0000     -10.317588      -280.7558
  39   2.0000     -10.317517      -280.7539
  40   2.0000     -10.314015      -280.6586
  41   2.0000     -10.311282      -280.5843
  42   2.0000     -10.310157      -280.5536
  43   2.0000     -10.308171      -280.4996
  44   2.0000     -10.307425      -280.4793
  45   2.0000     -10.307180      -280.4726
  46   2.0000     -10.305838      -280.4361
  47   2.0000     -10.304632      -280.4033
  48   2.0000     -10.304205      -280.3917
  49   2.0000     -10.303256      -280.3658
  50   2.0000     -10.303008      -280.3591
  51   2.0000     -10.302538      -280.3463
  52   2.0000     -10.302337      -280.3408
  53   2.0000     -10.302253      -280.3386
  54   2.0000     -10.301800      -280.3262
  55   2.0000     -10.301480      -280.3175
  56   2.0000     -10.300847      -280.3003
  57   2.0000     -10.300557      -280.2924
  58   2.0000     -10.299671      -280.2683
  59   2.0000     -10.299583      -280.2659
  60   2.0000     -10.298677      -280.2413
  61   2.0000     -10.298569      -280.2383
  62   2.0000     -10.297698      -280.2146
  63   2.0000     -10.296522      -280.1826
  64   2.0000     -10.295449      -280.1534
  65   2.0000     -10.295062      -280.1429
  66   2.0000     -10.294670      -280.1322
  67   2.0000     -10.294253      -280.1209
  68   2.0000     -10.292906      -280.0842
  69   2.0000     -10.291514      -280.0463
  70   2.0000     -10.290991      -280.0321
  71   2.0000     -10.289878      -280.0018
  72   2.0000     -10.289181      -279.9828
  73   2.0000     -10.288382      -279.9611
  74   2.0000     -10.288194      -279.9560
  75   2.0000     -10.282286      -279.7952
  76   2.0000     -10.260588      -279.2048
  77   2.0000     -10.259927      -279.1868
  78   2.0000      -8.790705      -239.2073
  79   2.0000      -8.066424      -219.4986
  80   2.0000      -8.054918      -219.1855
  81   2.0000      -8.047849      -218.9931
  82   2.0000      -6.626851      -180.3258
  83   2.0000      -6.612605      -179.9381
  84   2.0000      -6.612256      -179.9286
  85   2.0000      -6.036082      -164.2501
  86   2.0000      -6.031837      -164.1346
  87   2.0000      -6.027677      -164.0214
  88   2.0000      -6.024750      -163.9418
  89   2.0000      -6.020709      -163.8318
  90   2.0000      -6.017723      -163.7506
  91   2.0000      -6.015821      -163.6988
  92   2.0000      -6.013721      -163.6417
  93   2.0000      -6.008458      -163.4985
  94   2.0000      -2.742764       -74.6344
  95   2.0000      -2.738808       -74.5267
  96   2.0000      -2.738546       -74.5196
  97   2.0000      -2.727214       -74.2113
  98   2.0000      -2.727205       -74.2110
  99   2.0000      -1.238321       -33.6964
 100   2.0000      -1.161799       -31.6142
 101   2.0000      -1.159800       -31.5598
 102   2.0000      -1.159119       -31.5412
 103   2.0000      -1.141564       -31.0635
 104   2.0000      -1.136280       -30.9197
 105   2.0000      -1.135173       -30.8896
 106   2.0000      -1.133823       -30.8529
 107   2.0000      -1.050747       -28.5923
 108   2.0000      -1.049550       -28.5597
 109   2.0000      -1.048744       -28.5378
 110   2.0000      -1.020693       -27.7745
 111   2.0000      -1.010966       -27.5098
 112   2.0000      -1.005069       -27.3493
 113   2.0000      -0.993592       -27.0370
 114   2.0000      -0.990793       -26.9608
 115   2.0000      -0.988485       -26.8980
 116   2.0000      -0.984832       -26.7987
 117   2.0000      -0.976365       -26.5682
 118   2.0000      -0.947736       -25.7892
 119   2.0000      -0.940557       -25.5939
 120   2.0000      -0.931384       -25.3442
 121   2.0000      -0.928726       -25.2719
 122   2.0000      -0.921324       -25.0705
 123   2.0000      -0.911056       -24.7911
 124   2.0000      -0.907322       -24.6895
 125   2.0000      -0.901090       -24.5199
 126   2.0000      -0.890242       -24.2247
 127   2.0000      -0.882452       -24.0127
 128   2.0000      -0.881697       -23.9922
 129   2.0000      -0.873973       -23.7820
 130   2.0000      -0.863801       -23.5052
 131   2.0000      -0.858289       -23.3552
 132   2.0000      -0.856259       -23.3000
 133   2.0000      -0.846258       -23.0278
 134   2.0000      -0.840500       -22.8712
 135   2.0000      -0.832605       -22.6563
 136   2.0000      -0.826029       -22.4774
 137   2.0000      -0.824011       -22.4225
 138   2.0000      -0.813150       -22.1269
 139   2.0000      -0.793664       -21.5967
 140   2.0000      -0.782323       -21.2881
 141   2.0000      -0.777816       -21.1655
 142   2.0000      -0.774231       -21.0679
 143   2.0000      -0.768708       -20.9176
 144   2.0000      -0.759722       -20.6731
 145   2.0000      -0.757976       -20.6256
 146   2.0000      -0.752838       -20.4858
 147   2.0000      -0.748409       -20.3652
 148   2.0000      -0.732002       -19.9188
 149   2.0000      -0.725264       -19.7354
 150   2.0000      -0.717440       -19.5225
 151   2.0000      -0.708101       -19.2684
 152   2.0000      -0.706306       -19.2196
 153   2.0000      -0.704012       -19.1571
 154   2.0000      -0.699324       -19.0296
 155   2.0000      -0.690709       -18.7951
 156   2.0000      -0.687395       -18.7050
 157   2.0000      -0.684232       -18.6189
 158   2.0000      -0.673824       -18.3357
 159   2.0000      -0.665228       -18.1018
 160   2.0000      -0.662898       -18.0384
 161   2.0000      -0.654371       -17.8063
 162   2.0000      -0.651338       -17.7238
 163   2.0000      -0.643981       -17.5236
 164   2.0000      -0.640034       -17.4162
 165   2.0000      -0.629427       -17.1276
 166   2.0000      -0.627058       -17.0631
 167   2.0000      -0.622691       -16.9443
 168   2.0000      -0.621373       -16.9084
 169   2.0000      -0.612515       -16.6674
 170   2.0000      -0.610343       -16.6083
 171   2.0000      -0.602266       -16.3885
 172   2.0000      -0.601284       -16.3618
 173   2.0000      -0.599203       -16.3052
 174   2.0000      -0.596976       -16.2445
 175   2.0000      -0.593570       -16.1519
 176   2.0000      -0.592499       -16.1227
 177   2.0000      -0.587775       -15.9942
 178   2.0000      -0.585901       -15.9432
 179   2.0000      -0.577191       -15.7062
 180   2.0000      -0.576078       -15.6759
 181   2.0000      -0.569423       -15.4948
 182   2.0000      -0.568014       -15.4564
 183   2.0000      -0.560710       -15.2577
 184   2.0000      -0.558568       -15.1994
 185   2.0000      -0.554138       -15.0788
 186   2.0000      -0.551971       -15.0199
 187   2.0000      -0.550709       -14.9855
 188   2.0000      -0.547286       -14.8924
 189   2.0000      -0.544995       -14.8301
 190   2.0000      -0.541476       -14.7343
 191   2.0000      -0.537854       -14.6358
 192   2.0000      -0.537684       -14.6311
 193   2.0000      -0.536902       -14.6098
 194   2.0000      -0.533714       -14.5231
 195   2.0000      -0.533381       -14.5140
 196   2.0000      -0.527502       -14.3540
 197   2.0000      -0.526229       -14.3194
 198   2.0000      -0.524150       -14.2629
 199   2.0000      -0.523481       -14.2446
 200   2.0000      -0.521730       -14.1970
 201   2.0000      -0.518349       -14.1050
 202   2.0000      -0.514960       -14.0128
 203   2.0000      -0.513338       -13.9686
 204   2.0000      -0.511633       -13.9222
 205   2.0000      -0.511191       -13.9102
 206   2.0000      -0.509795       -13.8722
 207   2.0000      -0.507637       -13.8135
 208   2.0000      -0.506664       -13.7870
 209   2.0000      -0.504404       -13.7255
 210   2.0000      -0.502480       -13.6732
 211   2.0000      -0.499473       -13.5914
 212   2.0000      -0.496477       -13.5098
 213   2.0000      -0.494640       -13.4598
 214   2.0000      -0.492637       -13.4053
 215   2.0000      -0.490215       -13.3394
 216   2.0000      -0.488831       -13.3018
 217   2.0000      -0.487109       -13.2549
 218   2.0000      -0.483334       -13.1522
 219   2.0000      -0.482944       -13.1416
 220   2.0000      -0.482390       -13.1265
 221   2.0000      -0.481335       -13.0978
 222   2.0000      -0.477202       -12.9853
 223   2.0000      -0.472665       -12.8619
 224   2.0000      -0.468672       -12.7532
 225   2.0000      -0.468075       -12.7370
 226   2.0000      -0.466460       -12.6930
 227   2.0000      -0.461920       -12.5695
 228   2.0000      -0.459492       -12.5034
 229   2.0000      -0.458868       -12.4864
 230   2.0000      -0.454978       -12.3806
 231   2.0000      -0.453700       -12.3458
 232   2.0000      -0.451458       -12.2848
 233   2.0000      -0.449001       -12.2180
 234   2.0000      -0.447761       -12.1842
 235   2.0000      -0.445709       -12.1284
 236   2.0000      -0.442758       -12.0481
 237   2.0000      -0.442141       -12.0313
 238   2.0000      -0.436673       -11.8825
 239   2.0000      -0.435361       -11.8468
 240   2.0000      -0.434925       -11.8349
 241   2.0000      -0.428886       -11.6706
 242   2.0000      -0.428446       -11.6586
 243   2.0000      -0.427942       -11.6449
 244   2.0000      -0.425847       -11.5879
 245   2.0000      -0.421972       -11.4824
 246   2.0000      -0.416879       -11.3439
 247   2.0000      -0.411062       -11.1856
 248   2.0000      -0.407868       -11.0986
 249   2.0000      -0.403861       -10.9896
 250   2.0000      -0.401168       -10.9163
 251   2.0000      -0.392499       -10.6804
 252   2.0000      -0.384831       -10.4718
 253   2.0000      -0.381475       -10.3805
 254   2.0000      -0.375183       -10.2093
 255   2.0000      -0.370742       -10.0884
 256   2.0000      -0.369999       -10.0682
 257   2.0000      -0.367804       -10.0085
 258   2.0000      -0.367708       -10.0058
 259   2.0000      -0.366464        -9.9720
 260   2.0000      -0.361322        -9.8321
 261   2.0000      -0.355803        -9.6819
 262   2.0000      -0.352268        -9.5857
 263   2.0000      -0.351459        -9.5637
 264   2.0000      -0.348913        -9.4944
 265   2.0000      -0.345903        -9.4125
 266   2.0000      -0.345296        -9.3960
 267   2.0000      -0.344010        -9.3610
 268   2.0000      -0.342020        -9.3069
 269   2.0000      -0.336960        -9.1691
 270   2.0000      -0.336572        -9.1586
 271   2.0000      -0.323458        -8.8017
 272   2.0000      -0.315888        -8.5958
 273   2.0000      -0.308862        -8.4046
 274   2.0000      -0.295802        -8.0492
 275   2.0000      -0.288379        -7.8472
 276   2.0000      -0.269130        -7.3234
 277   2.0000      -0.235378        -6.4050
 278   0.0000      -0.101220        -2.7543
 279   0.0000      -0.084337        -2.2949
 280   0.0000      -0.071204        -1.9375
 281   0.0000      -0.062533        -1.7016
 282   0.0000      -0.048289        -1.3140

MULLIKEN ATOMIC CHARGES
-----------------------
   0 C :   -0.021147
   1 C :   -0.049644
   2 C :    0.056670
   3 C :    0.028381
   4 C :   -0.050447
   5 S :    0.060173
   6 C :   -0.050684
   7 C :    0.040870
   8 C :    0.025233
   9 C :    0.007675
  10 S :    0.045368
  11 C :   -0.077395
  12 C :    0.106982
  13 C :   -0.124517
  14 C :    0.016110
  15 C :    0.037318
  16 C :    0.188451
  17 O :   -0.166954
  18 N :   -0.321758
  19 C :    0.202674
  20 O :   -0.161714
  21 C :    0.116302
  22 C :    0.009835
  23 C :   -0.092247
  24 C :    0.102125
  25 C :   -0.028355
  26 C :   -0.057995
  27 C :    0.080791
  28 C :   -0.086561
  29 C :    0.014047
  30 C :    0.017563
  31 C :    0.188532
  32 O :   -0.152603
  33 N :   -0.302057
  34 C :    0.187232
  35 O :   -0.159556
  36 C :    0.131465
  37 C :   -0.008824
  38 C :   -0.081661
  39 C :    0.078161
  40 C :   -0.022122
  41 C :   -0.010603
  42 C :    0.127589
  43 O :   -0.200486
  44 C :   -0.074941
  45 C :    0.180833
  46 O :   -0.148648
  47 N :   -0.166009
  48 C :    0.164085
  49 O :   -0.128183
  50 C :   -0.013477
  51 C :    0.079791
  52 C :    0.013377
  53 C :    0.038983
  54 C :   -0.026437
  55 C :   -0.056903
  56 C :    0.306480
  57 C :   -0.358709
  58 C :   -0.188924
  59 N :    0.159282
  60 C :   -0.200369
  61 N :    0.161918
  62 C :    0.006155
  63 C :    0.003520
  64 C :    0.121338
  65 O :   -0.156219
  66 C :   -0.093944
  67 C :    0.156768
  68 C :   -0.076821
  69 C :   -0.019824
  70 S :    0.184501
  71 C :   -0.117195
  72 C :    0.053650
  73 Br:    0.020779
  74 H :    0.025469
  75 H :    0.023519
  76 H :   -0.005851
  77 H :   -0.007380
  78 H :   -0.008728
  79 H :   -0.004960
  80 H :   -0.008090
  81 H :   -0.003363
  82 H :    0.033172
  83 H :    0.034051
  84 H :    0.023760
  85 H :    0.025876
  86 H :    0.029442
  87 H :   -0.034707
  88 H :    0.012824
  89 H :    0.035677
  90 H :   -0.015211
  91 H :    0.031907
  92 H :    0.032786
  93 H :    0.029649
  94 H :    0.023363
  95 H :    0.023791
  96 H :    0.001554
  97 H :    0.026760
  98 H :    0.029267
  99 H :    0.141300
 100 H :    0.025709
 101 H :    0.037345
 102 H :    0.017797
 103 H :   -0.012540
 104 H :   -0.009126
 105 H :   -0.022135
Sum of atomic charges:   -0.0000000

LOEWDIN ATOMIC CHARGES
----------------------
   0 C :   -0.063412
   1 C :   -0.139350
   2 C :   -0.021536
   3 C :   -0.026456
   4 C :   -0.168334
   5 S :    0.366444
   6 C :   -0.186298
   7 C :   -0.023995
   8 C :   -0.033500
   9 C :   -0.127863
  10 S :    0.374761
  11 C :   -0.070194
  12 C :   -0.008149
  13 C :    0.003775
  14 C :   -0.050352
  15 C :   -0.053834
  16 C :    0.088819
  17 O :   -0.162980
  18 N :   -0.031229
  19 C :    0.088633
  20 O :   -0.161216
  21 C :    0.038445
  22 C :   -0.057330
  23 C :    0.022079
  24 C :   -0.005664
  25 C :   -0.023194
  26 C :   -0.009264
  27 C :   -0.002733
  28 C :    0.016571
  29 C :   -0.047687
  30 C :   -0.051874
  31 C :    0.088976
  32 O :   -0.154365
  33 N :   -0.035809
  34 C :    0.086880
  35 O :   -0.161700
  36 C :    0.044376
  37 C :   -0.059628
  38 C :    0.024666
  39 C :   -0.011170
  40 C :    0.017769
  41 C :   -0.036817
  42 C :    0.071342
  43 O :    0.031805
  44 C :   -0.098692
  45 C :    0.086320
  46 O :   -0.160360
  47 N :   -0.004318
  48 C :    0.085842
  49 O :   -0.147168
  50 C :   -0.082055
  51 C :    0.067144
  52 C :    0.011714
  53 C :   -0.002230
  54 C :    0.069773
  55 C :   -0.084341
  56 C :    0.074078
  57 C :   -0.139918
  58 C :   -0.019027
  59 N :   -0.051879
  60 C :   -0.023063
  61 N :   -0.048160
  62 C :   -0.023129
  63 C :   -0.058685
  64 C :    0.079593
  65 O :   -0.142289
  66 C :    0.025070
  67 C :   -0.023482
  68 C :   -0.134498
  69 C :   -0.009134
  70 S :    0.436180
  71 C :   -0.271525
  72 C :   -0.065987
  73 Br:    0.139855
  74 H :    0.031451
  75 H :    0.023400
  76 H :    0.036144
  77 H :    0.033920
  78 H :    0.034277
  79 H :    0.035886
  80 H :    0.033729
  81 H :    0.022356
  82 H :    0.030074
  83 H :    0.030104
  84 H :    0.027689
  85 H :    0.032120
  86 H :    0.029209
  87 H :    0.031104
  88 H :    0.030858
  89 H :    0.036040
  90 H :    0.036759
  91 H :    0.032476
  92 H :    0.032352
  93 H :    0.028831
  94 H :    0.030563
  95 H :    0.027276
  96 H :    0.043428
  97 H :    0.039801
  98 H :    0.046270
  99 H :    0.096575
 100 H :    0.050037
 101 H :    0.032424
 102 H :    0.043266
 103 H :    0.036865
 104 H :    0.039943
 105 H :    0.019735

  Mayer bond orders larger than 0.100000
B(  0-C ,  1-C ) :   1.8707 B(  0-C , 74-H ) :   0.9495 B(  0-C , 75-H ) :   0.9383
B(  1-C ,  2-C ) :   1.0754 B(  1-C ,  5-S ) :   1.0090 B(  2-C ,  3-C ) :   1.6739
B(  2-C , 76-H ) :   0.9929 B(  3-C ,  4-C ) :   1.1388 B(  3-C , 77-H ) :   0.9922
B(  4-C ,  5-S ) :   1.0475 B(  4-C ,  6-C ) :   1.5731 B(  6-C ,  7-C ) :   1.1558
B(  6-C , 10-S ) :   1.0211 B(  7-C ,  8-C ) :   1.6272 B(  7-C , 78-H ) :   0.9923
B(  8-C ,  9-C ) :   1.1136 B(  8-C , 79-H ) :   0.9990 B(  9-C , 10-S ) :   1.0357
B(  9-C , 11-C ) :   1.6446 B( 11-C , 12-C ) :   1.0816 B( 11-C , 80-H ) :   0.9542
B( 12-C , 13-C ) :   1.2768 B( 12-C , 24-C ) :   1.3093 B( 13-C , 14-C ) :   1.4309
B( 13-C , 81-H ) :   0.9877 B( 14-C , 15-C ) :   1.3317 B( 14-C , 19-C ) :   0.8810
B( 15-C , 16-C ) :   0.8892 B( 15-C , 23-C ) :   1.3987 B( 16-C , 17-O ) :   2.1722
B( 16-C , 18-N ) :   1.0549 B( 18-N , 19-C ) :   1.0587 B( 18-N , 21-C ) :   0.9147
B( 19-C , 20-O ) :   2.1940 B( 21-C , 22-C ) :   1.1259 B( 21-C , 82-H ) :   0.9384
B( 21-C , 83-H ) :   0.9386 B( 22-C , 84-H ) :   0.9676 B( 22-C , 85-H ) :   0.9679
B( 22-C , 86-H ) :   0.9680 B( 23-C , 24-C ) :   1.3225 B( 23-C , 87-H ) :   0.9982
B( 24-C , 25-C ) :   1.0481 B( 25-C , 26-C ) :   1.7940 B( 25-C , 88-H ) :   0.9552
B( 26-C , 27-C ) :   1.0201 B( 26-C , 89-H ) :   0.9487 B( 27-C , 28-C ) :   1.3323
B( 27-C , 39-C ) :   1.3383 B( 28-C , 29-C ) :   1.3900 B( 28-C , 90-H ) :   1.0091
B( 29-C , 30-C ) :   1.3502 B( 29-C , 34-C ) :   0.8761 B( 30-C , 31-C ) :   0.8772
B( 30-C , 38-C ) :   1.3935 B( 31-C , 32-O ) :   2.2335 B( 31-C , 33-N ) :   1.0581
B( 33-N , 34-C ) :   1.0701 B( 33-N , 36-C ) :   0.9168 B( 34-C , 35-O ) :   2.2265
B( 36-C , 37-C ) :   1.1254 B( 36-C , 91-H ) :   0.9429 B( 36-C , 92-H ) :   0.9422
B( 37-C , 93-H ) :   0.9696 B( 37-C , 94-H ) :   0.9700 B( 37-C , 95-H ) :   0.9694
B( 38-C , 39-C ) :   1.2904 B( 38-C , 96-H ) :   1.0173 B( 39-C , 40-C ) :   1.0622
B( 40-C , 41-C ) :   1.6902 B( 40-C , 97-H ) :   0.9607 B( 41-C , 42-C ) :   1.1491
B( 41-C , 98-H ) :   0.9382 B( 42-C , 43-O ) :   1.1475 B( 42-C , 44-C ) :   1.4209
B( 43-O , 51-C ) :   1.1400 B( 44-C , 45-C ) :   0.8804 B( 44-C , 50-C ) :   1.2837
B( 45-C , 46-O ) :   2.2108 B( 45-C , 47-N ) :   1.0957 B( 47-N , 48-C ) :   1.0694
B( 47-N , 99-H ) :   0.9140 B( 48-C , 49-O ) :   2.2850 B( 48-C , 50-C ) :   0.8740
B( 50-C , 51-C ) :   1.3864 B( 51-C , 52-C ) :   1.1616 B( 52-C , 53-C ) :   1.5686
B( 52-C ,100-H ) :   0.9740 B( 53-C , 54-C ) :   1.1263 B( 53-C ,101-H ) :   0.9749
B( 54-C , 55-C ) :   1.5705 B( 54-C ,102-H ) :   0.9645 B( 55-C , 56-C ) :   1.0443
B( 55-C , 64-C ) :   0.9429 B( 56-C , 57-C ) :   1.6406 B( 56-C , 62-C ) :   1.0050
B( 57-C , 58-C ) :   1.1427 B( 57-C , 60-C ) :   1.1486 B( 58-C , 59-N ) :   2.9770
B( 60-C , 61-N ) :   2.9812 B( 62-C , 63-C ) :   1.2679 B( 62-C , 69-C ) :   1.4062
B( 63-C , 64-C ) :   0.9548 B( 63-C , 66-C ) :   1.3971 B( 64-C , 65-O ) :   2.1619
B( 66-C , 67-C ) :   1.2402 B( 66-C ,103-H ) :   1.0175 B( 67-C , 68-C ) :   1.2990
B( 67-C , 72-C ) :   1.1708 B( 68-C , 69-C ) :   1.3282 B( 68-C , 70-S ) :   1.0895
B( 69-C ,104-H ) :   0.9788 B( 70-S , 71-C ) :   1.0821 B( 71-C , 72-C ) :   1.6149
B( 71-C , 73-Br) :   1.0193 B( 72-C ,105-H ) :   0.9994

-----------------------------------------------------------------------------
         ABSORPTION SPECTRUM VIA TRANSITION ELECTRIC DIPOLE MOMENTS
-----------------------------------------------------------------------------
State   Energy  Wavelength   fosc         T2         TX        TY        TZ
        (cm-1)    (nm)                  (au**2)     (au)      (au)      (au)
-----------------------------------------------------------------------------
   0   17171.9    582.3   0.006494622   0.12451  -0.25647   0.22235  -0.09641
   1   18551.5    539.0   0.797171576  14.14650   2.65119   2.12386   1.61459
   2   20763.2    481.6   1.200238328  19.03042   1.02019   4.24122  -0.04110
   3   22950.5    435.7   0.076433858   1.09640  -0.54238  -0.44614  -0.77665
   4   24497.6    408.2   0.016684952   0.22422  -0.05710  -0.24195  -0.40301
   5   25132.1    397.9   0.115323798   1.51066   1.19226  -0.01581   0.29821
   6   25486.1    392.4   0.258059930   3.33345   1.48033   1.02119   0.31502
   7   26119.4    382.9   0.090237851   1.13737  -0.31568  -0.93645  -0.40096
   8   27246.1    367.0   0.100026840   1.20861   0.98799   0.47759   0.06631
   9   27752.8    360.3   0.000356901   0.00423  -0.02413  -0.01494   0.05855
  10   28098.9    355.9   0.017352958   0.20331  -0.31607  -0.31535   0.06296
  11   28293.0    353.4   0.047750243   0.55561  -0.19781   0.53793  -0.47657
  12   28846.3    346.7   0.432618257   4.93731   2.04213   0.35601   0.80018
  13   29661.1    337.1   0.031123537   0.34544  -0.01980  -0.45656   0.36960
  14   30318.9    329.8   0.084410980   0.91656  -0.37770  -0.87801   0.05480
  15   30448.4    328.4   0.106846848   1.15524  -0.18427  -0.95337   0.46085
  16   31292.4    319.6   0.458109004   4.81953  -2.07276  -0.05011  -0.72159
  17   31656.3    315.9   0.101251129   1.05297  -0.57894  -0.82754   0.18160
  18   32278.9    309.8   0.161391108   1.64603  -0.79679   0.81184  -0.59336
  19   32522.8    307.5   0.043314386   0.43845  -0.54302   0.19950  -0.32215
  20   32669.7    306.1   0.018512871   0.18655   0.08370  -0.41408   0.08991
  21   32927.4    303.7   0.002683645   0.02683  -0.02806   0.12361  -0.10375
  22   33160.2    301.6   0.015117726   0.15009   0.10678   0.35152  -0.12297
  23   33314.7    300.2   0.052068172   0.51453   0.12625   0.68097  -0.18674
  24   33586.3    297.7   0.026083456   0.25567  -0.18705  -0.30885  -0.35397
  25   33698.0    296.8   0.309828100   3.02686  -0.17394   1.64021  -0.55344
  26   34315.7    291.4   0.017708379   0.16989   0.28386   0.05227   0.29424
  27   34356.2    291.1   0.010813719   0.10362   0.13648   0.22996  -0.17920
  28   34759.1    287.7   0.194252411   1.83981  -0.99067   0.65589  -0.65436
  29   34936.4    286.2   0.003394542   0.03199   0.06881  -0.02962  -0.16240
  30   35222.9    283.9   0.006287819   0.05877   0.20559  -0.09495   0.08653
  31   35291.8    283.4   0.002632162   0.02455  -0.03258  -0.14947  -0.03393
  32   35369.5    282.7   0.098786736   0.91949  -0.93542  -0.13986  -0.15785
  33   35448.0    282.1   0.007026294   0.06525   0.24351   0.07682  -0.00761
  34   35727.6    279.9   0.079106670   0.72893   0.74743   0.40823  -0.06022
  35   35834.4    279.1   0.111044905   1.02017   0.31865   0.94707  -0.14728
  36   35977.1    278.0   0.004391428   0.04018  -0.15754   0.09863  -0.07508
  37   36468.3    274.2   0.047222362   0.42629   0.36232   0.49852   0.21564
  38   36848.8    271.4   0.043328353   0.38710   0.33766  -0.44910   0.26719
  39   36990.9    270.3   0.039688291   0.35322  -0.01349   0.57168  -0.16192
  40   37069.0    269.8   0.045446247   0.40361   0.54709   0.27971   0.16146
  41   37515.2    266.6   0.012247873   0.10748   0.01078   0.25961   0.19992
  42   37730.2    265.0   0.716774073   6.25416   1.27670  -1.75145   1.24764
  43   38074.9    262.6   0.010251112   0.08864   0.17920   0.22801  -0.06735
  44   38190.4    261.8   0.007223560   0.06227   0.24897  -0.00966   0.01381
  45   38309.8    261.0   0.229483892   1.97205   0.12820  -1.26456   0.59708
  46   38846.0    257.4   0.022916410   0.19421  -0.38911  -0.02285  -0.20562
  47   38936.6    256.8   0.014255708   0.12053   0.03486  -0.33381   0.08883
  48   38966.2    256.6   0.006821237   0.05763   0.09033  -0.21678   0.04975
  49   39169.8    255.3   0.020198826   0.16977  -0.18594   0.36593   0.03588
  50   39264.7    254.7   0.006551293   0.05493   0.06848   0.22272  -0.02516
  51   39447.9    253.5   0.059376833   0.49553  -0.21105  -0.66872   0.06170
  52   39850.0    250.9   0.057358885   0.47386  -0.21362   0.55748  -0.34269
  53   40062.4    249.6   0.011527703   0.09473  -0.29496  -0.07708   0.04226
  54   40243.5    248.5   0.128828296   1.05388  -0.73497  -0.63166  -0.33868
  55   40314.0    248.1   0.298885457   2.44076   0.18420  -1.42331   0.61726

FINAL SINGLE POINT ENERGY     -6831.270280900377

DIPOLE MOMENT
-------------
                                X             Y             Z
Electronic contribution:    -28.52499    -104.18223      15.52563
Nuclear contribution   :     24.83401     105.23457     -17.31920
                        -----------------------------------------
Total Dipole Moment    :     -3.69099       1.05234      -1.79357
                        -----------------------------------------
Magnitude (a.u.)       :      4.23647
Magnitude (Debye)      :     10.76825

Rotational constants in cm-1:     0.000929     0.000558     0.000366
Rotational constants in MHz :    27.838692    16.735956    10.978436

                             ****ORCA TERMINATED NORMALLY****
TOTAL RUN TIME: 0 days 0 hours 12 minutes 23 seconds 142 msec
