                         Program Version 4.2.0 -  RELEASE  -
|  1> # ORCA input file
|  2> # SCF done       -184.762621692919          0.000598973573
|  3> ! CAM-B3LYP def2-SVP def2/J RIJCOSX Grid4 TightSCF
|  4> %maxcore 5000
|  5> %tddft
|  6>     Mode sTDDFT
|  7>     Ethresh 5.0
|  8>     maxcore 5000
|  9> end
| 10>
| 11> %pal
| 12>   nprocs 6
| 13>   end
| 14> * xyz 0 1
| 15>    C        1.66765       -20.56052        -5.44330
| 16>    C        0.35045       -20.52183        -5.20358
| 17>    C       -0.49890       -21.60035        -4.78368
| 18>    C       -1.79580       -21.25917        -4.62389
| 19>    C       -2.08157       -19.89140        -4.90209
| 20>    S       -0.62271       -19.05091        -5.37522
| 21>    C       -3.30281       -19.26276        -4.83391
| 22>    C       -4.55164       -19.82922        -4.47419
| 23>    C       -5.58512       -18.94827        -4.51412
| 24>    C       -5.21523       -17.63598        -4.90840
| 25>    S       -3.49539       -17.56127        -5.21832
| 26>    C       -6.05205       -16.55795        -5.05358
| 27>    C       -5.62323       -15.28963        -5.46479
| 28>    O       -4.30051       -15.05429        -5.71819
| 29>    C       -6.32385       -14.11279        -5.70398
| 30>    C       -7.65393       -13.49693        -5.69068
| 31>    O       -8.73338       -13.95589        -5.41936
| 32>    N       -7.41039       -12.18009        -6.08393
| 33>    C       -6.08416       -11.88422        -6.34837
| 34>    O       -5.66206       -10.80062        -6.67825
| 35>    C       -5.38142       -13.15000        -6.11939
| 36>    C       -4.13509       -13.76488        -6.12308
| 37>    C       -2.85880       -13.26535        -6.45882
| 38>    C       -2.75625       -12.01668        -6.99727
| 39>    C       -1.60994       -11.29251        -7.34780
| 40>    S       -1.87604        -9.73920        -8.09605
| 41>    C       -0.18380        -9.32143        -8.15853
| 42>    C        0.56340       -10.37576        -7.62348
| 43>    C       -0.23356       -11.47735        -7.19817
| 44>    N        0.62886       -12.39907        -6.71150
| 45>    N        1.89896       -11.97237        -6.79831
| 46>    C        1.89118       -10.77862        -7.33658
| 47>    C        0.22195        -8.02324        -8.54171
| 48>    C       -0.58700        -7.15074        -9.19716
| 49>    C       -1.74041        -7.55791        -9.95311
| 50>    C       -3.00290        -6.93974        -9.82041
| 51>    C       -4.15729        -7.41250       -10.54774
| 52>    N       -5.35185        -6.83989       -10.33070
| 53>    C       -5.46618        -5.90578        -9.41928
| 54>    C       -4.32224        -5.44939        -8.68860
| 55>    N       -3.13336        -5.95253        -8.92223
| 56>    C       -4.46662        -4.41677        -7.72968
| 57>    N       -4.62546        -3.57477        -6.96934
| 58>    C       -6.75701        -5.36499        -9.19620
| 59>    N       -7.81064        -4.95676        -9.00699
| 60>    C       -4.06492        -8.42822       -11.52450
| 61>    C       -2.78299        -8.97519       -11.72513
| 62>    C       -1.65416        -8.59038       -10.91327
| 63>    N       -0.55828        -9.27998       -11.23405
| 64>    S       -0.91226       -10.29835       -12.42198
| 65>    N       -2.46336        -9.92712       -12.60111
| 66>    C       -5.17040        -8.81234       -12.34014
| 67>    C       -6.48755        -8.77482       -12.01571
| 68>    C       -7.16043        -8.72563       -10.73436
| 69>    C       -6.73762        -9.32572        -9.57410
| 70>    C       -7.58723        -9.51445        -8.46740
| 71>    N       -8.29446        -9.73295        -7.58948
| 72>    C       -5.47160        -9.92650        -9.45187
| 73>    N       -4.44232       -10.42964        -9.36758
| 74>    C       -8.49845        -8.20454       -10.97319
| 75>    C       -8.73722        -8.18746       -12.37121
| 76>    C       -7.52888        -8.66208       -13.07706
| 77>    O       -7.38621        -8.86174       -14.26019
| 78>    C       -9.92349        -7.74686       -12.90581
| 79>    C      -10.90677        -7.28839       -12.02183
| 80>    C      -10.64637        -7.28974       -10.62967
| 81>    C       -9.45264        -7.74753       -10.08643
| 82>    S      -11.98616        -6.65845        -9.72665
| 83>    C      -12.87215        -6.41222       -11.20730
| 84>    C      -12.19928        -6.77931       -12.32393
| 85>   Br      -14.60276        -5.69625       -11.14315
| 86>    H        2.22018       -21.47607        -5.32681
| 87>    H        2.21186       -19.68838        -5.75625
| 88>    H       -0.09574       -22.58413        -4.62180
| 89>    H       -2.56880       -21.94015        -4.31548
| 90>    H       -4.65058       -20.86420        -4.20061
| 91>    H       -6.60628       -19.18930        -4.27820
| 92>    H       -7.10722       -16.66998        -4.85857
| 93>    H       -8.13652       -11.48194        -6.20165
| 94>    H       -2.00926       -13.90773        -6.28311
| 95>    H       -3.67691       -11.47974        -7.18551
| 96>    H        0.43496       -13.30203        -6.31197
| 97>    H        2.80775       -10.25047        -7.50190
| 98>    H        1.18413        -7.69326        -8.17314
| 99>    H       -0.37682        -6.09090        -9.16770
|100>    H       -4.92862        -9.07697       -13.36413
|101>    H      -10.08817        -7.74791       -13.97194
|102>    H       -9.28626        -7.71452        -9.02238
|103>    H      -12.59543        -6.69424       -13.31938
|104> *
|105>
|106>                          ****END OF INPUT****

CARTESIAN COORDINATES (ANGSTROEM)
---------------------------------
  C      1.667650  -20.560520   -5.443300
  C      0.350450  -20.521830   -5.203580
  C     -0.498900  -21.600350   -4.783680
  C     -1.795800  -21.259170   -4.623890
  C     -2.081570  -19.891400   -4.902090
  S     -0.622710  -19.050910   -5.375220
  C     -3.302810  -19.262760   -4.833910
  C     -4.551640  -19.829220   -4.474190
  C     -5.585120  -18.948270   -4.514120
  C     -5.215230  -17.635980   -4.908400
  S     -3.495390  -17.561270   -5.218320
  C     -6.052050  -16.557950   -5.053580
  C     -5.623230  -15.289630   -5.464790
  O     -4.300510  -15.054290   -5.718190
  C     -6.323850  -14.112790   -5.703980
  C     -7.653930  -13.496930   -5.690680
  O     -8.733380  -13.955890   -5.419360
  N     -7.410390  -12.180090   -6.083930
  C     -6.084160  -11.884220   -6.348370
  O     -5.662060  -10.800620   -6.678250
  C     -5.381420  -13.150000   -6.119390
  C     -4.135090  -13.764880   -6.123080
  C     -2.858800  -13.265350   -6.458820
  C     -2.756250  -12.016680   -6.997270
  C     -1.609940  -11.292510   -7.347800
  S     -1.876040   -9.739200   -8.096050
  C     -0.183800   -9.321430   -8.158530
  C      0.563400  -10.375760   -7.623480
  C     -0.233560  -11.477350   -7.198170
  N      0.628860  -12.399070   -6.711500
  N      1.898960  -11.972370   -6.798310
  C      1.891180  -10.778620   -7.336580
  C      0.221950   -8.023240   -8.541710
  C     -0.587000   -7.150740   -9.197160
  C     -1.740410   -7.557910   -9.953110
  C     -3.002900   -6.939740   -9.820410
  C     -4.157290   -7.412500  -10.547740
  N     -5.351850   -6.839890  -10.330700
  C     -5.466180   -5.905780   -9.419280
  C     -4.322240   -5.449390   -8.688600
  N     -3.133360   -5.952530   -8.922230
  C     -4.466620   -4.416770   -7.729680
  N     -4.625460   -3.574770   -6.969340
  C     -6.757010   -5.364990   -9.196200
  N     -7.810640   -4.956760   -9.006990
  C     -4.064920   -8.428220  -11.524500
  C     -2.782990   -8.975190  -11.725130
  C     -1.654160   -8.590380  -10.913270
  N     -0.558280   -9.279980  -11.234050
  S     -0.912260  -10.298350  -12.421980
  N     -2.463360   -9.927120  -12.601110
  C     -5.170400   -8.812340  -12.340140
  C     -6.487550   -8.774820  -12.015710
  C     -7.160430   -8.725630  -10.734360
  C     -6.737620   -9.325720   -9.574100
  C     -7.587230   -9.514450   -8.467400
  N     -8.294460   -9.732950   -7.589480
  C     -5.471600   -9.926500   -9.451870
  N     -4.442320  -10.429640   -9.367580
  C     -8.498450   -8.204540  -10.973190
  C     -8.737220   -8.187460  -12.371210
  C     -7.528880   -8.662080  -13.077060
  O     -7.386210   -8.861740  -14.260190
  C     -9.923490   -7.746860  -12.905810
  C    -10.906770   -7.288390  -12.021830
  C    -10.646370   -7.289740  -10.629670
  C     -9.452640   -7.747530  -10.086430
  S    -11.986160   -6.658450   -9.726650
  C    -12.872150   -6.412220  -11.207300
  C    -12.199280   -6.779310  -12.323930
  Br   -14.602760   -5.696250  -11.143150
  H      2.220180  -21.476070   -5.326810
  H      2.211860  -19.688380   -5.756250
  H     -0.095740  -22.584130   -4.621800
  H     -2.568800  -21.940150   -4.315480
  H     -4.650580  -20.864200   -4.200610
  H     -6.606280  -19.189300   -4.278200
  H     -7.107220  -16.669980   -4.858570
  H     -8.136520  -11.481940   -6.201650
  H     -2.009260  -13.907730   -6.283110
  H     -3.676910  -11.479740   -7.185510
  H      0.434960  -13.302030   -6.311970
  H      2.807750  -10.250470   -7.501900
  H      1.184130   -7.693260   -8.173140
  H     -0.376820   -6.090900   -9.167700
  H     -4.928620   -9.076970  -13.364130
  H    -10.088170   -7.747910  -13.971940
  H     -9.286260   -7.714520   -9.022380
  H    -12.595430   -6.694240  -13.319380

 Total Charge           Charge          ....    0
 Multiplicity           Mult            ....    1
 Number of Electrons    NEL             ....  542
 Basis Dimension        Dim             .... 1122

ORBITAL ENERGIES
----------------

  NO   OCC          E(Eh)            E(eV)
   0   2.0000    -482.881334    -13139.8691
   1   2.0000     -89.045405     -2423.0486
   2   2.0000     -88.970856     -2421.0201
   3   2.0000     -88.965565     -2420.8761
   4   2.0000     -88.945699     -2420.3355
   5   2.0000     -88.944866     -2420.3129
   6   2.0000     -62.559077     -1702.3190
   7   2.0000     -56.393025     -1534.5322
   8   2.0000     -56.390313     -1534.4584
   9   2.0000     -56.390279     -1534.4575
  10   2.0000     -19.300984      -525.2065
  11   2.0000     -19.214453      -522.8518
  12   2.0000     -19.199409      -522.4425
  13   2.0000     -19.193961      -522.2942
  14   2.0000     -14.489765      -394.2865
  15   2.0000     -14.465614      -393.6294
  16   2.0000     -14.465214      -393.6185
  17   2.0000     -14.452896      -393.2833
  18   2.0000     -14.451446      -393.2439
  19   2.0000     -14.442931      -393.0121
  20   2.0000     -14.437073      -392.8527
  21   2.0000     -14.435005      -392.7965
  22   2.0000     -14.428975      -392.6324
  23   2.0000     -14.416536      -392.2939
  24   2.0000     -14.414923      -392.2500
  25   2.0000     -10.387946      -282.6704
  26   2.0000     -10.386620      -282.6343
  27   2.0000     -10.383200      -282.5412
  28   2.0000     -10.382131      -282.5121
  29   2.0000     -10.366220      -282.0792
  30   2.0000     -10.354553      -281.7617
  31   2.0000     -10.353615      -281.7362
  32   2.0000     -10.351587      -281.6810
  33   2.0000     -10.350450      -281.6501
  34   2.0000     -10.349363      -281.6205
  35   2.0000     -10.342971      -281.4466
  36   2.0000     -10.342844      -281.4431
  37   2.0000     -10.342600      -281.4365
  38   2.0000     -10.338970      -281.3377
  39   2.0000     -10.330500      -281.1072
  40   2.0000     -10.328096      -281.0418
  41   2.0000     -10.322581      -280.8917
  42   2.0000     -10.322551      -280.8909
  43   2.0000     -10.321636      -280.8660
  44   2.0000     -10.321025      -280.8494
  45   2.0000     -10.320806      -280.8434
  46   2.0000     -10.317257      -280.7468
  47   2.0000     -10.315746      -280.7057
  48   2.0000     -10.315168      -280.6900
  49   2.0000     -10.314903      -280.6828
  50   2.0000     -10.313446      -280.6431
  51   2.0000     -10.313311      -280.6394
  52   2.0000     -10.312498      -280.6173
  53   2.0000     -10.308882      -280.5189
  54   2.0000     -10.304954      -280.4121
  55   2.0000     -10.304241      -280.3926
  56   2.0000     -10.303819      -280.3812
  57   2.0000     -10.302680      -280.3502
  58   2.0000     -10.300947      -280.3030
  59   2.0000     -10.299517      -280.2641
  60   2.0000     -10.298334      -280.2319
  61   2.0000     -10.294796      -280.1356
  62   2.0000     -10.292834      -280.0822
  63   2.0000     -10.292378      -280.0698
  64   2.0000     -10.292071      -280.0615
  65   2.0000     -10.291232      -280.0387
  66   2.0000     -10.290946      -280.0309
  67   2.0000     -10.288729      -279.9705
  68   2.0000     -10.288089      -279.9531
  69   2.0000     -10.286446      -279.9084
  70   2.0000     -10.286176      -279.9011
  71   2.0000     -10.283478      -279.8277
  72   2.0000     -10.277059      -279.6530
  73   2.0000     -10.275838      -279.6198
  74   2.0000     -10.275530      -279.6114
  75   2.0000      -8.788524      -239.1479
  76   2.0000      -8.136664      -221.4099
  77   2.0000      -8.066922      -219.5121
  78   2.0000      -8.059221      -219.3026
  79   2.0000      -8.041611      -218.8234
  80   2.0000      -8.041562      -218.8220
  81   2.0000      -6.624834      -180.2709
  82   2.0000      -6.610268      -179.8745
  83   2.0000      -6.610044      -179.8685
  84   2.0000      -6.107619      -166.1968
  85   2.0000      -6.099860      -165.9856
  86   2.0000      -6.099676      -165.9806
  87   2.0000      -6.036610      -164.2645
  88   2.0000      -6.032310      -164.1475
  89   2.0000      -6.028504      -164.0439
  90   2.0000      -6.028130      -164.0338
  91   2.0000      -6.024169      -163.9260
  92   2.0000      -6.021673      -163.8580
  93   2.0000      -6.011464      -163.5803
  94   2.0000      -6.011393      -163.5783
  95   2.0000      -6.007473      -163.4717
  96   2.0000      -6.007214      -163.4646
  97   2.0000      -6.002370      -163.3328
  98   2.0000      -6.002153      -163.3269
  99   2.0000      -2.740662       -74.5772
 100   2.0000      -2.736622       -74.4673
 101   2.0000      -2.736500       -74.4640
 102   2.0000      -2.724898       -74.1482
 103   2.0000      -2.724868       -74.1474
 104   2.0000      -1.215387       -33.0724
 105   2.0000      -1.149587       -31.2818
 106   2.0000      -1.141562       -31.0635
 107   2.0000      -1.140819       -31.0433
 108   2.0000      -1.129602       -30.7380
 109   2.0000      -1.124190       -30.5908
 110   2.0000      -1.119990       -30.4765
 111   2.0000      -1.051660       -28.6171
 112   2.0000      -1.027250       -27.9529
 113   2.0000      -1.021583       -27.7987
 114   2.0000      -1.017987       -27.7008
 115   2.0000      -1.011324       -27.5195
 116   2.0000      -1.006734       -27.3946
 117   2.0000      -0.998885       -27.1811
 118   2.0000      -0.996989       -27.1294
 119   2.0000      -0.996158       -27.1068
 120   2.0000      -0.990164       -26.9437
 121   2.0000      -0.988071       -26.8868
 122   2.0000      -0.979781       -26.6612
 123   2.0000      -0.974849       -26.5270
 124   2.0000      -0.940598       -25.5950
 125   2.0000      -0.933674       -25.4066
 126   2.0000      -0.919790       -25.0288
 127   2.0000      -0.918255       -24.9870
 128   2.0000      -0.910906       -24.7870
 129   2.0000      -0.909945       -24.7609
 130   2.0000      -0.905946       -24.6520
 131   2.0000      -0.895956       -24.3802
 132   2.0000      -0.889721       -24.2105
 133   2.0000      -0.882728       -24.0203
 134   2.0000      -0.875276       -23.8175
 135   2.0000      -0.869010       -23.6470
 136   2.0000      -0.854191       -23.2437
 137   2.0000      -0.849566       -23.1179
 138   2.0000      -0.845998       -23.0208
 139   2.0000      -0.831001       -22.6127
 140   2.0000      -0.830759       -22.6061
 141   2.0000      -0.825403       -22.4604
 142   2.0000      -0.822595       -22.3839
 143   2.0000      -0.808654       -22.0046
 144   2.0000      -0.799356       -21.7516
 145   2.0000      -0.781928       -21.2774
 146   2.0000      -0.768465       -20.9110
 147   2.0000      -0.759258       -20.6605
 148   2.0000      -0.753075       -20.4922
 149   2.0000      -0.750562       -20.4238
 150   2.0000      -0.741336       -20.1728
 151   2.0000      -0.735211       -20.0061
 152   2.0000      -0.723287       -19.6816
 153   2.0000      -0.711148       -19.3513
 154   2.0000      -0.707813       -19.2606
 155   2.0000      -0.705872       -19.2078
 156   2.0000      -0.704104       -19.1596
 157   2.0000      -0.695635       -18.9292
 158   2.0000      -0.689927       -18.7739
 159   2.0000      -0.688209       -18.7271
 160   2.0000      -0.686988       -18.6939
 161   2.0000      -0.681344       -18.5403
 162   2.0000      -0.678141       -18.4532
 163   2.0000      -0.663364       -18.0511
 164   2.0000      -0.655019       -17.8240
 165   2.0000      -0.651805       -17.7365
 166   2.0000      -0.647157       -17.6100
 167   2.0000      -0.631347       -17.1798
 168   2.0000      -0.628525       -17.1030
 169   2.0000      -0.622052       -16.9269
 170   2.0000      -0.620601       -16.8874
 171   2.0000      -0.618325       -16.8255
 172   2.0000      -0.610909       -16.6237
 173   2.0000      -0.603783       -16.4298
 174   2.0000      -0.602539       -16.3959
 175   2.0000      -0.596586       -16.2339
 176   2.0000      -0.593467       -16.1491
 177   2.0000      -0.586858       -15.9692
 178   2.0000      -0.582534       -15.8516
 179   2.0000      -0.580492       -15.7960
 180   2.0000      -0.575558       -15.6617
 181   2.0000      -0.574606       -15.6358
 182   2.0000      -0.572772       -15.5859
 183   2.0000      -0.567845       -15.4518
 184   2.0000      -0.558614       -15.2006
 185   2.0000      -0.555975       -15.1288
 186   2.0000      -0.551531       -15.0079
 187   2.0000      -0.549964       -14.9653
 188   2.0000      -0.546983       -14.8842
 189   2.0000      -0.544871       -14.8267
 190   2.0000      -0.541867       -14.7450
 191   2.0000      -0.537447       -14.6247
 192   2.0000      -0.535015       -14.5585
 193   2.0000      -0.533584       -14.5196
 194   2.0000      -0.531153       -14.4534
 195   2.0000      -0.525769       -14.3069
 196   2.0000      -0.521985       -14.2039
 197   2.0000      -0.518881       -14.1195
 198   2.0000      -0.512954       -13.9582
 199   2.0000      -0.511565       -13.9204
 200   2.0000      -0.509104       -13.8534
 201   2.0000      -0.507223       -13.8023
 202   2.0000      -0.505712       -13.7611
 203   2.0000      -0.501266       -13.6401
 204   2.0000      -0.498303       -13.5595
 205   2.0000      -0.496983       -13.5236
 206   2.0000      -0.495722       -13.4893
 207   2.0000      -0.493094       -13.4178
 208   2.0000      -0.490275       -13.3411
 209   2.0000      -0.488339       -13.2884
 210   2.0000      -0.486760       -13.2454
 211   2.0000      -0.484438       -13.1822
 212   2.0000      -0.479072       -13.0362
 213   2.0000      -0.478335       -13.0161
 214   2.0000      -0.476958       -12.9787
 215   2.0000      -0.470873       -12.8131
 216   2.0000      -0.469624       -12.7791
 217   2.0000      -0.465721       -12.6729
 218   2.0000      -0.464591       -12.6422
 219   2.0000      -0.463274       -12.6063
 220   2.0000      -0.462280       -12.5793
 221   2.0000      -0.458967       -12.4891
 222   2.0000      -0.455511       -12.3951
 223   2.0000      -0.454051       -12.3554
 224   2.0000      -0.453275       -12.3342
 225   2.0000      -0.451138       -12.2761
 226   2.0000      -0.449701       -12.2370
 227   2.0000      -0.448865       -12.2142
 228   2.0000      -0.444070       -12.0838
 229   2.0000      -0.442487       -12.0407
 230   2.0000      -0.439954       -11.9718
 231   2.0000      -0.435455       -11.8493
 232   2.0000      -0.434099       -11.8124
 233   2.0000      -0.434077       -11.8118
 234   2.0000      -0.428635       -11.6638
 235   2.0000      -0.426397       -11.6028
 236   2.0000      -0.422876       -11.5070
 237   2.0000      -0.422522       -11.4974
 238   2.0000      -0.418809       -11.3964
 239   2.0000      -0.416608       -11.3365
 240   2.0000      -0.416493       -11.3333
 241   2.0000      -0.412496       -11.2246
 242   2.0000      -0.407278       -11.0826
 243   2.0000      -0.401796       -10.9334
 244   2.0000      -0.398745       -10.8504
 245   2.0000      -0.397307       -10.8113
 246   2.0000      -0.384044       -10.4504
 247   2.0000      -0.383310       -10.4304
 248   2.0000      -0.374839       -10.1999
 249   2.0000      -0.371203       -10.1009
 250   2.0000      -0.370860       -10.0916
 251   2.0000      -0.367400        -9.9975
 252   2.0000      -0.366680        -9.9779
 253   2.0000      -0.362277        -9.8581
 254   2.0000      -0.351760        -9.5719
 255   2.0000      -0.351039        -9.5522
 256   2.0000      -0.350329        -9.5329
 257   2.0000      -0.347048        -9.4437
 258   2.0000      -0.341772        -9.3001
 259   2.0000      -0.341581        -9.2949
 260   2.0000      -0.338790        -9.2189
 261   2.0000      -0.331085        -9.0093
 262   2.0000      -0.327075        -8.9002
 263   2.0000      -0.323442        -8.8013
 264   2.0000      -0.315569        -8.5871
 265   2.0000      -0.311108        -8.4657
 266   2.0000      -0.299819        -8.1585
 267   2.0000      -0.290470        -7.9041
 268   2.0000      -0.282519        -7.6877
 269   2.0000      -0.247280        -6.7288
 270   2.0000      -0.213748        -5.8164
 271   0.0000      -0.129018        -3.5108
 272   0.0000      -0.080359        -2.1867
 273   0.0000      -0.078352        -2.1321
 274   0.0000      -0.064835        -1.7643
 275   0.0000      -0.055451        -1.5089

MULLIKEN ATOMIC CHARGES
-----------------------
   0 C :   -0.026722
   1 C :   -0.064099
   2 C :    0.056263
   3 C :    0.031109
   4 C :   -0.065776
   5 S :    0.079895
   6 C :   -0.050007
   7 C :    0.035302
   8 C :    0.028936
   9 C :   -0.003206
  10 S :    0.098337
  11 C :   -0.056841
  12 C :    0.084243
  13 O :   -0.232909
  14 C :   -0.024184
  15 C :    0.156611
  16 O :   -0.148232
  17 N :   -0.154652
  18 C :    0.199544
  19 O :   -0.186063
  20 C :   -0.081342
  21 C :    0.126555
  22 C :   -0.022799
  23 C :    0.075260
  24 C :   -0.174421
  25 S :    0.171007
  26 C :   -0.117784
  27 C :    0.031827
  28 C :    0.160435
  29 N :   -0.041518
  30 N :   -0.060830
  31 C :   -0.002991
  32 C :    0.067225
  33 C :   -0.043311
  34 C :   -0.042861
  35 C :   -0.016928
  36 C :   -0.032944
  37 N :    0.023003
  38 C :   -0.119543
  39 C :   -0.123685
  40 N :    0.079377
  41 C :   -0.221918
  42 N :    0.237696
  43 C :   -0.196082
  44 N :    0.234399
  45 C :    0.024858
  46 C :    0.050286
  47 C :    0.030206
  48 N :   -0.257577
  49 S :    0.549746
  50 N :   -0.261965
  51 C :   -0.027539
  52 C :   -0.100256
  53 C :    0.291763
  54 C :   -0.353724
  55 C :   -0.123774
  56 N :    0.115339
  57 C :   -0.136000
  58 N :    0.129083
  59 C :   -0.012401
  60 C :    0.022081
  61 C :    0.130130
  62 O :   -0.136012
  63 C :   -0.085123
  64 C :    0.116296
  65 C :   -0.086855
  66 C :   -0.001455
  67 S :    0.197871
  68 C :   -0.123146
  69 C :    0.035906
  70 Br:    0.022925
  71 H :    0.023511
  72 H :    0.023925
  73 H :   -0.008648
  74 H :   -0.008806
  75 H :   -0.012302
  76 H :   -0.006753
  77 H :    0.007302
  78 H :    0.144063
  79 H :   -0.040882
  80 H :    0.007115
  81 H :    0.140390
  82 H :   -0.003019
  83 H :    0.005397
  84 H :    0.029447
  85 H :    0.034161
  86 H :   -0.008331
  87 H :    0.000969
  88 H :   -0.003582
Sum of atomic charges:   -0.0000000

LOEWDIN ATOMIC CHARGES
----------------------
   0 C :   -0.069178
   1 C :   -0.139608
   2 C :   -0.025935
   3 C :   -0.026374
   4 C :   -0.168975
   5 S :    0.353011
   6 C :   -0.188845
   7 C :   -0.023621
   8 C :   -0.036099
   9 C :   -0.129197
  10 S :    0.385751
  11 C :   -0.083346
  12 C :    0.062880
  13 O :   -0.001092
  14 C :   -0.099150
  15 C :    0.083287
  16 O :   -0.164305
  17 N :    0.002152
  18 C :    0.090457
  19 O :   -0.168267
  20 C :   -0.102094
  21 C :    0.067460
  22 C :   -0.059860
  23 C :   -0.006056
  24 C :   -0.190092
  25 S :    0.532878
  26 C :   -0.168033
  27 C :   -0.084690
  28 C :   -0.017960
  29 N :    0.095126
  30 N :   -0.052247
  31 C :   -0.035200
  32 C :    0.002048
  33 C :   -0.025675
  34 C :   -0.016601
  35 C :   -0.014479
  36 C :    0.005479
  37 N :    0.005571
  38 C :   -0.019241
  39 C :   -0.033556
  40 N :    0.008929
  41 C :   -0.036848
  42 N :   -0.005875
  43 C :   -0.031871
  44 N :   -0.006921
  45 C :   -0.043069
  46 C :   -0.030501
  47 C :   -0.053985
  48 N :   -0.272164
  49 S :    0.688385
  50 N :   -0.281854
  51 C :    0.066584
  52 C :   -0.064672
  53 C :    0.083804
  54 C :   -0.150133
  55 C :    0.003754
  56 N :   -0.069166
  57 C :    0.001464
  58 N :   -0.072283
  59 C :   -0.019669
  60 C :   -0.050681
  61 C :    0.085687
  62 O :   -0.137035
  63 C :    0.021358
  64 C :   -0.030613
  65 C :   -0.139887
  66 C :    0.000025
  67 S :    0.442136
  68 C :   -0.270788
  69 C :   -0.071135
  70 Br:    0.137272
  71 H :    0.030318
  72 H :    0.027388
  73 H :    0.034787
  74 H :    0.033520
  75 H :    0.031826
  76 H :    0.035626
  77 H :    0.049762
  78 H :    0.086512
  79 H :    0.026331
  80 H :    0.036574
  81 H :    0.087948
  82 H :    0.023767
  83 H :    0.041591
  84 H :    0.043744
  85 H :    0.052618
  86 H :    0.041365
  87 H :    0.041136
  88 H :    0.038621

  Mayer bond orders larger than 0.100000
B(  0-C ,  1-C ) :   1.8637 B(  0-C , 71-H ) :   0.9513 B(  0-C , 72-H ) :   0.9422
B(  1-C ,  2-C ) :   1.0793 B(  1-C ,  5-S ) :   1.0056 B(  2-C ,  3-C ) :   1.6634
B(  2-C , 73-H ) :   0.9928 B(  3-C ,  4-C ) :   1.1520 B(  3-C , 74-H ) :   0.9910
B(  4-C ,  5-S ) :   1.0517 B(  4-C ,  6-C ) :   1.5555 B(  6-C ,  7-C ) :   1.1738
B(  6-C , 10-S ) :   1.0154 B(  7-C ,  8-C ) :   1.6008 B(  7-C , 75-H ) :   0.9938
B(  8-C ,  9-C ) :   1.1359 B(  8-C , 76-H ) :   1.0021 B(  9-C , 10-S ) :   1.0597
B(  9-C , 11-C ) :   1.5315 B( 11-C , 12-C ) :   1.2246 B( 11-C , 77-H ) :   0.9647
B( 12-C , 13-O ) :   1.1146 B( 12-C , 14-C ) :   1.3622 B( 13-O , 21-C ) :   1.1179
B( 14-C , 15-C ) :   0.8859 B( 14-C , 20-C ) :   1.2984 B( 15-C , 16-O ) :   2.2590
B( 15-C , 17-N ) :   1.0765 B( 17-N , 18-C ) :   1.1334 B( 17-N , 78-H ) :   0.8925
B( 18-C , 19-O ) :   2.0548 B( 18-C , 20-C ) :   0.9055 B( 20-C , 21-C ) :   1.3988
B( 21-C , 22-C ) :   1.2054 B( 22-C , 23-C ) :   1.5580 B( 22-C , 79-H ) :   0.9703
B( 23-C , 24-C ) :   1.2430 B( 23-C , 80-H ) :   0.9037 B( 24-C , 25-S ) :   1.1528
B( 24-C , 26-C ) :   0.1020 B( 24-C , 28-C ) :   1.2768 B( 25-S , 26-C ) :   1.1382
B( 26-C , 27-C ) :   1.3014 B( 26-C , 32-C ) :   1.1899 B( 27-C , 28-C ) :   1.2765
B( 27-C , 31-C ) :   1.1634 B( 28-C , 29-N ) :   1.1648 B( 29-N , 30-N ) :   1.1383
B( 29-N , 81-H ) :   0.9501 B( 30-N , 31-C ) :   1.7270 B( 31-C , 82-H ) :   1.0015
B( 32-C , 33-C ) :   1.6699 B( 32-C , 83-H ) :   0.9699 B( 33-C , 34-C ) :   1.1262
B( 33-C , 84-H ) :   0.9522 B( 34-C , 35-C ) :   1.2543 B( 34-C , 45-C ) :   0.1342
B( 34-C , 47-C ) :   1.1955 B( 35-C , 36-C ) :   1.1199 B( 35-C , 40-N ) :   1.5025
B( 36-C , 37-N ) :   1.4252 B( 36-C , 45-C ) :   1.2668 B( 37-N , 38-C ) :   1.7074
B( 38-C , 39-C ) :   1.2063 B( 38-C , 43-C ) :   1.1623 B( 39-C , 40-N ) :   1.7216
B( 39-C , 41-C ) :   1.1662 B( 41-C , 42-N ) :   3.0436 B( 43-C , 44-N ) :   3.0040
B( 45-C , 46-C ) :   1.2040 B( 45-C , 51-C ) :   1.1062 B( 46-C , 47-C ) :   1.1192
B( 46-C , 50-N ) :   1.5595 B( 47-C , 48-N ) :   1.5304 B( 48-N , 49-S ) :   1.2986
B( 48-N , 50-N ) :   0.1517 B( 49-S , 50-N ) :   1.2777 B( 51-C , 52-C ) :   1.6737
B( 51-C , 85-H ) :   0.9486 B( 52-C , 53-C ) :   1.0305 B( 52-C , 61-C ) :   0.9369
B( 53-C , 54-C ) :   1.6251 B( 53-C , 59-C ) :   1.0181 B( 54-C , 55-C ) :   1.1583
B( 54-C , 57-C ) :   1.1874 B( 55-C , 56-N ) :   2.9049 B( 57-C , 58-N ) :   2.9055
B( 59-C , 60-C ) :   1.2736 B( 59-C , 66-C ) :   1.4111 B( 60-C , 61-C ) :   0.9181
B( 60-C , 63-C ) :   1.4168 B( 61-C , 62-O ) :   2.2813 B( 63-C , 64-C ) :   1.2496
B( 63-C , 86-H ) :   1.0176 B( 64-C , 65-C ) :   1.3051 B( 64-C , 69-C ) :   1.1646
B( 65-C , 66-C ) :   1.3335 B( 65-C , 67-S ) :   1.0868 B( 66-C , 87-H ) :   0.9837
B( 67-S , 68-C ) :   1.0917 B( 68-C , 69-C ) :   1.6154 B( 68-C , 70-Br) :   1.0188
B( 69-C , 88-H ) :   1.0008

-----------------------------------------------------------------------------
         ABSORPTION SPECTRUM VIA TRANSITION ELECTRIC DIPOLE MOMENTS
-----------------------------------------------------------------------------
State   Energy  Wavelength   fosc         T2         TX        TY        TZ
        (cm-1)    (nm)                  (au**2)     (au)      (au)      (au)
-----------------------------------------------------------------------------
   0    5512.4   1814.1   0.174650298  10.43042  -0.94502   2.48234  -1.83721
   1   12201.7    819.6   0.052530451   1.41731   0.97498   0.41377   0.54362
   2   15302.7    653.5   0.875065198  18.82552   0.84622  -4.12311   1.05330
   3   16917.8    591.1   0.021292565   0.41434  -0.59402  -0.17284  -0.17779
   4   17676.0    565.7   0.119531358   2.22624  -0.39265  -1.42370  -0.21246
   5   19202.2    520.8   0.021048516   0.36087  -0.53671   0.11328   0.24491
   6   19322.0    517.5   0.487895258   8.31284   2.84839  -0.44192  -0.06519
   7   22061.3    453.3   0.010331065   0.15417  -0.39220   0.01361   0.01270
   8   22301.2    448.4   0.083529048   1.23306   0.92366   0.58165  -0.20393
   9   22589.8    442.7   0.149937390   2.18511  -1.32472  -0.03996   0.65469
  10   23240.6    430.3   0.277615290   3.93252  -1.92519  -0.45390   0.14186
  11   23782.1    420.5   0.097291014   1.34678  -1.15645  -0.02767   0.09292
  12   24377.8    410.2   0.031335581   0.42317  -0.53607  -0.19461  -0.31294
  13   24476.3    408.6   0.005269121   0.07087  -0.26526  -0.01768  -0.01389
  14   25088.1    398.6   0.059434464   0.77991   0.79434  -0.18526   0.33856
  15   25462.2    392.7   0.172764765   2.23375   1.32385  -0.69351  -0.01480
  16   25775.6    388.0   0.038097968   0.48660  -0.63671  -0.23733   0.15772
  17   26318.1    380.0   0.016105799   0.20147   0.40982  -0.14421   0.11277
  18   27659.7    361.5   0.081246082   0.96701   0.95863  -0.21017  -0.06220
  19   27940.8    357.9   0.064659744   0.76185  -0.64439  -0.58678   0.04800
  20   28097.2    355.9   0.020293387   0.23778   0.13714  -0.19982   0.42313
  21   28358.3    352.6   0.017399233   0.20199   0.34391  -0.27571  -0.08777
  22   28731.2    348.1   0.009717496   0.11135  -0.13104  -0.30656  -0.01408
  23   28944.2    345.5   0.057383285   0.65268   0.23571   0.76301  -0.12224
  24   29577.7    338.1   0.208080914   2.31602  -0.92587   1.14539  -0.38323
  25   29753.0    336.1   0.257659269   2.85096  -1.62581  -0.13827  -0.43427
  26   30154.0    331.6   0.030194403   0.32965  -0.02968   0.57268  -0.02845
  27   30473.2    328.2   0.198276879   2.14205   0.99618  -0.66209  -0.84340
  28   30987.6    322.7   0.272822340   2.89846  -1.54018   0.70847   0.15610
  29   31302.7    319.5   0.002119888   0.02229  -0.00441  -0.00753   0.14906
  30   31455.0    317.9   0.031312095   0.32772   0.05809   0.48362  -0.30076
  31   32108.1    311.4   0.130450902   1.33754  -1.05943   0.12491   0.44670
  32   32415.4    308.5   0.089796063   0.91197   0.69676   0.63222  -0.16369
  33   32621.1    306.6   0.014137410   0.14267   0.09237   0.26553  -0.25226
  34   33175.2    301.4   0.033343183   0.33088  -0.36184  -0.39672   0.20631
  35   33301.7    300.3   0.033765405   0.33380  -0.07348   0.28531  -0.49698
  36   33710.9    296.6   0.171469876   1.67453   1.18585  -0.38661   0.34471
  37   33904.3    294.9   0.319328668   3.10069   1.39020  -0.96935   0.47791
  38   34107.2    293.2   0.036075738   0.34821  -0.34397  -0.35917   0.31764
  39   34584.4    289.1   0.094827622   0.90267  -0.36864   0.82434   0.29536
  40   34682.9    288.3   0.013949502   0.13241   0.14032  -0.33341   0.03948
  41   34795.8    287.4   0.092917863   0.87912   0.35194  -0.46393  -0.73486
  42   34936.4    286.2   0.185700697   1.74989   0.34369  -0.02881   1.27708
  43   34961.2    286.0   0.062736199   0.59075   0.71692  -0.23699   0.14360
  44   35054.8    285.3   0.026972054   0.25330   0.05843   0.25538   0.42973
  45   35161.5    284.4   0.086646228   0.81126  -0.50722   0.72005   0.18844
  46   35387.0    282.6   0.003380720   0.03145   0.06221  -0.02852   0.16361
  47   35484.3    281.8   0.028517233   0.26457  -0.48570  -0.10639  -0.13173
  48   35569.2    281.1   0.202975364   1.87864   1.16956  -0.68349  -0.20885
  49   35686.2    280.2   0.002576302   0.02377  -0.07114   0.00652  -0.13661
  50   35859.7    278.9   0.025414069   0.23332   0.22718  -0.37768  -0.19764
  51   36090.7    277.1   0.000663181   0.00605  -0.01646   0.04429   0.06178
  52   36187.9    276.3   0.039871572   0.36272   0.49447  -0.16869   0.29962
  53   36555.6    273.6   0.025576608   0.23034   0.17096  -0.35577   0.27301
  54   36984.5    270.4   0.003826690   0.03406  -0.14674   0.10264  -0.04468
  55   37116.1    269.4   0.019723853   0.17495  -0.37667   0.15232  -0.09931
  56   37277.6    268.3   0.084220453   0.74378  -0.82428   0.14789  -0.20608
  57   37335.5    267.8   0.250567744   2.20942  -1.18798   0.59354   0.66771
  58   37507.2    266.6   0.098233424   0.86222  -0.52830  -0.74904   0.14853
  59   37668.0    265.5   0.204704425   1.78908  -0.91605   0.93125   0.28760
  60   37870.7    264.1   0.006138072   0.05336   0.04640   0.22628   0.00143
  61   38419.1    260.3   0.068857699   0.59004  -0.60862   0.44122  -0.15797
  62   38512.0    259.7   0.007343267   0.06277  -0.15240   0.07816   0.18286
  63   38783.3    257.8   0.062501846   0.53055   0.31955  -0.63290   0.16696
  64   38828.4    257.5   0.006228907   0.05281   0.07429  -0.15402  -0.15353
  65   39093.7    255.8   0.016448041   0.13851   0.34233  -0.12487  -0.07569
  66   39364.4    254.0   0.015808208   0.13221   0.09860  -0.34167   0.07582
  67   39654.0    252.2   0.000089414   0.00074   0.02252  -0.00876   0.01260
  68   39701.2    251.9   0.042480216   0.35226   0.16428   0.13449  -0.55424
  69   39869.0    250.8   0.021382616   0.17656  -0.29889   0.09933   0.27814
  70   40107.3    249.3   0.050779400   0.41681   0.52310  -0.00098   0.37839
  71   40222.5    248.6   0.063969768   0.52358  -0.62106  -0.06641   0.36532

FINAL SINGLE POINT ENERGY     -7379.933348134416

DIPOLE MOMENT
-------------
                                X             Y             Z
Electronic contribution:   -113.87821      94.59085     -44.04936
Nuclear contribution   :    116.02417     -97.10686      43.07443
                        -----------------------------------------
Total Dipole Moment    :      2.14596      -2.51601      -0.97493
                        -----------------------------------------
Magnitude (a.u.)       :      3.44760
Magnitude (Debye)      :      8.76310

Rotational constants in cm-1:     0.001132     0.000425     0.000343
Rotational constants in MHz :    33.950447    12.736634    10.277359

                             ****ORCA TERMINATED NORMALLY****
TOTAL RUN TIME: 0 days 0 hours 18 minutes 29 seconds 605 msec
