                         Program Version 4.2.0 -  RELEASE  -
|  1> # ORCA input file
|  2> # SCF done       -183.011253663894          0.000541131165
|  3> ! CAM-B3LYP def2-SVP def2/J RIJCOSX Grid4 TightSCF
|  4> %maxcore 5000
|  5> %tddft
|  6>     Mode sTDDFT
|  7>     Ethresh 5.0
|  8>     maxcore 5000
|  9> end
| 10>
| 11> %pal
| 12>   nprocs 6
| 13>   end
| 14> * xyz 0 1
| 15>    C       12.72952        -3.55838        -3.98314
| 16>    C       11.69046        -3.92148        -4.74885
| 17>    C       11.52567        -3.72518        -6.15916
| 18>    C       10.36335        -4.20460        -6.66015
| 19>    C        9.51438        -4.81607        -5.70200
| 20>    S       10.26222        -4.75456        -4.11279
| 21>    C        8.28411        -5.39809        -5.89954
| 22>    C        7.56649        -5.53136        -7.10987
| 23>    C        6.37915        -6.17658        -6.95922
| 24>    C        6.08545        -6.59058        -5.63384
| 25>    S        7.38430        -6.10555        -4.56414
| 26>    C        4.94997        -7.29494        -5.30380
| 27>    C        4.54077        -7.79335        -4.06644
| 28>    S        3.09863        -8.77120        -3.95361
| 29>    C        3.27057        -9.04996        -2.24228
| 30>    C        4.40637        -8.38078        -1.77141
| 31>    C        5.11344        -7.68230        -2.79056
| 32>    N        6.23916        -7.00227        -2.51840
| 33>    C        6.66812        -6.99443        -1.28331
| 34>    N        7.79031        -6.26962        -0.98934
| 35>    C        5.92486        -7.66672        -0.23839
| 36>    N        6.39919        -7.65082         1.04946
| 37>    N        4.83503        -8.34355        -0.48635
| 38>    C        2.35018        -9.88438        -1.56991
| 39>    C        2.42598       -10.17913        -0.24911
| 40>    C        1.57157       -11.07711         0.47681
| 41>    C        0.52636       -11.79653        -0.12960
| 42>    C       -0.21292       -12.68398         0.61060
| 43>    C        0.08741       -12.90769         1.96818
| 44>    C        1.09649       -12.18354         2.58970
| 45>    C        1.81829       -11.27606         1.84533
| 46>    C       -0.74218       -13.98383         2.45518
| 47>    C       -1.56099       -14.42948         1.40209
| 48>    C       -1.35458       -13.57289         0.16981
| 49>    C       -0.99999       -14.41022        -1.06677
| 50>    C        0.21672       -15.29868        -0.83393
| 51>    C       -2.65642       -12.76435        -0.04095
| 52>    C       -2.60230       -11.69353        -1.12261
| 53>    C       -2.40803       -15.49419         1.57042
| 54>    C       -2.45144       -16.16280         2.80661
| 55>    C       -1.64116       -15.68980         3.85265
| 56>    C       -0.79453       -14.61439         3.69170
| 57>    C       -3.26493       -17.32323         3.04247
| 58>    C       -4.07104       -17.93713         2.14267
| 59>    C       -4.81125       -19.10913         2.41645
| 60>    S       -5.79174       -19.82232         1.16851
| 61>    C       -6.30869       -21.15488         2.16388
| 62>    C       -5.73060       -21.03008         3.43939
| 63>    C       -4.89823       -19.88305         3.58072
| 64>    N       -4.29322       -19.60371         4.76058
| 65>    C       -4.48583       -20.44418         5.74210
| 66>    N       -3.85563       -20.20187         6.93716
| 67>    C       -5.28486       -21.63959         5.57945
| 68>    N       -5.47983       -22.49206         6.63430
| 69>    N       -5.89922       -21.90215         4.45594
| 70>    C       -7.15402       -22.15000         1.65910
| 71>    C       -7.54593       -23.24595         2.38482
| 72>    C       -8.37486       -24.25750         1.89992
| 73>    C       -8.72528       -25.36952         2.63163
| 74>    C       -9.55210       -26.44176         2.22748
| 75>    C       -9.71110       -27.41737         3.16472
| 76>    C       -9.01421       -27.17290         4.37146
| 77>    S       -8.15292       -25.64942         4.27055
| 78>    C       -8.96621       -27.96632         5.49506
| 79>    C       -9.60743       -29.21566         5.70175
| 80>    C       -9.37319       -29.77395         6.91198
| 81>    C       -8.51985       -29.00186         7.76647
| 82>    S       -8.04153       -27.52154         6.92016
| 83>    C       -8.11459       -29.29869         9.00976
| 84>    H       13.57668        -3.05389        -4.41292
| 85>    H       12.75180        -3.75629        -2.92744
| 86>    H       12.28851        -3.23299        -6.73619
| 87>    H       10.07883        -4.14241        -7.69596
| 88>    H        7.93827        -5.15805        -8.04778
| 89>    H        5.69391        -6.37923        -7.76464
| 90>    H        4.28500        -7.51418        -6.13152
| 91>    H        8.27348        -5.92733        -1.80798
| 92>    H        8.38728        -6.62549        -0.26006
| 93>    H        6.87048        -6.81092         1.34510
| 94>    H        5.75150        -8.03315         1.72242
| 95>    H        1.57023       -10.30205        -2.19230
| 96>    H        3.22457        -9.71625         0.31306
| 97>    H        0.33082       -11.66730        -1.18204
| 98>    H        1.32299       -12.34208         3.63401
| 99>    H        2.61464       -10.71381         2.31237
|100>    H       -0.79707       -13.74402        -1.90629
|101>    H       -1.85877       -15.03101        -1.33139
|102>    H        1.08690       -14.69554        -0.58374
|103>    H        0.44086       -15.87245        -1.73055
|104>    H        0.03482       -15.99283        -0.01642
|105>    H       -2.91109       -12.28815         0.90983
|106>    H       -3.45387       -13.47291        -0.27725
|107>    H       -1.87060       -10.92945        -0.87432
|108>    H       -3.57613       -11.21499        -1.20511
|109>    H       -2.35470       -12.11965        -2.09137
|110>    H       -3.02701       -15.83052         0.75313
|111>    H       -1.68196       -16.19939         4.80503
|112>    H       -0.17491       -14.27539         4.50905
|113>    H       -3.20763       -17.75850         4.03001
|114>    H       -4.17667       -17.55397         1.13659
|115>    H       -3.43521       -19.28607         6.99338
|116>    H       -4.34133       -20.49599         7.76946
|117>    H       -4.70780       -22.62182         7.26827
|118>    H       -5.97011       -23.33882         6.38291
|119>    H       -7.49296       -22.03392         0.63703
|120>    H       -7.18009       -23.33388         3.39810
|121>    H       -8.76647       -24.18087         0.89313
|122>    H      -10.00517       -26.45893         1.25131
|123>    H      -10.30580       -28.30185         3.02182
|124>    H      -10.22380       -29.65997         4.94007
|125>    H       -9.77384       -30.71559         7.24335
|126>    H       -8.42962       -30.21049         9.48542
|127>    H       -7.46914       -28.64458         9.56628
|128> *
|129>
|130>                          ****END OF INPUT****

CARTESIAN COORDINATES (ANGSTROEM)
---------------------------------
  C     12.729520   -3.558380   -3.983140
  C     11.690460   -3.921480   -4.748850
  C     11.525670   -3.725180   -6.159160
  C     10.363350   -4.204600   -6.660150
  C      9.514380   -4.816070   -5.702000
  S     10.262220   -4.754560   -4.112790
  C      8.284110   -5.398090   -5.899540
  C      7.566490   -5.531360   -7.109870
  C      6.379150   -6.176580   -6.959220
  C      6.085450   -6.590580   -5.633840
  S      7.384300   -6.105550   -4.564140
  C      4.949970   -7.294940   -5.303800
  C      4.540770   -7.793350   -4.066440
  S      3.098630   -8.771200   -3.953610
  C      3.270570   -9.049960   -2.242280
  C      4.406370   -8.380780   -1.771410
  C      5.113440   -7.682300   -2.790560
  N      6.239160   -7.002270   -2.518400
  C      6.668120   -6.994430   -1.283310
  N      7.790310   -6.269620   -0.989340
  C      5.924860   -7.666720   -0.238390
  N      6.399190   -7.650820    1.049460
  N      4.835030   -8.343550   -0.486350
  C      2.350180   -9.884380   -1.569910
  C      2.425980  -10.179130   -0.249110
  C      1.571570  -11.077110    0.476810
  C      0.526360  -11.796530   -0.129600
  C     -0.212920  -12.683980    0.610600
  C      0.087410  -12.907690    1.968180
  C      1.096490  -12.183540    2.589700
  C      1.818290  -11.276060    1.845330
  C     -0.742180  -13.983830    2.455180
  C     -1.560990  -14.429480    1.402090
  C     -1.354580  -13.572890    0.169810
  C     -0.999990  -14.410220   -1.066770
  C      0.216720  -15.298680   -0.833930
  C     -2.656420  -12.764350   -0.040950
  C     -2.602300  -11.693530   -1.122610
  C     -2.408030  -15.494190    1.570420
  C     -2.451440  -16.162800    2.806610
  C     -1.641160  -15.689800    3.852650
  C     -0.794530  -14.614390    3.691700
  C     -3.264930  -17.323230    3.042470
  C     -4.071040  -17.937130    2.142670
  C     -4.811250  -19.109130    2.416450
  S     -5.791740  -19.822320    1.168510
  C     -6.308690  -21.154880    2.163880
  C     -5.730600  -21.030080    3.439390
  C     -4.898230  -19.883050    3.580720
  N     -4.293220  -19.603710    4.760580
  C     -4.485830  -20.444180    5.742100
  N     -3.855630  -20.201870    6.937160
  C     -5.284860  -21.639590    5.579450
  N     -5.479830  -22.492060    6.634300
  N     -5.899220  -21.902150    4.455940
  C     -7.154020  -22.150000    1.659100
  C     -7.545930  -23.245950    2.384820
  C     -8.374860  -24.257500    1.899920
  C     -8.725280  -25.369520    2.631630
  C     -9.552100  -26.441760    2.227480
  C     -9.711100  -27.417370    3.164720
  C     -9.014210  -27.172900    4.371460
  S     -8.152920  -25.649420    4.270550
  C     -8.966210  -27.966320    5.495060
  C     -9.607430  -29.215660    5.701750
  C     -9.373190  -29.773950    6.911980
  C     -8.519850  -29.001860    7.766470
  S     -8.041530  -27.521540    6.920160
  C     -8.114590  -29.298690    9.009760
  H     13.576680   -3.053890   -4.412920
  H     12.751800   -3.756290   -2.927440
  H     12.288510   -3.232990   -6.736190
  H     10.078830   -4.142410   -7.695960
  H      7.938270   -5.158050   -8.047780
  H      5.693910   -6.379230   -7.764640
  H      4.285000   -7.514180   -6.131520
  H      8.273480   -5.927330   -1.807980
  H      8.387280   -6.625490   -0.260060
  H      6.870480   -6.810920    1.345100
  H      5.751500   -8.033150    1.722420
  H      1.570230  -10.302050   -2.192300
  H      3.224570   -9.716250    0.313060
  H      0.330820  -11.667300   -1.182040
  H      1.322990  -12.342080    3.634010
  H      2.614640  -10.713810    2.312370
  H     -0.797070  -13.744020   -1.906290
  H     -1.858770  -15.031010   -1.331390
  H      1.086900  -14.695540   -0.583740
  H      0.440860  -15.872450   -1.730550
  H      0.034820  -15.992830   -0.016420
  H     -2.911090  -12.288150    0.909830
  H     -3.453870  -13.472910   -0.277250
  H     -1.870600  -10.929450   -0.874320
  H     -3.576130  -11.214990   -1.205110
  H     -2.354700  -12.119650   -2.091370
  H     -3.027010  -15.830520    0.753130
  H     -1.681960  -16.199390    4.805030
  H     -0.174910  -14.275390    4.509050
  H     -3.207630  -17.758500    4.030010
  H     -4.176670  -17.553970    1.136590
  H     -3.435210  -19.286070    6.993380
  H     -4.341330  -20.495990    7.769460
  H     -4.707800  -22.621820    7.268270
  H     -5.970110  -23.338820    6.382910
  H     -7.492960  -22.033920    0.637030
  H     -7.180090  -23.333880    3.398100
  H     -8.766470  -24.180870    0.893130
  H    -10.005170  -26.458930    1.251310
  H    -10.305800  -28.301850    3.021820
  H    -10.223800  -29.659970    4.940070
  H     -9.773840  -30.715590    7.243350
  H     -8.429620  -30.210490    9.485420
  H     -7.469140  -28.644580    9.566280

 Total Charge           Charge          ....    0
 Multiplicity           Mult            ....    1
 Number of Electrons    NEL             ....  526
 Basis Dimension        Dim             .... 1210

ORBITAL ENERGIES
----------------

  NO   OCC          E(Eh)            E(eV)
   0   2.0000     -88.946337     -2420.3529
   1   2.0000     -88.946235     -2420.3501
   2   2.0000     -88.929656     -2419.8990
   3   2.0000     -88.926582     -2419.8153
   4   2.0000     -88.925783     -2419.7936
   5   2.0000     -88.924198     -2419.7504
   6   2.0000     -14.430269      -392.6676
   7   2.0000     -14.430129      -392.6638
   8   2.0000     -14.429268      -392.6404
   9   2.0000     -14.428245      -392.6125
  10   2.0000     -14.402809      -391.9204
  11   2.0000     -14.402097      -391.9010
  12   2.0000     -14.401917      -391.8961
  13   2.0000     -14.401710      -391.8905
  14   2.0000     -10.352334      -281.7013
  15   2.0000     -10.352300      -281.7004
  16   2.0000     -10.352077      -281.6943
  17   2.0000     -10.351451      -281.6773
  18   2.0000     -10.297025      -280.1963
  19   2.0000     -10.295233      -280.1475
  20   2.0000     -10.295173      -280.1459
  21   2.0000     -10.294243      -280.1206
  22   2.0000     -10.294215      -280.1198
  23   2.0000     -10.292380      -280.0699
  24   2.0000     -10.292080      -280.0617
  25   2.0000     -10.291783      -280.0537
  26   2.0000     -10.291499      -280.0459
  27   2.0000     -10.290266      -280.0124
  28   2.0000     -10.289056      -279.9794
  29   2.0000     -10.288576      -279.9664
  30   2.0000     -10.287024      -279.9242
  31   2.0000     -10.286672      -279.9146
  32   2.0000     -10.284541      -279.8566
  33   2.0000     -10.283209      -279.8204
  34   2.0000     -10.277820      -279.6737
  35   2.0000     -10.275546      -279.6118
  36   2.0000     -10.274546      -279.5846
  37   2.0000     -10.273213      -279.5483
  38   2.0000     -10.272127      -279.5188
  39   2.0000     -10.270850      -279.4840
  40   2.0000     -10.269328      -279.4426
  41   2.0000     -10.268430      -279.4182
  42   2.0000     -10.267951      -279.4051
  43   2.0000     -10.267312      -279.3878
  44   2.0000     -10.265996      -279.3520
  45   2.0000     -10.264105      -279.3005
  46   2.0000     -10.262906      -279.2679
  47   2.0000     -10.262692      -279.2620
  48   2.0000     -10.261627      -279.2331
  49   2.0000     -10.261606      -279.2325
  50   2.0000     -10.257215      -279.1130
  51   2.0000     -10.256988      -279.1068
  52   2.0000     -10.256881      -279.1039
  53   2.0000     -10.256275      -279.0874
  54   2.0000     -10.255521      -279.0669
  55   2.0000     -10.255080      -279.0549
  56   2.0000     -10.255079      -279.0549
  57   2.0000     -10.255023      -279.0534
  58   2.0000     -10.254376      -279.0358
  59   2.0000     -10.254290      -279.0334
  60   2.0000     -10.254107      -279.0284
  61   2.0000     -10.253539      -279.0130
  62   2.0000     -10.252872      -278.9948
  63   2.0000     -10.251858      -278.9673
  64   2.0000     -10.250665      -278.9348
  65   2.0000     -10.250431      -278.9284
  66   2.0000     -10.250141      -278.9205
  67   2.0000     -10.241938      -278.6973
  68   2.0000     -10.235462      -278.5211
  69   2.0000      -8.041551      -218.8217
  70   2.0000      -8.041430      -218.8184
  71   2.0000      -8.025693      -218.3902
  72   2.0000      -8.023262      -218.3241
  73   2.0000      -8.022286      -218.2975
  74   2.0000      -8.018395      -218.1916
  75   2.0000      -6.010637      -163.5577
  76   2.0000      -6.010467      -163.5531
  77   2.0000      -6.006903      -163.4561
  78   2.0000      -6.006660      -163.4495
  79   2.0000      -6.003868      -163.3736
  80   2.0000      -6.003796      -163.3716
  81   2.0000      -5.995455      -163.1446
  82   2.0000      -5.993079      -163.0800
  83   2.0000      -5.992122      -163.0539
  84   2.0000      -5.991552      -163.0384
  85   2.0000      -5.989254      -162.9759
  86   2.0000      -5.988415      -162.9531
  87   2.0000      -5.988298      -162.9499
  88   2.0000      -5.986520      -162.9015
  89   2.0000      -5.984068      -162.8348
  90   2.0000      -5.983769      -162.8266
  91   2.0000      -5.982838      -162.8013
  92   2.0000      -5.979131      -162.7004
  93   2.0000      -1.087561       -29.5941
  94   2.0000      -1.086656       -29.5694
  95   2.0000      -1.025818       -27.9139
  96   2.0000      -1.025020       -27.8922
  97   2.0000      -1.008475       -27.4420
  98   2.0000      -1.007480       -27.4149
  99   2.0000      -0.978706       -26.6319
 100   2.0000      -0.974517       -26.5180
 101   2.0000      -0.972925       -26.4746
 102   2.0000      -0.956884       -26.0381
 103   2.0000      -0.956152       -26.0182
 104   2.0000      -0.953409       -25.9436
 105   2.0000      -0.953186       -25.9375
 106   2.0000      -0.951180       -25.8829
 107   2.0000      -0.947768       -25.7901
 108   2.0000      -0.930238       -25.3131
 109   2.0000      -0.905981       -24.6530
 110   2.0000      -0.892166       -24.2771
 111   2.0000      -0.883151       -24.0318
 112   2.0000      -0.876386       -23.8477
 113   2.0000      -0.867744       -23.6125
 114   2.0000      -0.859703       -23.3937
 115   2.0000      -0.849697       -23.1214
 116   2.0000      -0.838768       -22.8240
 117   2.0000      -0.831539       -22.6273
 118   2.0000      -0.828927       -22.5562
 119   2.0000      -0.827539       -22.5185
 120   2.0000      -0.825409       -22.4605
 121   2.0000      -0.817810       -22.2537
 122   2.0000      -0.817374       -22.2419
 123   2.0000      -0.816582       -22.2203
 124   2.0000      -0.815129       -22.1808
 125   2.0000      -0.808378       -21.9971
 126   2.0000      -0.803892       -21.8750
 127   2.0000      -0.800043       -21.7703
 128   2.0000      -0.786724       -21.4078
 129   2.0000      -0.775038       -21.0899
 130   2.0000      -0.757000       -20.5990
 131   2.0000      -0.751810       -20.4578
 132   2.0000      -0.748834       -20.3768
 133   2.0000      -0.746127       -20.3031
 134   2.0000      -0.745737       -20.2925
 135   2.0000      -0.728687       -19.8286
 136   2.0000      -0.719470       -19.5778
 137   2.0000      -0.716179       -19.4882
 138   2.0000      -0.698853       -19.0168
 139   2.0000      -0.697332       -18.9754
 140   2.0000      -0.681205       -18.5365
 141   2.0000      -0.679060       -18.4782
 142   2.0000      -0.674682       -18.3590
 143   2.0000      -0.667183       -18.1550
 144   2.0000      -0.666372       -18.1329
 145   2.0000      -0.665165       -18.1001
 146   2.0000      -0.660081       -17.9617
 147   2.0000      -0.656765       -17.8715
 148   2.0000      -0.643850       -17.5201
 149   2.0000      -0.639029       -17.3889
 150   2.0000      -0.630841       -17.1661
 151   2.0000      -0.627798       -17.0832
 152   2.0000      -0.624021       -16.9805
 153   2.0000      -0.620973       -16.8975
 154   2.0000      -0.619410       -16.8550
 155   2.0000      -0.612584       -16.6693
 156   2.0000      -0.606121       -16.4934
 157   2.0000      -0.604903       -16.4603
 158   2.0000      -0.598427       -16.2840
 159   2.0000      -0.594825       -16.1860
 160   2.0000      -0.588560       -16.0155
 161   2.0000      -0.587729       -15.9929
 162   2.0000      -0.585987       -15.9455
 163   2.0000      -0.585075       -15.9207
 164   2.0000      -0.582525       -15.8513
 165   2.0000      -0.581713       -15.8292
 166   2.0000      -0.578185       -15.7332
 167   2.0000      -0.574898       -15.6438
 168   2.0000      -0.570461       -15.5230
 169   2.0000      -0.558162       -15.1884
 170   2.0000      -0.555269       -15.1096
 171   2.0000      -0.554925       -15.1003
 172   2.0000      -0.548227       -14.9180
 173   2.0000      -0.542333       -14.7576
 174   2.0000      -0.538745       -14.6600
 175   2.0000      -0.534811       -14.5530
 176   2.0000      -0.530227       -14.4282
 177   2.0000      -0.528251       -14.3744
 178   2.0000      -0.525921       -14.3110
 179   2.0000      -0.524403       -14.2697
 180   2.0000      -0.517952       -14.0942
 181   2.0000      -0.517313       -14.0768
 182   2.0000      -0.514626       -14.0037
 183   2.0000      -0.510541       -13.8925
 184   2.0000      -0.508442       -13.8354
 185   2.0000      -0.506645       -13.7865
 186   2.0000      -0.504611       -13.7312
 187   2.0000      -0.502547       -13.6750
 188   2.0000      -0.498274       -13.5587
 189   2.0000      -0.492085       -13.3903
 190   2.0000      -0.490215       -13.3394
 191   2.0000      -0.486233       -13.2311
 192   2.0000      -0.485415       -13.2088
 193   2.0000      -0.481709       -13.1080
 194   2.0000      -0.480841       -13.0843
 195   2.0000      -0.478488       -13.0203
 196   2.0000      -0.475896       -12.9498
 197   2.0000      -0.474553       -12.9132
 198   2.0000      -0.472500       -12.8574
 199   2.0000      -0.467506       -12.7215
 200   2.0000      -0.466085       -12.6828
 201   2.0000      -0.465588       -12.6693
 202   2.0000      -0.462852       -12.5948
 203   2.0000      -0.457871       -12.4593
 204   2.0000      -0.454190       -12.3591
 205   2.0000      -0.450104       -12.2480
 206   2.0000      -0.449672       -12.2362
 207   2.0000      -0.448821       -12.2130
 208   2.0000      -0.445998       -12.1362
 209   2.0000      -0.443374       -12.0648
 210   2.0000      -0.442774       -12.0485
 211   2.0000      -0.441277       -12.0078
 212   2.0000      -0.439909       -11.9705
 213   2.0000      -0.438746       -11.9389
 214   2.0000      -0.436632       -11.8814
 215   2.0000      -0.435017       -11.8374
 216   2.0000      -0.432181       -11.7602
 217   2.0000      -0.427937       -11.6448
 218   2.0000      -0.425333       -11.5739
 219   2.0000      -0.420427       -11.4404
 220   2.0000      -0.418759       -11.3950
 221   2.0000      -0.414994       -11.2926
 222   2.0000      -0.413560       -11.2536
 223   2.0000      -0.411409       -11.1950
 224   2.0000      -0.410664       -11.1747
 225   2.0000      -0.407446       -11.0872
 226   2.0000      -0.406813       -11.0699
 227   2.0000      -0.405585       -11.0365
 228   2.0000      -0.403522       -10.9804
 229   2.0000      -0.399599       -10.8736
 230   2.0000      -0.396341       -10.7850
 231   2.0000      -0.395951       -10.7744
 232   2.0000      -0.387980       -10.5575
 233   2.0000      -0.384897       -10.4736
 234   2.0000      -0.382252       -10.4016
 235   2.0000      -0.380979       -10.3670
 236   2.0000      -0.376285       -10.2392
 237   2.0000      -0.373439       -10.1618
 238   2.0000      -0.368403       -10.0248
 239   2.0000      -0.366550        -9.9743
 240   2.0000      -0.363724        -9.8974
 241   2.0000      -0.359340        -9.7781
 242   2.0000      -0.349590        -9.5128
 243   2.0000      -0.346034        -9.4161
 244   2.0000      -0.343336        -9.3426
 245   2.0000      -0.326608        -8.8875
 246   2.0000      -0.324934        -8.8419
 247   2.0000      -0.321507        -8.7487
 248   2.0000      -0.316749        -8.6192
 249   2.0000      -0.316050        -8.6002
 250   2.0000      -0.310546        -8.4504
 251   2.0000      -0.307156        -8.3581
 252   2.0000      -0.304480        -8.2853
 253   2.0000      -0.301884        -8.2147
 254   2.0000      -0.300783        -8.1847
 255   2.0000      -0.292848        -7.9688
 256   2.0000      -0.274277        -7.4635
 257   2.0000      -0.270085        -7.3494
 258   2.0000      -0.267251        -7.2723
 259   2.0000      -0.244784        -6.6609
 260   2.0000      -0.228803        -6.2261
 261   2.0000      -0.191391        -5.2080
 262   2.0000      -0.185309        -5.0425
 263   0.0000      -0.070225        -1.9109
 264   0.0000      -0.063592        -1.7304
 265   0.0000      -0.029769        -0.8100
 266   0.0000      -0.017546        -0.4775
 267   0.0000      -0.003442        -0.0937

MULLIKEN ATOMIC CHARGES
-----------------------
   0 C :   -0.040907
   1 C :   -0.050876
   2 C :    0.040284
   3 C :    0.028541
   4 C :   -0.074606
   5 S :    0.035390
   6 C :   -0.018794
   7 C :    0.023957
   8 C :    0.025402
   9 C :   -0.003931
  10 S :    0.069120
  11 C :   -0.005857
  12 C :   -0.172151
  13 S :    0.135008
  14 C :   -0.165104
  15 C :    0.043376
  16 C :    0.070294
  17 N :   -0.047913
  18 C :   -0.074396
  19 N :   -0.061620
  20 C :   -0.096720
  21 N :   -0.060678
  22 N :   -0.011942
  23 C :    0.054552
  24 C :   -0.032324
  25 C :    0.136795
  26 C :   -0.094440
  27 C :    0.022930
  28 C :    0.095798
  29 C :   -0.049038
  30 C :   -0.021792
  31 C :    0.092975
  32 C :    0.019695
  33 C :   -0.133573
  34 C :    0.051616
  35 C :    0.028815
  36 C :    0.083740
  37 C :    0.033921
  38 C :   -0.090792
  39 C :    0.136509
  40 C :   -0.021965
  41 C :   -0.043991
  42 C :   -0.033134
  43 C :    0.050608
  44 C :   -0.166125
  45 S :    0.138423
  46 C :   -0.151618
  47 C :    0.047143
  48 C :    0.052440
  49 N :   -0.009006
  50 C :   -0.096425
  51 N :   -0.062173
  52 C :   -0.093164
  53 N :   -0.058868
  54 N :   -0.010124
  55 C :    0.013107
  56 C :   -0.007213
  57 C :    0.008089
  58 C :   -0.030779
  59 C :    0.041681
  60 C :    0.015337
  61 C :   -0.035339
  62 S :    0.052623
  63 C :   -0.071899
  64 C :    0.027876
  65 C :    0.045797
  66 C :   -0.058252
  67 S :    0.057376
  68 C :   -0.039285
  69 H :    0.013495
  70 H :    0.010781
  71 H :   -0.017807
  72 H :   -0.015709
  73 H :   -0.024859
  74 H :   -0.019241
  75 H :   -0.028754
  76 H :    0.140846
  77 H :    0.121890
  78 H :    0.119246
  79 H :    0.129181
  80 H :   -0.041975
  81 H :   -0.027268
  82 H :   -0.043539
  83 H :   -0.041488
  84 H :   -0.037048
  85 H :    0.002401
  86 H :   -0.005452
  87 H :    0.020222
  88 H :    0.004859
  89 H :    0.021839
  90 H :    0.002738
  91 H :   -0.007280
  92 H :    0.020643
  93 H :    0.009018
  94 H :   -0.000081
  95 H :   -0.047257
  96 H :   -0.037928
  97 H :   -0.043567
  98 H :   -0.026939
  99 H :   -0.041997
 100 H :    0.129963
 101 H :    0.119200
 102 H :    0.120505
 103 H :    0.136930
 104 H :   -0.036083
 105 H :    0.007272
 106 H :   -0.025342
 107 H :   -0.018197
 108 H :   -0.019845
 109 H :   -0.015113
 110 H :   -0.017946
 111 H :    0.014014
 112 H :    0.013265
Sum of atomic charges:   -0.0000000

LOEWDIN ATOMIC CHARGES
----------------------
   0 C :   -0.096386
   1 C :   -0.135735
   2 C :   -0.045999
   3 C :   -0.024892
   4 C :   -0.188728
   5 S :    0.323620
   6 C :   -0.185898
   7 C :   -0.043936
   8 C :   -0.032259
   9 C :   -0.149445
  10 S :    0.404279
  11 C :   -0.072142
  12 C :   -0.194821
  13 S :    0.445383
  14 C :   -0.182088
  15 C :   -0.050701
  16 C :   -0.046741
  17 N :   -0.098069
  18 C :    0.018945
  19 N :   -0.015704
  20 C :    0.020497
  21 N :   -0.021156
  22 N :   -0.091473
  23 C :   -0.050947
  24 C :   -0.015189
  25 C :   -0.025326
  26 C :   -0.020092
  27 C :    0.003469
  28 C :   -0.018337
  29 C :   -0.024258
  30 C :   -0.019453
  31 C :   -0.020768
  32 C :    0.006281
  33 C :   -0.034690
  34 C :   -0.016429
  35 C :   -0.056537
  36 C :   -0.009108
  37 C :   -0.059742
  38 C :   -0.019957
  39 C :   -0.023673
  40 C :   -0.020742
  41 C :   -0.023276
  42 C :   -0.015223
  43 C :   -0.050095
  44 C :   -0.182079
  45 S :    0.451031
  46 C :   -0.193076
  47 C :   -0.044501
  48 C :   -0.050297
  49 N :   -0.087983
  50 C :    0.017943
  51 N :   -0.022102
  52 C :    0.019877
  53 N :   -0.017648
  54 N :   -0.083892
  55 C :   -0.037781
  56 C :   -0.038224
  57 C :   -0.048207
  58 C :   -0.153692
  59 C :   -0.032487
  60 C :   -0.042858
  61 C :   -0.174757
  62 S :    0.359146
  63 C :   -0.188597
  64 C :   -0.026050
  65 C :   -0.042641
  66 C :   -0.137318
  67 S :    0.334588
  68 C :   -0.092583
  69 H :    0.025710
  70 H :    0.021246
  71 H :    0.030491
  72 H :    0.031224
  73 H :    0.025976
  74 H :    0.029985
  75 H :    0.032312
  76 H :    0.077131
  77 H :    0.072220
  78 H :    0.070552
  79 H :    0.080134
  80 H :    0.020573
  81 H :    0.022902
  82 H :    0.020588
  83 H :    0.024284
  84 H :    0.023359
  85 H :    0.018402
  86 H :    0.018811
  87 H :    0.025736
  88 H :    0.022214
  89 H :    0.025566
  90 H :    0.026316
  91 H :    0.018875
  92 H :    0.024774
  93 H :    0.026191
  94 H :    0.018623
  95 H :    0.020497
  96 H :    0.022984
  97 H :    0.023931
  98 H :    0.022716
  99 H :    0.020369
 100 H :    0.080385
 101 H :    0.070402
 102 H :    0.071272
 103 H :    0.083926
 104 H :    0.024047
 105 H :    0.017664
 106 H :    0.028782
 107 H :    0.031799
 108 H :    0.028742
 109 H :    0.031039
 110 H :    0.030695
 111 H :    0.025985
 112 H :    0.022302

  Mayer bond orders larger than 0.100000
B(  0-C ,  1-C ) :   1.8562 B(  0-C , 69-H ) :   0.9490 B(  0-C , 70-H ) :   0.9419
B(  1-C ,  2-C ) :   1.0881 B(  1-C ,  5-S ) :   1.0089 B(  2-C ,  3-C ) :   1.6425
B(  2-C , 71-H ) :   0.9925 B(  3-C ,  4-C ) :   1.1669 B(  3-C , 72-H ) :   0.9920
B(  4-C ,  5-S ) :   1.0235 B(  4-C ,  6-C ) :   1.5459 B(  6-C ,  7-C ) :   1.1756
B(  6-C , 10-S ) :   0.9925 B(  7-C ,  8-C ) :   1.5900 B(  7-C , 73-H ) :   0.9923
B(  8-C ,  9-C ) :   1.1473 B(  8-C , 74-H ) :   0.9989 B(  9-C , 10-S ) :   1.0495
B(  9-C , 11-C ) :   1.5701 B( 11-C , 12-C ) :   1.2048 B( 11-C , 75-H ) :   0.9393
B( 12-C , 13-S ) :   1.1163 B( 12-C , 14-C ) :   0.1189 B( 12-C , 16-C ) :   1.3152
B( 13-S , 14-C ) :   1.1284 B( 14-C , 15-C ) :   1.3545 B( 14-C , 23-C ) :   1.1575
B( 15-C , 16-C ) :   1.2453 B( 15-C , 22-N ) :   1.3373 B( 16-C , 17-N ) :   1.3587
B( 17-N , 18-C ) :   1.6497 B( 18-C , 19-N ) :   1.2726 B( 18-C , 20-C ) :   1.0607
B( 19-N , 76-H ) :   0.9289 B( 19-N , 77-H ) :   0.9275 B( 20-C , 21-N ) :   1.2558
B( 20-C , 22-N ) :   1.7116 B( 21-N , 78-H ) :   0.9295 B( 21-N , 79-H ) :   0.9323
B( 23-C , 24-C ) :   1.6544 B( 23-C , 80-H ) :   0.9414 B( 24-C , 25-C ) :   1.0668
B( 24-C , 81-H ) :   0.9694 B( 25-C , 26-C ) :   1.2834 B( 25-C , 30-C ) :   1.3305
B( 26-C , 27-C ) :   1.4241 B( 26-C , 82-H ) :   0.9910 B( 27-C , 28-C ) :   1.3619
B( 27-C , 33-C ) :   0.9179 B( 28-C , 29-C ) :   1.3402 B( 28-C , 31-C ) :   1.0007
B( 29-C , 30-C ) :   1.3742 B( 29-C , 83-H ) :   0.9884 B( 30-C , 84-H ) :   0.9940
B( 31-C , 32-C ) :   1.3611 B( 31-C , 41-C ) :   1.3395 B( 32-C , 33-C ) :   0.9245
B( 32-C , 38-C ) :   1.4147 B( 33-C , 34-C ) :   1.0361 B( 33-C , 36-C ) :   1.0137
B( 34-C , 35-C ) :   1.1062 B( 34-C , 85-H ) :   0.9368 B( 34-C , 86-H ) :   0.9379
B( 35-C , 87-H ) :   0.9640 B( 35-C , 88-H ) :   0.9644 B( 35-C , 89-H ) :   0.9630
B( 36-C , 37-C ) :   1.1142 B( 36-C , 90-H ) :   0.9379 B( 36-C , 91-H ) :   0.9368
B( 37-C , 92-H ) :   0.9604 B( 37-C , 93-H ) :   0.9594 B( 37-C , 94-H ) :   0.9625
B( 38-C , 39-C ) :   1.2884 B( 38-C , 95-H ) :   0.9965 B( 39-C , 40-C ) :   1.3325
B( 39-C , 42-C ) :   1.0640 B( 40-C , 41-C ) :   1.3744 B( 40-C , 96-H ) :   0.9923
B( 41-C , 97-H ) :   0.9892 B( 42-C , 43-C ) :   1.6574 B( 42-C , 98-H ) :   0.9694
B( 43-C , 44-C ) :   1.1569 B( 43-C , 99-H ) :   0.9416 B( 44-C , 45-S ) :   1.1404
B( 44-C , 46-C ) :   0.1190 B( 44-C , 48-C ) :   1.3402 B( 45-S , 46-C ) :   1.1106
B( 46-C , 47-C ) :   1.3235 B( 46-C , 55-C ) :   1.1925 B( 47-C , 48-C ) :   1.2458
B( 47-C , 54-N ) :   1.3518 B( 48-C , 49-N ) :   1.3402 B( 49-N , 50-C ) :   1.7142
B( 50-C , 51-N ) :   1.2562 B( 50-C , 52-C ) :   1.0480 B( 51-N ,100-H ) :   0.9328
B( 51-N ,101-H ) :   0.9289 B( 52-C , 53-N ) :   1.2643 B( 52-C , 54-N ) :   1.7003
B( 53-N ,102-H ) :   0.9288 B( 53-N ,103-H ) :   0.9295 B( 55-C , 56-C ) :   1.5873
B( 55-C ,104-H ) :   0.9596 B( 56-C , 57-C ) :   1.1771 B( 56-C ,105-H ) :   0.9478
B( 57-C , 58-C ) :   1.5346 B( 57-C ,106-H ) :   0.9827 B( 58-C , 59-C ) :   1.1551
B( 58-C , 62-S ) :   1.0269 B( 59-C , 60-C ) :   1.5841 B( 59-C ,107-H ) :   0.9976
B( 60-C , 61-C ) :   1.1854 B( 60-C ,108-H ) :   0.9926 B( 61-C , 62-S ) :   1.0417
B( 61-C , 63-C ) :   1.5385 B( 63-C , 64-C ) :   1.1675 B( 63-C , 67-S ) :   1.0310
B( 64-C , 65-C ) :   1.6482 B( 64-C ,109-H ) :   0.9911 B( 65-C , 66-C ) :   1.0855
B( 65-C ,110-H ) :   0.9929 B( 66-C , 67-S ) :   1.0105 B( 66-C , 68-C ) :   1.8565
B( 68-C ,111-H ) :   0.9499 B( 68-C ,112-H ) :   0.9423

-----------------------------------------------------------------------------
         ABSORPTION SPECTRUM VIA TRANSITION ELECTRIC DIPOLE MOMENTS
-----------------------------------------------------------------------------
State   Energy  Wavelength   fosc         T2         TX        TY        TZ
        (cm-1)    (nm)                  (au**2)     (au)      (au)      (au)
-----------------------------------------------------------------------------
   0   12757.5    783.9   3.077442351  79.41446  -5.08446  -6.58937   3.18479
   1   14025.0    713.0   0.184893941   4.34004  -1.70025   0.76589   0.92877
   2   19260.3    519.2   0.029116802   0.49769   0.21632   0.63483  -0.21883
   3   20233.0    494.2   0.033089409   0.53840   0.43470  -0.06263   0.58781
   4   20330.8    491.9   0.197687218   3.20110  -0.90858  -1.36513   0.71554
   5   21514.5    464.8   0.084478491   1.29268   1.10265   0.26293   0.08783
   6   22766.0    439.3   0.085731246   1.23973  -0.48564  -0.09064  -0.99783
   7   24134.3    414.3   0.117922667   1.60857   0.81433   0.09833   0.96735
   8   25227.7    396.4   0.597175102   7.79291  -1.39420  -2.03256   1.31065
   9   27161.3    368.2   0.209182289   2.53542   0.71624   0.33221   1.38277
  10   27289.3    366.4   0.083522829   1.00760  -0.30822  -0.79985   0.52234
  11   28146.6    355.3   0.176922581   2.06935  -1.07111  -0.46714  -0.83896
  12   29126.7    343.3   0.207961352   2.35054  -0.76772  -0.14788  -1.31882
  13   29604.1    337.8   0.093377931   1.03841   0.40795  -0.16300   0.91946
  14   29675.7    337.0   0.122470517   1.35864   0.13046  -0.33917   1.10751
  15   30377.8    329.2   0.009802083   0.10623  -0.03493  -0.02747  -0.32288
  16   30441.5    328.5   0.174671653   1.88900   0.47268  -0.15083   1.28173
  17   31330.1    319.2   0.165011755   1.73392  -0.86639  -0.31388  -0.94062
  18   31411.2    318.4   0.056689586   0.59415  -0.47872  -0.47657   0.37129
  19   32012.2    312.4   0.174412767   1.79365   0.61567  -0.19993   1.17245
  20   32705.4    305.8   0.015237771   0.15338  -0.30640  -0.24352   0.01413
  21   32763.0    305.2   0.000717424   0.00721  -0.08151  -0.00170   0.02370
  22   33363.1    299.7   0.068550436   0.67642   0.43100   0.18585   0.67537
  23   34009.2    294.0   0.120412139   1.16560   0.64268   0.33614   0.79973
  24   34111.2    293.2   0.025352701   0.24468   0.32190   0.24278   0.28657
  25   34241.5    292.0   0.028406359   0.27311   0.29637   0.18467   0.38881
  26   34583.0    289.2   0.089284606   0.84994   0.69983   0.53517   0.27161
  27   34808.6    287.3   0.000821144   0.00777  -0.07099  -0.04924   0.01736
  28   35224.6    283.9   0.017780578   0.16618  -0.35509  -0.00481  -0.20016
  29   35527.7    281.5   0.002935154   0.02720   0.08376   0.12086  -0.07467
  30   35618.7    280.8   0.015028034   0.13890  -0.28584  -0.23807  -0.02277
  31   35848.2    279.0   0.090488523   0.83100  -0.02922  -0.40029   0.81848
  32   36341.2    275.2   0.062799050   0.56889   0.51243   0.27589   0.47979
  33   36562.4    273.5   0.153788523   1.38473   0.67965   0.90608  -0.31909
  34   37348.8    267.7   0.055563363   0.48977   0.28470   0.21905   0.60061
  35   37444.7    267.1   0.010663674   0.09375   0.02458   0.15194  -0.26470
  36   37813.0    264.5   0.062575433   0.54480   0.26125  -0.02303   0.68994
  37   38097.4    262.5   0.017461792   0.15089   0.00303  -0.10747   0.37328
  38   38375.8    260.6   0.077956338   0.66876  -0.49653  -0.46165   0.45727
  39   38538.1    259.5   0.098425282   0.84080  -0.67167  -0.54100  -0.31141
  40   38836.1    257.5   0.257360297   2.18163  -0.78194   0.12466  -1.24686
  41   38904.4    257.0   0.002145205   0.01815  -0.01169  -0.13417  -0.00378
  42   39066.0    256.0   0.020922271   0.17631   0.29141   0.11144   0.28102
  43   39362.8    254.0   0.007527057   0.06295  -0.13084  -0.21325   0.01885
  44   39671.8    252.1   0.109822921   0.91135  -0.21067   0.26458  -0.89273
  45   40039.2    249.8   0.044967548   0.36973   0.50741   0.32034  -0.09826
  46   40147.2    249.1   0.161823886   1.32698   0.21377  -0.13102   1.12433

FINAL SINGLE POINT ENERGY     -4945.456873894835

DIPOLE MOMENT
-------------
                                X             Y             Z
Electronic contribution:      5.20339      -0.17147      -4.92262
Nuclear contribution   :     -4.54111       0.16435       6.36827
                        -----------------------------------------
Total Dipole Moment    :      0.66229      -0.00713       1.44565
                        -----------------------------------------
Magnitude (a.u.)       :      1.59015
Magnitude (Debye)      :      4.04184

Rotational constants in cm-1:     0.003261     0.000140     0.000137
Rotational constants in MHz :    97.770647     4.188295     4.121393

                             ****ORCA TERMINATED NORMALLY****
TOTAL RUN TIME: 0 days 0 hours 10 minutes 31 seconds 132 msec
