                         Program Version 4.2.0 -  RELEASE  -
|  1> # ORCA input file
|  2> # SCF done       -142.230771827274          0.000190434690
|  3> ! CAM-B3LYP def2-SVP def2/J RIJCOSX Grid4 TightSCF
|  4> %maxcore 5000
|  5> %tddft
|  6>     Mode sTDDFT
|  7>     Ethresh 5.0
|  8>     maxcore 5000
|  9> end
| 10>
| 11> %pal
| 12>   nprocs 6
| 13>   end
| 14> * xyz 0 1
| 15>    C       -5.15816        -5.14850         1.24999
| 16>    C       -4.22268        -5.77168         1.98070
| 17>    C       -4.40077        -6.87352         2.88084
| 18>    C       -3.26280        -7.29840         3.47563
| 19>    C       -2.09760        -6.57652         3.10046
| 20>    S       -2.51111        -5.31660         1.95336
| 21>    C       -0.80621        -6.78943         3.52626
| 22>    C       -0.34618        -7.77678         4.43028
| 23>    C        0.99817        -7.74853         4.63746
| 24>    C        1.67798        -6.74087         3.91141
| 25>    S        0.53678        -5.81382         2.95766
| 26>    C        3.03146        -6.50186         3.91278
| 27>    C        3.65814        -5.49815         3.16607
| 28>    O        2.90972        -4.66171         2.40049
| 29>    C        3.75456        -3.80513         1.79628
| 30>    C        5.04118        -4.05031         2.13955
| 31>    C        5.02211        -5.15947         3.04123
| 32>    C        6.11189        -5.77706         3.69008
| 33>    C        7.41062        -5.36988         3.55603
| 34>    C        8.49796        -5.92062         4.24304
| 35>    C        9.74656        -5.34199         4.19103
| 36>    C       10.85965        -5.75492         4.90916
| 37>    C       12.05170        -5.05033         4.93267
| 38>    C       13.22577        -5.36900         5.63681
| 39>    C       14.23568        -4.45561         5.48667
| 40>    C       13.90046        -3.37249         4.65779
| 41>    S       12.26709        -3.54192         4.06413
| 42>    C       14.69608        -2.28617         4.31252
| 43>    C       16.01637        -2.02390         4.70902
| 44>    C       16.52776        -0.86997         4.18481
| 45>    C       15.64201        -0.15543         3.34691
| 46>    S       14.11660        -1.01194         3.26258
| 47>    C       16.01952         0.99472         2.68427
| 48>    C       15.40652         1.88158         1.79473
| 49>    O       16.29433         2.77312         1.24607
| 50>    C       15.61813         3.56115         0.39571
| 51>    C       14.30662         3.24079         0.36409
| 52>    C       14.11428         2.15254         1.27702
| 53>    C       12.87468         1.57068         1.60787
| 54>    C       11.68689         1.94826         1.03682
| 55>    C       10.42948         1.43037         1.36920
| 56>    C        9.28839         1.88207         0.74290
| 57>    C        7.96069         1.50982         0.95431
| 58>    C        7.40718         0.61404         1.84898
| 59>    C        6.02089         0.35048         1.94438
| 60>    C        5.67696        -0.56260         2.89586
| 61>    C        6.77865        -1.07704         3.61144
| 62>    S        8.26705        -0.35587         3.02832
| 63>    C        6.76471        -2.03109         4.60730
| 64>    C        5.64092        -2.73427         5.10703
| 65>    C        5.94467        -3.69831         6.00981
| 66>    C        7.34079        -3.80976         6.30484
| 67>    S        8.22948        -2.58455         5.39403
| 68>    C        7.94870        -4.70540         7.09773
| 69>    H       -6.18698        -5.45921         1.29565
| 70>    H       -4.91473        -4.32801         0.60060
| 71>    H       -5.37548        -7.29954         3.04070
| 72>    H       -3.21429        -8.11308         4.17652
| 73>    H       -1.01434        -8.47838         4.89663
| 74>    H        1.52950        -8.42292         5.28626
| 75>    H        3.66057        -7.13365         4.52087
| 76>    H        3.31592        -3.07246         1.14719
| 77>    H        5.90034        -3.51169         1.79786
| 78>    H        5.89294        -6.61273         4.34107
| 79>    H        7.62310        -4.52531         2.91439
| 80>    H        8.33721        -6.79107         4.86511
| 81>    H        9.86388        -4.45538         3.57912
| 82>    H       10.80127        -6.65495         5.50775
| 83>    H       13.29992        -6.25993         6.23581
| 84>    H       15.20053        -4.54219         5.95341
| 85>    H       16.56080        -2.68316         5.36083
| 86>    H       17.52464        -0.51300         4.37537
| 87>    H       17.05998         1.25975         2.84571
| 88>    H       16.18331         4.31073        -0.12379
| 89>    H       13.55602         3.72225        -0.22686
| 90>    H       12.85814         0.80617         2.36753
| 91>    H       11.69965         2.71152         0.26969
| 92>    H       10.37305         0.66975         2.13409
| 93>    H        9.43126         2.63643        -0.02303
| 94>    H        7.22949         2.00314         0.32369
| 95>    H        5.31462         0.84725         1.30191
| 96>    H        4.66955        -0.87923         3.09664
| 97>    H        4.64432        -2.51942         4.76491
| 98>    H        5.22638        -4.34344         6.48347
| 99>    H        7.37552        -5.44221         7.63226
|100>    H        9.01417        -4.70516         7.23584
|101> *
|102>
|103>                          ****END OF INPUT****

CARTESIAN COORDINATES (ANGSTROEM)
---------------------------------
  C     -5.158160   -5.148500    1.249990
  C     -4.222680   -5.771680    1.980700
  C     -4.400770   -6.873520    2.880840
  C     -3.262800   -7.298400    3.475630
  C     -2.097600   -6.576520    3.100460
  S     -2.511110   -5.316600    1.953360
  C     -0.806210   -6.789430    3.526260
  C     -0.346180   -7.776780    4.430280
  C      0.998170   -7.748530    4.637460
  C      1.677980   -6.740870    3.911410
  S      0.536780   -5.813820    2.957660
  C      3.031460   -6.501860    3.912780
  C      3.658140   -5.498150    3.166070
  O      2.909720   -4.661710    2.400490
  C      3.754560   -3.805130    1.796280
  C      5.041180   -4.050310    2.139550
  C      5.022110   -5.159470    3.041230
  C      6.111890   -5.777060    3.690080
  C      7.410620   -5.369880    3.556030
  C      8.497960   -5.920620    4.243040
  C      9.746560   -5.341990    4.191030
  C     10.859650   -5.754920    4.909160
  C     12.051700   -5.050330    4.932670
  C     13.225770   -5.369000    5.636810
  C     14.235680   -4.455610    5.486670
  C     13.900460   -3.372490    4.657790
  S     12.267090   -3.541920    4.064130
  C     14.696080   -2.286170    4.312520
  C     16.016370   -2.023900    4.709020
  C     16.527760   -0.869970    4.184810
  C     15.642010   -0.155430    3.346910
  S     14.116600   -1.011940    3.262580
  C     16.019520    0.994720    2.684270
  C     15.406520    1.881580    1.794730
  O     16.294330    2.773120    1.246070
  C     15.618130    3.561150    0.395710
  C     14.306620    3.240790    0.364090
  C     14.114280    2.152540    1.277020
  C     12.874680    1.570680    1.607870
  C     11.686890    1.948260    1.036820
  C     10.429480    1.430370    1.369200
  C      9.288390    1.882070    0.742900
  C      7.960690    1.509820    0.954310
  C      7.407180    0.614040    1.848980
  C      6.020890    0.350480    1.944380
  C      5.676960   -0.562600    2.895860
  C      6.778650   -1.077040    3.611440
  S      8.267050   -0.355870    3.028320
  C      6.764710   -2.031090    4.607300
  C      5.640920   -2.734270    5.107030
  C      5.944670   -3.698310    6.009810
  C      7.340790   -3.809760    6.304840
  S      8.229480   -2.584550    5.394030
  C      7.948700   -4.705400    7.097730
  H     -6.186980   -5.459210    1.295650
  H     -4.914730   -4.328010    0.600600
  H     -5.375480   -7.299540    3.040700
  H     -3.214290   -8.113080    4.176520
  H     -1.014340   -8.478380    4.896630
  H      1.529500   -8.422920    5.286260
  H      3.660570   -7.133650    4.520870
  H      3.315920   -3.072460    1.147190
  H      5.900340   -3.511690    1.797860
  H      5.892940   -6.612730    4.341070
  H      7.623100   -4.525310    2.914390
  H      8.337210   -6.791070    4.865110
  H      9.863880   -4.455380    3.579120
  H     10.801270   -6.654950    5.507750
  H     13.299920   -6.259930    6.235810
  H     15.200530   -4.542190    5.953410
  H     16.560800   -2.683160    5.360830
  H     17.524640   -0.513000    4.375370
  H     17.059980    1.259750    2.845710
  H     16.183310    4.310730   -0.123790
  H     13.556020    3.722250   -0.226860
  H     12.858140    0.806170    2.367530
  H     11.699650    2.711520    0.269690
  H     10.373050    0.669750    2.134090
  H      9.431260    2.636430   -0.023030
  H      7.229490    2.003140    0.323690
  H      5.314620    0.847250    1.301910
  H      4.669550   -0.879230    3.096640
  H      4.644320   -2.519420    4.764910
  H      5.226380   -4.343440    6.483470
  H      7.375520   -5.442210    7.632260
  H      9.014170   -4.705160    7.235840

 Total Charge           Charge          ....    0
 Multiplicity           Mult            ....    1
 Number of Electrons    NEL             ....  420
 Basis Dimension        Dim             ....  940

ORBITAL ENERGIES
----------------

  NO   OCC          E(Eh)            E(eV)
   0   2.0000     -88.940227     -2420.1866
   1   2.0000     -88.937373     -2420.1090
   2   2.0000     -88.934513     -2420.0311
   3   2.0000     -88.933381     -2420.0003
   4   2.0000     -88.931659     -2419.9535
   5   2.0000     -88.929837     -2419.9039
   6   2.0000     -19.282216      -524.6958
   7   2.0000     -19.270910      -524.3881
   8   2.0000     -10.322953      -280.9018
   9   2.0000     -10.322240      -280.8824
  10   2.0000     -10.318157      -280.7713
  11   2.0000     -10.315731      -280.7053
  12   2.0000     -10.302573      -280.3473
  13   2.0000     -10.301300      -280.3126
  14   2.0000     -10.300519      -280.2914
  15   2.0000     -10.300372      -280.2874
  16   2.0000     -10.299857      -280.2734
  17   2.0000     -10.299660      -280.2680
  18   2.0000     -10.299320      -280.2587
  19   2.0000     -10.298018      -280.2233
  20   2.0000     -10.297953      -280.2216
  21   2.0000     -10.295290      -280.1491
  22   2.0000     -10.294667      -280.1321
  23   2.0000     -10.294238      -280.1205
  24   2.0000     -10.283482      -279.8278
  25   2.0000     -10.280185      -279.7381
  26   2.0000     -10.278302      -279.6868
  27   2.0000     -10.277695      -279.6703
  28   2.0000     -10.277165      -279.6559
  29   2.0000     -10.276250      -279.6310
  30   2.0000     -10.275289      -279.6048
  31   2.0000     -10.274782      -279.5910
  32   2.0000     -10.274163      -279.5742
  33   2.0000     -10.273979      -279.5692
  34   2.0000     -10.273423      -279.5541
  35   2.0000     -10.273241      -279.5491
  36   2.0000     -10.272873      -279.5391
  37   2.0000     -10.272737      -279.5354
  38   2.0000     -10.272420      -279.5268
  39   2.0000     -10.269878      -279.4576
  40   2.0000     -10.267542      -279.3940
  41   2.0000     -10.267432      -279.3910
  42   2.0000     -10.265607      -279.3414
  43   2.0000     -10.263882      -279.2944
  44   2.0000     -10.261979      -279.2427
  45   2.0000     -10.261498      -279.2296
  46   2.0000     -10.261488      -279.2293
  47   2.0000     -10.261281      -279.2237
  48   2.0000     -10.260731      -279.2087
  49   2.0000     -10.260192      -279.1940
  50   2.0000     -10.259892      -279.1859
  51   2.0000     -10.259640      -279.1790
  52   2.0000     -10.259582      -279.1774
  53   2.0000     -10.257529      -279.1216
  54   2.0000      -8.035816      -218.6657
  55   2.0000      -8.032945      -218.5876
  56   2.0000      -8.030772      -218.5284
  57   2.0000      -8.029213      -218.4860
  58   2.0000      -8.028354      -218.4626
  59   2.0000      -8.025867      -218.3950
  60   2.0000      -6.005499      -163.4179
  61   2.0000      -6.002608      -163.3393
  62   2.0000      -6.001456      -163.3079
  63   2.0000      -6.000424      -163.2798
  64   2.0000      -5.999077      -163.2432
  65   2.0000      -5.998588      -163.2299
  66   2.0000      -5.998168      -163.2184
  67   2.0000      -5.996945      -163.1852
  68   2.0000      -5.996426      -163.1711
  69   2.0000      -5.995671      -163.1505
  70   2.0000      -5.994851      -163.1282
  71   2.0000      -5.994277      -163.1126
  72   2.0000      -5.994124      -163.1084
  73   2.0000      -5.991822      -163.0458
  74   2.0000      -5.991739      -163.0435
  75   2.0000      -5.990002      -162.9962
  76   2.0000      -5.988883      -162.9658
  77   2.0000      -5.986557      -162.9025
  78   2.0000      -1.200522       -32.6679
  79   2.0000      -1.189738       -32.3744
  80   2.0000      -0.985411       -26.8144
  81   2.0000      -0.984607       -26.7925
  82   2.0000      -0.982124       -26.7249
  83   2.0000      -0.963809       -26.2266
  84   2.0000      -0.962507       -26.1912
  85   2.0000      -0.958993       -26.0955
  86   2.0000      -0.916034       -24.9266
  87   2.0000      -0.912314       -24.8253
  88   2.0000      -0.897497       -24.4221
  89   2.0000      -0.891957       -24.2714
  90   2.0000      -0.891035       -24.2463
  91   2.0000      -0.882372       -24.0106
  92   2.0000      -0.866697       -23.5840
  93   2.0000      -0.861642       -23.4465
  94   2.0000      -0.859488       -23.3879
  95   2.0000      -0.843545       -22.9540
  96   2.0000      -0.839382       -22.8408
  97   2.0000      -0.837197       -22.7813
  98   2.0000      -0.832940       -22.6654
  99   2.0000      -0.826547       -22.4915
 100   2.0000      -0.820093       -22.3159
 101   2.0000      -0.813118       -22.1261
 102   2.0000      -0.812773       -22.1167
 103   2.0000      -0.808952       -22.0127
 104   2.0000      -0.803876       -21.8746
 105   2.0000      -0.796623       -21.6772
 106   2.0000      -0.773499       -21.0480
 107   2.0000      -0.767188       -20.8762
 108   2.0000      -0.758343       -20.6356
 109   2.0000      -0.733245       -19.9526
 110   2.0000      -0.723333       -19.6829
 111   2.0000      -0.718069       -19.5396
 112   2.0000      -0.699906       -19.0454
 113   2.0000      -0.691653       -18.8208
 114   2.0000      -0.681254       -18.5379
 115   2.0000      -0.676479       -18.4079
 116   2.0000      -0.672287       -18.2939
 117   2.0000      -0.658131       -17.9086
 118   2.0000      -0.656516       -17.8647
 119   2.0000      -0.646313       -17.5871
 120   2.0000      -0.641320       -17.4512
 121   2.0000      -0.632601       -17.2140
 122   2.0000      -0.630716       -17.1627
 123   2.0000      -0.623117       -16.9559
 124   2.0000      -0.621684       -16.9169
 125   2.0000      -0.618360       -16.8264
 126   2.0000      -0.610645       -16.6165
 127   2.0000      -0.609162       -16.5761
 128   2.0000      -0.604905       -16.4603
 129   2.0000      -0.603855       -16.4317
 130   2.0000      -0.597135       -16.2489
 131   2.0000      -0.594745       -16.1838
 132   2.0000      -0.592352       -16.1187
 133   2.0000      -0.588604       -16.0167
 134   2.0000      -0.583517       -15.8783
 135   2.0000      -0.578030       -15.7290
 136   2.0000      -0.571898       -15.5621
 137   2.0000      -0.550185       -14.9713
 138   2.0000      -0.548129       -14.9153
 139   2.0000      -0.546428       -14.8691
 140   2.0000      -0.540476       -14.7071
 141   2.0000      -0.538391       -14.6504
 142   2.0000      -0.536660       -14.6032
 143   2.0000      -0.532335       -14.4856
 144   2.0000      -0.526824       -14.3356
 145   2.0000      -0.522021       -14.2049
 146   2.0000      -0.516623       -14.0580
 147   2.0000      -0.511548       -13.9199
 148   2.0000      -0.506653       -13.7867
 149   2.0000      -0.504719       -13.7341
 150   2.0000      -0.500853       -13.6289
 151   2.0000      -0.493861       -13.4386
 152   2.0000      -0.492748       -13.4084
 153   2.0000      -0.488491       -13.2925
 154   2.0000      -0.487647       -13.2695
 155   2.0000      -0.486446       -13.2369
 156   2.0000      -0.485737       -13.2176
 157   2.0000      -0.485641       -13.2150
 158   2.0000      -0.481911       -13.1135
 159   2.0000      -0.479449       -13.0465
 160   2.0000      -0.477323       -12.9886
 161   2.0000      -0.474292       -12.9061
 162   2.0000      -0.473448       -12.8832
 163   2.0000      -0.472240       -12.8503
 164   2.0000      -0.465168       -12.6579
 165   2.0000      -0.462059       -12.5733
 166   2.0000      -0.460691       -12.5360
 167   2.0000      -0.454809       -12.3760
 168   2.0000      -0.453584       -12.3427
 169   2.0000      -0.452095       -12.3021
 170   2.0000      -0.448658       -12.2086
 171   2.0000      -0.447857       -12.1868
 172   2.0000      -0.444217       -12.0878
 173   2.0000      -0.438716       -11.9381
 174   2.0000      -0.435510       -11.8508
 175   2.0000      -0.430462       -11.7135
 176   2.0000      -0.425528       -11.5792
 177   2.0000      -0.424817       -11.5598
 178   2.0000      -0.420981       -11.4555
 179   2.0000      -0.418860       -11.3978
 180   2.0000      -0.417405       -11.3582
 181   2.0000      -0.414204       -11.2711
 182   2.0000      -0.411020       -11.1844
 183   2.0000      -0.409790       -11.1510
 184   2.0000      -0.408230       -11.1085
 185   2.0000      -0.403494       -10.9796
 186   2.0000      -0.397244       -10.8096
 187   2.0000      -0.388148       -10.5620
 188   2.0000      -0.387076       -10.5329
 189   2.0000      -0.384942       -10.4748
 190   2.0000      -0.384624       -10.4662
 191   2.0000      -0.383592       -10.4381
 192   2.0000      -0.374284       -10.1848
 193   2.0000      -0.354079        -9.6350
 194   2.0000      -0.342410        -9.3174
 195   2.0000      -0.336987        -9.1699
 196   2.0000      -0.329952        -8.9785
 197   2.0000      -0.326727        -8.8907
 198   2.0000      -0.323923        -8.8144
 199   2.0000      -0.318520        -8.6674
 200   2.0000      -0.314589        -8.5604
 201   2.0000      -0.314033        -8.5453
 202   2.0000      -0.311614        -8.4795
 203   2.0000      -0.300609        -8.1800
 204   2.0000      -0.282462        -7.6862
 205   2.0000      -0.269060        -7.3215
 206   2.0000      -0.251948        -6.8559
 207   2.0000      -0.213491        -5.8094
 208   2.0000      -0.200372        -5.4524
 209   2.0000      -0.180819        -4.9203
 210   0.0000      -0.083696        -2.2775
 211   0.0000      -0.064831        -1.7641
 212   0.0000      -0.054491        -1.4828
 213   0.0000      -0.012430        -0.3382
 214   0.0000       0.007359         0.2002

MULLIKEN ATOMIC CHARGES
-----------------------
   0 C :   -0.034991
   1 C :   -0.061797
   2 C :    0.049989
   3 C :    0.026255
   4 C :   -0.070287
   5 S :    0.077544
   6 C :   -0.046823
   7 C :    0.027152
   8 C :    0.025459
   9 C :   -0.017162
  10 S :    0.101336
  11 C :   -0.067075
  12 C :    0.111448
  13 O :   -0.215446
  14 C :    0.149683
  15 C :   -0.049796
  16 C :    0.069226
  17 C :   -0.003412
  18 C :    0.006676
  19 C :    0.035358
  20 C :   -0.004240
  21 C :   -0.003590
  22 C :   -0.027210
  23 C :    0.029703
  24 C :    0.018826
  25 C :   -0.044207
  26 S :    0.077858
  27 C :   -0.037421
  28 C :    0.020443
  29 C :    0.023409
  30 C :   -0.012032
  31 S :    0.074629
  32 C :   -0.079367
  33 C :    0.150299
  34 O :   -0.213718
  35 C :    0.157744
  36 C :   -0.047150
  37 C :    0.056112
  38 C :   -0.023197
  39 C :   -0.002170
  40 C :    0.015810
  41 C :   -0.002795
  42 C :    0.003284
  43 C :   -0.026076
  44 C :    0.023912
  45 C :    0.023644
  46 C :   -0.040339
  47 S :    0.066471
  48 C :   -0.089741
  49 C :    0.046892
  50 C :    0.077667
  51 C :   -0.084512
  52 S :    0.083056
  53 C :   -0.013296
  54 H :    0.018259
  55 H :    0.020642
  56 H :   -0.014193
  57 H :   -0.012454
  58 H :   -0.018337
  59 H :   -0.016608
  60 H :   -0.017215
  61 H :    0.009482
  62 H :    0.002094
  63 H :   -0.032043
  64 H :   -0.011042
  65 H :   -0.025975
  66 H :    0.003115
  67 H :   -0.022810
  68 H :   -0.018458
  69 H :   -0.019159
  70 H :   -0.016655
  71 H :   -0.016010
  72 H :   -0.000160
  73 H :    0.007698
  74 H :   -0.012645
  75 H :   -0.017178
  76 H :   -0.027121
  77 H :    0.002797
  78 H :   -0.021967
  79 H :   -0.020639
  80 H :   -0.018092
  81 H :   -0.020153
  82 H :   -0.011574
  83 H :   -0.020006
  84 H :    0.010925
  85 H :    0.023447
Sum of atomic charges:   -0.0000000

LOEWDIN ATOMIC CHARGES
----------------------
   0 C :   -0.080838
   1 C :   -0.139269
   2 C :   -0.034609
   3 C :   -0.027468
   4 C :   -0.177712
   5 S :    0.349452
   6 C :   -0.185864
   7 C :   -0.034069
   8 C :   -0.038996
   9 C :   -0.143078
  10 S :    0.384340
  11 C :   -0.082431
  12 C :    0.025578
  13 O :    0.000864
  14 C :    0.040414
  15 C :   -0.060652
  16 C :   -0.060909
  17 C :   -0.022886
  18 C :   -0.024344
  19 C :   -0.019472
  20 C :   -0.041178
  21 C :   -0.057621
  22 C :   -0.150168
  23 C :   -0.041631
  24 C :   -0.038458
  25 C :   -0.181039
  26 S :    0.381756
  27 C :   -0.182365
  28 C :   -0.043183
  29 C :   -0.036350
  30 C :   -0.154589
  31 S :    0.401036
  32 C :   -0.072741
  33 C :    0.031445
  34 O :   -0.003187
  35 C :    0.049255
  36 C :   -0.071182
  37 C :   -0.053500
  38 C :   -0.032200
  39 C :   -0.023363
  40 C :   -0.025264
  41 C :   -0.044179
  42 C :   -0.066248
  43 C :   -0.149890
  44 C :   -0.037172
  45 C :   -0.044110
  46 C :   -0.186037
  47 S :    0.385450
  48 C :   -0.176457
  49 C :   -0.027224
  50 C :   -0.027985
  51 C :   -0.136803
  52 S :    0.372573
  53 C :   -0.073557
  54 H :    0.027686
  55 H :    0.025463
  56 H :    0.032236
  57 H :    0.031632
  58 H :    0.029255
  59 H :    0.031151
  60 H :    0.037269
  61 H :    0.023290
  62 H :    0.032810
  63 H :    0.022545
  64 H :    0.026770
  65 H :    0.022105
  66 H :    0.016842
  67 H :    0.029521
  68 H :    0.031207
  69 H :    0.029626
  70 H :    0.030529
  71 H :    0.031456
  72 H :    0.044979
  73 H :    0.023295
  74 H :    0.028247
  75 H :    0.008500
  76 H :    0.022991
  77 H :    0.015661
  78 H :    0.027127
  79 H :    0.032968
  80 H :    0.031080
  81 H :    0.028926
  82 H :    0.032106
  83 H :    0.030321
  84 H :    0.024771
  85 H :    0.025747

  Mayer bond orders larger than 0.100000
B(  0-C ,  1-C ) :   1.8575 B(  0-C , 54-H ) :   0.9511 B(  0-C , 55-H ) :   0.9424
B(  1-C ,  2-C ) :   1.0831 B(  1-C ,  5-S ) :   1.0086 B(  2-C ,  3-C ) :   1.6538
B(  2-C , 56-H ) :   0.9931 B(  3-C ,  4-C ) :   1.1590 B(  3-C , 57-H ) :   0.9922
B(  4-C ,  5-S ) :   1.0435 B(  4-C ,  6-C ) :   1.5478 B(  6-C ,  7-C ) :   1.1776
B(  6-C , 10-S ) :   1.0192 B(  7-C ,  8-C ) :   1.5964 B(  7-C , 58-H ) :   0.9937
B(  8-C ,  9-C ) :   1.1427 B(  8-C , 59-H ) :   0.9991 B(  9-C , 10-S ) :   1.0476
B(  9-C , 11-C ) :   1.5538 B( 11-C , 12-C ) :   1.2246 B( 11-C , 60-H ) :   0.9590
B( 12-C , 13-O ) :   1.1245 B( 12-C , 16-C ) :   1.3309 B( 13-O , 14-C ) :   1.1125
B( 14-C , 15-C ) :   1.5629 B( 14-C , 61-H ) :   1.0035 B( 15-C , 16-C ) :   1.1942
B( 15-C , 62-H ) :   1.0013 B( 16-C , 17-C ) :   1.1551 B( 17-C , 18-C ) :   1.5844
B( 17-C , 63-H ) :   0.9680 B( 18-C , 19-C ) :   1.1907 B( 18-C , 64-H ) :   0.9833
B( 19-C , 20-C ) :   1.5191 B( 19-C , 65-H ) :   0.9893 B( 20-C , 21-C ) :   1.2159
B( 20-C , 66-H ) :   0.9683 B( 21-C , 22-C ) :   1.4822 B( 21-C , 67-H ) :   0.9827
B( 22-C , 23-C ) :   1.1929 B( 22-C , 26-S ) :   1.0453 B( 23-C , 24-C ) :   1.5260
B( 23-C , 68-H ) :   0.9998 B( 24-C , 25-C ) :   1.2405 B( 24-C , 69-H ) :   0.9936
B( 25-C , 26-S ) :   1.0562 B( 25-C , 27-C ) :   1.4339 B( 27-C , 28-C ) :   1.2305
B( 27-C , 31-S ) :   1.0546 B( 28-C , 29-C ) :   1.5377 B( 28-C , 70-H ) :   0.9933
B( 29-C , 30-C ) :   1.1812 B( 29-C , 71-H ) :   1.0004 B( 30-C , 31-S ) :   1.0381
B( 30-C , 32-C ) :   1.5250 B( 32-C , 33-C ) :   1.2239 B( 32-C , 72-H ) :   0.9419
B( 33-C , 34-O ) :   1.1011 B( 33-C , 37-C ) :   1.3279 B( 34-O , 35-C ) :   1.1391
B( 35-C , 36-C ) :   1.5793 B( 35-C , 73-H ) :   1.0008 B( 36-C , 37-C ) :   1.1843
B( 36-C , 74-H ) :   0.9955 B( 37-C , 38-C ) :   1.1671 B( 38-C , 39-C ) :   1.5552
B( 38-C , 75-H ) :   0.9682 B( 39-C , 40-C ) :   1.2298 B( 39-C , 76-H ) :   0.9903
B( 40-C , 41-C ) :   1.5137 B( 40-C , 77-H ) :   0.9703 B( 41-C , 42-C ) :   1.2491
B( 41-C , 78-H ) :   0.9666 B( 42-C , 43-C ) :   1.5139 B( 42-C , 79-H ) :   0.9591
B( 43-C , 44-C ) :   1.1742 B( 43-C , 47-S ) :   1.0448 B( 44-C , 45-C ) :   1.5585
B( 44-C , 80-H ) :   0.9998 B( 45-C , 46-C ) :   1.1954 B( 45-C , 81-H ) :   0.9944
B( 46-C , 47-S ) :   1.0386 B( 46-C , 48-C ) :   1.5074 B( 48-C , 49-C ) :   1.1825
B( 48-C , 52-S ) :   1.0456 B( 49-C , 50-C ) :   1.6260 B( 49-C , 82-H ) :   0.9880
B( 50-C , 51-C ) :   1.0936 B( 50-C , 83-H ) :   0.9899 B( 51-C , 52-S ) :   1.0174
B( 51-C , 53-C ) :   1.8447 B( 53-C , 84-H ) :   0.9484 B( 53-C , 85-H ) :   0.9326

-----------------------------------------------------------------------------
         ABSORPTION SPECTRUM VIA TRANSITION ELECTRIC DIPOLE MOMENTS
-----------------------------------------------------------------------------
State   Energy  Wavelength   fosc         T2         TX        TY        TZ
        (cm-1)    (nm)                  (au**2)     (au)      (au)      (au)
-----------------------------------------------------------------------------
   0    8330.5   1200.4   0.337731930  13.34679  -2.41019  -2.74550   0.00527
   1    9878.7   1012.3   0.004400235   0.14664  -0.26415  -0.26329   0.08686
   2   14079.8    710.2   2.732662707  63.89478  -7.78255  -1.78510   0.37434
   3   15080.6    663.1   0.107030102   2.33649  -1.44264  -0.50051   0.06905
   4   15889.9    629.3   0.025624848   0.53090  -0.68164  -0.25733   0.00733
   5   19025.0    525.6   0.060794145   1.05199  -0.28416  -0.78105   0.60100
   6   19120.6    523.0   1.115656330  19.20897  -0.14223   3.51153  -2.61876
   7   20235.4    494.2   0.050074360   0.81466   0.27148   0.66492  -0.54667
   8   22098.9    452.5   0.003509985   0.05229   0.10175   0.14861  -0.14089
   9   23338.1    428.5   0.137707930   1.94253   0.89136   0.90211  -0.57812
  10   24525.4    407.7   0.000587869   0.00789   0.06759   0.05712  -0.00778
  11   25485.6    392.4   0.776437439  10.02969   2.22898  -1.05774   1.98558
  12   26128.9    382.7   0.002549890   0.03213  -0.17840   0.01703  -0.00331
  13   27397.3    365.0   0.028249185   0.33945   0.33721  -0.36267   0.30693
  14   28254.4    353.9   0.025430908   0.29631  -0.23040   0.33768  -0.35945
  15   29594.9    337.9   0.023010550   0.25597   0.26024   0.42557   0.08444
  16   29722.5    336.4   0.036192888   0.40088   0.51714   0.23090   0.28306
  17   30292.3    330.1   0.278770423   3.02963   1.52241  -0.53038   0.65619
  18   30979.2    322.8   0.073508313   0.78116   0.63189  -0.40929   0.46299
  19   31423.8    318.2   0.002363111   0.02476  -0.05361   0.07714   0.12622
  20   32100.4    311.5   0.049505818   0.50772   0.53245   0.35450  -0.31392
  21   32234.3    310.2   0.021512022   0.21970  -0.42951  -0.10550   0.15522
  22   32468.6    308.0   0.075069791   0.76116  -0.55849  -0.48349   0.46421
  23   32823.6    304.7   0.042671401   0.42798  -0.29142   0.42883  -0.39896
  24   33035.7    302.7   0.035923405   0.35799  -0.30434   0.22177  -0.46496
  25   33446.3    299.0   0.006846622   0.06739  -0.16258  -0.11813   0.16433
  26   33774.1    296.1   0.006456266   0.06293  -0.18980   0.07145  -0.14765
  27   34018.3    294.0   0.017434889   0.16873  -0.30026  -0.07714   0.26949
  28   34407.4    290.6   0.032463891   0.31062   0.02168  -0.42721   0.35727
  29   34913.3    286.4   0.004018201   0.03789  -0.07073  -0.07832  -0.16357
  30   35037.8    285.4   0.054297733   0.51018  -0.65626  -0.21517  -0.18223
  31   35206.0    284.0   0.084301363   0.78830  -0.22226   0.68199  -0.52325
  32   35596.8    280.9   0.002817112   0.02605  -0.14053   0.03651  -0.07051
  33   35736.6    279.8   0.103685065   0.95517  -0.96527  -0.08502  -0.12725
  34   36121.3    276.8   0.001428106   0.01302   0.05837  -0.05631   0.08024
  35   36130.6    276.8   0.023573897   0.21480   0.00738   0.34347  -0.31108
  36   36699.3    272.5   0.054117575   0.48546  -0.26657   0.50539  -0.39873
  37   37055.6    269.9   0.034838594   0.30952   0.41167  -0.24250   0.28503
  38   37125.5    269.4   0.024598224   0.21813   0.13153  -0.35725   0.27056
  39   37489.4    266.7   0.053486373   0.46969  -0.59634   0.22765  -0.24949
  40   37888.7    263.9   0.036554992   0.31762   0.04116  -0.46037   0.32248
  41   38185.9    261.9   0.019458533   0.16776  -0.20095   0.24513  -0.25940
  42   38430.7    260.2   0.016381325   0.14033  -0.35118  -0.00417   0.13033
  43   39003.7    256.4   0.043185872   0.36451  -0.56459  -0.19863   0.07934
  44   39136.8    255.5   0.000289139   0.00243   0.03370  -0.03002  -0.01989
  45   39232.8    254.9   0.016537602   0.13877   0.11073  -0.14351   0.32544
  46   39471.4    253.3   0.002206421   0.01840  -0.07438  -0.01512  -0.11243
  47   39755.5    251.5   0.029769593   0.24652   0.48101   0.11108   0.05302
  48   39981.2    250.1   0.259130953   2.13373  -0.76622   0.88861  -0.87006
  49   40316.8    248.0   0.018989493   0.15506   0.02986  -0.25698   0.29687

FINAL SINGLE POINT ENERGY     -4308.329069414859

DIPOLE MOMENT
-------------
                                X             Y             Z
Electronic contribution:      4.51474       3.67030      -1.71172
Nuclear contribution   :     -5.15818      -4.55794       2.37412
                        -----------------------------------------
Total Dipole Moment    :     -0.64344      -0.88764       0.66240
                        -----------------------------------------
Magnitude (a.u.)       :      1.28089
Magnitude (Debye)      :      3.25577

Rotational constants in cm-1:     0.002902     0.000479     0.000424
Rotational constants in MHz :    86.995163    14.369860    12.718957

                             ****ORCA TERMINATED NORMALLY****
TOTAL RUN TIME: 0 days 0 hours 8 minutes 5 seconds 549 msec
