                         Program Version 4.2.0 -  RELEASE  -
|  1> # ORCA input file
|  2> # SCF done       -145.857069784511          0.000612594977
|  3> ! CAM-B3LYP def2-SVP def2/J RIJCOSX Grid4 TightSCF
|  4> %maxcore 5000
|  5> %tddft
|  6>     Mode sTDDFT
|  7>     Ethresh 5.0
|  8>     maxcore 5000
|  9> end
| 10>
| 11> %pal
| 12>   nprocs 6
| 13>   end
| 14> * xyz 0 1
| 15>    C        6.38881         6.44205        11.30723
| 16>    C        6.91500         5.54239        10.46603
| 17>    C        7.68149         5.79298         9.27827
| 18>    C        8.08111         4.68029         8.62580
| 19>    C        7.66909         3.46056         9.23524
| 20>    S        6.74545         3.79305        10.68787
| 21>    C        7.91913         2.18306         8.80001
| 22>    C        8.64272         1.78385         7.64647
| 23>    C        8.70902         0.43977         7.47570
| 24>    C        8.04036        -0.31198         8.48052
| 25>    S        7.33718         0.77156         9.66883
| 26>    C        7.92895        -1.67362         8.52624
| 27>    C        7.28734        -2.39196         9.56092
| 28>    O        6.85326        -1.72232        10.67011
| 29>    C        6.38831        -2.59007        11.55179
| 30>    C        6.49113        -3.87364        11.05379
| 31>    N        6.10521        -5.05606        11.69678
| 32>    O        5.54215        -4.97014        12.76954
| 33>    O        6.35693        -6.11463        11.12903
| 34>    C        7.05807        -3.76299         9.74052
| 35>    N        7.27864        -4.81533         8.91393
| 36>    C        7.33023        -4.76439         7.54146
| 37>    C        7.60605        -5.81897         6.76426
| 38>    C        7.96165        -7.16268         7.33029
| 39>    C        7.68325        -5.63467         5.26948
| 40>    N        9.03814        -5.33855         4.84503
| 41>    C        9.57019        -4.09817         4.99731
| 42>    C       10.89830        -3.82900         5.01376
| 43>    C       11.43270        -2.52690         5.10042
| 44>    C       12.76805        -2.23669         5.10067
| 45>    C       13.37582        -0.95975         5.20524
| 46>    C       14.73438        -0.97530         5.16317
| 47>    C       15.29426        -2.26769         5.01876
| 48>    S       14.02119        -3.47056         4.95143
| 49>    C       16.62298        -2.61215         4.92788
| 50>    C       17.75439        -1.76255         4.94692
| 51>    C       18.93807        -2.41349         4.81802
| 52>    C       18.83230        -3.82805         4.67376
| 53>    S       17.13398        -4.28321         4.74538
| 54>    C       19.89821        -4.67304         4.57767
| 55>    C       19.94701        -6.08213         4.38952
| 56>    S       21.32111        -6.91462         5.09608
| 57>    C       20.76946        -8.42395         4.49718
| 58>    C       19.61978        -8.30740         3.77567
| 59>    C       19.14660        -6.97452         3.70417
| 60>    C       17.95700        -6.63047         2.87333
| 61>    C       17.65373        -7.71114         1.81913
| 62>    C       17.57330        -9.07730         2.51838
| 63>    O       17.13203       -10.03093         1.57603
| 64>    C       16.63419       -11.21856         2.13021
| 65>    C       18.95076        -9.45334         3.08516
| 66>    N       16.42573        -7.45236         1.09420
| 67>    H        6.51705         7.49594        11.13441
| 68>    H        5.82955         6.14543        12.17544
| 69>    H        7.89605         6.80024         8.96771
| 70>    H        8.66044         4.68414         7.71953
| 71>    H        9.08767         2.50113         6.98030
| 72>    H        9.21478        -0.04956         6.66182
| 73>    H        8.40481        -2.24862         7.74744
| 74>    H        6.01726        -2.23188        12.49095
| 75>    H        7.16962        -5.72579         9.35548
| 76>    H        7.09112        -3.80314         7.11189
| 77>    H        7.19128        -7.51089         8.01851
| 78>    H        8.90099        -7.11871         7.88252
| 79>    H        8.06389        -7.89969         6.53816
| 80>    H        7.04667        -4.80488         4.95352
| 81>    H        7.35733        -6.54078         4.75277
| 82>    H        9.69442        -6.10274         4.92911
| 83>    H        8.84688        -3.29499         5.04356
| 84>    H       11.60465        -4.64662         4.95523
| 85>    H       10.74213        -1.69668         5.17576
| 86>    H       12.78114        -0.06838         5.30774
| 87>    H       15.35294        -0.09789         5.22787
| 88>    H       17.65829        -0.69658         5.05340
| 89>    H       19.89990        -1.93122         4.81048
| 90>    H       20.86623        -4.20906         4.73001
| 91>    H       21.33212        -9.31225         4.70562
| 92>    H       18.11352        -5.66725         2.38024
| 93>    H       17.07422        -6.52833         3.51516
| 94>    H       18.46070        -7.75233         1.07938
| 95>    H       16.83984        -9.00682         3.34115
| 96>    H       16.21212       -11.78666         1.30329
| 97>    H       15.84770       -11.01694         2.86930
| 98>    H       17.41976       -11.81579         2.60923
| 99>    H       19.57179        -9.78349         2.24601
|100>    H       18.85905       -10.29463         3.77678
|101>    H       15.63407        -7.45148         1.72878
|102>    H       16.46980        -6.54440         0.64541
|103> *
|104>
|105>                          ****END OF INPUT****

CARTESIAN COORDINATES (ANGSTROEM)
---------------------------------
  C      6.388810    6.442050   11.307230
  C      6.915000    5.542390   10.466030
  C      7.681490    5.792980    9.278270
  C      8.081110    4.680290    8.625800
  C      7.669090    3.460560    9.235240
  S      6.745450    3.793050   10.687870
  C      7.919130    2.183060    8.800010
  C      8.642720    1.783850    7.646470
  C      8.709020    0.439770    7.475700
  C      8.040360   -0.311980    8.480520
  S      7.337180    0.771560    9.668830
  C      7.928950   -1.673620    8.526240
  C      7.287340   -2.391960    9.560920
  O      6.853260   -1.722320   10.670110
  C      6.388310   -2.590070   11.551790
  C      6.491130   -3.873640   11.053790
  N      6.105210   -5.056060   11.696780
  O      5.542150   -4.970140   12.769540
  O      6.356930   -6.114630   11.129030
  C      7.058070   -3.762990    9.740520
  N      7.278640   -4.815330    8.913930
  C      7.330230   -4.764390    7.541460
  C      7.606050   -5.818970    6.764260
  C      7.961650   -7.162680    7.330290
  C      7.683250   -5.634670    5.269480
  N      9.038140   -5.338550    4.845030
  C      9.570190   -4.098170    4.997310
  C     10.898300   -3.829000    5.013760
  C     11.432700   -2.526900    5.100420
  C     12.768050   -2.236690    5.100670
  C     13.375820   -0.959750    5.205240
  C     14.734380   -0.975300    5.163170
  C     15.294260   -2.267690    5.018760
  S     14.021190   -3.470560    4.951430
  C     16.622980   -2.612150    4.927880
  C     17.754390   -1.762550    4.946920
  C     18.938070   -2.413490    4.818020
  C     18.832300   -3.828050    4.673760
  S     17.133980   -4.283210    4.745380
  C     19.898210   -4.673040    4.577670
  C     19.947010   -6.082130    4.389520
  S     21.321110   -6.914620    5.096080
  C     20.769460   -8.423950    4.497180
  C     19.619780   -8.307400    3.775670
  C     19.146600   -6.974520    3.704170
  C     17.957000   -6.630470    2.873330
  C     17.653730   -7.711140    1.819130
  C     17.573300   -9.077300    2.518380
  O     17.132030  -10.030930    1.576030
  C     16.634190  -11.218560    2.130210
  C     18.950760   -9.453340    3.085160
  N     16.425730   -7.452360    1.094200
  H      6.517050    7.495940   11.134410
  H      5.829550    6.145430   12.175440
  H      7.896050    6.800240    8.967710
  H      8.660440    4.684140    7.719530
  H      9.087670    2.501130    6.980300
  H      9.214780   -0.049560    6.661820
  H      8.404810   -2.248620    7.747440
  H      6.017260   -2.231880   12.490950
  H      7.169620   -5.725790    9.355480
  H      7.091120   -3.803140    7.111890
  H      7.191280   -7.510890    8.018510
  H      8.900990   -7.118710    7.882520
  H      8.063890   -7.899690    6.538160
  H      7.046670   -4.804880    4.953520
  H      7.357330   -6.540780    4.752770
  H      9.694420   -6.102740    4.929110
  H      8.846880   -3.294990    5.043560
  H     11.604650   -4.646620    4.955230
  H     10.742130   -1.696680    5.175760
  H     12.781140   -0.068380    5.307740
  H     15.352940   -0.097890    5.227870
  H     17.658290   -0.696580    5.053400
  H     19.899900   -1.931220    4.810480
  H     20.866230   -4.209060    4.730010
  H     21.332120   -9.312250    4.705620
  H     18.113520   -5.667250    2.380240
  H     17.074220   -6.528330    3.515160
  H     18.460700   -7.752330    1.079380
  H     16.839840   -9.006820    3.341150
  H     16.212120  -11.786660    1.303290
  H     15.847700  -11.016940    2.869300
  H     17.419760  -11.815790    2.609230
  H     19.571790   -9.783490    2.246010
  H     18.859050  -10.294630    3.776780
  H     15.634070   -7.451480    1.728780
  H     16.469800   -6.544400    0.645410

 Total Charge           Charge          ....    0
 Multiplicity           Mult            ....    1
 Number of Electrons    NEL             ....  410
 Basis Dimension        Dim             ....  928

ORBITAL ENERGIES
----------------

  NO   OCC          E(Eh)            E(eV)
   0   2.0000     -88.939843     -2420.1762
   1   2.0000     -88.936269     -2420.0789
   2   2.0000     -88.930254     -2419.9152
   3   2.0000     -88.927029     -2419.8275
   4   2.0000     -88.925642     -2419.7897
   5   2.0000     -19.319649      -525.7144
   6   2.0000     -19.251979      -523.8730
   7   2.0000     -19.250395      -523.8299
   8   2.0000     -19.192149      -522.2449
   9   2.0000     -14.661380      -398.9564
  10   2.0000     -14.450926      -393.2297
  11   2.0000     -14.431976      -392.7140
  12   2.0000     -14.360002      -390.7555
  13   2.0000     -10.364513      -282.0327
  14   2.0000     -10.341821      -281.4153
  15   2.0000     -10.340869      -281.3894
  16   2.0000     -10.332433      -281.1598
  17   2.0000     -10.314522      -280.6724
  18   2.0000     -10.313572      -280.6466
  19   2.0000     -10.309207      -280.5278
  20   2.0000     -10.308397      -280.5057
  21   2.0000     -10.307701      -280.4868
  22   2.0000     -10.304891      -280.4103
  23   2.0000     -10.304243      -280.3927
  24   2.0000     -10.300292      -280.2852
  25   2.0000     -10.294895      -280.1383
  26   2.0000     -10.294538      -280.1286
  27   2.0000     -10.291265      -280.0395
  28   2.0000     -10.288868      -279.9743
  29   2.0000     -10.288189      -279.9558
  30   2.0000     -10.287799      -279.9452
  31   2.0000     -10.286750      -279.9167
  32   2.0000     -10.285177      -279.8739
  33   2.0000     -10.284800      -279.8636
  34   2.0000     -10.283279      -279.8223
  35   2.0000     -10.278662      -279.6966
  36   2.0000     -10.273937      -279.5680
  37   2.0000     -10.273803      -279.5644
  38   2.0000     -10.273561      -279.5578
  39   2.0000     -10.272346      -279.5247
  40   2.0000     -10.270635      -279.4782
  41   2.0000     -10.269818      -279.4559
  42   2.0000     -10.269770      -279.4547
  43   2.0000     -10.268472      -279.4193
  44   2.0000     -10.268355      -279.4162
  45   2.0000     -10.265760      -279.3455
  46   2.0000     -10.265200      -279.3303
  47   2.0000     -10.256534      -279.0945
  48   2.0000     -10.256420      -279.0914
  49   2.0000     -10.255593      -279.0689
  50   2.0000     -10.254340      -279.0348
  51   2.0000     -10.247674      -278.8534
  52   2.0000      -8.035886      -218.6676
  53   2.0000      -8.032980      -218.5885
  54   2.0000      -8.026309      -218.4070
  55   2.0000      -8.023178      -218.3218
  56   2.0000      -8.021526      -218.2768
  57   2.0000      -6.005775      -163.4254
  58   2.0000      -6.002815      -163.3449
  59   2.0000      -6.001601      -163.3119
  60   2.0000      -5.998913      -163.2387
  61   2.0000      -5.996548      -163.1744
  62   2.0000      -5.995602      -163.1486
  63   2.0000      -5.993476      -163.0908
  64   2.0000      -5.992926      -163.0758
  65   2.0000      -5.991432      -163.0351
  66   2.0000      -5.991383      -163.0338
  67   2.0000      -5.989071      -162.9709
  68   2.0000      -5.988472      -162.9546
  69   2.0000      -5.987325      -162.9234
  70   2.0000      -5.983977      -162.8323
  71   2.0000      -5.982245      -162.7852
  72   2.0000      -1.329010       -36.1642
  73   2.0000      -1.239606       -33.7314
  74   2.0000      -1.147795       -31.2331
  75   2.0000      -1.097643       -29.8684
  76   2.0000      -1.058440       -28.8016
  77   2.0000      -1.033824       -28.1318
  78   2.0000      -0.990389       -26.9499
  79   2.0000      -0.976728       -26.5781
  80   2.0000      -0.968332       -26.3497
  81   2.0000      -0.967377       -26.3237
  82   2.0000      -0.953652       -25.9502
  83   2.0000      -0.950453       -25.8632
  84   2.0000      -0.947661       -25.7872
  85   2.0000      -0.912157       -24.8210
  86   2.0000      -0.898808       -24.4578
  87   2.0000      -0.884690       -24.0736
  88   2.0000      -0.875356       -23.8197
  89   2.0000      -0.870188       -23.6790
  90   2.0000      -0.860821       -23.4241
  91   2.0000      -0.844060       -22.9680
  92   2.0000      -0.843142       -22.9431
  93   2.0000      -0.837783       -22.7972
  94   2.0000      -0.823517       -22.4090
  95   2.0000      -0.819554       -22.3012
  96   2.0000      -0.816703       -22.2236
  97   2.0000      -0.816128       -22.2080
  98   2.0000      -0.805719       -21.9247
  99   2.0000      -0.797576       -21.7031
 100   2.0000      -0.791794       -21.5458
 101   2.0000      -0.784689       -21.3525
 102   2.0000      -0.776839       -21.1389
 103   2.0000      -0.763306       -20.7706
 104   2.0000      -0.746503       -20.3134
 105   2.0000      -0.736278       -20.0351
 106   2.0000      -0.728646       -19.8275
 107   2.0000      -0.709182       -19.2978
 108   2.0000      -0.704380       -19.1671
 109   2.0000      -0.689049       -18.7500
 110   2.0000      -0.687081       -18.6964
 111   2.0000      -0.683379       -18.5957
 112   2.0000      -0.676987       -18.4217
 113   2.0000      -0.661172       -17.9914
 114   2.0000      -0.655304       -17.8317
 115   2.0000      -0.650208       -17.6931
 116   2.0000      -0.642364       -17.4796
 117   2.0000      -0.639817       -17.4103
 118   2.0000      -0.635410       -17.2904
 119   2.0000      -0.631883       -17.1944
 120   2.0000      -0.623703       -16.9718
 121   2.0000      -0.619436       -16.8557
 122   2.0000      -0.616700       -16.7813
 123   2.0000      -0.609451       -16.5840
 124   2.0000      -0.607146       -16.5213
 125   2.0000      -0.598969       -16.2988
 126   2.0000      -0.596432       -16.2297
 127   2.0000      -0.595659       -16.2087
 128   2.0000      -0.591195       -16.0872
 129   2.0000      -0.583592       -15.8803
 130   2.0000      -0.576926       -15.6990
 131   2.0000      -0.574261       -15.6264
 132   2.0000      -0.568733       -15.4760
 133   2.0000      -0.566751       -15.4221
 134   2.0000      -0.561183       -15.2706
 135   2.0000      -0.556497       -15.1431
 136   2.0000      -0.550138       -14.9700
 137   2.0000      -0.549340       -14.9483
 138   2.0000      -0.542891       -14.7728
 139   2.0000      -0.534997       -14.5580
 140   2.0000      -0.531805       -14.4711
 141   2.0000      -0.529137       -14.3985
 142   2.0000      -0.520957       -14.1760
 143   2.0000      -0.513914       -13.9843
 144   2.0000      -0.510389       -13.8884
 145   2.0000      -0.509314       -13.8591
 146   2.0000      -0.504402       -13.7255
 147   2.0000      -0.503639       -13.7047
 148   2.0000      -0.500541       -13.6204
 149   2.0000      -0.496468       -13.5096
 150   2.0000      -0.492436       -13.3999
 151   2.0000      -0.490293       -13.3416
 152   2.0000      -0.486953       -13.2507
 153   2.0000      -0.483486       -13.1563
 154   2.0000      -0.481288       -13.0965
 155   2.0000      -0.480794       -13.0831
 156   2.0000      -0.478253       -13.0139
 157   2.0000      -0.477617       -12.9966
 158   2.0000      -0.472318       -12.8524
 159   2.0000      -0.468205       -12.7405
 160   2.0000      -0.466705       -12.6997
 161   2.0000      -0.463891       -12.6231
 162   2.0000      -0.459927       -12.5153
 163   2.0000      -0.459267       -12.4973
 164   2.0000      -0.457434       -12.4474
 165   2.0000      -0.455783       -12.4025
 166   2.0000      -0.453176       -12.3315
 167   2.0000      -0.452414       -12.3108
 168   2.0000      -0.448945       -12.2164
 169   2.0000      -0.443264       -12.0618
 170   2.0000      -0.441289       -12.0081
 171   2.0000      -0.429907       -11.6984
 172   2.0000      -0.428063       -11.6482
 173   2.0000      -0.419414       -11.4128
 174   2.0000      -0.417017       -11.3476
 175   2.0000      -0.416221       -11.3259
 176   2.0000      -0.412384       -11.2216
 177   2.0000      -0.407838       -11.0978
 178   2.0000      -0.402017       -10.9394
 179   2.0000      -0.399990       -10.8843
 180   2.0000      -0.397578       -10.8186
 181   2.0000      -0.397210       -10.8086
 182   2.0000      -0.392853       -10.6901
 183   2.0000      -0.390213       -10.6182
 184   2.0000      -0.387132       -10.5344
 185   2.0000      -0.380380       -10.3507
 186   2.0000      -0.377192       -10.2639
 187   2.0000      -0.376855       -10.2548
 188   2.0000      -0.374074       -10.1791
 189   2.0000      -0.361583        -9.8392
 190   2.0000      -0.355121        -9.6633
 191   2.0000      -0.338059        -9.1990
 192   2.0000      -0.335785        -9.1372
 193   2.0000      -0.323446        -8.8014
 194   2.0000      -0.322226        -8.7682
 195   2.0000      -0.310435        -8.4474
 196   2.0000      -0.306942        -8.3523
 197   2.0000      -0.305638        -8.3168
 198   2.0000      -0.292412        -7.9569
 199   2.0000      -0.289094        -7.8667
 200   2.0000      -0.279372        -7.6021
 201   2.0000      -0.269989        -7.3468
 202   2.0000      -0.251726        -6.8498
 203   2.0000      -0.213214        -5.8018
 204   2.0000      -0.190815        -5.1923
 205   0.0000      -0.064663        -1.7596
 206   0.0000      -0.051767        -1.4087
 207   0.0000      -0.049897        -1.3578
 208   0.0000       0.004046         0.1101
 209   0.0000       0.010102         0.2749

MULLIKEN ATOMIC CHARGES
-----------------------
   0 C :   -0.031968
   1 C :   -0.062645
   2 C :    0.049854
   3 C :    0.031688
   4 C :   -0.071643
   5 S :    0.076667
   6 C :   -0.049644
   7 C :    0.033923
   8 C :    0.034427
   9 C :   -0.014541
  10 S :    0.089227
  11 C :   -0.078934
  12 C :    0.020448
  13 O :   -0.178173
  14 C :    0.088804
  15 C :    0.108213
  16 N :    0.287392
  17 O :   -0.237406
  18 O :   -0.272917
  19 C :    0.056483
  20 N :   -0.029538
  21 C :    0.057678
  22 C :   -0.218860
  23 C :    0.062393
  24 C :    0.179522
  25 N :   -0.140660
  26 C :    0.058481
  27 C :   -0.021324
  28 C :   -0.013112
  29 C :   -0.035054
  30 C :    0.041998
  31 C :    0.014946
  32 C :   -0.043529
  33 S :    0.044843
  34 C :   -0.059384
  35 C :    0.030713
  36 C :    0.022635
  37 C :   -0.012076
  38 S :    0.053210
  39 C :   -0.037842
  40 C :   -0.165613
  41 S :    0.095609
  42 C :   -0.135588
  43 C :   -0.078954
  44 C :   -0.033273
  45 C :    0.166402
  46 C :   -0.022884
  47 C :    0.098037
  48 O :   -0.356549
  49 C :    0.199380
  50 C :    0.192370
  51 N :   -0.148366
  52 H :    0.020224
  53 H :    0.021480
  54 H :   -0.012262
  55 H :   -0.012523
  56 H :   -0.017651
  57 H :   -0.032625
  58 H :   -0.010142
  59 H :    0.029376
  60 H :    0.134582
  61 H :   -0.005063
  62 H :    0.039754
  63 H :    0.036562
  64 H :    0.005153
  65 H :    0.013282
  66 H :    0.012034
  67 H :    0.115043
  68 H :   -0.008145
  69 H :   -0.017029
  70 H :   -0.033797
  71 H :   -0.025676
  72 H :   -0.022466
  73 H :   -0.019462
  74 H :   -0.019751
  75 H :   -0.013350
  76 H :    0.002664
  77 H :    0.005276
  78 H :    0.011128
  79 H :   -0.005405
  80 H :   -0.031344
  81 H :    0.025217
  82 H :   -0.008841
  83 H :   -0.004628
  84 H :    0.016273
  85 H :    0.002352
  86 H :    0.078591
  87 H :    0.086304
Sum of atomic charges:    0.0000000

LOEWDIN ATOMIC CHARGES
----------------------
   0 C :   -0.077827
   1 C :   -0.139188
   2 C :   -0.031759
   3 C :   -0.027142
   4 C :   -0.177269
   5 S :    0.348219
   6 C :   -0.185128
   7 C :   -0.031870
   8 C :   -0.039393
   9 C :   -0.145105
  10 S :    0.371128
  11 C :   -0.089929
  12 C :   -0.015700
  13 O :    0.040888
  14 C :    0.088472
  15 C :   -0.103116
  16 N :    0.296354
  17 O :   -0.199595
  18 O :   -0.224981
  19 C :   -0.001271
  20 N :    0.029350
  21 C :    0.007019
  22 C :   -0.103791
  23 C :   -0.056521
  24 C :    0.043256
  25 N :   -0.009932
  26 C :    0.040837
  27 C :   -0.116469
  28 C :   -0.043769
  29 C :   -0.172640
  30 C :   -0.031697
  31 C :   -0.049433
  32 C :   -0.172778
  33 S :    0.344965
  34 C :   -0.195319
  35 C :   -0.036020
  36 C :   -0.043060
  37 C :   -0.146664
  38 S :    0.376417
  39 C :   -0.092721
  40 C :   -0.179357
  41 S :    0.415564
  42 C :   -0.198354
  43 C :   -0.065860
  44 C :   -0.066317
  45 C :   -0.049720
  46 C :    0.009498
  47 C :    0.063027
  48 O :   -0.158200
  49 C :    0.066138
  50 C :   -0.034488
  51 N :   -0.094596
  52 H :    0.028559
  53 H :    0.026204
  54 H :    0.033069
  55 H :    0.031763
  56 H :    0.030260
  57 H :    0.028841
  58 H :    0.039032
  59 H :    0.039244
  60 H :    0.075530
  61 H :    0.021723
  62 H :    0.036291
  63 H :    0.035696
  64 H :    0.028073
  65 H :    0.028865
  66 H :    0.026017
  67 H :    0.076099
  68 H :    0.021509
  69 H :    0.017817
  70 H :    0.025046
  71 H :    0.028427
  72 H :    0.028078
  73 H :    0.029316
  74 H :    0.029607
  75 H :    0.030386
  76 H :    0.017622
  77 H :    0.026827
  78 H :    0.014125
  79 H :    0.021200
  80 H :    0.000834
  81 H :    0.022250
  82 H :    0.002860
  83 H :    0.000705
  84 H :    0.036240
  85 H :    0.028210
  86 H :    0.047722
  87 H :    0.051798

  Mayer bond orders larger than 0.100000
B(  0-C ,  1-C ) :   1.8644 B(  0-C , 52-H ) :   0.9512 B(  0-C , 53-H ) :   0.9416
B(  1-C ,  2-C ) :   1.0793 B(  1-C ,  5-S ) :   1.0069 B(  2-C ,  3-C ) :   1.6642
B(  2-C , 54-H ) :   0.9932 B(  3-C ,  4-C ) :   1.1501 B(  3-C , 55-H ) :   0.9911
B(  4-C ,  5-S ) :   1.0426 B(  4-C ,  6-C ) :   1.5685 B(  6-C ,  7-C ) :   1.1654
B(  6-C , 10-S ) :   1.0178 B(  7-C ,  8-C ) :   1.6153 B(  7-C , 56-H ) :   0.9934
B(  8-C ,  9-C ) :   1.1259 B(  8-C , 57-H ) :   0.9997 B(  9-C , 10-S ) :   1.0382
B(  9-C , 11-C ) :   1.5961 B( 11-C , 12-C ) :   1.1664 B( 11-C , 58-H ) :   0.9610
B( 12-C , 13-O ) :   1.0754 B( 12-C , 19-C ) :   1.3549 B( 13-O , 14-C ) :   1.2158
B( 14-C , 15-C ) :   1.4085 B( 14-C , 59-H ) :   1.0164 B( 15-C , 16-N ) :   0.9580
B( 15-C , 19-C ) :   1.2460 B( 16-N , 17-O ) :   1.5510 B( 16-N , 18-O ) :   1.4697
B( 17-O , 18-O ) :   0.2568 B( 19-C , 20-N ) :   1.2444 B( 20-N , 21-C ) :   1.1178
B( 20-N , 60-H ) :   0.8657 B( 21-C , 22-C ) :   1.8011 B( 21-C , 61-H ) :   0.9517
B( 22-C , 23-C ) :   1.0695 B( 22-C , 24-C ) :   1.0536 B( 23-C , 62-H ) :   0.9488
B( 23-C , 63-H ) :   0.9579 B( 23-C , 64-H ) :   0.9504 B( 24-C , 25-N ) :   1.0262
B( 24-C , 65-H ) :   0.9413 B( 24-C , 66-H ) :   0.9396 B( 25-N , 26-C ) :   1.2127
B( 25-N , 67-H ) :   0.9403 B( 26-C , 27-C ) :   1.6156 B( 26-C , 68-H ) :   0.9651
B( 27-C , 28-C ) :   1.1619 B( 27-C , 69-H ) :   0.9619 B( 28-C , 29-C ) :   1.6021
B( 28-C , 70-H ) :   0.9767 B( 29-C , 30-C ) :   1.1379 B( 29-C , 33-S ) :   1.0069
B( 30-C , 31-C ) :   1.6012 B( 30-C , 71-H ) :   0.9966 B( 31-C , 32-C ) :   1.1793
B( 31-C , 72-H ) :   0.9929 B( 32-C , 33-S ) :   1.0430 B( 32-C , 34-C ) :   1.5344
B( 34-C , 35-C ) :   1.1732 B( 34-C , 38-S ) :   1.0263 B( 35-C , 36-C ) :   1.6126
B( 35-C , 73-H ) :   0.9923 B( 36-C , 37-C ) :   1.1196 B( 36-C , 74-H ) :   0.9984
B( 37-C , 38-S ) :   1.0271 B( 37-C , 39-C ) :   1.6654 B( 39-C , 40-C ) :   1.0885
B( 39-C , 75-H ) :   0.9457 B( 40-C , 41-S ) :   1.1246 B( 40-C , 44-C ) :   1.5151
B( 41-S , 42-C ) :   1.1487 B( 42-C , 43-C ) :   1.5703 B( 42-C , 76-H ) :   0.9734
B( 43-C , 44-C ) :   1.2975 B( 43-C , 50-C ) :   1.0067 B( 44-C , 45-C ) :   1.0263
B( 45-C , 46-C ) :   1.0124 B( 45-C , 77-H ) :   0.9117 B( 45-C , 78-H ) :   0.8804
B( 46-C , 47-C ) :   1.0023 B( 46-C , 51-N ) :   1.1106 B( 46-C , 79-H ) :   0.9163
B( 47-C , 48-O ) :   1.0477 B( 47-C , 50-C ) :   1.0668 B( 47-C , 80-H ) :   0.9069
B( 48-O , 49-C ) :   1.0041 B( 49-C , 81-H ) :   0.9827 B( 49-C , 82-H ) :   0.9614
B( 49-C , 83-H ) :   0.9648 B( 50-C , 84-H ) :   0.8977 B( 50-C , 85-H ) :   0.9139
B( 51-N , 86-H ) :   0.9706 B( 51-N , 87-H ) :   0.9730

-----------------------------------------------------------------------------
         ABSORPTION SPECTRUM VIA TRANSITION ELECTRIC DIPOLE MOMENTS
-----------------------------------------------------------------------------
State   Energy  Wavelength   fosc         T2         TX        TY        TZ
        (cm-1)    (nm)                  (au**2)     (au)      (au)      (au)
-----------------------------------------------------------------------------
   0   16261.9    614.9   0.281107348   5.69085  -1.74601   1.58459   0.36247
   1   17474.1    572.3   1.269064132  23.90912  -4.00043   2.78933   0.35398
   2   17528.7    570.5   0.398006613   7.47508   2.45811   0.97475  -0.69471
   3   19474.9    513.5   0.662109003  11.19257  -1.01458  -3.12039  -0.65299
   4   20124.7    496.9   0.207730969   3.39818  -0.24183  -1.79067  -0.36495
   5   24059.6    415.6   0.026550652   0.36330  -0.17945   0.57510  -0.01895
   6   26492.0    377.5   0.008666356   0.10770  -0.16256   0.27369   0.07977
   7   27868.8    358.8   0.041751822   0.49321  -0.30112   0.26027   0.57862
   8   29540.8    338.5   0.100604205   1.12117   0.27607   0.95808  -0.35643
   9   29987.7    333.5   0.055366699   0.60783   0.20227   0.74693   0.09497
  10   30928.7    323.3   0.541202680   5.76068   0.63402   2.28987   0.33939
  11   31844.3    314.0   0.094759360   0.97964  -0.45258  -0.87263   0.11543
  12   32071.8    311.8   0.080534047   0.82667   0.60179   0.58408  -0.35124
  13   32260.0    310.0   0.008570835   0.08746   0.18397   0.21262   0.09172
  14   33644.2    297.2   0.000394036   0.00386  -0.05116  -0.02808   0.02121
  15   34005.2    294.1   0.009350953   0.09053  -0.20128  -0.11441  -0.19216
  16   34449.6    290.3   0.001610270   0.01539  -0.10290  -0.04003   0.05655
  17   34598.8    289.0   0.027808978   0.26461   0.18443  -0.11153  -0.46707
  18   35493.4    281.7   0.018197050   0.16878  -0.06633  -0.35929  -0.18786
  19   35870.7    278.8   0.000144233   0.00132  -0.00338  -0.03528  -0.00822
  20   36686.1    272.6   0.039710444   0.35635   0.13834   0.58046  -0.01685
  21   37022.4    270.1   0.009211175   0.08191   0.26767  -0.10101  -0.00747
  22   37311.5    268.0   0.027603714   0.24356   0.10529   0.38513  -0.29008
  23   37408.2    267.3   0.030370235   0.26727  -0.41624  -0.17655  -0.25070
  24   38050.1    262.8   0.032149998   0.27816   0.47142  -0.09361  -0.21716
  25   38361.9    260.7   0.145213586   1.24619  -0.39948  -0.63746   0.82477
  26   38663.1    258.6   0.011581267   0.09861   0.26592   0.06307   0.15467
  27   38815.6    257.6   0.054810465   0.46487   0.11260   0.54426  -0.39494
  28   39458.2    253.4   0.002178353   0.01817  -0.06859  -0.11235   0.02913
  29   39928.1    250.5   0.041661944   0.34351   0.42486   0.30176  -0.26822
  30   39967.8    250.2   0.013249582   0.10914  -0.18302   0.02320   0.27405

FINAL SINGLE POINT ENERGY     -4015.286513893074

DIPOLE MOMENT
-------------
                                X             Y             Z
Electronic contribution:    -16.83210      33.89469      39.53911
Nuclear contribution   :     15.49395     -32.52898     -39.79840
                        -----------------------------------------
Total Dipole Moment    :     -1.33815       1.36571      -0.25929
                        -----------------------------------------
Magnitude (a.u.)       :      1.92952
Magnitude (Debye)      :      4.90445

Rotational constants in cm-1:     0.001885     0.000475     0.000410
Rotational constants in MHz :    56.508644    14.235275    12.289984

                             ****ORCA TERMINATED NORMALLY****
TOTAL RUN TIME: 0 days 0 hours 6 minutes 36 seconds 388 msec
