                         Program Version 4.2.0 -  RELEASE  -
|  1> # ORCA input file
|  2> # SCF done       -157.752871162401          0.000537981514
|  3> ! CAM-B3LYP def2-SVP def2/J RIJCOSX Grid4 TightSCF
|  4> %maxcore 5000
|  5> %tddft
|  6>     Mode sTDDFT
|  7>     Ethresh 5.0
|  8>     maxcore 5000
|  9> end
| 10>
| 11> %pal
| 12>   nprocs 6
| 13>   end
| 14> * xyz 0 1
| 15>    C        2.79586        -4.18783        -9.23720
| 16>    C        3.84525        -3.95729        -8.43866
| 17>    C        5.15909        -3.51370        -8.81483
| 18>    C        6.02875        -3.40987        -7.78864
| 19>    C        5.48681        -3.77080        -6.51965
| 20>    S        3.79158        -4.18893        -6.68614
| 21>    C        6.12656        -3.83718        -5.31048
| 22>    C        7.45247        -3.43653        -4.99608
| 23>    C        7.77668        -3.61097        -3.69191
| 24>    C        6.73372        -4.17427        -2.89893
| 25>    S        5.32425        -4.49567        -3.87840
| 26>    C        6.73748        -4.42744        -1.56280
| 27>    C        5.58542        -4.98599        -0.92637
| 28>    N        5.56757        -5.06675         0.41109
| 29>    C        4.46221        -5.53061         0.95970
| 30>    C        3.36706        -5.94255         0.21596
| 31>    C        3.48586        -5.88143        -1.18094
| 32>    N        4.59639        -5.38561        -1.72791
| 33>    C        2.44080        -6.37216        -2.04470
| 34>    C        2.63672        -6.57512        -3.36633
| 35>    C        1.68742        -7.05228        -4.29353
| 36>    S        0.03258        -7.34949        -3.86929
| 37>    C       -0.39299        -7.82219        -5.48306
| 38>    C        0.71615        -7.74542        -6.33433
| 39>    C        1.89841        -7.32360        -5.65637
| 40>    C        3.10911        -7.22958        -6.36040
| 41>    C        3.14444        -7.49534        -7.71191
| 42>    C        4.36109        -7.37925        -8.50388
| 43>    C        5.56502        -7.02914        -8.06324
| 44>    C        1.94897        -7.88830        -8.37322
| 45>    C        0.76370        -8.02652        -7.71419
| 46>    C       -1.69936        -8.25276        -5.79950
| 47>    N       -2.71887        -8.28860        -4.82722
| 48>    C       -3.79098        -8.77917        -5.46792
| 49>    N       -5.07291        -9.14846        -5.36103
| 50>    C       -5.42764        -9.62183        -6.64312
| 51>    N       -4.42359        -9.54329        -7.50206
| 52>    C       -3.39725        -9.02797        -6.81281
| 53>    N       -2.10178        -8.68612        -6.97821
| 54>    C       -6.71664       -10.13094        -6.89413
| 55>    C       -7.11166       -10.65881        -8.08808
| 56>    C       -8.40613       -11.18751        -8.24704
| 57>    C       -8.89534       -11.78667        -9.37866
| 58>    C      -10.21096       -12.36549        -9.54670
| 59>    C      -11.23594       -12.38036        -8.63156
| 60>    C      -12.49663       -12.96761        -8.86220
| 61>    N      -13.54216       -13.42774        -8.98180
| 62>    C      -11.19646       -11.81961        -7.33928
| 63>    N      -11.25419       -11.39023        -6.27466
| 64>    C      -10.27425       -12.94522       -10.88543
| 65>    C       -9.04120       -12.71337       -11.54134
| 66>    C       -8.13390       -11.97535       -10.63580
| 67>    O       -7.00600       -11.61366       -10.89213
| 68>    C       -8.78895       -13.14320       -12.82071
| 69>    C       -9.80246       -13.84036       -13.48712
| 70>    C      -11.03084       -14.06932       -12.82389
| 71>    C      -11.28665       -13.63174       -11.53027
| 72>    S      -12.14304       -14.95360       -13.82555
| 73>    C      -10.95765       -15.00244       -15.10333
| 74>    C       -9.78963       -14.38908       -14.79893
| 75>   Br      -11.37416       -15.86051       -16.71863
| 76>    H        2.86828        -4.03322       -10.29934
| 77>    H        1.85569        -4.53446        -8.84854
| 78>    H        5.39079        -3.30121        -9.84354
| 79>    H        7.05588        -3.10596        -7.88904
| 80>    H        8.11370        -3.01359        -5.73233
| 81>    H        8.72599        -3.35519        -3.25466
| 82>    H        7.58877        -4.18770        -0.94740
| 83>    H        4.45824        -5.57667         2.04202
| 84>    H        2.47269        -6.32049         0.68401
| 85>    H        1.49279        -6.60918        -1.57960
| 86>    H        3.61480        -6.35236        -3.76418
| 87>    H        4.00222        -6.94693        -5.82959
| 88>    H        4.23516        -7.59928        -9.55704
| 89>    H        5.76846        -6.79803        -7.03161
| 90>    H        6.40566        -6.96191        -8.73230
| 91>    H        1.99504        -8.09081        -9.43353
| 92>    H       -0.14127        -8.34215        -8.20708
| 93>    H       -2.61708        -8.00034        -3.86801
| 94>    H       -5.67972        -9.12035        -4.55810
| 95>    H       -7.41459       -10.10698        -6.06492
| 96>    H       -6.41345       -10.68327        -8.91023
| 97>    H       -9.05631       -11.12355        -7.38320
| 98>    H       -7.83799       -12.94951       -13.29173
| 99>    H      -12.23949       -13.83320       -11.07038
|100>    H       -8.95206       -14.32555       -15.46937
|101> *
|102>
|103>                          ****END OF INPUT****

CARTESIAN COORDINATES (ANGSTROEM)
---------------------------------
  C      2.795860   -4.187830   -9.237200
  C      3.845250   -3.957290   -8.438660
  C      5.159090   -3.513700   -8.814830
  C      6.028750   -3.409870   -7.788640
  C      5.486810   -3.770800   -6.519650
  S      3.791580   -4.188930   -6.686140
  C      6.126560   -3.837180   -5.310480
  C      7.452470   -3.436530   -4.996080
  C      7.776680   -3.610970   -3.691910
  C      6.733720   -4.174270   -2.898930
  S      5.324250   -4.495670   -3.878400
  C      6.737480   -4.427440   -1.562800
  C      5.585420   -4.985990   -0.926370
  N      5.567570   -5.066750    0.411090
  C      4.462210   -5.530610    0.959700
  C      3.367060   -5.942550    0.215960
  C      3.485860   -5.881430   -1.180940
  N      4.596390   -5.385610   -1.727910
  C      2.440800   -6.372160   -2.044700
  C      2.636720   -6.575120   -3.366330
  C      1.687420   -7.052280   -4.293530
  S      0.032580   -7.349490   -3.869290
  C     -0.392990   -7.822190   -5.483060
  C      0.716150   -7.745420   -6.334330
  C      1.898410   -7.323600   -5.656370
  C      3.109110   -7.229580   -6.360400
  C      3.144440   -7.495340   -7.711910
  C      4.361090   -7.379250   -8.503880
  C      5.565020   -7.029140   -8.063240
  C      1.948970   -7.888300   -8.373220
  C      0.763700   -8.026520   -7.714190
  C     -1.699360   -8.252760   -5.799500
  N     -2.718870   -8.288600   -4.827220
  C     -3.790980   -8.779170   -5.467920
  N     -5.072910   -9.148460   -5.361030
  C     -5.427640   -9.621830   -6.643120
  N     -4.423590   -9.543290   -7.502060
  C     -3.397250   -9.027970   -6.812810
  N     -2.101780   -8.686120   -6.978210
  C     -6.716640  -10.130940   -6.894130
  C     -7.111660  -10.658810   -8.088080
  C     -8.406130  -11.187510   -8.247040
  C     -8.895340  -11.786670   -9.378660
  C    -10.210960  -12.365490   -9.546700
  C    -11.235940  -12.380360   -8.631560
  C    -12.496630  -12.967610   -8.862200
  N    -13.542160  -13.427740   -8.981800
  C    -11.196460  -11.819610   -7.339280
  N    -11.254190  -11.390230   -6.274660
  C    -10.274250  -12.945220  -10.885430
  C     -9.041200  -12.713370  -11.541340
  C     -8.133900  -11.975350  -10.635800
  O     -7.006000  -11.613660  -10.892130
  C     -8.788950  -13.143200  -12.820710
  C     -9.802460  -13.840360  -13.487120
  C    -11.030840  -14.069320  -12.823890
  C    -11.286650  -13.631740  -11.530270
  S    -12.143040  -14.953600  -13.825550
  C    -10.957650  -15.002440  -15.103330
  C     -9.789630  -14.389080  -14.798930
  Br   -11.374160  -15.860510  -16.718630
  H      2.868280   -4.033220  -10.299340
  H      1.855690   -4.534460   -8.848540
  H      5.390790   -3.301210   -9.843540
  H      7.055880   -3.105960   -7.889040
  H      8.113700   -3.013590   -5.732330
  H      8.725990   -3.355190   -3.254660
  H      7.588770   -4.187700   -0.947400
  H      4.458240   -5.576670    2.042020
  H      2.472690   -6.320490    0.684010
  H      1.492790   -6.609180   -1.579600
  H      3.614800   -6.352360   -3.764180
  H      4.002220   -6.946930   -5.829590
  H      4.235160   -7.599280   -9.557040
  H      5.768460   -6.798030   -7.031610
  H      6.405660   -6.961910   -8.732300
  H      1.995040   -8.090810   -9.433530
  H     -0.141270   -8.342150   -8.207080
  H     -2.617080   -8.000340   -3.868010
  H     -5.679720   -9.120350   -4.558100
  H     -7.414590  -10.106980   -6.064920
  H     -6.413450  -10.683270   -8.910230
  H     -9.056310  -11.123550   -7.383200
  H     -7.837990  -12.949510  -13.291730
  H    -12.239490  -13.833200  -11.070380
  H     -8.952060  -14.325550  -15.469370

 Total Charge           Charge          ....    0
 Multiplicity           Mult            ....    1
 Number of Electrons    NEL             ....  470
 Basis Dimension        Dim             .... 1013

ORBITAL ENERGIES
----------------

  NO   OCC          E(Eh)            E(eV)
   0   2.0000    -482.880764    -13139.8536
   1   2.0000     -88.976664     -2421.1781
   2   2.0000     -88.969787     -2420.9910
   3   2.0000     -88.936804     -2420.0935
   4   2.0000     -88.936318     -2420.0802
   5   2.0000     -62.558489     -1702.3030
   6   2.0000     -56.392433     -1534.5161
   7   2.0000     -56.389728     -1534.4425
   8   2.0000     -56.389691     -1534.4415
   9   2.0000     -19.206065      -522.6236
  10   2.0000     -14.500095      -394.5676
  11   2.0000     -14.497684      -394.5020
  12   2.0000     -14.410148      -392.1201
  13   2.0000     -14.407279      -392.0420
  14   2.0000     -14.406954      -392.0332
  15   2.0000     -14.404958      -391.9788
  16   2.0000     -14.400736      -391.8639
  17   2.0000     -14.394312      -391.6892
  18   2.0000     -10.359323      -281.8915
  19   2.0000     -10.357615      -281.8450
  20   2.0000     -10.356580      -281.8169
  21   2.0000     -10.353326      -281.7283
  22   2.0000     -10.344721      -281.4942
  23   2.0000     -10.333310      -281.1836
  24   2.0000     -10.332290      -281.1559
  25   2.0000     -10.331764      -281.1416
  26   2.0000     -10.322919      -280.9009
  27   2.0000     -10.318724      -280.7868
  28   2.0000     -10.316865      -280.7362
  29   2.0000     -10.315606      -280.7019
  30   2.0000     -10.313913      -280.6558
  31   2.0000     -10.310606      -280.5659
  32   2.0000     -10.310588      -280.5654
  33   2.0000     -10.309359      -280.5319
  34   2.0000     -10.308887      -280.5191
  35   2.0000     -10.305343      -280.4226
  36   2.0000     -10.305156      -280.4176
  37   2.0000     -10.304139      -280.3899
  38   2.0000     -10.302633      -280.3489
  39   2.0000     -10.300860      -280.3007
  40   2.0000     -10.300340      -280.2865
  41   2.0000     -10.298205      -280.2284
  42   2.0000     -10.293100      -280.0895
  43   2.0000     -10.291079      -280.0345
  44   2.0000     -10.291013      -280.0327
  45   2.0000     -10.287664      -279.9416
  46   2.0000     -10.286890      -279.9205
  47   2.0000     -10.286238      -279.9028
  48   2.0000     -10.284952      -279.8678
  49   2.0000     -10.284792      -279.8634
  50   2.0000     -10.284444      -279.8540
  51   2.0000     -10.284171      -279.8465
  52   2.0000     -10.283660      -279.8326
  53   2.0000     -10.278416      -279.6899
  54   2.0000     -10.277040      -279.6525
  55   2.0000     -10.275001      -279.5970
  56   2.0000     -10.274976      -279.5963
  57   2.0000     -10.273680      -279.5610
  58   2.0000     -10.269751      -279.4541
  59   2.0000     -10.269432      -279.4454
  60   2.0000     -10.267832      -279.4019
  61   2.0000     -10.266447      -279.3642
  62   2.0000     -10.263016      -279.2709
  63   2.0000     -10.259912      -279.1864
  64   2.0000     -10.258407      -279.1455
  65   2.0000      -8.787925      -239.1316
  66   2.0000      -8.071553      -219.6381
  67   2.0000      -8.065628      -219.4769
  68   2.0000      -8.032644      -218.5794
  69   2.0000      -8.029244      -218.4868
  70   2.0000      -6.624202      -180.2537
  71   2.0000      -6.609659      -179.8580
  72   2.0000      -6.609492      -179.8534
  73   2.0000      -6.040535      -164.3713
  74   2.0000      -6.036656      -164.2658
  75   2.0000      -6.035327      -164.2296
  76   2.0000      -6.034294      -164.2015
  77   2.0000      -6.031057      -164.1134
  78   2.0000      -6.026892      -164.0001
  79   2.0000      -6.002479      -163.3357
  80   2.0000      -5.999444      -163.2532
  81   2.0000      -5.998496      -163.2274
  82   2.0000      -5.994690      -163.1238
  83   2.0000      -5.993335      -163.0869
  84   2.0000      -5.990327      -163.0051
  85   2.0000      -2.740075       -74.5612
  86   2.0000      -2.736012       -74.4507
  87   2.0000      -2.735844       -74.4461
  88   2.0000      -2.724308       -74.1322
  89   2.0000      -2.724290       -74.1317
  90   2.0000      -1.154798       -31.4237
  91   2.0000      -1.120764       -30.4975
  92   2.0000      -1.102677       -30.0054
  93   2.0000      -1.072634       -29.1878
  94   2.0000      -1.015639       -27.6369
  95   2.0000      -1.010395       -27.4942
  96   2.0000      -1.006865       -27.3982
  97   2.0000      -1.000804       -27.2333
  98   2.0000      -0.987425       -26.8692
  99   2.0000      -0.986725       -26.8502
 100   2.0000      -0.981490       -26.7077
 101   2.0000      -0.973373       -26.4868
 102   2.0000      -0.965451       -26.2713
 103   2.0000      -0.963223       -26.2106
 104   2.0000      -0.937462       -25.5096
 105   2.0000      -0.936162       -25.4743
 106   2.0000      -0.919510       -25.0212
 107   2.0000      -0.911427       -24.8012
 108   2.0000      -0.901358       -24.5272
 109   2.0000      -0.895465       -24.3668
 110   2.0000      -0.881332       -23.9823
 111   2.0000      -0.878764       -23.9124
 112   2.0000      -0.872271       -23.7357
 113   2.0000      -0.869429       -23.6584
 114   2.0000      -0.855325       -23.2746
 115   2.0000      -0.846469       -23.0336
 116   2.0000      -0.841264       -22.8920
 117   2.0000      -0.835822       -22.7439
 118   2.0000      -0.824609       -22.4387
 119   2.0000      -0.821773       -22.3616
 120   2.0000      -0.812495       -22.1091
 121   2.0000      -0.811913       -22.0933
 122   2.0000      -0.792587       -21.5674
 123   2.0000      -0.784103       -21.3365
 124   2.0000      -0.773996       -21.0615
 125   2.0000      -0.757683       -20.6176
 126   2.0000      -0.751580       -20.4515
 127   2.0000      -0.739051       -20.1106
 128   2.0000      -0.737388       -20.0653
 129   2.0000      -0.724541       -19.7158
 130   2.0000      -0.720607       -19.6087
 131   2.0000      -0.702938       -19.1279
 132   2.0000      -0.699490       -19.0341
 133   2.0000      -0.697314       -18.9749
 134   2.0000      -0.695728       -18.9317
 135   2.0000      -0.685539       -18.6545
 136   2.0000      -0.683048       -18.5867
 137   2.0000      -0.673353       -18.3229
 138   2.0000      -0.666216       -18.1287
 139   2.0000      -0.657970       -17.9043
 140   2.0000      -0.649856       -17.6835
 141   2.0000      -0.646558       -17.5937
 142   2.0000      -0.638140       -17.3647
 143   2.0000      -0.633800       -17.2466
 144   2.0000      -0.627594       -17.0777
 145   2.0000      -0.620487       -16.8843
 146   2.0000      -0.617193       -16.7947
 147   2.0000      -0.611719       -16.6457
 148   2.0000      -0.606393       -16.5008
 149   2.0000      -0.601558       -16.3692
 150   2.0000      -0.594699       -16.1826
 151   2.0000      -0.589518       -16.0416
 152   2.0000      -0.585118       -15.9219
 153   2.0000      -0.583247       -15.8710
 154   2.0000      -0.580725       -15.8023
 155   2.0000      -0.571797       -15.5594
 156   2.0000      -0.563623       -15.3370
 157   2.0000      -0.559352       -15.2207
 158   2.0000      -0.549658       -14.9570
 159   2.0000      -0.545145       -14.8342
 160   2.0000      -0.544835       -14.8257
 161   2.0000      -0.540456       -14.7066
 162   2.0000      -0.539405       -14.6779
 163   2.0000      -0.533364       -14.5136
 164   2.0000      -0.531663       -14.4673
 165   2.0000      -0.527989       -14.3673
 166   2.0000      -0.526122       -14.3165
 167   2.0000      -0.519642       -14.1402
 168   2.0000      -0.517619       -14.0851
 169   2.0000      -0.516662       -14.0591
 170   2.0000      -0.515255       -14.0208
 171   2.0000      -0.509794       -13.8722
 172   2.0000      -0.507358       -13.8059
 173   2.0000      -0.502219       -13.6661
 174   2.0000      -0.500895       -13.6300
 175   2.0000      -0.500631       -13.6229
 176   2.0000      -0.494881       -13.4664
 177   2.0000      -0.493572       -13.4308
 178   2.0000      -0.492668       -13.4062
 179   2.0000      -0.490409       -13.3447
 180   2.0000      -0.486019       -13.2252
 181   2.0000      -0.485697       -13.2165
 182   2.0000      -0.484826       -13.1928
 183   2.0000      -0.481505       -13.1024
 184   2.0000      -0.479401       -13.0452
 185   2.0000      -0.472955       -12.8698
 186   2.0000      -0.466545       -12.6953
 187   2.0000      -0.464843       -12.6490
 188   2.0000      -0.461539       -12.5591
 189   2.0000      -0.458114       -12.4659
 190   2.0000      -0.451584       -12.2882
 191   2.0000      -0.450710       -12.2644
 192   2.0000      -0.445327       -12.1180
 193   2.0000      -0.443536       -12.0692
 194   2.0000      -0.441642       -12.0177
 195   2.0000      -0.437078       -11.8935
 196   2.0000      -0.435412       -11.8482
 197   2.0000      -0.434831       -11.8324
 198   2.0000      -0.433075       -11.7846
 199   2.0000      -0.432489       -11.7686
 200   2.0000      -0.423967       -11.5367
 201   2.0000      -0.422044       -11.4844
 202   2.0000      -0.421757       -11.4766
 203   2.0000      -0.419515       -11.4156
 204   2.0000      -0.416450       -11.3322
 205   2.0000      -0.415590       -11.3088
 206   2.0000      -0.414136       -11.2692
 207   2.0000      -0.413546       -11.2532
 208   2.0000      -0.403476       -10.9791
 209   2.0000      -0.400653       -10.9023
 210   2.0000      -0.397527       -10.8173
 211   2.0000      -0.390444       -10.6245
 212   2.0000      -0.382597       -10.4110
 213   2.0000      -0.380587       -10.3563
 214   2.0000      -0.379945       -10.3388
 215   2.0000      -0.370228       -10.0744
 216   2.0000      -0.364521        -9.9191
 217   2.0000      -0.360972        -9.8225
 218   2.0000      -0.355336        -9.6692
 219   2.0000      -0.351425        -9.5628
 220   2.0000      -0.344541        -9.3754
 221   2.0000      -0.341057        -9.2806
 222   2.0000      -0.334410        -9.0998
 223   2.0000      -0.325528        -8.8581
 224   2.0000      -0.323749        -8.8097
 225   2.0000      -0.320388        -8.7182
 226   2.0000      -0.318300        -8.6614
 227   2.0000      -0.308589        -8.3971
 228   2.0000      -0.305233        -8.3058
 229   2.0000      -0.297973        -8.1083
 230   2.0000      -0.293710        -7.9923
 231   2.0000      -0.287513        -7.8236
 232   2.0000      -0.268272        -7.3001
 233   2.0000      -0.230882        -6.2826
 234   2.0000      -0.221112        -6.0168
 235   0.0000      -0.094698        -2.5769
 236   0.0000      -0.069631        -1.8948
 237   0.0000      -0.062571        -1.7026
 238   0.0000      -0.051122        -1.3911
 239   0.0000      -0.009778        -0.2661

MULLIKEN ATOMIC CHARGES
-----------------------
   0 C :   -0.026474
   1 C :   -0.055262
   2 C :    0.057168
   3 C :    0.035476
   4 C :   -0.083239
   5 S :    0.082524
   6 C :   -0.035079
   7 C :    0.033865
   8 C :    0.035712
   9 C :    0.027204
  10 S :    0.085936
  11 C :   -0.023759
  12 C :    0.001441
  13 N :   -0.077780
  14 C :    0.075073
  15 C :   -0.061131
  16 C :    0.087575
  17 N :   -0.154743
  18 C :   -0.036696
  19 C :    0.040339
  20 C :   -0.079449
  21 S :    0.113324
  22 C :   -0.089411
  23 C :    0.062081
  24 C :    0.123600
  25 C :   -0.061875
  26 C :    0.101932
  27 C :    0.004849
  28 C :   -0.010852
  29 C :   -0.005861
  30 C :   -0.014630
  31 C :    0.006142
  32 N :   -0.055587
  33 C :    0.017440
  34 N :   -0.036137
  35 C :    0.031782
  36 N :   -0.013193
  37 C :   -0.080641
  38 N :   -0.044157
  39 C :    0.029195
  40 C :   -0.002384
  41 C :   -0.048485
  42 C :   -0.059543
  43 C :    0.337548
  44 C :   -0.366791
  45 C :   -0.183262
  46 N :    0.141839
  47 C :   -0.184938
  48 N :    0.132960
  49 C :    0.013692
  50 C :   -0.015270
  51 C :    0.138542
  52 O :   -0.142547
  53 C :   -0.075391
  54 C :    0.122274
  55 C :   -0.092809
  56 C :   -0.023761
  57 S :    0.182808
  58 C :   -0.123136
  59 C :    0.036775
  60 Br:    0.019649
  61 H :    0.019600
  62 H :    0.029852
  63 H :   -0.012803
  64 H :   -0.013594
  65 H :   -0.017762
  66 H :   -0.014358
  67 H :   -0.021228
  68 H :    0.002260
  69 H :   -0.016541
  70 H :   -0.028835
  71 H :    0.016136
  72 H :   -0.039585
  73 H :   -0.021974
  74 H :    0.024254
  75 H :    0.017570
  76 H :   -0.023879
  77 H :   -0.004014
  78 H :    0.137902
  79 H :    0.136717
  80 H :   -0.009523
  81 H :    0.047060
  82 H :    0.002563
  83 H :   -0.011781
  84 H :   -0.009025
  85 H :   -0.003488
Sum of atomic charges:   -0.0000000

LOEWDIN ATOMIC CHARGES
----------------------
   0 C :   -0.068036
   1 C :   -0.137199
   2 C :   -0.023089
   3 C :   -0.028915
   4 C :   -0.166949
   5 S :    0.388844
   6 C :   -0.202784
   7 C :   -0.022391
   8 C :   -0.038514
   9 C :   -0.116650
  10 S :    0.419006
  11 C :   -0.086534
  12 C :    0.029883
  13 N :   -0.101140
  14 C :    0.046592
  15 C :   -0.080952
  16 C :    0.041431
  17 N :   -0.120590
  18 C :   -0.059227
  19 C :    0.000558
  20 C :   -0.174893
  21 S :    0.447145
  22 C :   -0.193175
  23 C :   -0.030692
  24 C :   -0.032100
  25 C :   -0.011733
  26 C :   -0.026635
  27 C :   -0.021654
  28 C :   -0.036846
  29 C :   -0.013230
  30 C :   -0.010472
  31 C :    0.018341
  32 N :    0.051219
  33 C :    0.004622
  34 N :    0.067314
  35 C :    0.001295
  36 N :   -0.081595
  37 C :   -0.055160
  38 N :   -0.103372
  39 C :    0.002686
  40 C :   -0.014287
  41 C :    0.062212
  42 C :   -0.100942
  43 C :    0.077295
  44 C :   -0.149495
  45 C :   -0.018366
  46 N :   -0.060957
  47 C :   -0.018205
  48 N :   -0.065202
  49 C :   -0.020765
  50 C :   -0.048980
  51 C :    0.081537
  52 O :   -0.139589
  53 C :    0.020233
  54 C :   -0.033041
  55 C :   -0.144877
  56 C :   -0.011393
  57 S :    0.429383
  58 C :   -0.272556
  59 C :   -0.070518
  60 Br:    0.133522
  61 H :    0.028573
  62 H :    0.028798
  63 H :    0.033219
  64 H :    0.031823
  65 H :    0.028616
  66 H :    0.032702
  67 H :    0.034877
  68 H :    0.024338
  69 H :    0.028769
  70 H :    0.017945
  71 H :    0.027922
  72 H :    0.019002
  73 H :    0.026109
  74 H :    0.021454
  75 H :    0.024487
  76 H :    0.028284
  77 H :    0.034381
  78 H :    0.087124
  79 H :    0.096915
  80 H :    0.033058
  81 H :    0.043769
  82 H :    0.038962
  83 H :    0.040542
  84 H :    0.040331
  85 H :    0.038583

  Mayer bond orders larger than 0.100000
B(  0-C ,  1-C ) :   1.8634 B(  0-C , 61-H ) :   0.9506 B(  0-C , 62-H ) :   0.9387
B(  1-C ,  2-C ) :   1.0766 B(  1-C ,  5-S ) :   1.0106 B(  2-C ,  3-C ) :   1.6686
B(  2-C , 63-H ) :   0.9923 B(  3-C ,  4-C ) :   1.1367 B(  3-C , 64-H ) :   0.9912
B(  4-C ,  5-S ) :   1.0521 B(  4-C ,  6-C ) :   1.5781 B(  6-C ,  7-C ) :   1.1592
B(  6-C , 10-S ) :   0.9686 B(  7-C ,  8-C ) :   1.6246 B(  7-C , 65-H ) :   0.9933
B(  8-C ,  9-C ) :   1.1167 B(  8-C , 66-H ) :   0.9993 B(  9-C , 10-S ) :   1.0609
B(  9-C , 11-C ) :   1.5752 B( 10-S , 17-N ) :   0.1068 B( 11-C , 12-C ) :   1.0964
B( 11-C , 67-H ) :   0.9824 B( 12-C , 13-N ) :   1.4886 B( 12-C , 17-N ) :   1.4290
B( 13-N , 14-C ) :   1.5635 B( 14-C , 15-C ) :   1.3598 B( 14-C , 68-H ) :   0.9789
B( 15-C , 16-C ) :   1.3280 B( 15-C , 69-H ) :   0.9752 B( 16-C , 17-N ) :   1.4759
B( 16-C , 18-C ) :   1.0974 B( 18-C , 19-C ) :   1.6526 B( 18-C , 70-H ) :   0.9714
B( 19-C , 20-C ) :   1.1827 B( 19-C , 71-H ) :   0.9581 B( 20-C , 21-S ) :   1.1191
B( 20-C , 22-C ) :   0.1180 B( 20-C , 24-C ) :   1.3039 B( 21-S , 22-C ) :   1.1329
B( 22-C , 23-C ) :   1.3743 B( 22-C , 31-C ) :   1.0904 B( 23-C , 24-C ) :   1.1903
B( 23-C , 30-C ) :   1.2264 B( 24-C , 25-C ) :   1.2254 B( 25-C , 26-C ) :   1.4895
B( 25-C , 72-H ) :   0.9803 B( 26-C , 27-C ) :   1.0659 B( 26-C , 29-C ) :   1.1799
B( 27-C , 28-C ) :   1.9473 B( 27-C , 73-H ) :   0.9673 B( 28-C , 74-H ) :   0.9434
B( 28-C , 75-H ) :   0.9472 B( 29-C , 30-C ) :   1.5109 B( 29-C , 76-H ) :   0.9944
B( 30-C , 77-H ) :   0.9798 B( 31-C , 32-N ) :   1.1441 B( 31-C , 38-N ) :   1.6886
B( 32-N , 33-C ) :   1.2499 B( 32-N , 78-H ) :   0.9131 B( 33-C , 34-N ) :   1.2806
B( 33-C , 37-C ) :   1.1877 B( 34-N , 35-C ) :   1.0938 B( 34-N , 79-H ) :   0.9226
B( 35-C , 36-N ) :   1.6177 B( 35-C , 39-C ) :   1.1155 B( 36-N , 37-C ) :   1.4583
B( 37-C , 38-N ) :   1.3798 B( 39-C , 40-C ) :   1.5508 B( 39-C , 80-H ) :   0.9587
B( 40-C , 41-C ) :   1.1677 B( 40-C , 81-H ) :   0.9965 B( 41-C , 42-C ) :   1.5004
B( 41-C , 82-H ) :   0.9588 B( 42-C , 43-C ) :   1.0872 B( 42-C , 51-C ) :   0.9465
B( 43-C , 44-C ) :   1.6024 B( 43-C , 49-C ) :   0.9984 B( 44-C , 45-C ) :   1.1443
B( 44-C , 47-C ) :   1.1539 B( 45-C , 46-N ) :   2.9642 B( 47-C , 48-N ) :   2.9550
B( 49-C , 50-C ) :   1.2776 B( 49-C , 56-C ) :   1.4080 B( 50-C , 51-C ) :   0.9339
B( 50-C , 53-C ) :   1.4273 B( 51-C , 52-O ) :   2.2220 B( 53-C , 54-C ) :   1.2418
B( 53-C , 83-H ) :   1.0168 B( 54-C , 55-C ) :   1.3086 B( 54-C , 59-C ) :   1.1618
B( 55-C , 56-C ) :   1.3304 B( 55-C , 57-S ) :   1.0842 B( 56-C , 84-H ) :   0.9791
B( 57-S , 58-C ) :   1.0856 B( 58-C , 59-C ) :   1.6199 B( 58-C , 60-Br) :   1.0162
B( 59-C , 85-H ) :   1.0002

-----------------------------------------------------------------------------
         ABSORPTION SPECTRUM VIA TRANSITION ELECTRIC DIPOLE MOMENTS
-----------------------------------------------------------------------------
State   Energy  Wavelength   fosc         T2         TX        TY        TZ
        (cm-1)    (nm)                  (au**2)     (au)      (au)      (au)
-----------------------------------------------------------------------------
   0   14759.6    677.5   1.426672046  31.82189  -4.54253  -2.36275  -2.36743
   1   16408.5    609.4   0.458659996   9.20233   2.60385   1.21245   0.97583
   2   19531.5    512.0   0.424853917   7.16109  -1.24303   0.19687  -2.36161
   3   20687.8    483.4   0.043080949   0.68556   0.11176   0.09661   0.81470
   4   22141.5    451.6   0.394506400   5.86573   1.41666   0.24727   1.94876
   5   23302.5    429.1   0.273231145   3.86014  -0.42810   0.38190  -1.87910
   6   24381.3    410.2   0.132264676   1.78592   1.18477   0.50365  -0.35859
   7   25317.1    395.0   0.031317805   0.40724   0.39091   0.26781  -0.42744
   8   27238.4    367.1   0.195319644   2.36070  -0.26919  -0.73713  -1.32094
   9   27721.5    360.7   0.001278419   0.01518  -0.00297   0.03996   0.11652
  10   28708.8    348.3   0.136513426   1.56544   0.05927  -0.53932  -1.12742
  11   29347.4    340.7   0.183090783   2.05387   0.20732  -0.13411   1.41170
  12   29631.0    337.5   0.007699455   0.08554   0.01086  -0.10797   0.27160
  13   29665.3    337.1   0.015328025   0.17010   0.19025   0.00416  -0.36591
  14   30562.7    327.2   0.006814429   0.07340   0.19976  -0.11287   0.14408
  15   30662.4    326.1   0.004734554   0.05083  -0.17508  -0.12560   0.06636
  16   30834.3    324.3   0.058429119   0.62384   0.15775  -0.31509  -0.70687
  17   31271.8    319.8   0.040741177   0.42890  -0.16611  -0.11875  -0.62226
  18   31589.2    316.6   0.024477876   0.25510  -0.25050  -0.13338   0.41780
  19   31723.7    315.2   0.000732127   0.00760   0.01592  -0.02773  -0.08109
  20   31732.3    315.1   0.014053846   0.14580  -0.16631  -0.00020  -0.34372
  21   32999.3    303.0   0.101938356   1.01697   0.76805   0.44153   0.48179
  22   33216.3    301.1   0.767484719   7.60667   0.30285  -0.85376  -2.60500
  23   33244.3    300.8   0.006516831   0.06453   0.08280   0.04072  -0.23669
  24   33717.9    296.6   0.139549203   1.36252   0.77251  -0.02001  -0.87484
  25   33895.2    295.0   0.196344796   1.90703   0.97493  -0.22690  -0.95135
  26   34098.5    293.3   0.006498271   0.06274  -0.16641  -0.00633   0.18710
  27   35154.1    284.5   0.004568867   0.04279  -0.04200   0.15351  -0.13212
  28   35304.2    283.3   0.027768080   0.25894   0.27013  -0.03235  -0.43002
  29   35692.8    280.2   0.140223145   1.29334   0.01231  -0.21139  -1.11737
  30   36011.2    277.7   0.294240754   2.68993   1.44470   0.64665   0.42967
  31   36456.1    274.3   0.232060901   2.09560   0.73144  -0.01382  -1.24916
  32   36637.0    272.9   0.022166590   0.19918  -0.06113  -0.38470   0.21783
  33   36841.0    271.4   0.053367464   0.47689   0.65195   0.22741  -0.01157
  34   37139.9    269.3   0.163101144   1.44575  -0.46994  -0.11233   1.10104
  35   37585.5    266.1   0.112926356   0.98912  -0.86860  -0.19363   0.44402
  36   37889.4    263.9   0.041814653   0.36332  -0.18181  -0.00343   0.57467
  37   38136.8    262.2   0.041944351   0.36208   0.36276   0.00542  -0.48006
  38   38495.6    259.8   0.092294692   0.78930  -0.77627  -0.36664  -0.22863
  39   39123.8    255.6   0.004650115   0.03913  -0.15560  -0.11980  -0.02373
  40   39814.5    251.2   0.032609446   0.26964  -0.11937  -0.21856  -0.45565
  41   39847.8    251.0   0.242835106   2.00624  -1.31685  -0.52005  -0.04107
  42   39917.2    250.5   0.002706685   0.02232  -0.09589   0.09006  -0.07083
  43   40010.6    249.9   0.112081103   0.92222   0.89835   0.31704  -0.12114

FINAL SINGLE POINT ENERGY     -6482.479551598060

DIPOLE MOMENT
-------------
                                X             Y             Z
Electronic contribution:   -154.82320    -100.95773    -107.03468
Nuclear contribution   :    157.17134     102.15970     107.62421
                        -----------------------------------------
Total Dipole Moment    :      2.34814       1.20198       0.58953
                        -----------------------------------------
Magnitude (a.u.)       :      2.70297
Magnitude (Debye)      :      6.87040

Rotational constants in cm-1:     0.002352     0.000235     0.000217
Rotational constants in MHz :    70.512479     7.043524     6.515840

                             ****ORCA TERMINATED NORMALLY****
TOTAL RUN TIME: 0 days 0 hours 7 minutes 3 seconds 178 msec
