                         Program Version 4.2.0 -  RELEASE  -
|  1> # ORCA input file
|  2> # SCF done       -186.672351990601          0.000344446892
|  3> ! CAM-B3LYP def2-SVP def2/J RIJCOSX Grid4 TightSCF
|  4> %maxcore 5000
|  5> %tddft
|  6>     Mode sTDDFT
|  7>     Ethresh 5.0
|  8>     maxcore 5000
|  9> end
| 10>
| 11> %pal
| 12>   nprocs 6
| 13>   end
| 14> * xyz 0 1
| 15>    C       11.39926       -15.83256       -13.69943
| 16>    C       10.08771       -15.87088       -13.43069
| 17>    C        9.09178       -16.70082       -14.04902
| 18>    C        7.84299       -16.51906       -13.57071
| 19>    C        7.74629       -15.53783       -12.53977
| 20>    S        9.31655       -14.85063       -12.20331
| 21>    C        6.60918       -15.14177       -11.87641
| 22>    C        5.28768       -15.62132       -12.06808
| 23>    C        4.37123       -15.01686       -11.27269
| 24>    C        4.91349       -14.03124       -10.39793
| 25>    S        6.63932       -13.91474       -10.62154
| 26>    C        4.15730       -13.23943        -9.57185
| 27>    C        4.60316       -12.26577        -8.66028
| 28>    O        3.67337       -11.35474        -8.23428
| 29>    C        5.80926       -11.97145        -8.03351
| 30>    C        7.17632       -12.42067        -7.79849
| 31>    O        7.78123       -13.39485        -8.17433
| 32>    N        7.70389       -11.45788        -6.93234
| 33>    C        6.81269       -10.47344        -6.52569
| 34>    O        7.06293        -9.57467        -5.76236
| 35>    C        5.57849       -10.82270        -7.23103
| 36>    C        4.25523       -10.46964        -7.37856
| 37>    C        3.51885        -9.39124        -6.81784
| 38>    C        2.21191        -9.16261        -7.07231
| 39>    C        1.50760        -8.03585        -6.54522
| 40>    C        0.21853        -7.71751        -6.75570
| 41>    C       -0.75117        -8.49212        -7.58601
| 42>    C       -0.33209        -6.42079        -6.20590
| 43>    N       -0.34962        -5.42380        -7.25634
| 44>    C       -1.39734        -5.21971        -8.06397
| 45>    C       -1.32278        -4.58531        -9.26550
| 46>    C       -2.44698        -4.31321       -10.07528
| 47>    S       -4.06661        -4.62018        -9.54770
| 48>    C       -4.75783        -4.02164       -11.03894
| 49>    C       -3.74733        -3.59773       -11.89589
| 50>    C       -2.45365        -3.77590       -11.36455
| 51>    C       -1.14450        -3.49632       -12.03529
| 52>    F       -0.44681        -2.53471       -11.39347
| 53>    F       -0.34653        -4.58952       -12.01445
| 54>    F       -1.21253        -3.12699       -13.30832
| 55>    C       -3.96816        -2.97580       -13.24603
| 56>    F       -5.25188        -2.71513       -13.52606
| 57>    F       -3.33763        -1.79644       -13.35578
| 58>    F       -3.53384        -3.76295       -14.24296
| 59>    C       -6.16337        -4.03929       -11.20273
| 60>    C       -7.02434        -4.45749       -10.23397
| 61>    C       -8.42119        -4.44396       -10.42809
| 62>    C       -9.34248        -4.81423        -9.48658
| 63>    C      -10.78647        -4.79034        -9.62642
| 64>    C      -11.50417        -4.47690       -10.75187
| 65>    C      -12.91360        -4.47389       -10.81694
| 66>    N      -14.05527        -4.45037       -10.93550
| 67>    C      -10.96126        -4.12813       -12.00655
| 68>    N      -10.60815        -3.84410       -13.06164
| 69>    C      -11.36276        -5.18083        -8.34374
| 70>    C      -10.31190        -5.47612        -7.44166
| 71>    C       -9.01439        -5.27590        -8.11585
| 72>    O       -7.91784        -5.45735        -7.62743
| 73>    C      -10.53605        -5.87641        -6.14695
| 74>    C      -11.86245        -5.98827        -5.71828
| 75>    C      -12.90680        -5.68905        -6.62541
| 76>    C      -12.67971        -5.28676        -7.93541
| 77>    S      -14.46860        -5.88825        -5.89046
| 78>    C      -13.70802        -6.36413        -4.39538
| 79>    C      -12.35458        -6.37447        -4.44174
| 80>   Br      -14.77181        -6.80220        -2.91438
| 81>    H       11.82477       -16.46989       -14.45461
| 82>    H       12.06436       -15.17098       -13.17549
| 83>    H        9.36067       -17.39654       -14.82396
| 84>    H        6.97675       -17.05406       -13.91685
| 85>    H        5.05610       -16.38995       -12.78320
| 86>    H        3.31894       -15.23999       -11.27357
| 87>    H        3.08201       -13.32149        -9.65844
| 88>    H        8.65200       -11.51060        -6.58889
| 89>    H        4.09022        -8.73981        -6.17212
| 90>    H        1.68885        -9.85017        -7.71996
| 91>    H        2.10074        -7.38002        -5.91861
| 92>    H       -0.29842        -9.36723        -8.03771
| 93>    H       -1.15183        -7.86144        -8.38131
| 94>    H       -1.59017        -8.81624        -6.96954
| 95>    H        0.29093        -6.05062        -5.38787
| 96>    H       -1.35395        -6.55409        -5.84383
| 97>    H        0.55886        -5.15815        -7.61385
| 98>    H       -2.35474        -5.56128        -7.69027
| 99>    H       -0.35556        -4.27288        -9.62785
|100>    H       -6.57079        -3.70234       -12.14384
|101>    H       -6.64500        -4.80101        -9.28166
|102>    H       -8.76937        -4.09631       -11.39220
|103>    H       -9.71276        -6.09448        -5.48499
|104>    H      -13.51047        -5.06955        -8.58525
|105>    H      -11.72783        -6.64243        -3.61093
|106> *
|107>
|108>                          ****END OF INPUT****

CARTESIAN COORDINATES (ANGSTROEM)
---------------------------------
  C     11.399260  -15.832560  -13.699430
  C     10.087710  -15.870880  -13.430690
  C      9.091780  -16.700820  -14.049020
  C      7.842990  -16.519060  -13.570710
  C      7.746290  -15.537830  -12.539770
  S      9.316550  -14.850630  -12.203310
  C      6.609180  -15.141770  -11.876410
  C      5.287680  -15.621320  -12.068080
  C      4.371230  -15.016860  -11.272690
  C      4.913490  -14.031240  -10.397930
  S      6.639320  -13.914740  -10.621540
  C      4.157300  -13.239430   -9.571850
  C      4.603160  -12.265770   -8.660280
  O      3.673370  -11.354740   -8.234280
  C      5.809260  -11.971450   -8.033510
  C      7.176320  -12.420670   -7.798490
  O      7.781230  -13.394850   -8.174330
  N      7.703890  -11.457880   -6.932340
  C      6.812690  -10.473440   -6.525690
  O      7.062930   -9.574670   -5.762360
  C      5.578490  -10.822700   -7.231030
  C      4.255230  -10.469640   -7.378560
  C      3.518850   -9.391240   -6.817840
  C      2.211910   -9.162610   -7.072310
  C      1.507600   -8.035850   -6.545220
  C      0.218530   -7.717510   -6.755700
  C     -0.751170   -8.492120   -7.586010
  C     -0.332090   -6.420790   -6.205900
  N     -0.349620   -5.423800   -7.256340
  C     -1.397340   -5.219710   -8.063970
  C     -1.322780   -4.585310   -9.265500
  C     -2.446980   -4.313210  -10.075280
  S     -4.066610   -4.620180   -9.547700
  C     -4.757830   -4.021640  -11.038940
  C     -3.747330   -3.597730  -11.895890
  C     -2.453650   -3.775900  -11.364550
  C     -1.144500   -3.496320  -12.035290
  F     -0.446810   -2.534710  -11.393470
  F     -0.346530   -4.589520  -12.014450
  F     -1.212530   -3.126990  -13.308320
  C     -3.968160   -2.975800  -13.246030
  F     -5.251880   -2.715130  -13.526060
  F     -3.337630   -1.796440  -13.355780
  F     -3.533840   -3.762950  -14.242960
  C     -6.163370   -4.039290  -11.202730
  C     -7.024340   -4.457490  -10.233970
  C     -8.421190   -4.443960  -10.428090
  C     -9.342480   -4.814230   -9.486580
  C    -10.786470   -4.790340   -9.626420
  C    -11.504170   -4.476900  -10.751870
  C    -12.913600   -4.473890  -10.816940
  N    -14.055270   -4.450370  -10.935500
  C    -10.961260   -4.128130  -12.006550
  N    -10.608150   -3.844100  -13.061640
  C    -11.362760   -5.180830   -8.343740
  C    -10.311900   -5.476120   -7.441660
  C     -9.014390   -5.275900   -8.115850
  O     -7.917840   -5.457350   -7.627430
  C    -10.536050   -5.876410   -6.146950
  C    -11.862450   -5.988270   -5.718280
  C    -12.906800   -5.689050   -6.625410
  C    -12.679710   -5.286760   -7.935410
  S    -14.468600   -5.888250   -5.890460
  C    -13.708020   -6.364130   -4.395380
  C    -12.354580   -6.374470   -4.441740
  Br   -14.771810   -6.802200   -2.914380
  H     11.824770  -16.469890  -14.454610
  H     12.064360  -15.170980  -13.175490
  H      9.360670  -17.396540  -14.823960
  H      6.976750  -17.054060  -13.916850
  H      5.056100  -16.389950  -12.783200
  H      3.318940  -15.239990  -11.273570
  H      3.082010  -13.321490   -9.658440
  H      8.652000  -11.510600   -6.588890
  H      4.090220   -8.739810   -6.172120
  H      1.688850   -9.850170   -7.719960
  H      2.100740   -7.380020   -5.918610
  H     -0.298420   -9.367230   -8.037710
  H     -1.151830   -7.861440   -8.381310
  H     -1.590170   -8.816240   -6.969540
  H      0.290930   -6.050620   -5.387870
  H     -1.353950   -6.554090   -5.843830
  H      0.558860   -5.158150   -7.613850
  H     -2.354740   -5.561280   -7.690270
  H     -0.355560   -4.272880   -9.627850
  H     -6.570790   -3.702340  -12.143840
  H     -6.645000   -4.801010   -9.281660
  H     -8.769370   -4.096310  -11.392200
  H     -9.712760   -6.094480   -5.484990
  H    -13.510470   -5.069550   -8.585250
  H    -11.727830   -6.642430   -3.610930

 Total Charge           Charge          ....    0
 Multiplicity           Mult            ....    1
 Number of Electrons    NEL             ....  520
 Basis Dimension        Dim             .... 1083

ORBITAL ENERGIES
----------------

  NO   OCC          E(Eh)            E(eV)
   0   2.0000    -482.884973    -13139.9681
   1   2.0000     -88.974836     -2421.1284
   2   2.0000     -88.974150     -2421.1097
   3   2.0000     -88.945290     -2420.3244
   4   2.0000     -88.944832     -2420.3119
   5   2.0000     -62.562677     -1702.4170
   6   2.0000     -56.396629     -1534.6303
   7   2.0000     -56.393913     -1534.5564
   8   2.0000     -56.393881     -1534.5555
   9   2.0000     -24.803850      -674.9471
  10   2.0000     -24.799768      -674.8360
  11   2.0000     -24.794947      -674.7048
  12   2.0000     -24.794213      -674.6848
  13   2.0000     -24.792205      -674.6302
  14   2.0000     -24.790947      -674.5960
  15   2.0000     -19.299739      -525.1726
  16   2.0000     -19.214494      -522.8530
  17   2.0000     -19.199961      -522.4575
  18   2.0000     -19.197728      -522.3967
  19   2.0000     -14.462401      -393.5419
  20   2.0000     -14.443667      -393.0322
  21   2.0000     -14.411793      -392.1648
  22   2.0000     -14.410661      -392.1340
  23   2.0000     -10.523762      -286.3661
  24   2.0000     -10.518686      -286.2280
  25   2.0000     -10.389294      -282.7071
  26   2.0000     -10.388342      -282.6811
  27   2.0000     -10.364878      -282.0427
  28   2.0000     -10.357863      -281.8518
  29   2.0000     -10.356947      -281.8268
  30   2.0000     -10.351344      -281.6744
  31   2.0000     -10.344758      -281.4952
  32   2.0000     -10.337462      -281.2967
  33   2.0000     -10.337403      -281.2950
  34   2.0000     -10.336889      -281.2810
  35   2.0000     -10.331028      -281.1216
  36   2.0000     -10.326079      -280.9869
  37   2.0000     -10.323723      -280.9228
  38   2.0000     -10.322148      -280.8799
  39   2.0000     -10.320227      -280.8277
  40   2.0000     -10.318962      -280.7932
  41   2.0000     -10.314666      -280.6763
  42   2.0000     -10.313969      -280.6574
  43   2.0000     -10.313058      -280.6326
  44   2.0000     -10.311000      -280.5766
  45   2.0000     -10.309824      -280.5446
  46   2.0000     -10.308957      -280.5210
  47   2.0000     -10.305990      -280.4402
  48   2.0000     -10.305593      -280.4294
  49   2.0000     -10.304062      -280.3878
  50   2.0000     -10.302949      -280.3575
  51   2.0000     -10.299182      -280.2550
  52   2.0000     -10.297302      -280.2038
  53   2.0000     -10.296096      -280.1710
  54   2.0000     -10.295704      -280.1604
  55   2.0000     -10.293630      -280.1039
  56   2.0000     -10.293470      -280.0996
  57   2.0000     -10.291973      -280.0588
  58   2.0000     -10.290988      -280.0320
  59   2.0000     -10.289672      -279.9962
  60   2.0000     -10.289044      -279.9791
  61   2.0000     -10.286540      -279.9110
  62   2.0000     -10.285398      -279.8799
  63   2.0000     -10.283264      -279.8218
  64   2.0000     -10.282938      -279.8130
  65   2.0000     -10.281883      -279.7843
  66   2.0000     -10.281581      -279.7760
  67   2.0000     -10.280061      -279.7347
  68   2.0000     -10.279064      -279.7075
  69   2.0000     -10.278788      -279.7000
  70   2.0000      -8.792093      -239.2450
  71   2.0000      -8.070429      -219.6075
  72   2.0000      -8.070139      -219.5997
  73   2.0000      -8.041982      -218.8335
  74   2.0000      -8.040707      -218.7988
  75   2.0000      -6.628401      -180.3680
  76   2.0000      -6.613830      -179.9715
  77   2.0000      -6.613618      -179.9657
  78   2.0000      -6.039846      -164.3526
  79   2.0000      -6.039621      -164.3464
  80   2.0000      -6.035762      -164.2414
  81   2.0000      -6.035546      -164.2356
  82   2.0000      -6.032353      -164.1487
  83   2.0000      -6.031354      -164.1215
  84   2.0000      -6.011788      -163.5891
  85   2.0000      -6.010419      -163.5518
  86   2.0000      -6.007825      -163.4812
  87   2.0000      -6.006296      -163.4396
  88   2.0000      -6.002551      -163.3377
  89   2.0000      -6.001570      -163.3110
  90   2.0000      -2.744251       -74.6749
  91   2.0000      -2.740180       -74.5641
  92   2.0000      -2.740047       -74.5605
  93   2.0000      -2.728458       -74.2451
  94   2.0000      -2.728444       -74.2447
  95   2.0000      -1.391888       -37.8752
  96   2.0000      -1.385799       -37.7095
  97   2.0000      -1.295038       -35.2398
  98   2.0000      -1.288854       -35.0715
  99   2.0000      -1.288527       -35.0626
 100   2.0000      -1.281431       -34.8695
 101   2.0000      -1.214645       -33.0522
 102   2.0000      -1.144181       -31.1347
 103   2.0000      -1.128725       -30.7142
 104   2.0000      -1.123116       -30.5615
 105   2.0000      -1.065040       -28.9812
 106   2.0000      -1.031661       -28.0729
 107   2.0000      -1.020351       -27.7652
 108   2.0000      -1.013816       -27.5873
 109   2.0000      -1.010279       -27.4911
 110   2.0000      -0.997970       -27.1561
 111   2.0000      -0.990150       -26.9434
 112   2.0000      -0.986261       -26.8375
 113   2.0000      -0.975649       -26.5488
 114   2.0000      -0.942919       -25.6581
 115   2.0000      -0.938099       -25.5270
 116   2.0000      -0.928545       -25.2670
 117   2.0000      -0.917316       -24.9614
 118   2.0000      -0.913288       -24.8518
 119   2.0000      -0.906040       -24.6546
 120   2.0000      -0.904266       -24.6063
 121   2.0000      -0.891766       -24.2662
 122   2.0000      -0.889886       -24.2150
 123   2.0000      -0.883864       -24.0512
 124   2.0000      -0.872333       -23.7374
 125   2.0000      -0.868734       -23.6395
 126   2.0000      -0.852750       -23.2045
 127   2.0000      -0.850472       -23.1425
 128   2.0000      -0.835916       -22.7464
 129   2.0000      -0.832637       -22.6572
 130   2.0000      -0.826731       -22.4965
 131   2.0000      -0.823723       -22.4146
 132   2.0000      -0.801989       -21.8232
 133   2.0000      -0.800076       -21.7712
 134   2.0000      -0.784472       -21.3466
 135   2.0000      -0.775386       -21.0993
 136   2.0000      -0.771494       -20.9934
 137   2.0000      -0.759060       -20.6551
 138   2.0000      -0.757480       -20.6121
 139   2.0000      -0.755010       -20.5449
 140   2.0000      -0.752177       -20.4678
 141   2.0000      -0.733812       -19.9680
 142   2.0000      -0.726542       -19.7702
 143   2.0000      -0.714081       -19.4311
 144   2.0000      -0.702748       -19.1227
 145   2.0000      -0.700685       -19.0666
 146   2.0000      -0.691888       -18.8272
 147   2.0000      -0.690373       -18.7860
 148   2.0000      -0.689447       -18.7608
 149   2.0000      -0.683214       -18.5912
 150   2.0000      -0.675972       -18.3941
 151   2.0000      -0.671971       -18.2853
 152   2.0000      -0.671407       -18.2699
 153   2.0000      -0.669658       -18.2223
 154   2.0000      -0.667142       -18.1539
 155   2.0000      -0.662501       -18.0276
 156   2.0000      -0.654697       -17.8152
 157   2.0000      -0.645890       -17.5756
 158   2.0000      -0.634242       -17.2586
 159   2.0000      -0.631546       -17.1853
 160   2.0000      -0.628570       -17.1042
 161   2.0000      -0.621759       -16.9189
 162   2.0000      -0.618590       -16.8327
 163   2.0000      -0.611808       -16.6481
 164   2.0000      -0.606398       -16.5009
 165   2.0000      -0.605897       -16.4873
 166   2.0000      -0.598827       -16.2949
 167   2.0000      -0.595545       -16.2056
 168   2.0000      -0.591210       -16.0876
 169   2.0000      -0.587669       -15.9913
 170   2.0000      -0.584726       -15.9112
 171   2.0000      -0.577847       -15.7240
 172   2.0000      -0.574092       -15.6218
 173   2.0000      -0.569207       -15.4889
 174   2.0000      -0.562781       -15.3140
 175   2.0000      -0.558421       -15.1954
 176   2.0000      -0.553542       -15.0626
 177   2.0000      -0.551781       -15.0147
 178   2.0000      -0.549555       -14.9542
 179   2.0000      -0.547074       -14.8866
 180   2.0000      -0.546081       -14.8596
 181   2.0000      -0.544223       -14.8091
 182   2.0000      -0.540209       -14.6998
 183   2.0000      -0.538750       -14.6601
 184   2.0000      -0.537277       -14.6200
 185   2.0000      -0.537188       -14.6176
 186   2.0000      -0.533991       -14.5306
 187   2.0000      -0.529306       -14.4031
 188   2.0000      -0.526223       -14.3193
 189   2.0000      -0.524368       -14.2688
 190   2.0000      -0.518819       -14.1178
 191   2.0000      -0.514097       -13.9893
 192   2.0000      -0.513377       -13.9697
 193   2.0000      -0.511674       -13.9233
 194   2.0000      -0.509417       -13.8619
 195   2.0000      -0.506934       -13.7944
 196   2.0000      -0.506122       -13.7723
 197   2.0000      -0.505052       -13.7432
 198   2.0000      -0.501278       -13.6405
 199   2.0000      -0.500435       -13.6175
 200   2.0000      -0.499485       -13.5917
 201   2.0000      -0.496046       -13.4981
 202   2.0000      -0.493695       -13.4341
 203   2.0000      -0.492323       -13.3968
 204   2.0000      -0.491614       -13.3775
 205   2.0000      -0.491180       -13.3657
 206   2.0000      -0.490095       -13.3362
 207   2.0000      -0.489241       -13.3129
 208   2.0000      -0.486842       -13.2476
 209   2.0000      -0.485651       -13.2152
 210   2.0000      -0.485034       -13.1985
 211   2.0000      -0.479580       -13.0500
 212   2.0000      -0.478294       -13.0151
 213   2.0000      -0.476272       -12.9600
 214   2.0000      -0.474163       -12.9026
 215   2.0000      -0.472215       -12.8496
 216   2.0000      -0.469682       -12.7807
 217   2.0000      -0.466898       -12.7049
 218   2.0000      -0.465733       -12.6732
 219   2.0000      -0.461514       -12.5584
 220   2.0000      -0.457607       -12.4521
 221   2.0000      -0.456109       -12.4114
 222   2.0000      -0.452211       -12.3053
 223   2.0000      -0.449794       -12.2395
 224   2.0000      -0.446371       -12.1464
 225   2.0000      -0.444915       -12.1067
 226   2.0000      -0.439916       -11.9707
 227   2.0000      -0.437062       -11.8931
 228   2.0000      -0.436228       -11.8704
 229   2.0000      -0.434591       -11.8258
 230   2.0000      -0.426783       -11.6134
 231   2.0000      -0.424016       -11.5381
 232   2.0000      -0.423408       -11.5215
 233   2.0000      -0.423355       -11.5201
 234   2.0000      -0.421407       -11.4671
 235   2.0000      -0.419294       -11.4096
 236   2.0000      -0.404481       -11.0065
 237   2.0000      -0.403616       -10.9830
 238   2.0000      -0.401954       -10.9377
 239   2.0000      -0.399254       -10.8643
 240   2.0000      -0.386377       -10.5139
 241   2.0000      -0.375274       -10.2117
 242   2.0000      -0.374403       -10.1880
 243   2.0000      -0.368629       -10.0309
 244   2.0000      -0.361797        -9.8450
 245   2.0000      -0.360059        -9.7977
 246   2.0000      -0.353914        -9.6305
 247   2.0000      -0.350305        -9.5323
 248   2.0000      -0.345522        -9.4021
 249   2.0000      -0.343408        -9.3446
 250   2.0000      -0.337503        -9.1839
 251   2.0000      -0.333754        -9.0819
 252   2.0000      -0.325517        -8.8578
 253   2.0000      -0.313859        -8.5405
 254   2.0000      -0.312920        -8.5150
 255   2.0000      -0.303981        -8.2717
 256   2.0000      -0.291130        -7.9220
 257   2.0000      -0.276385        -7.5208
 258   2.0000      -0.251603        -6.8465
 259   2.0000      -0.223906        -6.0928
 260   0.0000      -0.096234        -2.6187
 261   0.0000      -0.078294        -2.1305
 262   0.0000      -0.061237        -1.6663
 263   0.0000      -0.047990        -1.3059
 264   0.0000      -0.027484        -0.7479

MULLIKEN ATOMIC CHARGES
-----------------------
   0 C :   -0.022580
   1 C :   -0.068499
   2 C :    0.058019
   3 C :    0.030276
   4 C :   -0.061480
   5 S :    0.103841
   6 C :   -0.061951
   7 C :    0.042365
   8 C :    0.022495
   9 C :   -0.008996
  10 S :    0.148159
  11 C :   -0.070919
  12 C :    0.139353
  13 O :   -0.225215
  14 C :   -0.077299
  15 C :    0.156166
  16 O :   -0.153858
  17 N :   -0.162162
  18 C :    0.162308
  19 O :   -0.155400
  20 C :   -0.037741
  21 C :    0.086434
  22 C :   -0.037352
  23 C :    0.023421
  24 C :    0.014999
  25 C :   -0.185599
  26 C :    0.096363
  27 C :    0.190969
  28 N :   -0.123965
  29 C :    0.045133
  30 C :   -0.021708
  31 C :   -0.070196
  32 S :    0.114235
  33 C :   -0.109268
  34 C :   -0.042189
  35 C :   -0.083194
  36 C :    0.504924
  37 F :   -0.172292
  38 F :   -0.177455
  39 F :   -0.133768
  40 C :    0.515316
  41 F :   -0.149962
  42 F :   -0.158657
  43 F :   -0.157286
  44 C :    0.030382
  45 C :   -0.021803
  46 C :   -0.036028
  47 C :   -0.071994
  48 C :    0.330679
  49 C :   -0.354289
  50 C :   -0.187326
  51 N :    0.144998
  52 C :   -0.193210
  53 N :    0.150394
  54 C :    0.010684
  55 C :   -0.007573
  56 C :    0.145017
  57 O :   -0.161242
  58 C :   -0.072556
  59 C :    0.116594
  60 C :   -0.090723
  61 C :   -0.019815
  62 S :    0.185893
  63 C :   -0.123926
  64 C :    0.039773
  65 Br:    0.021431
  66 H :    0.025154
  67 H :    0.028025
  68 H :   -0.006567
  69 H :   -0.008918
  70 H :   -0.011564
  71 H :   -0.011538
  72 H :   -0.009175
  73 H :    0.134329
  74 H :    0.009683
  75 H :   -0.000047
  76 H :   -0.021280
  77 H :    0.017088
  78 H :    0.036372
  79 H :    0.026309
  80 H :    0.022268
  81 H :    0.018500
  82 H :    0.127737
  83 H :    0.022941
  84 H :    0.001318
  85 H :    0.024368
  86 H :    0.030623
  87 H :    0.010385
  88 H :   -0.014445
  89 H :   -0.007601
  90 H :   -0.005110
Sum of atomic charges:    0.0000000

LOEWDIN ATOMIC CHARGES
----------------------
   0 C :   -0.062376
   1 C :   -0.140908
   2 C :   -0.021265
   3 C :   -0.027457
   4 C :   -0.161621
   5 S :    0.370058
   6 C :   -0.190047
   7 C :   -0.020292
   8 C :   -0.040925
   9 C :   -0.122121
  10 S :    0.433750
  11 C :   -0.105619
  12 C :    0.074288
  13 O :    0.002355
  14 C :   -0.122966
  15 C :    0.075750
  16 O :   -0.170888
  17 N :   -0.006304
  18 C :    0.080617
  19 O :   -0.171954
  20 C :   -0.094379
  21 C :    0.060465
  22 C :   -0.034670
  23 C :   -0.010066
  24 C :   -0.045838
  25 C :   -0.037295
  26 C :   -0.048652
  27 C :    0.049639
  28 N :    0.024216
  29 C :    0.060098
  30 C :   -0.148895
  31 C :   -0.105703
  32 S :    0.459970
  33 C :   -0.171656
  34 C :   -0.078092
  35 C :   -0.140235
  36 C :    0.167456
  37 F :   -0.070969
  38 F :   -0.073342
  39 F :   -0.034237
  40 C :    0.163195
  41 F :   -0.047559
  42 F :   -0.055858
  43 F :   -0.057490
  44 C :    0.014812
  45 C :   -0.048832
  46 C :    0.069774
  47 C :   -0.101325
  48 C :    0.075066
  49 C :   -0.142874
  50 C :   -0.017835
  51 N :   -0.057079
  52 C :   -0.021685
  53 N :   -0.052389
  54 C :   -0.019688
  55 C :   -0.050346
  56 C :    0.085225
  57 O :   -0.153213
  58 C :    0.019749
  59 C :   -0.033478
  60 C :   -0.143986
  61 C :   -0.010256
  62 S :    0.432362
  63 C :   -0.272176
  64 C :   -0.071078
  65 Br:    0.135501
  66 H :    0.030975
  67 H :    0.029119
  68 H :    0.035534
  69 H :    0.033318
  70 H :    0.032199
  71 H :    0.033013
  72 H :    0.040234
  73 H :    0.092413
  74 H :    0.044166
  75 H :    0.028568
  76 H :    0.026925
  77 H :    0.032205
  78 H :    0.038061
  79 H :    0.038330
  80 H :    0.030731
  81 H :    0.031429
  82 H :    0.086498
  83 H :    0.025571
  84 H :    0.028537
  85 H :    0.039941
  86 H :    0.022370
  87 H :    0.042984
  88 H :    0.039362
  89 H :    0.040954
  90 H :    0.038135

  Mayer bond orders larger than 0.100000
B(  0-C ,  1-C ) :   1.8679 B(  0-C , 66-H ) :   0.9513 B(  0-C , 67-H ) :   0.9416
B(  1-C ,  2-C ) :   1.0752 B(  1-C ,  5-S ) :   1.0055 B(  2-C ,  3-C ) :   1.6676
B(  2-C , 68-H ) :   0.9936 B(  3-C ,  4-C ) :   1.1442 B(  3-C , 69-H ) :   0.9923
B(  4-C ,  5-S ) :   1.0626 B(  4-C ,  6-C ) :   1.5520 B(  6-C ,  7-C ) :   1.1635
B(  6-C , 10-S ) :   1.0470 B(  7-C ,  8-C ) :   1.6122 B(  7-C , 70-H ) :   0.9925
B(  8-C ,  9-C ) :   1.1290 B(  8-C , 71-H ) :   0.9996 B(  9-C , 10-S ) :   1.0874
B(  9-C , 11-C ) :   1.5480 B( 11-C , 12-C ) :   1.1909 B( 11-C , 72-H ) :   0.9511
B( 12-C , 13-O ) :   1.1155 B( 12-C , 14-C ) :   1.3895 B( 13-O , 21-C ) :   1.1404
B( 14-C , 15-C ) :   0.8992 B( 14-C , 20-C ) :   1.2543 B( 15-C , 16-O ) :   2.2098
B( 15-C , 17-N ) :   1.0716 B( 17-N , 18-C ) :   1.0867 B( 17-N , 73-H ) :   0.9157
B( 18-C , 19-O ) :   2.2554 B( 18-C , 20-C ) :   0.8827 B( 20-C , 21-C ) :   1.4203
B( 21-C , 22-C ) :   1.1472 B( 22-C , 23-C ) :   1.6623 B( 22-C , 74-H ) :   0.9705
B( 23-C , 24-C ) :   1.0892 B( 23-C , 75-H ) :   0.9810 B( 24-C , 25-C ) :   1.7559
B( 24-C , 76-H ) :   0.9762 B( 25-C , 26-C ) :   1.0786 B( 25-C , 27-C ) :   1.0341
B( 26-C , 77-H ) :   0.9505 B( 26-C , 78-H ) :   0.9424 B( 26-C , 79-H ) :   0.9449
B( 27-C , 28-N ) :   1.0037 B( 27-C , 80-H ) :   0.9432 B( 27-C , 81-H ) :   0.9321
B( 28-N , 29-C ) :   1.2895 B( 28-N , 82-H ) :   0.9332 B( 29-C , 30-C ) :   1.5250
B( 29-C , 83-H ) :   0.9649 B( 30-C , 31-C ) :   1.2435 B( 30-C , 84-H ) :   0.9420
B( 31-C , 32-S ) :   1.1378 B( 31-C , 35-C ) :   1.4438 B( 32-S , 33-C ) :   1.0876
B( 33-C , 34-C ) :   1.4906 B( 33-C , 44-C ) :   1.1665 B( 34-C , 35-C ) :   1.3296
B( 34-C , 40-C ) :   0.9414 B( 35-C , 36-C ) :   0.9449 B( 36-C , 37-F ) :   1.1418
B( 36-C , 38-F ) :   1.1353 B( 36-C , 39-F ) :   1.1743 B( 40-C , 41-F ) :   1.1389
B( 40-C , 42-F ) :   1.1617 B( 40-C , 43-F ) :   1.1742 B( 44-C , 45-C ) :   1.5305
B( 44-C , 85-H ) :   0.9826 B( 45-C , 46-C ) :   1.1879 B( 45-C , 86-H ) :   0.9681
B( 46-C , 47-C ) :   1.5177 B( 46-C , 87-H ) :   0.9630 B( 47-C , 48-C ) :   1.0718
B( 47-C , 56-C ) :   0.9509 B( 48-C , 49-C ) :   1.6216 B( 48-C , 54-C ) :   0.9988
B( 49-C , 50-C ) :   1.1432 B( 49-C , 52-C ) :   1.1472 B( 50-C , 51-N ) :   2.9661
B( 52-C , 53-N ) :   2.9653 B( 54-C , 55-C ) :   1.2780 B( 54-C , 61-C ) :   1.4104
B( 55-C , 56-C ) :   0.9441 B( 55-C , 58-C ) :   1.4213 B( 56-C , 57-O ) :   2.1848
B( 58-C , 59-C ) :   1.2459 B( 58-C , 88-H ) :   1.0160 B( 59-C , 60-C ) :   1.3081
B( 59-C , 64-C ) :   1.1613 B( 60-C , 61-C ) :   1.3303 B( 60-C , 62-S ) :   1.0847
B( 61-C , 89-H ) :   0.9788 B( 62-S , 63-C ) :   1.0871 B( 63-C , 64-C ) :   1.6187
B( 63-C , 65-Br) :   1.0168 B( 64-C , 90-H ) :   0.9998

-----------------------------------------------------------------------------
         ABSORPTION SPECTRUM VIA TRANSITION ELECTRIC DIPOLE MOMENTS
-----------------------------------------------------------------------------
State   Energy  Wavelength   fosc         T2         TX        TY        TZ
        (cm-1)    (nm)                  (au**2)     (au)      (au)      (au)
-----------------------------------------------------------------------------
   0   17355.9    576.2   1.913412757  36.29428   4.79651  -2.54392  -2.61079
   1   18527.4    539.7   0.695258019  12.35400   3.17634   0.92635   1.18606
   2   21065.8    474.7   0.053958823   0.84326   0.83846   0.24208  -0.28572
   3   23733.0    421.4   0.139886647   1.94044  -1.13151   0.76943  -0.26094
   4   25907.6    386.0   0.010956827   0.13923  -0.18541   0.16520  -0.27850
   5   27079.4    369.3   0.036551628   0.44437  -0.10379   0.54779   0.36540
   6   27313.0    366.1   0.151022272   1.82032   0.51011   0.53280  -1.12970
   7   28470.1    351.2   0.003821825   0.04419   0.11053   0.05508  -0.17013
   8   28898.7    346.0   0.066719102   0.76006   0.11429  -0.55240   0.66472
   9   29382.0    340.3   0.043238428   0.48447   0.37491   0.31948  -0.49178
  10   29625.9    337.5   0.137073727   1.52320  -0.86891  -0.42623   0.76586
  11   30090.9    332.3   0.156100958   1.70783   0.65717   0.62853  -0.93857
  12   30505.4    327.8   0.014421292   0.15563  -0.16783  -0.00844   0.35693
  13   31101.9    321.5   0.214083806   2.26606  -1.26663  -0.55016  -0.59919
  14   31500.3    317.5   0.212804376   2.22403  -1.43117   0.29238   0.30049
  15   32159.1    311.0   0.182402318   1.86725  -0.46438   1.00685  -0.79866
  16   32409.7    308.5   0.008631203   0.08767   0.02397   0.11412  -0.27217
  17   32983.9    303.2   0.489354358   4.88425   0.12816   0.82305  -2.04705
  18   34027.1    293.9   0.444021180   4.29591  -0.02672  -0.33385   2.04542
  19   34972.9    285.9   0.320018753   3.01244  -1.46737   0.67714   0.63306
  20   35253.5    283.7   0.166554406   1.55535  -0.92369   0.45496  -0.70368
  21   35423.4    282.3   0.048110834   0.44712  -0.43633   0.44856   0.23565
  22   36315.6    275.4   0.029945146   0.27146  -0.44618  -0.17169   0.20715
  23   36335.0    275.2   0.026855356   0.24332  -0.06659   0.25470   0.41715
  24   36983.9    270.4   0.171159541   1.52358  -1.06946  -0.31936  -0.52710
  25   37451.3    267.0   0.083444202   0.73351   0.16168  -0.27722   0.79405
  26   37828.4    264.4   0.030734425   0.26747   0.42160  -0.01537  -0.29915
  27   38508.8    259.7   0.174278835   1.48991  -1.21986  -0.03082  -0.02995
  28   38690.7    258.5   0.006856100   0.05834   0.12175  -0.06403  -0.19853
  29   39724.0    251.7   0.002931775   0.02430  -0.14214  -0.06356  -0.00725
  30   40240.4    248.5   0.037355829   0.30561   0.04654  -0.29838   0.46305

FINAL SINGLE POINT ENERGY     -7087.669070512371

DIPOLE MOMENT
-------------
                                X             Y             Z
Electronic contribution:   -175.23269      67.49408      36.31971
Nuclear contribution   :    177.46905     -70.42787     -34.26720
                        -----------------------------------------
Total Dipole Moment    :      2.23636      -2.93378       2.05251
                        -----------------------------------------
Magnitude (a.u.)       :      4.22151
Magnitude (Debye)      :     10.73024

Rotational constants in cm-1:     0.001043     0.000200     0.000185
Rotational constants in MHz :    31.280328     5.989550     5.531658

                             ****ORCA TERMINATED NORMALLY****
TOTAL RUN TIME: 0 days 0 hours 7 minutes 51 seconds 480 msec
