                         Program Version 4.2.0 -  RELEASE  -
|  1> # ORCA input file
|  2> # SCF done       -178.017596641221          0.000590192798
|  3> ! CAM-B3LYP def2-SVP def2/J RIJCOSX Grid4 TightSCF
|  4> %maxcore 5000
|  5> %tddft
|  6>     Mode sTDDFT
|  7>     Ethresh 5.0
|  8>     maxcore 5000
|  9> end
| 10>
| 11> %pal
| 12>   nprocs 6
| 13>   end
| 14> * xyz 0 1
| 15>    C       -0.71739        -4.16079         1.76310
| 16>    C        0.51962        -4.47373         2.17154
| 17>    C        1.12276        -4.17397         3.43976
| 18>    C        2.39369        -4.61057         3.57072
| 19>    C        2.90380        -5.28920         2.42661
| 20>    S        1.68748        -5.35202         1.16791
| 21>    C        4.15366        -5.83521         2.26659
| 22>    C        5.22259        -5.84381         3.20015
| 23>    C        6.34270        -6.46132         2.74620
| 24>    C        6.22902        -6.98089         1.42843
| 25>    S        4.63385        -6.64866         0.78669
| 26>    C        7.19665        -7.65057         0.72689
| 27>    C        7.00853        -8.14314        -0.57455
| 28>    O        5.81231        -7.96201        -1.20442
| 29>    C        7.84679        -8.83787        -1.43396
| 30>    C        9.18179        -9.40845        -1.58119
| 31>    O       10.12574        -9.43847        -0.83200
| 32>    N        9.16090        -9.96107        -2.86368
| 33>    C        7.96267        -9.81087        -3.55940
| 34>    O        7.75313       -10.21878        -4.67342
| 35>    C        7.11187        -9.07752        -2.62078
| 36>    C        5.85712        -8.52261        -2.44627
| 37>    C        4.73310        -8.46308        -3.30322
| 38>    C        3.57405        -7.85055        -2.95645
| 39>    C        2.43610        -7.74654        -3.78730
| 40>    S        2.34780        -8.41378        -5.39097
| 41>    C        0.73816        -7.80695        -5.63466
| 42>    C        0.30066        -7.12424        -4.50812
| 43>    C        1.25501        -7.08416        -3.46905
| 44>    O        1.11038        -6.46708        -2.26539
| 45>    C        0.21988        -5.36615        -2.23912
| 46>    C       -1.25211        -5.77650        -2.12727
| 47>    C       -1.58267        -6.84804        -3.16490
| 48>    S       -3.37951        -6.89722        -3.46780
| 49>    C       -3.46273        -8.46985        -4.37178
| 50>    O       -0.96721        -6.60936        -4.41428
| 51>    C        0.06004        -8.05502        -6.86081
| 52>    C       -1.09642        -7.46829        -7.24018
| 53>    C       -1.73730        -7.76953        -8.48351
| 54>    C       -2.84697        -7.17783        -8.95599
| 55>    C       -3.60816        -6.11124        -8.23156
| 56>    C       -3.37433        -7.54177       -10.32376
| 57>    N       -4.74203        -7.99606       -10.27276
| 58>    C       -5.78538        -7.33660       -10.77776
| 59>    C       -7.08976        -7.71766       -10.63621
| 60>    C       -8.12067        -6.98718       -11.23781
| 61>    C       -9.46121        -7.28414       -11.15932
| 62>    C      -10.54091        -6.55607       -11.78206
| 63>    C      -10.44698        -5.43626       -12.57387
| 64>    C      -11.55025        -4.77955       -13.15397
| 65>    N      -12.40323        -4.19765       -13.65789
| 66>    C       -9.25245        -4.77747       -12.92401
| 67>    N       -8.32528        -4.18275       -13.25361
| 68>    C      -11.78970        -7.22663       -11.42618
| 69>    C      -11.48927        -8.34036       -10.60594
| 70>    C      -10.02498        -8.41905       -10.40950
| 71>    O       -9.43566        -9.25893        -9.75481
| 72>    C      -12.45789        -9.17357       -10.10417
| 73>    C      -13.79069        -8.89513       -10.42683
| 74>    C      -14.08124        -7.78108       -11.24698
| 75>    C      -13.10040        -6.93800       -11.75510
| 76>    S      -15.79034        -7.61757       -11.52168
| 77>    C      -16.08521        -9.02975       -10.54321
| 78>    C      -14.96512        -9.59609       -10.03646
| 79>   Br      -17.84616        -9.62308       -10.28145
| 80>    H       -1.38832        -3.62472         2.41074
| 81>    H       -1.08022        -4.42678         0.78717
| 82>    H        0.57241        -3.64293         4.19592
| 83>    H        2.99455        -4.47274         4.45196
| 84>    H        5.13205        -5.39491         4.17298
| 85>    H        7.25455        -6.56802         3.30643
| 86>    H        8.16216        -7.82409         1.17553
| 87>    H        9.95932       -10.43622        -3.25924
| 88>    H        4.85074        -8.93489        -4.26815
| 89>    H        3.47940        -7.38626        -1.98357
| 90>    H        0.51391        -4.78641        -1.36158
| 91>    H        0.36496        -4.75187        -3.13635
| 92>    H       -1.87331        -4.89524        -2.29421
| 93>    H       -1.46703        -6.18034        -1.13759
| 94>    H       -1.28722        -7.84042        -2.79566
| 95>    H       -4.48752        -8.58009        -4.70955
| 96>    H       -3.20081        -9.28632        -3.70420
| 97>    H       -2.78674        -8.43037        -5.22212
| 98>    H        0.54515        -8.76228        -7.52125
| 99>    H       -1.54446        -6.72357        -6.60236
|100>    H       -1.25223        -8.52630        -9.08844
|101>    H       -3.12058        -5.14533        -8.36859
|102>    H       -3.65774        -6.30869        -7.16398
|103>    H       -4.62324        -6.03161        -8.61445
|104>    H       -2.75021        -8.32546       -10.76667
|105>    H       -3.33675        -6.66240       -10.97453
|106>    H       -4.92795        -8.81464        -9.70972
|107>    H       -5.54436        -6.45029       -11.35340
|108>    H       -7.34064        -8.59494       -10.06019
|109>    H       -7.82306        -6.11981       -11.81242
|110>    H      -12.19709       -10.01461        -9.48106
|111>    H      -13.37481        -6.10167       -12.37553
|112>    H      -14.96443       -10.47142        -9.41297
|113> *
|114>
|115>                          ****END OF INPUT****

CARTESIAN COORDINATES (ANGSTROEM)
---------------------------------
  C     -0.717390   -4.160790    1.763100
  C      0.519620   -4.473730    2.171540
  C      1.122760   -4.173970    3.439760
  C      2.393690   -4.610570    3.570720
  C      2.903800   -5.289200    2.426610
  S      1.687480   -5.352020    1.167910
  C      4.153660   -5.835210    2.266590
  C      5.222590   -5.843810    3.200150
  C      6.342700   -6.461320    2.746200
  C      6.229020   -6.980890    1.428430
  S      4.633850   -6.648660    0.786690
  C      7.196650   -7.650570    0.726890
  C      7.008530   -8.143140   -0.574550
  O      5.812310   -7.962010   -1.204420
  C      7.846790   -8.837870   -1.433960
  C      9.181790   -9.408450   -1.581190
  O     10.125740   -9.438470   -0.832000
  N      9.160900   -9.961070   -2.863680
  C      7.962670   -9.810870   -3.559400
  O      7.753130  -10.218780   -4.673420
  C      7.111870   -9.077520   -2.620780
  C      5.857120   -8.522610   -2.446270
  C      4.733100   -8.463080   -3.303220
  C      3.574050   -7.850550   -2.956450
  C      2.436100   -7.746540   -3.787300
  S      2.347800   -8.413780   -5.390970
  C      0.738160   -7.806950   -5.634660
  C      0.300660   -7.124240   -4.508120
  C      1.255010   -7.084160   -3.469050
  O      1.110380   -6.467080   -2.265390
  C      0.219880   -5.366150   -2.239120
  C     -1.252110   -5.776500   -2.127270
  C     -1.582670   -6.848040   -3.164900
  S     -3.379510   -6.897220   -3.467800
  C     -3.462730   -8.469850   -4.371780
  O     -0.967210   -6.609360   -4.414280
  C      0.060040   -8.055020   -6.860810
  C     -1.096420   -7.468290   -7.240180
  C     -1.737300   -7.769530   -8.483510
  C     -2.846970   -7.177830   -8.955990
  C     -3.608160   -6.111240   -8.231560
  C     -3.374330   -7.541770  -10.323760
  N     -4.742030   -7.996060  -10.272760
  C     -5.785380   -7.336600  -10.777760
  C     -7.089760   -7.717660  -10.636210
  C     -8.120670   -6.987180  -11.237810
  C     -9.461210   -7.284140  -11.159320
  C    -10.540910   -6.556070  -11.782060
  C    -10.446980   -5.436260  -12.573870
  C    -11.550250   -4.779550  -13.153970
  N    -12.403230   -4.197650  -13.657890
  C     -9.252450   -4.777470  -12.924010
  N     -8.325280   -4.182750  -13.253610
  C    -11.789700   -7.226630  -11.426180
  C    -11.489270   -8.340360  -10.605940
  C    -10.024980   -8.419050  -10.409500
  O     -9.435660   -9.258930   -9.754810
  C    -12.457890   -9.173570  -10.104170
  C    -13.790690   -8.895130  -10.426830
  C    -14.081240   -7.781080  -11.246980
  C    -13.100400   -6.938000  -11.755100
  S    -15.790340   -7.617570  -11.521680
  C    -16.085210   -9.029750  -10.543210
  C    -14.965120   -9.596090  -10.036460
  Br   -17.846160   -9.623080  -10.281450
  H     -1.388320   -3.624720    2.410740
  H     -1.080220   -4.426780    0.787170
  H      0.572410   -3.642930    4.195920
  H      2.994550   -4.472740    4.451960
  H      5.132050   -5.394910    4.172980
  H      7.254550   -6.568020    3.306430
  H      8.162160   -7.824090    1.175530
  H      9.959320  -10.436220   -3.259240
  H      4.850740   -8.934890   -4.268150
  H      3.479400   -7.386260   -1.983570
  H      0.513910   -4.786410   -1.361580
  H      0.364960   -4.751870   -3.136350
  H     -1.873310   -4.895240   -2.294210
  H     -1.467030   -6.180340   -1.137590
  H     -1.287220   -7.840420   -2.795660
  H     -4.487520   -8.580090   -4.709550
  H     -3.200810   -9.286320   -3.704200
  H     -2.786740   -8.430370   -5.222120
  H      0.545150   -8.762280   -7.521250
  H     -1.544460   -6.723570   -6.602360
  H     -1.252230   -8.526300   -9.088440
  H     -3.120580   -5.145330   -8.368590
  H     -3.657740   -6.308690   -7.163980
  H     -4.623240   -6.031610   -8.614450
  H     -2.750210   -8.325460  -10.766670
  H     -3.336750   -6.662400  -10.974530
  H     -4.927950   -8.814640   -9.709720
  H     -5.544360   -6.450290  -11.353400
  H     -7.340640   -8.594940  -10.060190
  H     -7.823060   -6.119810  -11.812420
  H    -12.197090  -10.014610   -9.481060
  H    -13.374810   -6.101670  -12.375530
  H    -14.964430  -10.471420   -9.412970

 Total Charge           Charge          ....    0
 Multiplicity           Mult            ....    1
 Number of Electrons    NEL             ....  518
 Basis Dimension        Dim             .... 1113

ORBITAL ENERGIES
----------------

  NO   OCC          E(Eh)            E(eV)
   0   2.0000    -482.877360    -13139.7610
   1   2.0000     -88.964721     -2420.8531
   2   2.0000     -88.961582     -2420.7677
   3   2.0000     -88.950887     -2420.4767
   4   2.0000     -88.950377     -2420.4628
   5   2.0000     -88.923551     -2419.7328
   6   2.0000     -62.555071     -1702.2100
   7   2.0000     -56.389008     -1534.4229
   8   2.0000     -56.386317     -1534.3497
   9   2.0000     -56.386279     -1534.3487
  10   2.0000     -19.301645      -525.2245
  11   2.0000     -19.263223      -524.1789
  12   2.0000     -19.260649      -524.1089
  13   2.0000     -19.198440      -522.4161
  14   2.0000     -19.198206      -522.4098
  15   2.0000     -19.198033      -522.4050
  16   2.0000     -14.470641      -393.7662
  17   2.0000     -14.442087      -392.9892
  18   2.0000     -14.401414      -391.8824
  19   2.0000     -14.397387      -391.7728
  20   2.0000     -10.387939      -282.6702
  21   2.0000     -10.387529      -282.6590
  22   2.0000     -10.362776      -281.9855
  23   2.0000     -10.352847      -281.7153
  24   2.0000     -10.351840      -281.6879
  25   2.0000     -10.348748      -281.6038
  26   2.0000     -10.348701      -281.6025
  27   2.0000     -10.348579      -281.5992
  28   2.0000     -10.345378      -281.5120
  29   2.0000     -10.342087      -281.4225
  30   2.0000     -10.337800      -281.3059
  31   2.0000     -10.331814      -281.1429
  32   2.0000     -10.324088      -280.9327
  33   2.0000     -10.321406      -280.8597
  34   2.0000     -10.320163      -280.8259
  35   2.0000     -10.318890      -280.7913
  36   2.0000     -10.318082      -280.7693
  37   2.0000     -10.313498      -280.6446
  38   2.0000     -10.312788      -280.6252
  39   2.0000     -10.310772      -280.5704
  40   2.0000     -10.305894      -280.4376
  41   2.0000     -10.303851      -280.3820
  42   2.0000     -10.302396      -280.3424
  43   2.0000     -10.302002      -280.3317
  44   2.0000     -10.299485      -280.2632
  45   2.0000     -10.295929      -280.1665
  46   2.0000     -10.295234      -280.1476
  47   2.0000     -10.295039      -280.1423
  48   2.0000     -10.294848      -280.1371
  49   2.0000     -10.292904      -280.0841
  50   2.0000     -10.291643      -280.0498
  51   2.0000     -10.291616      -280.0491
  52   2.0000     -10.291455      -280.0447
  53   2.0000     -10.290871      -280.0288
  54   2.0000     -10.290483      -280.0183
  55   2.0000     -10.290180      -280.0100
  56   2.0000     -10.287738      -279.9436
  57   2.0000     -10.287559      -279.9387
  58   2.0000     -10.286881      -279.9203
  59   2.0000     -10.283091      -279.8171
  60   2.0000     -10.282542      -279.8022
  61   2.0000     -10.280126      -279.7365
  62   2.0000     -10.278830      -279.7012
  63   2.0000     -10.278645      -279.6962
  64   2.0000     -10.278060      -279.6802
  65   2.0000     -10.277085      -279.6537
  66   2.0000     -10.274738      -279.5898
  67   2.0000     -10.269824      -279.4561
  68   2.0000     -10.265713      -279.3443
  69   2.0000      -8.784491      -239.0381
  70   2.0000      -8.060729      -219.3436
  71   2.0000      -8.057005      -219.2422
  72   2.0000      -8.047002      -218.9701
  73   2.0000      -8.045767      -218.9365
  74   2.0000      -8.019516      -218.2221
  75   2.0000      -6.620732      -180.1593
  76   2.0000      -6.606242      -179.7650
  77   2.0000      -6.606079      -179.7606
  78   2.0000      -6.030412      -164.0958
  79   2.0000      -6.026298      -163.9839
  80   2.0000      -6.026162      -163.9802
  81   2.0000      -6.022590      -163.8830
  82   2.0000      -6.021944      -163.8654
  83   2.0000      -6.018671      -163.7764
  84   2.0000      -6.016811      -163.7258
  85   2.0000      -6.015707      -163.6957
  86   2.0000      -6.012921      -163.6199
  87   2.0000      -6.011342      -163.5769
  88   2.0000      -6.007650      -163.4765
  89   2.0000      -6.006608      -163.4481
  90   2.0000      -5.989960      -162.9951
  91   2.0000      -5.986079      -162.8895
  92   2.0000      -5.978886      -162.6937
  93   2.0000      -2.736616       -74.4671
  94   2.0000      -2.732534       -74.3560
  95   2.0000      -2.732428       -74.3531
  96   2.0000      -2.720900       -74.0394
  97   2.0000      -2.720888       -74.0391
  98   2.0000      -1.217756       -33.1368
  99   2.0000      -1.181387       -32.1472
 100   2.0000      -1.154923       -31.4271
 101   2.0000      -1.142375       -31.0856
 102   2.0000      -1.121625       -30.5210
 103   2.0000      -1.111466       -30.2445
 104   2.0000      -1.068758       -29.0824
 105   2.0000      -1.029886       -28.0246
 106   2.0000      -1.009224       -27.4624
 107   2.0000      -1.001126       -27.2420
 108   2.0000      -0.999047       -27.1854
 109   2.0000      -0.992310       -27.0021
 110   2.0000      -0.978980       -26.6394
 111   2.0000      -0.978908       -26.6374
 112   2.0000      -0.973725       -26.4964
 113   2.0000      -0.934255       -25.4224
 114   2.0000      -0.929395       -25.2901
 115   2.0000      -0.925021       -25.1711
 116   2.0000      -0.914845       -24.8942
 117   2.0000      -0.911943       -24.8152
 118   2.0000      -0.907154       -24.6849
 119   2.0000      -0.898182       -24.4408
 120   2.0000      -0.894545       -24.3418
 121   2.0000      -0.887120       -24.1398
 122   2.0000      -0.873521       -23.7697
 123   2.0000      -0.872533       -23.7428
 124   2.0000      -0.871383       -23.7115
 125   2.0000      -0.862967       -23.4825
 126   2.0000      -0.854121       -23.2418
 127   2.0000      -0.844059       -22.9680
 128   2.0000      -0.831369       -22.6227
 129   2.0000      -0.826896       -22.5010
 130   2.0000      -0.822902       -22.3923
 131   2.0000      -0.816424       -22.2160
 132   2.0000      -0.814852       -22.1732
 133   2.0000      -0.797214       -21.6933
 134   2.0000      -0.792423       -21.5629
 135   2.0000      -0.789187       -21.4749
 136   2.0000      -0.767921       -20.8962
 137   2.0000      -0.756913       -20.5967
 138   2.0000      -0.753139       -20.4940
 139   2.0000      -0.749604       -20.3978
 140   2.0000      -0.742011       -20.1912
 141   2.0000      -0.731780       -19.9128
 142   2.0000      -0.723080       -19.6760
 143   2.0000      -0.717892       -19.5348
 144   2.0000      -0.713230       -19.4080
 145   2.0000      -0.696017       -18.9396
 146   2.0000      -0.693198       -18.8629
 147   2.0000      -0.687041       -18.6953
 148   2.0000      -0.683146       -18.5893
 149   2.0000      -0.677395       -18.4328
 150   2.0000      -0.675104       -18.3705
 151   2.0000      -0.663269       -18.0485
 152   2.0000      -0.656575       -17.8663
 153   2.0000      -0.650687       -17.7061
 154   2.0000      -0.644725       -17.5439
 155   2.0000      -0.641034       -17.4434
 156   2.0000      -0.633086       -17.2271
 157   2.0000      -0.627037       -17.0625
 158   2.0000      -0.620982       -16.8978
 159   2.0000      -0.617587       -16.8054
 160   2.0000      -0.612456       -16.6658
 161   2.0000      -0.608372       -16.5546
 162   2.0000      -0.607916       -16.5422
 163   2.0000      -0.600588       -16.3428
 164   2.0000      -0.599228       -16.3058
 165   2.0000      -0.589219       -16.0335
 166   2.0000      -0.585733       -15.9386
 167   2.0000      -0.583048       -15.8655
 168   2.0000      -0.581974       -15.8363
 169   2.0000      -0.576504       -15.6875
 170   2.0000      -0.575254       -15.6535
 171   2.0000      -0.572328       -15.5738
 172   2.0000      -0.570804       -15.5324
 173   2.0000      -0.557999       -15.1839
 174   2.0000      -0.554804       -15.0970
 175   2.0000      -0.549153       -14.9432
 176   2.0000      -0.548492       -14.9252
 177   2.0000      -0.542685       -14.7672
 178   2.0000      -0.536275       -14.5928
 179   2.0000      -0.533472       -14.5165
 180   2.0000      -0.533054       -14.5051
 181   2.0000      -0.529554       -14.4099
 182   2.0000      -0.526612       -14.3299
 183   2.0000      -0.524501       -14.2724
 184   2.0000      -0.522985       -14.2312
 185   2.0000      -0.518689       -14.1143
 186   2.0000      -0.517793       -14.0899
 187   2.0000      -0.513803       -13.9813
 188   2.0000      -0.512734       -13.9522
 189   2.0000      -0.511206       -13.9106
 190   2.0000      -0.510662       -13.8958
 191   2.0000      -0.505849       -13.7649
 192   2.0000      -0.504308       -13.7229
 193   2.0000      -0.502408       -13.6712
 194   2.0000      -0.498152       -13.5554
 195   2.0000      -0.497427       -13.5357
 196   2.0000      -0.496530       -13.5113
 197   2.0000      -0.495000       -13.4696
 198   2.0000      -0.494444       -13.4545
 199   2.0000      -0.494272       -13.4498
 200   2.0000      -0.491543       -13.3756
 201   2.0000      -0.489840       -13.3292
 202   2.0000      -0.482228       -13.1221
 203   2.0000      -0.481261       -13.0958
 204   2.0000      -0.480040       -13.0626
 205   2.0000      -0.477627       -12.9969
 206   2.0000      -0.472327       -12.8527
 207   2.0000      -0.469043       -12.7633
 208   2.0000      -0.468135       -12.7386
 209   2.0000      -0.467608       -12.7243
 210   2.0000      -0.466092       -12.6830
 211   2.0000      -0.463193       -12.6041
 212   2.0000      -0.460206       -12.5228
 213   2.0000      -0.457932       -12.4610
 214   2.0000      -0.454155       -12.3582
 215   2.0000      -0.452143       -12.3034
 216   2.0000      -0.446873       -12.1600
 217   2.0000      -0.445612       -12.1257
 218   2.0000      -0.438084       -11.9209
 219   2.0000      -0.435888       -11.8611
 220   2.0000      -0.435388       -11.8475
 221   2.0000      -0.431652       -11.7458
 222   2.0000      -0.428976       -11.6730
 223   2.0000      -0.426872       -11.6158
 224   2.0000      -0.426603       -11.6085
 225   2.0000      -0.425820       -11.5872
 226   2.0000      -0.423664       -11.5285
 227   2.0000      -0.420222       -11.4348
 228   2.0000      -0.412507       -11.2249
 229   2.0000      -0.410059       -11.1583
 230   2.0000      -0.408935       -11.1277
 231   2.0000      -0.401856       -10.9351
 232   2.0000      -0.401473       -10.9246
 233   2.0000      -0.399566       -10.8727
 234   2.0000      -0.392694       -10.6858
 235   2.0000      -0.391697       -10.6586
 236   2.0000      -0.386510       -10.5175
 237   2.0000      -0.381935       -10.3930
 238   2.0000      -0.378999       -10.3131
 239   2.0000      -0.369697       -10.0600
 240   2.0000      -0.369250       -10.0478
 241   2.0000      -0.366943        -9.9850
 242   2.0000      -0.357707        -9.7337
 243   2.0000      -0.355696        -9.6790
 244   2.0000      -0.349906        -9.5214
 245   2.0000      -0.346180        -9.4200
 246   2.0000      -0.338285        -9.2052
 247   2.0000      -0.333893        -9.0857
 248   2.0000      -0.333544        -9.0762
 249   2.0000      -0.321844        -8.7578
 250   2.0000      -0.319516        -8.6945
 251   2.0000      -0.307040        -8.3550
 252   2.0000      -0.303374        -8.2552
 253   2.0000      -0.300268        -8.1707
 254   2.0000      -0.291803        -7.9404
 255   2.0000      -0.283141        -7.7047
 256   2.0000      -0.260845        -7.0980
 257   2.0000      -0.252151        -6.8614
 258   2.0000      -0.220847        -6.0096
 259   0.0000      -0.082136        -2.2350
 260   0.0000      -0.068641        -1.8678
 261   0.0000      -0.058919        -1.6033
 262   0.0000      -0.039869        -1.0849
 263   0.0000      -0.016716        -0.4549

MULLIKEN ATOMIC CHARGES
-----------------------
   0 C :   -0.034035
   1 C :   -0.056283
   2 C :    0.054330
   3 C :    0.033699
   4 C :   -0.062187
   5 S :    0.074416
   6 C :   -0.039695
   7 C :    0.031156
   8 C :    0.030161
   9 C :   -0.002031
  10 S :    0.099217
  11 C :   -0.052794
  12 C :    0.093323
  13 O :   -0.243893
  14 C :   -0.030155
  15 C :    0.153413
  16 O :   -0.152210
  17 N :   -0.169467
  18 C :    0.154613
  19 O :   -0.148349
  20 C :   -0.033730
  21 C :    0.100206
  22 C :   -0.041778
  23 C :    0.033027
  24 C :   -0.144639
  25 S :    0.139422
  26 C :   -0.123361
  27 C :    0.133730
  28 C :    0.178866
  29 O :   -0.309884
  30 C :    0.190870
  31 C :    0.056599
  32 C :    0.021655
  33 S :   -0.057506
  34 C :   -0.081982
  35 O :   -0.306980
  36 C :    0.020897
  37 C :    0.001656
  38 C :    0.003004
  39 C :   -0.215345
  40 C :    0.092791
  41 C :    0.215426
  42 N :   -0.119101
  43 C :    0.080002
  44 C :   -0.031184
  45 C :   -0.035319
  46 C :   -0.097150
  47 C :    0.339461
  48 C :   -0.371957
  49 C :   -0.188523
  50 N :    0.137892
  51 C :   -0.188464
  52 N :    0.122341
  53 C :    0.008733
  54 C :   -0.008392
  55 C :    0.137889
  56 O :   -0.173893
  57 C :   -0.080747
  58 C :    0.119599
  59 C :   -0.092959
  60 C :   -0.024903
  61 S :    0.179079
  62 C :   -0.123631
  63 C :    0.037113
  64 Br:    0.014066
  65 H :    0.025514
  66 H :    0.012699
  67 H :   -0.006935
  68 H :   -0.007779
  69 H :   -0.012088
  70 H :   -0.005925
  71 H :    0.006294
  72 H :    0.133985
  73 H :    0.010253
  74 H :    0.011814
  75 H :    0.025509
  76 H :    0.029714
  77 H :    0.026312
  78 H :    0.034785
  79 H :    0.048677
  80 H :    0.059166
  81 H :    0.057547
  82 H :    0.062568
  83 H :   -0.020266
  84 H :    0.019626
  85 H :   -0.028657
  86 H :    0.037204
  87 H :    0.034440
  88 H :    0.012659
  89 H :    0.016609
  90 H :    0.033621
  91 H :    0.134176
  92 H :    0.030637
  93 H :    0.010950
  94 H :   -0.004081
  95 H :   -0.017846
  96 H :   -0.009736
  97 H :   -0.007570
Sum of atomic charges:   -0.0000000

LOEWDIN ATOMIC CHARGES
----------------------
   0 C :   -0.076717
   1 C :   -0.137032
   2 C :   -0.027218
   3 C :   -0.024117
   4 C :   -0.169906
   5 S :    0.363013
   6 C :   -0.186055
   7 C :   -0.023958
   8 C :   -0.033948
   9 C :   -0.128660
  10 S :    0.393430
  11 C :   -0.081043
  12 C :    0.065126
  13 O :   -0.001626
  14 C :   -0.103936
  15 C :    0.082382
  16 O :   -0.169790
  17 N :   -0.009939
  18 C :    0.082561
  19 O :   -0.167865
  20 C :   -0.101794
  21 C :    0.071907
  22 C :   -0.058407
  23 C :   -0.007158
  24 C :   -0.202732
  25 S :    0.444154
  26 C :   -0.186641
  27 C :   -0.019459
  28 C :    0.001124
  29 O :   -0.099610
  30 C :    0.083875
  31 C :   -0.067528
  32 C :   -0.041232
  33 S :    0.228927
  34 C :   -0.157653
  35 O :   -0.114436
  36 C :   -0.038375
  37 C :   -0.025911
  38 C :   -0.043449
  39 C :   -0.048248
  40 C :   -0.054402
  41 C :    0.048701
  42 N :    0.040431
  43 C :    0.089147
  44 C :   -0.116695
  45 C :    0.074739
  46 C :   -0.135441
  47 C :    0.080741
  48 C :   -0.163002
  49 C :   -0.019483
  50 N :   -0.070345
  51 C :   -0.017926
  52 N :   -0.074975
  53 C :   -0.019801
  54 C :   -0.048003
  55 C :    0.082346
  56 O :   -0.167784
  57 C :    0.015797
  58 C :   -0.035842
  59 C :   -0.146649
  60 C :   -0.012326
  61 S :    0.426837
  62 C :   -0.274901
  63 C :   -0.071479
  64 Br:    0.129141
  65 H :    0.031372
  66 H :    0.022214
  67 H :    0.035280
  68 H :    0.034085
  69 H :    0.032101
  70 H :    0.036068
  71 H :    0.049509
  72 H :    0.091933
  73 H :    0.037816
  74 H :    0.038044
  75 H :    0.017945
  76 H :    0.022028
  77 H :    0.033490
  78 H :    0.034682
  79 H :    0.015234
  80 H :    0.031228
  81 H :    0.023668
  82 H :    0.023269
  83 H :    0.027963
  84 H :    0.028488
  85 H :    0.023873
  86 H :    0.043381
  87 H :    0.037183
  88 H :    0.028868
  89 H :    0.029753
  90 H :    0.037431
  91 H :    0.090986
  92 H :    0.037961
  93 H :    0.029776
  94 H :    0.038465
  95 H :    0.037882
  96 H :    0.040089
  97 H :    0.037052

  Mayer bond orders larger than 0.100000
B(  0-C ,  1-C ) :   1.8640 B(  0-C , 65-H ) :   0.9503 B(  0-C , 66-H ) :   0.9407
B(  1-C ,  2-C ) :   1.0783 B(  1-C ,  5-S ) :   1.0023 B(  2-C ,  3-C ) :   1.6648
B(  2-C , 67-H ) :   0.9935 B(  3-C ,  4-C ) :   1.1485 B(  3-C , 68-H ) :   0.9913
B(  4-C ,  5-S ) :   1.0494 B(  4-C ,  6-C ) :   1.5609 B(  6-C ,  7-C ) :   1.1689
B(  6-C , 10-S ) :   1.0170 B(  7-C ,  8-C ) :   1.6095 B(  7-C , 69-H ) :   0.9938
B(  8-C ,  9-C ) :   1.1307 B(  8-C , 70-H ) :   1.0016 B(  9-C , 10-S ) :   1.0587
B(  9-C , 11-C ) :   1.5383 B( 11-C , 12-C ) :   1.2201 B( 11-C , 71-H ) :   0.9653
B( 12-C , 13-O ) :   1.1171 B( 12-C , 14-C ) :   1.3686 B( 13-O , 21-C ) :   1.1297
B( 14-C , 15-C ) :   0.8931 B( 14-C , 20-C ) :   1.2724 B( 15-C , 16-O ) :   2.2620
B( 15-C , 17-N ) :   1.0704 B( 17-N , 18-C ) :   1.0795 B( 17-N , 72-H ) :   0.9150
B( 18-C , 19-O ) :   2.2666 B( 18-C , 20-C ) :   0.8816 B( 20-C , 21-C ) :   1.3888
B( 21-C , 22-C ) :   1.2057 B( 22-C , 23-C ) :   1.5632 B( 22-C , 73-H ) :   0.9588
B( 23-C , 24-C ) :   1.1703 B( 23-C , 74-H ) :   0.9864 B( 24-C , 25-S ) :   1.0871
B( 24-C , 26-C ) :   0.1169 B( 24-C , 28-C ) :   1.4542 B( 25-S , 26-C ) :   1.1143
B( 26-C , 27-C ) :   1.4717 B( 26-C , 36-C ) :   1.1110 B( 27-C , 28-C ) :   1.1984
B( 27-C , 35-O ) :   1.1065 B( 28-C , 29-O ) :   1.1635 B( 29-O , 30-C ) :   0.9513
B( 30-C , 31-C ) :   1.1029 B( 30-C , 75-H ) :   0.9502 B( 30-C , 76-H ) :   0.9319
B( 31-C , 32-C ) :   1.0499 B( 31-C , 77-H ) :   0.9240 B( 31-C , 78-H ) :   0.9257
B( 32-C , 33-S ) :   1.0584 B( 32-C , 35-O ) :   0.9262 B( 32-C , 79-H ) :   0.9097
B( 33-S , 34-C ) :   1.0058 B( 34-C , 80-H ) :   0.9724 B( 34-C , 81-H ) :   0.9724
B( 34-C , 82-H ) :   0.9641 B( 36-C , 37-C ) :   1.6937 B( 36-C , 83-H ) :   0.9633
B( 37-C , 38-C ) :   1.1025 B( 37-C , 84-H ) :   0.9617 B( 38-C , 39-C ) :   1.7578
B( 38-C , 85-H ) :   0.9777 B( 39-C , 40-C ) :   1.0691 B( 39-C , 41-C ) :   1.0504
B( 40-C , 86-H ) :   0.9432 B( 40-C , 87-H ) :   0.9456 B( 40-C , 88-H ) :   0.9507
B( 41-C , 42-N ) :   0.9732 B( 41-C , 89-H ) :   0.9377 B( 41-C , 90-H ) :   0.9280
B( 42-N , 43-C ) :   1.3225 B( 42-N , 91-H ) :   0.9326 B( 43-C , 44-C ) :   1.4372
B( 43-C , 92-H ) :   0.9639 B( 44-C , 45-C ) :   1.2837 B( 44-C , 93-H ) :   0.9671
B( 45-C , 46-C ) :   1.4506 B( 45-C , 94-H ) :   0.9549 B( 46-C , 47-C ) :   1.1087
B( 46-C , 55-C ) :   0.9782 B( 47-C , 48-C ) :   1.5877 B( 47-C , 53-C ) :   0.9919
B( 48-C , 49-C ) :   1.1457 B( 48-C , 51-C ) :   1.1559 B( 49-C , 50-N ) :   2.9647
B( 51-C , 52-N ) :   2.9501 B( 53-C , 54-C ) :   1.2811 B( 53-C , 60-C ) :   1.4171
B( 54-C , 55-C ) :   0.9352 B( 54-C , 57-C ) :   1.4294 B( 55-C , 56-O ) :   2.1812
B( 57-C , 58-C ) :   1.2390 B( 57-C , 95-H ) :   1.0165 B( 58-C , 59-C ) :   1.3166
B( 58-C , 63-C ) :   1.1602 B( 59-C , 60-C ) :   1.3229 B( 59-C , 61-S ) :   1.0816
B( 60-C , 96-H ) :   0.9791 B( 61-S , 62-C ) :   1.0860 B( 62-C , 63-C ) :   1.6195
B( 62-C , 64-Br) :   1.0132 B( 63-C , 97-H ) :   1.0006

-----------------------------------------------------------------------------
         ABSORPTION SPECTRUM VIA TRANSITION ELECTRIC DIPOLE MOMENTS
-----------------------------------------------------------------------------
State   Energy  Wavelength   fosc         T2         TX        TY        TZ
        (cm-1)    (nm)                  (au**2)     (au)      (au)      (au)
-----------------------------------------------------------------------------
   0   15729.0    635.8   0.608625910  12.73872  -0.62409   1.53303   3.16213
   1   20784.7    481.1   0.390589843   6.18660  -2.32950   0.78133  -0.38671
   2   23543.5    424.7   2.401972650  33.58710   5.38071  -1.69703   1.32481
   3   24594.6    406.6   0.069570033   0.93123  -0.60099   0.33312  -0.67755
   4   26437.2    378.3   0.022495110   0.28012  -0.39228   0.35119  -0.05392
   5   27424.0    364.6   0.515061880   6.18306  -2.23497   0.20628  -1.07023
   6   28726.5    348.1   0.016644446   0.19075  -0.42817   0.06558  -0.05589
   7   29048.6    344.3   0.040989275   0.46454  -0.55368   0.02226  -0.39684
   8   30151.1    331.7   0.089991781   0.98260  -0.85662  -0.01703  -0.49851
   9   30487.9    328.0   0.604266903   6.52495   2.18539   1.20648  -0.54171
  10   31198.7    320.5   0.000152565   0.00161  -0.03504  -0.01941  -0.00232
  11   31254.4    320.0   0.086756843   0.91384   0.94054   0.03453  -0.16741
  12   31659.8    315.9   0.043088038   0.44805  -0.53927   0.39619   0.01634
  13   31913.9    313.3   0.103972185   1.07254   0.23740  -0.54489  -0.84810
  14   32039.3    312.1   0.012880528   0.13235   0.24594   0.07173  -0.25830
  15   32162.6    310.9   0.388137527   3.97292  -1.73911  -0.70191   0.67508
  16   32438.8    308.3   0.074927871   0.76042  -0.66498  -0.24690  -0.50722
  17   32988.4    303.1   0.010994589   0.10972  -0.19493  -0.24422  -0.10992
  18   33786.3    296.0   0.030645165   0.29861  -0.01965  -0.19747  -0.50914
  19   34426.6    290.5   0.019866506   0.18998  -0.41909   0.00075   0.11975
  20   35231.0    283.8   0.353834061   3.30636   0.73227   1.37916  -0.93170
  21   35287.3    283.4   0.010607194   0.09896   0.17376  -0.00370  -0.26221
  22   35293.6    283.3   0.006692807   0.06243  -0.21350   0.10484   0.07653
  23   35434.6    282.2   0.052695193   0.48957  -0.14384   0.28777   0.62135
  24   35916.4    278.4   0.000983493   0.00901   0.03114   0.08444  -0.03023
  25   36407.7    274.7   0.007813354   0.07065   0.23527  -0.02021   0.12202
  26   36637.7    272.9   0.032526838   0.29227  -0.28886   0.15900  -0.42843
  27   37680.5    265.4   0.012660086   0.11061  -0.18140  -0.13242  -0.24530
  28   37835.6    264.3   0.126089277   1.09712  -0.56460   0.30708   0.82707
  29   38446.9    260.1   0.077143910   0.66057   0.60002  -0.34665  -0.42471
  30   38538.7    259.5   0.014656549   0.12520  -0.23078   0.14047   0.22849
  31   38821.4    257.6   0.000233899   0.00198  -0.01138  -0.04009   0.01571
  32   39384.6    253.9   0.001566550   0.01309   0.05676  -0.04955  -0.08613
  33   39444.4    253.5   0.084886492   0.70848   0.59498  -0.03791   0.59418
  34   40186.4    248.8   0.106128275   0.86942   0.83900  -0.24259   0.32657

FINAL SINGLE POINT ENERGY     -7118.455191665940

DIPOLE MOMENT
-------------
                                X             Y             Z
Electronic contribution:   -177.03246     -34.20924     -66.07668
Nuclear contribution   :    178.08634      33.69436      69.73774
                        -----------------------------------------
Total Dipole Moment    :      1.05388      -0.51488       3.66106
                        -----------------------------------------
Magnitude (a.u.)       :      3.84436
Magnitude (Debye)      :      9.77160

Rotational constants in cm-1:     0.001738     0.000184     0.000175
Rotational constants in MHz :    52.097052     5.522353     5.236867

                             ****ORCA TERMINATED NORMALLY****
TOTAL RUN TIME: 0 days 0 hours 9 minutes 12 seconds 755 msec
