                         Program Version 4.2.0 -  RELEASE  -
|  1> # ORCA input file
|  2> # SCF done       -169.387218864453          0.000727432658
|  3> ! CAM-B3LYP def2-SVP def2/J RIJCOSX Grid4 TightSCF
|  4> %maxcore 5000
|  5> %tddft
|  6>     Mode sTDDFT
|  7>     Ethresh 5.0
|  8>     maxcore 5000
|  9> end
| 10>
| 11> %pal
| 12>   nprocs 6
| 13>   end
| 14> * xyz 0 1
| 15>    C       10.57426        -6.15158         7.69664
| 16>    C       10.45066        -5.73963         6.42787
| 17>    C       11.46360        -5.15270         5.59607
| 18>    C       11.04536        -4.83558         4.35230
| 19>    C        9.67570        -5.13949         4.09820
| 20>    S        8.93786        -5.85475         5.51164
| 21>    C        8.97917        -4.92386         2.93233
| 22>    C        9.46633        -4.35186         1.72896
| 23>    C        8.53031        -4.26928         0.75136
| 24>    C        7.24570        -4.75876         1.12609
| 25>    S        7.28027        -5.33391         2.77270
| 26>    C        6.17230        -4.81558         0.27392
| 27>    C        4.85655        -5.23075         0.54265
| 28>    O        4.06601        -5.46549        -0.55191
| 29>    C        4.09054        -5.46340         1.68142
| 30>    C        4.04204        -5.36675         3.13666
| 31>    O        4.83744        -4.95890         3.94760
| 32>    N        2.76129        -5.81888         3.46378
| 33>    C        1.94549        -6.12505         2.38058
| 34>    O        0.80214        -6.49994         2.45172
| 35>    C        2.80931        -5.87452         1.22804
| 36>    C        2.82727        -5.85923        -0.15124
| 37>    C        1.79785        -6.15575        -1.08191
| 38>    C        1.99625        -6.13597        -2.42249
| 39>    C        1.04385        -6.39364        -3.44440
| 40>    S        1.66123        -6.65314        -5.05536
| 41>    C        0.05947        -6.88253        -5.67182
| 42>    C       -0.89844        -6.75770        -4.67291
| 43>    C       -0.34500        -6.47381        -3.41744
| 44>    C       -1.20512        -6.24124        -2.22080
| 45>    C       -2.67296        -5.98715        -2.58615
| 46>    O       -3.38851        -6.02909        -1.37148
| 47>    C       -4.55452        -5.23999        -1.32912
| 48>    C       -3.14686        -7.05789        -3.58908
| 49>    O       -4.53281        -6.89249        -3.81255
| 50>    C       -5.17697        -8.01620        -4.35676
| 51>    C       -2.36322        -6.91661        -4.90205
| 52>    C       -0.13323        -7.15319        -7.04915
| 53>    O       -1.38848        -7.21786        -7.56965
| 54>    C        0.77151        -7.38578        -8.06568
| 55>    C        2.19416        -7.49343        -8.37943
| 56>    O        3.17210        -7.37279        -7.68498
| 57>    N        2.20479        -7.78140        -9.74260
| 58>    C        0.94786        -7.86715       -10.34647
| 59>    O        0.75944        -8.10723       -11.51246
| 60>    C        0.02085        -7.60746        -9.24853
| 61>    C       -1.31621        -7.49058        -8.90928
| 62>    C       -2.49821        -7.58541        -9.67312
| 63>    C       -3.73273        -7.35799        -9.13607
| 64>    C       -4.94271        -7.41968        -9.83964
| 65>    C       -6.16090        -7.14259        -9.26934
| 66>    C       -7.43158        -7.17214        -9.89881
| 67>    C       -8.46860        -6.83733        -9.08612
| 68>    C       -8.08211        -6.52094        -7.76003
| 69>    S       -6.34409        -6.67053        -7.58724
| 70>    C       -8.88408        -6.13992        -6.71019
| 71>    C      -10.29849        -5.97478        -6.71711
| 72>    C      -10.81906        -5.58734        -5.53240
| 73>    C       -9.85053        -5.41486        -4.48696
| 74>    S       -8.23808        -5.77814        -5.12290
| 75>    C      -10.06844        -5.04277        -3.21859
| 76>    H       11.51289        -6.06241         8.21491
| 77>    H        9.74825        -6.57911         8.23467
| 78>    H       12.45895        -4.99418         5.97178
| 79>    H       11.66814        -4.38806         3.59841
| 80>    H       10.48401        -4.02152         1.62317
| 81>    H        8.70605        -3.86720        -0.23085
| 82>    H        6.35148        -4.54433        -0.75837
| 83>    H        2.43896        -5.86022         4.41978
| 84>    H        0.85504        -6.42090        -0.63399
| 85>    H        2.99808        -5.92791        -2.77693
| 86>    H       -0.83526        -5.38872        -1.64818
| 87>    H       -1.18632        -7.11223        -1.55933
| 88>    H       -2.78796        -4.99927        -3.05665
| 89>    H       -5.28196        -5.55601        -2.08041
| 90>    H       -4.31458        -4.18026        -1.48430
| 91>    H       -4.96696        -5.37440        -0.33056
| 92>    H       -2.96258        -8.04801        -3.14226
| 93>    H       -6.23641        -7.76977        -4.38984
| 94>    H       -5.02518        -8.90200        -3.72775
| 95>    H       -4.83256        -8.23677        -5.37296
| 96>    H       -2.75214        -6.04268        -5.43520
| 97>    H       -2.54171        -7.78634        -5.53754
| 98>    H        3.06069        -7.91635       -10.26111
| 99>    H       -2.37206        -7.83254       -10.71617
|100>    H       -3.78973        -7.09569        -8.08668
|101>    H       -4.92317        -7.69095       -10.88637
|102>    H       -7.53250        -7.44004       -10.93586
|103>    H       -9.49681        -6.80709        -9.39933
|104>    H      -10.87773        -6.15003        -7.60627
|105>    H      -11.86365        -5.41184        -5.34600
|106>    H      -11.06467        -4.83092        -2.87232
|107>    H       -9.26482        -4.94443        -2.51194
|108> *
|109>
|110>                          ****END OF INPUT****

CARTESIAN COORDINATES (ANGSTROEM)
---------------------------------
  C     10.574260   -6.151580    7.696640
  C     10.450660   -5.739630    6.427870
  C     11.463600   -5.152700    5.596070
  C     11.045360   -4.835580    4.352300
  C      9.675700   -5.139490    4.098200
  S      8.937860   -5.854750    5.511640
  C      8.979170   -4.923860    2.932330
  C      9.466330   -4.351860    1.728960
  C      8.530310   -4.269280    0.751360
  C      7.245700   -4.758760    1.126090
  S      7.280270   -5.333910    2.772700
  C      6.172300   -4.815580    0.273920
  C      4.856550   -5.230750    0.542650
  O      4.066010   -5.465490   -0.551910
  C      4.090540   -5.463400    1.681420
  C      4.042040   -5.366750    3.136660
  O      4.837440   -4.958900    3.947600
  N      2.761290   -5.818880    3.463780
  C      1.945490   -6.125050    2.380580
  O      0.802140   -6.499940    2.451720
  C      2.809310   -5.874520    1.228040
  C      2.827270   -5.859230   -0.151240
  C      1.797850   -6.155750   -1.081910
  C      1.996250   -6.135970   -2.422490
  C      1.043850   -6.393640   -3.444400
  S      1.661230   -6.653140   -5.055360
  C      0.059470   -6.882530   -5.671820
  C     -0.898440   -6.757700   -4.672910
  C     -0.345000   -6.473810   -3.417440
  C     -1.205120   -6.241240   -2.220800
  C     -2.672960   -5.987150   -2.586150
  O     -3.388510   -6.029090   -1.371480
  C     -4.554520   -5.239990   -1.329120
  C     -3.146860   -7.057890   -3.589080
  O     -4.532810   -6.892490   -3.812550
  C     -5.176970   -8.016200   -4.356760
  C     -2.363220   -6.916610   -4.902050
  C     -0.133230   -7.153190   -7.049150
  O     -1.388480   -7.217860   -7.569650
  C      0.771510   -7.385780   -8.065680
  C      2.194160   -7.493430   -8.379430
  O      3.172100   -7.372790   -7.684980
  N      2.204790   -7.781400   -9.742600
  C      0.947860   -7.867150  -10.346470
  O      0.759440   -8.107230  -11.512460
  C      0.020850   -7.607460   -9.248530
  C     -1.316210   -7.490580   -8.909280
  C     -2.498210   -7.585410   -9.673120
  C     -3.732730   -7.357990   -9.136070
  C     -4.942710   -7.419680   -9.839640
  C     -6.160900   -7.142590   -9.269340
  C     -7.431580   -7.172140   -9.898810
  C     -8.468600   -6.837330   -9.086120
  C     -8.082110   -6.520940   -7.760030
  S     -6.344090   -6.670530   -7.587240
  C     -8.884080   -6.139920   -6.710190
  C    -10.298490   -5.974780   -6.717110
  C    -10.819060   -5.587340   -5.532400
  C     -9.850530   -5.414860   -4.486960
  S     -8.238080   -5.778140   -5.122900
  C    -10.068440   -5.042770   -3.218590
  H     11.512890   -6.062410    8.214910
  H      9.748250   -6.579110    8.234670
  H     12.458950   -4.994180    5.971780
  H     11.668140   -4.388060    3.598410
  H     10.484010   -4.021520    1.623170
  H      8.706050   -3.867200   -0.230850
  H      6.351480   -4.544330   -0.758370
  H      2.438960   -5.860220    4.419780
  H      0.855040   -6.420900   -0.633990
  H      2.998080   -5.927910   -2.776930
  H     -0.835260   -5.388720   -1.648180
  H     -1.186320   -7.112230   -1.559330
  H     -2.787960   -4.999270   -3.056650
  H     -5.281960   -5.556010   -2.080410
  H     -4.314580   -4.180260   -1.484300
  H     -4.966960   -5.374400   -0.330560
  H     -2.962580   -8.048010   -3.142260
  H     -6.236410   -7.769770   -4.389840
  H     -5.025180   -8.902000   -3.727750
  H     -4.832560   -8.236770   -5.372960
  H     -2.752140   -6.042680   -5.435200
  H     -2.541710   -7.786340   -5.537540
  H      3.060690   -7.916350  -10.261110
  H     -2.372060   -7.832540  -10.716170
  H     -3.789730   -7.095690   -8.086680
  H     -4.923170   -7.690950  -10.886370
  H     -7.532500   -7.440040  -10.935860
  H     -9.496810   -6.807090   -9.399330
  H    -10.877730   -6.150030   -7.606270
  H    -11.863650   -5.411840   -5.346000
  H    -11.064670   -4.830920   -2.872320
  H     -9.264820   -4.944430   -2.511940

 Total Charge           Charge          ....    0
 Multiplicity           Mult            ....    1
 Number of Electrons    NEL             ....  466
 Basis Dimension        Dim             .... 1034

ORBITAL ENERGIES
----------------

  NO   OCC          E(Eh)            E(eV)
   0   2.0000     -88.951377     -2420.4900
   1   2.0000     -88.947731     -2420.3908
   2   2.0000     -88.945628     -2420.3336
   3   2.0000     -88.938505     -2420.1398
   4   2.0000     -88.937345     -2420.1082
   5   2.0000     -19.301375      -525.2171
   6   2.0000     -19.291248      -524.9415
   7   2.0000     -19.206203      -522.6274
   8   2.0000     -19.198598      -522.4204
   9   2.0000     -19.197767      -522.3978
  10   2.0000     -19.196626      -522.3668
  11   2.0000     -19.191650      -522.2314
  12   2.0000     -19.190151      -522.1906
  13   2.0000     -14.442213      -392.9926
  14   2.0000     -14.435900      -392.8208
  15   2.0000     -10.387732      -282.6646
  16   2.0000     -10.387480      -282.6577
  17   2.0000     -10.381376      -282.4916
  18   2.0000     -10.380620      -282.4710
  19   2.0000     -10.358445      -281.8676
  20   2.0000     -10.350188      -281.6429
  21   2.0000     -10.348963      -281.6096
  22   2.0000     -10.343136      -281.4511
  23   2.0000     -10.316934      -280.7380
  24   2.0000     -10.312993      -280.6308
  25   2.0000     -10.312865      -280.6273
  26   2.0000     -10.312793      -280.6254
  27   2.0000     -10.311530      -280.5910
  28   2.0000     -10.311411      -280.5878
  29   2.0000     -10.307872      -280.4914
  30   2.0000     -10.307565      -280.4831
  31   2.0000     -10.306787      -280.4619
  32   2.0000     -10.303203      -280.3644
  33   2.0000     -10.302631      -280.3489
  34   2.0000     -10.298208      -280.2285
  35   2.0000     -10.297077      -280.1977
  36   2.0000     -10.294686      -280.1327
  37   2.0000     -10.293956      -280.1128
  38   2.0000     -10.290707      -280.0244
  39   2.0000     -10.289955      -280.0039
  40   2.0000     -10.287921      -279.9486
  41   2.0000     -10.286868      -279.9199
  42   2.0000     -10.286704      -279.9155
  43   2.0000     -10.286492      -279.9097
  44   2.0000     -10.286357      -279.9060
  45   2.0000     -10.284838      -279.8647
  46   2.0000     -10.282485      -279.8006
  47   2.0000     -10.282137      -279.7912
  48   2.0000     -10.280723      -279.7527
  49   2.0000     -10.280208      -279.7387
  50   2.0000     -10.279401      -279.7167
  51   2.0000     -10.278834      -279.7013
  52   2.0000     -10.277521      -279.6656
  53   2.0000     -10.276820      -279.6465
  54   2.0000     -10.276683      -279.6428
  55   2.0000     -10.276252      -279.6310
  56   2.0000     -10.273203      -279.5481
  57   2.0000     -10.272363      -279.5252
  58   2.0000     -10.272282      -279.5230
  59   2.0000     -10.265390      -279.3355
  60   2.0000     -10.264266      -279.3049
  61   2.0000      -8.046531      -218.9572
  62   2.0000      -8.043733      -218.8811
  63   2.0000      -8.041831      -218.8293
  64   2.0000      -8.035171      -218.6481
  65   2.0000      -8.033294      -218.5970
  66   2.0000      -6.015816      -163.6987
  67   2.0000      -6.013488      -163.6353
  68   2.0000      -6.011665      -163.5857
  69   2.0000      -6.011661      -163.5856
  70   2.0000      -6.009502      -163.5269
  71   2.0000      -6.008568      -163.5014
  72   2.0000      -6.007682      -163.4773
  73   2.0000      -6.004993      -163.4042
  74   2.0000      -6.004590      -163.3932
  75   2.0000      -6.003022      -163.3505
  76   2.0000      -6.002472      -163.3356
  77   2.0000      -6.001017      -163.2960
  78   2.0000      -5.998877      -163.2378
  79   2.0000      -5.995724      -163.1519
  80   2.0000      -5.994092      -163.1075
  81   2.0000      -1.216546       -33.1039
  82   2.0000      -1.206469       -32.8297
  83   2.0000      -1.142348       -31.0849
  84   2.0000      -1.136488       -30.9254
  85   2.0000      -1.121636       -30.5213
  86   2.0000      -1.115347       -30.3501
  87   2.0000      -1.113981       -30.3130
  88   2.0000      -1.091913       -29.7125
  89   2.0000      -1.029946       -28.0263
  90   2.0000      -1.023750       -27.8577
  91   2.0000      -0.997612       -27.1464
  92   2.0000      -0.991141       -26.9703
  93   2.0000      -0.989103       -26.9149
  94   2.0000      -0.974729       -26.5237
  95   2.0000      -0.968829       -26.3632
  96   2.0000      -0.924010       -25.1436
  97   2.0000      -0.916223       -24.9317
  98   2.0000      -0.913609       -24.8606
  99   2.0000      -0.905138       -24.6301
 100   2.0000      -0.901549       -24.5324
 101   2.0000      -0.895922       -24.3793
 102   2.0000      -0.884814       -24.0770
 103   2.0000      -0.873950       -23.7814
 104   2.0000      -0.862315       -23.4648
 105   2.0000      -0.850131       -23.1332
 106   2.0000      -0.849353       -23.1121
 107   2.0000      -0.843861       -22.9626
 108   2.0000      -0.830603       -22.6019
 109   2.0000      -0.826039       -22.4777
 110   2.0000      -0.823139       -22.3987
 111   2.0000      -0.819965       -22.3124
 112   2.0000      -0.815344       -22.1866
 113   2.0000      -0.798013       -21.7150
 114   2.0000      -0.783064       -21.3083
 115   2.0000      -0.771271       -20.9874
 116   2.0000      -0.761592       -20.7240
 117   2.0000      -0.755200       -20.5500
 118   2.0000      -0.754979       -20.5440
 119   2.0000      -0.749825       -20.4038
 120   2.0000      -0.745800       -20.2942
 121   2.0000      -0.739740       -20.1294
 122   2.0000      -0.734722       -19.9928
 123   2.0000      -0.716240       -19.4899
 124   2.0000      -0.702014       -19.1028
 125   2.0000      -0.693082       -18.8597
 126   2.0000      -0.691607       -18.8196
 127   2.0000      -0.686721       -18.6866
 128   2.0000      -0.682566       -18.5736
 129   2.0000      -0.676547       -18.4098
 130   2.0000      -0.672908       -18.3108
 131   2.0000      -0.659080       -17.9345
 132   2.0000      -0.642372       -17.4798
 133   2.0000      -0.639084       -17.3904
 134   2.0000      -0.638457       -17.3733
 135   2.0000      -0.624379       -16.9902
 136   2.0000      -0.623307       -16.9610
 137   2.0000      -0.617852       -16.8126
 138   2.0000      -0.613674       -16.6989
 139   2.0000      -0.608085       -16.5468
 140   2.0000      -0.603012       -16.4088
 141   2.0000      -0.599336       -16.3088
 142   2.0000      -0.594096       -16.1662
 143   2.0000      -0.587284       -15.9808
 144   2.0000      -0.584944       -15.9171
 145   2.0000      -0.580076       -15.7847
 146   2.0000      -0.578612       -15.7448
 147   2.0000      -0.576411       -15.6849
 148   2.0000      -0.572848       -15.5880
 149   2.0000      -0.568285       -15.4638
 150   2.0000      -0.565965       -15.4007
 151   2.0000      -0.563085       -15.3223
 152   2.0000      -0.555271       -15.1097
 153   2.0000      -0.551825       -15.0159
 154   2.0000      -0.549508       -14.9529
 155   2.0000      -0.544761       -14.8237
 156   2.0000      -0.542133       -14.7522
 157   2.0000      -0.538494       -14.6532
 158   2.0000      -0.534340       -14.5401
 159   2.0000      -0.533063       -14.5054
 160   2.0000      -0.528696       -14.3866
 161   2.0000      -0.528201       -14.3731
 162   2.0000      -0.525623       -14.3029
 163   2.0000      -0.515724       -14.0336
 164   2.0000      -0.515274       -14.0213
 165   2.0000      -0.510168       -13.8824
 166   2.0000      -0.506279       -13.7766
 167   2.0000      -0.504525       -13.7288
 168   2.0000      -0.504363       -13.7244
 169   2.0000      -0.500533       -13.6202
 170   2.0000      -0.500091       -13.6082
 171   2.0000      -0.498451       -13.5635
 172   2.0000      -0.496972       -13.5233
 173   2.0000      -0.492967       -13.4143
 174   2.0000      -0.492410       -13.3992
 175   2.0000      -0.491211       -13.3665
 176   2.0000      -0.489204       -13.3119
 177   2.0000      -0.488275       -13.2866
 178   2.0000      -0.486524       -13.2390
 179   2.0000      -0.485691       -13.2163
 180   2.0000      -0.481847       -13.1117
 181   2.0000      -0.480623       -13.0784
 182   2.0000      -0.478768       -13.0279
 183   2.0000      -0.470553       -12.8044
 184   2.0000      -0.468542       -12.7497
 185   2.0000      -0.467388       -12.7183
 186   2.0000      -0.466272       -12.6879
 187   2.0000      -0.464387       -12.6366
 188   2.0000      -0.461128       -12.5479
 189   2.0000      -0.459013       -12.4904
 190   2.0000      -0.457078       -12.4377
 191   2.0000      -0.454452       -12.3663
 192   2.0000      -0.452935       -12.3250
 193   2.0000      -0.446792       -12.1578
 194   2.0000      -0.442887       -12.0516
 195   2.0000      -0.432531       -11.7698
 196   2.0000      -0.430980       -11.7276
 197   2.0000      -0.427811       -11.6413
 198   2.0000      -0.427712       -11.6386
 199   2.0000      -0.421335       -11.4651
 200   2.0000      -0.419224       -11.4077
 201   2.0000      -0.416855       -11.3432
 202   2.0000      -0.409619       -11.1463
 203   2.0000      -0.408520       -11.1164
 204   2.0000      -0.402696       -10.9579
 205   2.0000      -0.400255       -10.8915
 206   2.0000      -0.395017       -10.7490
 207   2.0000      -0.390351       -10.6220
 208   2.0000      -0.382482       -10.4079
 209   2.0000      -0.380729       -10.3602
 210   2.0000      -0.370952       -10.0941
 211   2.0000      -0.366857        -9.9827
 212   2.0000      -0.359683        -9.7875
 213   2.0000      -0.356639        -9.7046
 214   2.0000      -0.352798        -9.6001
 215   2.0000      -0.352165        -9.5829
 216   2.0000      -0.349188        -9.5019
 217   2.0000      -0.342773        -9.3273
 218   2.0000      -0.342368        -9.3163
 219   2.0000      -0.336438        -9.1550
 220   2.0000      -0.336062        -9.1447
 221   2.0000      -0.332697        -9.0532
 222   2.0000      -0.329915        -8.9774
 223   2.0000      -0.327639        -8.9155
 224   2.0000      -0.323704        -8.8084
 225   2.0000      -0.311357        -8.4725
 226   2.0000      -0.307771        -8.3749
 227   2.0000      -0.303620        -8.2619
 228   2.0000      -0.303029        -8.2458
 229   2.0000      -0.282221        -7.6796
 230   2.0000      -0.252414        -6.8685
 231   2.0000      -0.220483        -5.9997
 232   2.0000      -0.211104        -5.7444
 233   0.0000      -0.081828        -2.2267
 234   0.0000      -0.072251        -1.9661
 235   0.0000      -0.052437        -1.4269
 236   0.0000      -0.023239        -0.6324
 237   0.0000      -0.010502        -0.2858

MULLIKEN ATOMIC CHARGES
-----------------------
   0 C :   -0.024983
   1 C :   -0.068068
   2 C :    0.058043
   3 C :    0.029325
   4 C :   -0.065091
   5 S :    0.102703
   6 C :   -0.058997
   7 C :    0.040574
   8 C :    0.025735
   9 C :   -0.011660
  10 S :    0.148257
  11 C :   -0.071993
  12 C :    0.140913
  13 O :   -0.222582
  14 C :   -0.075570
  15 C :    0.156350
  16 O :   -0.157945
  17 N :   -0.161084
  18 C :    0.159056
  19 O :   -0.151553
  20 C :   -0.041159
  21 C :    0.084145
  22 C :   -0.043816
  23 C :    0.043113
  24 C :   -0.113777
  25 S :    0.189333
  26 C :   -0.169501
  27 C :   -0.088964
  28 C :   -0.081781
  29 C :    0.153792
  30 C :    0.139152
  31 O :   -0.378036
  32 C :    0.192490
  33 C :    0.120996
  34 O :   -0.376438
  35 C :    0.199544
  36 C :    0.176201
  37 C :    0.136155
  38 O :   -0.233888
  39 C :   -0.091235
  40 C :    0.161581
  41 O :   -0.151093
  42 N :   -0.166756
  43 C :    0.153177
  44 O :   -0.148677
  45 C :   -0.027510
  46 C :    0.095765
  47 C :   -0.038219
  48 C :    0.021200
  49 C :   -0.011485
  50 C :   -0.017189
  51 C :    0.039641
  52 C :    0.029959
  53 C :   -0.051396
  54 S :    0.073413
  55 C :   -0.064168
  56 C :    0.029129
  57 C :    0.054587
  58 C :   -0.067780
  59 S :    0.098637
  60 C :   -0.025499
  61 H :    0.022454
  62 H :    0.026025
  63 H :   -0.009408
  64 H :   -0.009832
  65 H :   -0.013986
  66 H :   -0.012352
  67 H :   -0.007832
  68 H :    0.132653
  69 H :    0.013042
  70 H :    0.000704
  71 H :    0.024955
  72 H :    0.039853
  73 H :   -0.018220
  74 H :    0.015265
  75 H :   -0.007003
  76 H :    0.017192
  77 H :   -0.018945
  78 H :    0.021663
  79 H :   -0.001738
  80 H :   -0.001987
  81 H :    0.022662
  82 H :    0.018202
  83 H :    0.134450
  84 H :    0.005915
  85 H :    0.012611
  86 H :   -0.013155
  87 H :   -0.010374
  88 H :   -0.011822
  89 H :   -0.009517
  90 H :   -0.007771
  91 H :    0.023591
  92 H :    0.027632
Sum of atomic charges:   -0.0000000

LOEWDIN ATOMIC CHARGES
----------------------
   0 C :   -0.066929
   1 C :   -0.140620
   2 C :   -0.024113
   3 C :   -0.027563
   4 C :   -0.164696
   5 S :    0.368769
   6 C :   -0.188991
   7 C :   -0.023042
   8 C :   -0.039095
   9 C :   -0.125333
  10 S :    0.433478
  11 C :   -0.102129
  12 C :    0.072865
  13 O :    0.004014
  14 C :   -0.120650
  15 C :    0.076757
  16 O :   -0.173601
  17 N :   -0.006692
  18 C :    0.079957
  19 O :   -0.170404
  20 C :   -0.097834
  21 C :    0.064531
  22 C :   -0.042165
  23 C :   -0.022820
  24 C :   -0.168003
  25 S :    0.483273
  26 C :   -0.202127
  27 C :   -0.039118
  28 C :   -0.050612
  29 C :   -0.028760
  30 C :    0.067184
  31 O :   -0.166532
  32 C :    0.065728
  33 C :    0.058093
  34 O :   -0.160560
  35 C :    0.063267
  36 C :   -0.040389
  37 C :    0.058641
  38 O :    0.011800
  39 C :   -0.113629
  40 C :    0.079292
  41 O :   -0.168708
  42 N :   -0.008220
  43 C :    0.083139
  44 O :   -0.167828
  45 C :   -0.100309
  46 C :    0.068441
  47 C :   -0.047355
  48 C :   -0.010777
  49 C :   -0.065172
  50 C :   -0.132697
  51 C :   -0.036584
  52 C :   -0.024373
  53 C :   -0.184089
  54 S :    0.380350
  55 C :   -0.171965
  56 C :   -0.027180
  57 C :   -0.026503
  58 C :   -0.141216
  59 S :    0.372166
  60 C :   -0.067104
  61 H :    0.029801
  62 H :    0.028278
  63 H :    0.034404
  64 H :    0.032804
  65 H :    0.031308
  66 H :    0.032926
  67 H :    0.041490
  68 H :    0.091617
  69 H :    0.044714
  70 H :    0.032556
  71 H :    0.038589
  72 H :    0.040704
  73 H :    0.009223
  74 H :    0.005843
  75 H :    0.002658
  76 H :    0.018642
  77 H :    0.008916
  78 H :    0.008854
  79 H :    0.006691
  80 H :   -0.003184
  81 H :    0.038128
  82 H :    0.030398
  83 H :    0.092367
  84 H :    0.044029
  85 H :    0.024913
  86 H :    0.033870
  87 H :    0.034634
  88 H :    0.032424
  89 H :    0.033184
  90 H :    0.034922
  91 H :    0.030407
  92 H :    0.028633

  Mayer bond orders larger than 0.100000
B(  0-C ,  1-C ) :   1.8652 B(  0-C , 61-H ) :   0.9513 B(  0-C , 62-H ) :   0.9416
B(  1-C ,  2-C ) :   1.0767 B(  1-C ,  5-S ) :   1.0070 B(  2-C ,  3-C ) :   1.6655
B(  2-C , 63-H ) :   0.9930 B(  3-C ,  4-C ) :   1.1490 B(  3-C , 64-H ) :   0.9910
B(  4-C ,  5-S ) :   1.0599 B(  4-C ,  6-C ) :   1.5499 B(  6-C ,  7-C ) :   1.1645
B(  6-C , 10-S ) :   1.0450 B(  7-C ,  8-C ) :   1.6115 B(  7-C , 65-H ) :   0.9914
B(  8-C ,  9-C ) :   1.1300 B(  8-C , 66-H ) :   0.9996 B(  9-C , 10-S ) :   1.0828
B(  9-C , 11-C ) :   1.5461 B( 11-C , 12-C ) :   1.1946 B( 11-C , 67-H ) :   0.9507
B( 12-C , 13-O ) :   1.1145 B( 12-C , 14-C ) :   1.3830 B( 13-O , 21-C ) :   1.1470
B( 14-C , 15-C ) :   0.8955 B( 14-C , 20-C ) :   1.2572 B( 15-C , 16-O ) :   2.2021
B( 15-C , 17-N ) :   1.0790 B( 17-N , 18-C ) :   1.0821 B( 17-N , 68-H ) :   0.9162
B( 18-C , 19-O ) :   2.2571 B( 18-C , 20-C ) :   0.8860 B( 20-C , 21-C ) :   1.4020
B( 21-C , 22-C ) :   1.1877 B( 22-C , 23-C ) :   1.6304 B( 22-C , 69-H ) :   0.9527
B( 23-C , 24-C ) :   1.1075 B( 23-C , 70-H ) :   0.9596 B( 24-C , 25-S ) :   1.1061
B( 24-C , 26-C ) :   0.1219 B( 24-C , 28-C ) :   1.4836 B( 25-S , 26-C ) :   1.1481
B( 26-C , 27-C ) :   1.4543 B( 26-C , 37-C ) :   1.1390 B( 27-C , 28-C ) :   1.3421
B( 27-C , 36-C ) :   1.0476 B( 28-C , 29-C ) :   1.0131 B( 29-C , 30-C ) :   1.0234
B( 29-C , 71-H ) :   0.9126 B( 29-C , 72-H ) :   0.8957 B( 30-C , 31-O ) :   1.0494
B( 30-C , 33-C ) :   1.0005 B( 30-C , 73-H ) :   0.9164 B( 31-O , 32-C ) :   0.9782
B( 32-C , 74-H ) :   0.9629 B( 32-C , 75-H ) :   0.9668 B( 32-C , 76-H ) :   0.9816
B( 33-C , 34-O ) :   1.0336 B( 33-C , 36-C ) :   1.0282 B( 33-C , 77-H ) :   0.9146
B( 34-O , 35-C ) :   0.9830 B( 35-C , 78-H ) :   0.9748 B( 35-C , 79-H ) :   0.9609
B( 35-C , 80-H ) :   0.9625 B( 36-C , 81-H ) :   0.8855 B( 36-C , 82-H ) :   0.8988
B( 37-C , 38-O ) :   1.1569 B( 37-C , 39-C ) :   1.4307 B( 38-O , 46-C ) :   1.1188
B( 39-C , 40-C ) :   0.8823 B( 39-C , 45-C ) :   1.2586 B( 40-C , 41-O ) :   2.2472
B( 40-C , 42-N ) :   1.0854 B( 42-N , 43-C ) :   1.0739 B( 42-N , 83-H ) :   0.9151
B( 43-C , 44-O ) :   2.2664 B( 43-C , 45-C ) :   0.8858 B( 45-C , 46-C ) :   1.3789
B( 46-C , 47-C ) :   1.1919 B( 47-C , 48-C ) :   1.5787 B( 47-C , 84-H ) :   0.9702
B( 48-C , 49-C ) :   1.1542 B( 48-C , 85-H ) :   0.9779 B( 49-C , 50-C ) :   1.5531
B( 49-C , 86-H ) :   0.9856 B( 50-C , 51-C ) :   1.1397 B( 50-C , 54-S ) :   1.0411
B( 51-C , 52-C ) :   1.6008 B( 51-C , 87-H ) :   0.9988 B( 52-C , 53-C ) :   1.1750
B( 52-C , 88-H ) :   0.9930 B( 53-C , 54-S ) :   1.0377 B( 53-C , 55-C ) :   1.5523
B( 55-C , 56-C ) :   1.1490 B( 55-C , 59-S ) :   1.0524 B( 56-C , 57-C ) :   1.6633
B( 56-C , 89-H ) :   0.9918 B( 57-C , 58-C ) :   1.0776 B( 57-C , 90-H ) :   0.9933
B( 58-C , 59-S ) :   1.0079 B( 58-C , 60-C ) :   1.8648 B( 60-C , 91-H ) :   0.9512
B( 60-C , 92-H ) :   0.9422

-----------------------------------------------------------------------------
         ABSORPTION SPECTRUM VIA TRANSITION ELECTRIC DIPOLE MOMENTS
-----------------------------------------------------------------------------
State   Energy  Wavelength   fosc         T2         TX        TY        TZ
        (cm-1)    (nm)                  (au**2)     (au)      (au)      (au)
-----------------------------------------------------------------------------
   0   15271.1    654.8   1.909239191  41.15912  -6.08776   0.36158  -1.99187
   1   17331.5    577.0   0.890052618  16.90652  -0.75440  -0.61064  -3.99556
   2   20548.8    486.6   0.143601447   2.30064  -0.75653   0.40074   1.25208
   3   21319.3    469.1   0.466125573   7.19789   1.35985  -0.76685  -2.18189
   4   23018.5    434.4   0.058760884   0.84040   0.67004  -0.44138  -0.44343
   5   24948.3    400.8   0.053284876   0.70314  -0.43299  -0.30647  -0.64941
   6   25235.1    396.3   0.244635916   3.19147   0.11946  -0.19667  -1.77159
   7   27100.9    369.0   0.190257445   2.31118  -0.21424  -0.55665  -1.39837
   8   27784.5    359.9   0.210335509   2.49221   0.24119   0.31140   1.52875
   9   28891.4    346.1   0.018457217   0.21032  -0.09266   0.39904   0.20614
  10   30252.6    330.6   0.140838393   1.53262  -0.46356   0.12651  -1.14093
  11   30441.5    328.5   0.095443354   1.03218  -0.28371  -0.08277   0.97203
  12   30899.8    323.6   0.239917703   2.55613  -0.41356  -0.31362   1.51220
  13   32152.6    311.0   0.129919192   1.33025   0.68670   0.13298   0.91707
  14   33185.2    301.3   0.042710086   0.42370   0.65054   0.01405   0.01722
  15   33316.2    300.2   0.057453137   0.56772  -0.57038  -0.16661   0.46327
  16   33571.1    297.9   0.060764981   0.59589   0.64109   0.13429  -0.40847
  17   33942.7    294.6   0.000658110   0.00638  -0.02080  -0.07712   0.00167
  18   34741.2    287.8   0.121167987   1.14820   1.02649   0.29857  -0.07332
  19   35033.9    285.4   0.027496588   0.25838   0.49326  -0.06143  -0.10634
  20   35722.0    279.9   0.041527428   0.38271   0.61507   0.06622  -0.00375
  21   35738.0    279.8   0.034506366   0.31787   0.18625  -0.03249   0.53115
  22   36773.6    271.9   0.040415171   0.36181  -0.02485  -0.24007   0.55096
  23   37027.1    270.1   0.012309436   0.10944  -0.11872  -0.03503   0.30680
  24   37290.3    268.2   0.009426860   0.08322  -0.20159  -0.02045  -0.20535
  25   37437.0    267.1   0.017461389   0.15355  -0.06945   0.16700  -0.34762
  26   37655.5    265.6   0.081144996   0.70943   0.73731  -0.06270  -0.40233
  27   37940.7    263.6   0.141115693   1.22446  -0.90434  -0.09651   0.63033
  28   38020.8    263.0   0.027792908   0.24065   0.48688  -0.04460  -0.04015
  29   38457.8    260.0   0.017267523   0.14782  -0.33688  -0.07201   0.17071
  30   38945.5    256.8   0.122882765   1.03875   0.61231  -0.26852  -0.76923
  31   38996.7    256.4   0.010247620   0.08651   0.25736  -0.12696   0.06449
  32   39479.6    253.3   0.080246628   0.66916  -0.17866   0.13654  -0.78651
  33   39835.7    251.0   0.001854881   0.01533  -0.02436  -0.12118  -0.00712

FINAL SINGLE POINT ENERGY     -4470.659031924432

DIPOLE MOMENT
-------------
                                X             Y             Z
Electronic contribution:     42.37789      -1.08629      -2.60674
Nuclear contribution   :    -43.45168       1.62102       2.23592
                        -----------------------------------------
Total Dipole Moment    :     -1.07379       0.53473      -0.37082
                        -----------------------------------------
Magnitude (a.u.)       :      1.25557
Magnitude (Debye)      :      3.19141

Rotational constants in cm-1:     0.001977     0.000344     0.000297
Rotational constants in MHz :    59.259075    10.318343     8.889279

                             ****ORCA TERMINATED NORMALLY****
TOTAL RUN TIME: 0 days 0 hours 11 minutes 10 seconds 181 msec
