                         Program Version 4.2.0 -  RELEASE  -
|  1> # ORCA input file
|  2> # SCF done       -174.375819302089          0.000862843342
|  3> ! CAM-B3LYP def2-SVP def2/J RIJCOSX Grid4 TightSCF
|  4> %maxcore 5000
|  5> %tddft
|  6>     Mode sTDDFT
|  7>     Ethresh 5.0
|  8>     maxcore 5000
|  9> end
| 10>
| 11> %pal
| 12>   nprocs 6
| 13>   end
| 14> * xyz 0 1
| 15>    C       17.34948        -7.07553        -5.71499
| 16>    C       16.42606        -8.02155        -5.49417
| 17>    C       16.50500        -9.41781        -5.81294
| 18>    C       15.41270       -10.13291        -5.46179
| 19>    C       14.38587        -9.37042        -4.84010
| 20>    S       14.86550        -7.69001        -4.72397
| 21>    C       13.17736        -9.82349        -4.36201
| 22>    C       12.68361       -11.14983        -4.37625
| 23>    C       11.46359       -11.28568        -3.79076
| 24>    C       10.92339       -10.07859        -3.28024
| 25>    S       12.01858        -8.75196        -3.59558
| 26>    C        9.73705        -9.96332        -2.59379
| 27>    C        9.23560        -8.75634        -2.07462
| 28>    C        8.11075        -8.64573        -1.26523
| 29>    O        7.69167        -7.42928        -0.75491
| 30>    C        8.45293        -6.35048        -1.07915
| 31>    C        9.60703        -6.46423        -1.90601
| 32>    C       10.23153        -5.27915        -2.11271
| 33>    S        9.41504        -3.99792        -1.29819
| 34>    C        8.22262        -5.07626        -0.67390
| 35>    O       10.00093        -7.66045        -2.41712
| 36>    C        7.32534        -9.74273        -0.84390
| 37>    C        6.33622        -9.65340         0.08953
| 38>    C        5.59850       -10.75774         0.56415
| 39>    C        4.73373       -10.76788         1.64771
| 40>    C        4.23851       -12.04303         1.90473
| 41>    C        4.69678       -13.02511         0.99572
| 42>    S        5.76726       -12.35227        -0.17521
| 43>    C        4.15110       -14.23974         1.39964
| 44>    C        3.38285       -13.97890         2.56032
| 45>    N        3.43446       -12.63773         2.84140
| 46>    C        2.82323       -15.11923         3.12523
| 47>    C        3.13252       -16.25964         2.39985
| 48>    S        4.12944       -15.91038         0.98598
| 49>    C        2.78287       -17.58576         2.73028
| 50>    C        2.99708       -18.66253         1.92917
| 51>    C        2.73857       -19.99478         2.32200
| 52>    S        2.38460       -20.37879         3.97367
| 53>    C        2.22572       -22.07565         3.59063
| 54>    C        2.42004       -22.29395         2.21189
| 55>    C        2.75178       -21.14063         1.51300
| 56>    C        3.04806       -21.12971         0.04728
| 57>    S        4.72691       -20.38138        -0.24129
| 58>    C        3.03487       -22.52997        -0.56180
| 59>    C        1.93590       -23.38674         0.05314
| 60>    C        2.23796       -23.61301         1.53213
| 61>    C        1.99656       -23.10573         4.50188
| 62>    C        1.88181       -23.08645         5.87558
| 63>    C        1.70719       -24.25497         6.70761
| 64>    C        1.47874       -25.54836         6.29848
| 65>    C        1.31887       -26.63784         7.17738
| 66>    N        1.18002       -27.56855         7.83664
| 67>    C        1.35132       -25.97910         4.96371
| 68>    N        1.21928       -26.40888         3.90515
| 69>    C        1.78754       -23.82109         8.10072
| 70>    C        1.94712       -22.41463         8.12587
| 71>    C        1.98446       -21.90926         6.73882
| 72>    O        2.08127       -20.73975         6.40872
| 73>    C        2.05816       -21.69940         9.29177
| 74>    C        2.01560       -22.40864        10.49755
| 75>    C        1.85889       -23.81322        10.46413
| 76>    C        1.74175       -24.53594         9.28217
| 77>    S        1.83881       -24.49206        12.06438
| 78>    C        2.03899       -22.89977        12.74569
| 79>    C        2.11600       -21.90983        11.82552
| 80>   Br        2.12814       -22.69386        14.60852
| 81>    H       18.28563        -7.32140        -6.18428
| 82>    H       17.18879        -6.05154        -5.43236
| 83>    H       17.37965        -9.82293        -6.29010
| 84>    H       15.30300       -11.19050        -5.62429
| 85>    H       13.23882       -11.96241        -4.80944
| 86>    H       10.93071       -12.21592        -3.70012
| 87>    H        9.17312       -10.86649        -2.43388
| 88>    H       11.11267        -5.09282        -2.68967
| 89>    H        7.43033        -4.71310        -0.05385
| 90>    H        7.54801       -10.70957        -1.26506
| 91>    H        6.12087        -8.69738         0.54497
| 92>    H        4.51064        -9.88696         2.22130
| 93>    H        2.99236       -12.17916         3.61859
| 94>    H        2.22365       -15.14363         4.01680
| 95>    H        2.32226       -17.73140         3.69940
| 96>    H        3.40026       -18.49930         0.93920
| 97>    H        2.33969       -20.46789        -0.46158
| 98>    H        4.66155       -20.46486        -1.56901
| 99>    H        3.99901       -23.00749        -0.37132
|100>    H        2.90478       -22.45413        -1.64344
|101>    H        0.97133       -22.88511        -0.05227
|102>    H        1.87964       -24.34531        -0.46340
|103>    H        3.15062       -24.20902         1.63255
|104>    H        1.42664       -24.17758         1.99430
|105>    H        1.94893       -24.08399         4.04333
|106>    H        2.17806       -20.62745         9.27599
|107>    H        1.62683       -25.60635         9.31207
|108>    H        2.24007       -20.87071        12.07041
|109> *
|110>
|111>                          ****END OF INPUT****

CARTESIAN COORDINATES (ANGSTROEM)
---------------------------------
  C     17.349480   -7.075530   -5.714990
  C     16.426060   -8.021550   -5.494170
  C     16.505000   -9.417810   -5.812940
  C     15.412700  -10.132910   -5.461790
  C     14.385870   -9.370420   -4.840100
  S     14.865500   -7.690010   -4.723970
  C     13.177360   -9.823490   -4.362010
  C     12.683610  -11.149830   -4.376250
  C     11.463590  -11.285680   -3.790760
  C     10.923390  -10.078590   -3.280240
  S     12.018580   -8.751960   -3.595580
  C      9.737050   -9.963320   -2.593790
  C      9.235600   -8.756340   -2.074620
  C      8.110750   -8.645730   -1.265230
  O      7.691670   -7.429280   -0.754910
  C      8.452930   -6.350480   -1.079150
  C      9.607030   -6.464230   -1.906010
  C     10.231530   -5.279150   -2.112710
  S      9.415040   -3.997920   -1.298190
  C      8.222620   -5.076260   -0.673900
  O     10.000930   -7.660450   -2.417120
  C      7.325340   -9.742730   -0.843900
  C      6.336220   -9.653400    0.089530
  C      5.598500  -10.757740    0.564150
  C      4.733730  -10.767880    1.647710
  C      4.238510  -12.043030    1.904730
  C      4.696780  -13.025110    0.995720
  S      5.767260  -12.352270   -0.175210
  C      4.151100  -14.239740    1.399640
  C      3.382850  -13.978900    2.560320
  N      3.434460  -12.637730    2.841400
  C      2.823230  -15.119230    3.125230
  C      3.132520  -16.259640    2.399850
  S      4.129440  -15.910380    0.985980
  C      2.782870  -17.585760    2.730280
  C      2.997080  -18.662530    1.929170
  C      2.738570  -19.994780    2.322000
  S      2.384600  -20.378790    3.973670
  C      2.225720  -22.075650    3.590630
  C      2.420040  -22.293950    2.211890
  C      2.751780  -21.140630    1.513000
  C      3.048060  -21.129710    0.047280
  S      4.726910  -20.381380   -0.241290
  C      3.034870  -22.529970   -0.561800
  C      1.935900  -23.386740    0.053140
  C      2.237960  -23.613010    1.532130
  C      1.996560  -23.105730    4.501880
  C      1.881810  -23.086450    5.875580
  C      1.707190  -24.254970    6.707610
  C      1.478740  -25.548360    6.298480
  C      1.318870  -26.637840    7.177380
  N      1.180020  -27.568550    7.836640
  C      1.351320  -25.979100    4.963710
  N      1.219280  -26.408880    3.905150
  C      1.787540  -23.821090    8.100720
  C      1.947120  -22.414630    8.125870
  C      1.984460  -21.909260    6.738820
  O      2.081270  -20.739750    6.408720
  C      2.058160  -21.699400    9.291770
  C      2.015600  -22.408640   10.497550
  C      1.858890  -23.813220   10.464130
  C      1.741750  -24.535940    9.282170
  S      1.838810  -24.492060   12.064380
  C      2.038990  -22.899770   12.745690
  C      2.116000  -21.909830   11.825520
  Br     2.128140  -22.693860   14.608520
  H     18.285630   -7.321400   -6.184280
  H     17.188790   -6.051540   -5.432360
  H     17.379650   -9.822930   -6.290100
  H     15.303000  -11.190500   -5.624290
  H     13.238820  -11.962410   -4.809440
  H     10.930710  -12.215920   -3.700120
  H      9.173120  -10.866490   -2.433880
  H     11.112670   -5.092820   -2.689670
  H      7.430330   -4.713100   -0.053850
  H      7.548010  -10.709570   -1.265060
  H      6.120870   -8.697380    0.544970
  H      4.510640   -9.886960    2.221300
  H      2.992360  -12.179160    3.618590
  H      2.223650  -15.143630    4.016800
  H      2.322260  -17.731400    3.699400
  H      3.400260  -18.499300    0.939200
  H      2.339690  -20.467890   -0.461580
  H      4.661550  -20.464860   -1.569010
  H      3.999010  -23.007490   -0.371320
  H      2.904780  -22.454130   -1.643440
  H      0.971330  -22.885110   -0.052270
  H      1.879640  -24.345310   -0.463400
  H      3.150620  -24.209020    1.632550
  H      1.426640  -24.177580    1.994300
  H      1.948930  -24.083990    4.043330
  H      2.178060  -20.627450    9.275990
  H      1.626830  -25.606350    9.312070
  H      2.240070  -20.870710   12.070410

 Total Charge           Charge          ....    0
 Multiplicity           Mult            ....    1
 Number of Electrons    NEL             ....  542
 Basis Dimension        Dim             .... 1114

ORBITAL ENERGIES
----------------

  NO   OCC          E(Eh)            E(eV)
   0   2.0000    -482.880251    -13139.8397
   1   2.0000     -88.968296     -2420.9504
   2   2.0000     -88.954062     -2420.5631
   3   2.0000     -88.953850     -2420.5573
   4   2.0000     -88.952589     -2420.5230
   5   2.0000     -88.949734     -2420.4453
   6   2.0000     -88.935930     -2420.0697
   7   2.0000     -88.934365     -2420.0271
   8   2.0000     -88.914419     -2419.4843
   9   2.0000     -62.557939     -1702.2881
  10   2.0000     -56.391883     -1534.5012
  11   2.0000     -56.389185     -1534.4277
  12   2.0000     -56.389145     -1534.4266
  13   2.0000     -19.275053      -524.5009
  14   2.0000     -19.270435      -524.3752
  15   2.0000     -19.208089      -522.6787
  16   2.0000     -14.467211      -393.6728
  17   2.0000     -14.407792      -392.0560
  18   2.0000     -14.402712      -391.9177
  19   2.0000     -10.356961      -281.8272
  20   2.0000     -10.351964      -281.6913
  21   2.0000     -10.345257      -281.5088
  22   2.0000     -10.340264      -281.3729
  23   2.0000     -10.337801      -281.3059
  24   2.0000     -10.337357      -281.2938
  25   2.0000     -10.330205      -281.0992
  26   2.0000     -10.327248      -281.0187
  27   2.0000     -10.317034      -280.7408
  28   2.0000     -10.312517      -280.6179
  29   2.0000     -10.311857      -280.5999
  30   2.0000     -10.311461      -280.5891
  31   2.0000     -10.309070      -280.5241
  32   2.0000     -10.307749      -280.4881
  33   2.0000     -10.306937      -280.4660
  34   2.0000     -10.306277      -280.4480
  35   2.0000     -10.306025      -280.4412
  36   2.0000     -10.305495      -280.4268
  37   2.0000     -10.303743      -280.3791
  38   2.0000     -10.302993      -280.3587
  39   2.0000     -10.302831      -280.3543
  40   2.0000     -10.299484      -280.2632
  41   2.0000     -10.299335      -280.2592
  42   2.0000     -10.298752      -280.2433
  43   2.0000     -10.298154      -280.2270
  44   2.0000     -10.297322      -280.2044
  45   2.0000     -10.296405      -280.1794
  46   2.0000     -10.293724      -280.1065
  47   2.0000     -10.292551      -280.0746
  48   2.0000     -10.291870      -280.0560
  49   2.0000     -10.290581      -280.0209
  50   2.0000     -10.290263      -280.0123
  51   2.0000     -10.290260      -280.0122
  52   2.0000     -10.290225      -280.0113
  53   2.0000     -10.286451      -279.9086
  54   2.0000     -10.285898      -279.8935
  55   2.0000     -10.283679      -279.8331
  56   2.0000     -10.282529      -279.8018
  57   2.0000     -10.281338      -279.7694
  58   2.0000     -10.281074      -279.7623
  59   2.0000     -10.280045      -279.7343
  60   2.0000     -10.280017      -279.7335
  61   2.0000     -10.279985      -279.7326
  62   2.0000     -10.279857      -279.7291
  63   2.0000     -10.279765      -279.7266
  64   2.0000     -10.278587      -279.6946
  65   2.0000     -10.275075      -279.5990
  66   2.0000     -10.271795      -279.5098
  67   2.0000     -10.268882      -279.4305
  68   2.0000     -10.266764      -279.3729
  69   2.0000     -10.266749      -279.3724
  70   2.0000      -8.787343      -239.1158
  71   2.0000      -8.064348      -219.4421
  72   2.0000      -8.049850      -219.0476
  73   2.0000      -8.048586      -219.0132
  74   2.0000      -8.047351      -218.9796
  75   2.0000      -8.043527      -218.8755
  76   2.0000      -8.031459      -218.5471
  77   2.0000      -8.031138      -218.5384
  78   2.0000      -8.009339      -217.9452
  79   2.0000      -6.623606      -180.2375
  80   2.0000      -6.609091      -179.8425
  81   2.0000      -6.608912      -179.8376
  82   2.0000      -6.034039      -164.1946
  83   2.0000      -6.029773      -164.0785
  84   2.0000      -6.025545      -163.9634
  85   2.0000      -6.019383      -163.7957
  86   2.0000      -6.018218      -163.7640
  87   2.0000      -6.017041      -163.7320
  88   2.0000      -6.015184      -163.6815
  89   2.0000      -6.014233      -163.6556
  90   2.0000      -6.013050      -163.6234
  91   2.0000      -6.012866      -163.6184
  92   2.0000      -6.011508      -163.5814
  93   2.0000      -6.009957      -163.5392
  94   2.0000      -6.008669      -163.5042
  95   2.0000      -6.008508      -163.4998
  96   2.0000      -6.005655      -163.4222
  97   2.0000      -6.001376      -163.3057
  98   2.0000      -6.000941      -163.2939
  99   2.0000      -5.997091      -163.1891
 100   2.0000      -5.997049      -163.1880
 101   2.0000      -5.992226      -163.0567
 102   2.0000      -5.991670      -163.0416
 103   2.0000      -5.979700      -162.7159
 104   2.0000      -5.976045      -162.6165
 105   2.0000      -5.968911      -162.4223
 106   2.0000      -2.739477       -74.5449
 107   2.0000      -2.735412       -74.4343
 108   2.0000      -2.735275       -74.4306
 109   2.0000      -2.723741       -74.1168
 110   2.0000      -2.723718       -74.1161
 111   2.0000      -1.199714       -32.6459
 112   2.0000      -1.162725       -31.6394
 113   2.0000      -1.123066       -30.5602
 114   2.0000      -1.086234       -29.5579
 115   2.0000      -1.014036       -27.5933
 116   2.0000      -1.004547       -27.3351
 117   2.0000      -0.993785       -27.0423
 118   2.0000      -0.988342       -26.8942
 119   2.0000      -0.984471       -26.7888
 120   2.0000      -0.982670       -26.7398
 121   2.0000      -0.979510       -26.6538
 122   2.0000      -0.973574       -26.4923
 123   2.0000      -0.968450       -26.3529
 124   2.0000      -0.964949       -26.2576
 125   2.0000      -0.935184       -25.4476
 126   2.0000      -0.925762       -25.1913
 127   2.0000      -0.917421       -24.9643
 128   2.0000      -0.910949       -24.7882
 129   2.0000      -0.899727       -24.4828
 130   2.0000      -0.892844       -24.2955
 131   2.0000      -0.884270       -24.0622
 132   2.0000      -0.877432       -23.8761
 133   2.0000      -0.875877       -23.8338
 134   2.0000      -0.867978       -23.6189
 135   2.0000      -0.857360       -23.3300
 136   2.0000      -0.851632       -23.1741
 137   2.0000      -0.840208       -22.8632
 138   2.0000      -0.837075       -22.7780
 139   2.0000      -0.832547       -22.6548
 140   2.0000      -0.826100       -22.4793
 141   2.0000      -0.824811       -22.4442
 142   2.0000      -0.821073       -22.3425
 143   2.0000      -0.817115       -22.2348
 144   2.0000      -0.812965       -22.1219
 145   2.0000      -0.808250       -21.9936
 146   2.0000      -0.803917       -21.8757
 147   2.0000      -0.788107       -21.4455
 148   2.0000      -0.776723       -21.1357
 149   2.0000      -0.771541       -20.9947
 150   2.0000      -0.755274       -20.5521
 151   2.0000      -0.750152       -20.4127
 152   2.0000      -0.736398       -20.0384
 153   2.0000      -0.722495       -19.6601
 154   2.0000      -0.708996       -19.2928
 155   2.0000      -0.704350       -19.1663
 156   2.0000      -0.697746       -18.9866
 157   2.0000      -0.690110       -18.7789
 158   2.0000      -0.685962       -18.6660
 159   2.0000      -0.683237       -18.5918
 160   2.0000      -0.679981       -18.5032
 161   2.0000      -0.675295       -18.3757
 162   2.0000      -0.672348       -18.2955
 163   2.0000      -0.666992       -18.1498
 164   2.0000      -0.655902       -17.8480
 165   2.0000      -0.650503       -17.7011
 166   2.0000      -0.648488       -17.6463
 167   2.0000      -0.636241       -17.3130
 168   2.0000      -0.633473       -17.2377
 169   2.0000      -0.621322       -16.9070
 170   2.0000      -0.618523       -16.8309
 171   2.0000      -0.614445       -16.7199
 172   2.0000      -0.611676       -16.6445
 173   2.0000      -0.608591       -16.5606
 174   2.0000      -0.603235       -16.4149
 175   2.0000      -0.600681       -16.3454
 176   2.0000      -0.594692       -16.1824
 177   2.0000      -0.593414       -16.1476
 178   2.0000      -0.590197       -16.0601
 179   2.0000      -0.583347       -15.8737
 180   2.0000      -0.578149       -15.7322
 181   2.0000      -0.572872       -15.5886
 182   2.0000      -0.565430       -15.3861
 183   2.0000      -0.558480       -15.1970
 184   2.0000      -0.552109       -15.0236
 185   2.0000      -0.547622       -14.9016
 186   2.0000      -0.545870       -14.8539
 187   2.0000      -0.543205       -14.7814
 188   2.0000      -0.536135       -14.5890
 189   2.0000      -0.535883       -14.5821
 190   2.0000      -0.531915       -14.4741
 191   2.0000      -0.530705       -14.4412
 192   2.0000      -0.529054       -14.3963
 193   2.0000      -0.523911       -14.2564
 194   2.0000      -0.520169       -14.1545
 195   2.0000      -0.518237       -14.1019
 196   2.0000      -0.512475       -13.9452
 197   2.0000      -0.509091       -13.8531
 198   2.0000      -0.508574       -13.8390
 199   2.0000      -0.505552       -13.7568
 200   2.0000      -0.501878       -13.6568
 201   2.0000      -0.501619       -13.6497
 202   2.0000      -0.501288       -13.6407
 203   2.0000      -0.498292       -13.5592
 204   2.0000      -0.494861       -13.4659
 205   2.0000      -0.492209       -13.3937
 206   2.0000      -0.488331       -13.2882
 207   2.0000      -0.487971       -13.2784
 208   2.0000      -0.485469       -13.2103
 209   2.0000      -0.484315       -13.1789
 210   2.0000      -0.484079       -13.1725
 211   2.0000      -0.481421       -13.1001
 212   2.0000      -0.480466       -13.0741
 213   2.0000      -0.478271       -13.0144
 214   2.0000      -0.477124       -12.9832
 215   2.0000      -0.473311       -12.8794
 216   2.0000      -0.469402       -12.7731
 217   2.0000      -0.465025       -12.6540
 218   2.0000      -0.463870       -12.6225
 219   2.0000      -0.462978       -12.5983
 220   2.0000      -0.455737       -12.4012
 221   2.0000      -0.450833       -12.2678
 222   2.0000      -0.450432       -12.2569
 223   2.0000      -0.450020       -12.2457
 224   2.0000      -0.448081       -12.1929
 225   2.0000      -0.444923       -12.1070
 226   2.0000      -0.440907       -11.9977
 227   2.0000      -0.440389       -11.9836
 228   2.0000      -0.438974       -11.9451
 229   2.0000      -0.434105       -11.8126
 230   2.0000      -0.432765       -11.7761
 231   2.0000      -0.431557       -11.7433
 232   2.0000      -0.431097       -11.7307
 233   2.0000      -0.425937       -11.5903
 234   2.0000      -0.423546       -11.5253
 235   2.0000      -0.418854       -11.3976
 236   2.0000      -0.417830       -11.3697
 237   2.0000      -0.414361       -11.2753
 238   2.0000      -0.413979       -11.2649
 239   2.0000      -0.409747       -11.1498
 240   2.0000      -0.408433       -11.1140
 241   2.0000      -0.407430       -11.0867
 242   2.0000      -0.401198       -10.9172
 243   2.0000      -0.397013       -10.8033
 244   2.0000      -0.395502       -10.7622
 245   2.0000      -0.392972       -10.6933
 246   2.0000      -0.390165       -10.6169
 247   2.0000      -0.386273       -10.5110
 248   2.0000      -0.382476       -10.4077
 249   2.0000      -0.381390       -10.3782
 250   2.0000      -0.379108       -10.3161
 251   2.0000      -0.369757       -10.0616
 252   2.0000      -0.368297       -10.0219
 253   2.0000      -0.354789        -9.6543
 254   2.0000      -0.340786        -9.2733
 255   2.0000      -0.332529        -9.0486
 256   2.0000      -0.329098        -8.9552
 257   2.0000      -0.325269        -8.8510
 258   2.0000      -0.322549        -8.7770
 259   2.0000      -0.315211        -8.5773
 260   2.0000      -0.313558        -8.5323
 261   2.0000      -0.306677        -8.3451
 262   2.0000      -0.301727        -8.2104
 263   2.0000      -0.299716        -8.1557
 264   2.0000      -0.299057        -8.1377
 265   2.0000      -0.286736        -7.8025
 266   2.0000      -0.279791        -7.6135
 267   2.0000      -0.274554        -7.4710
 268   2.0000      -0.258865        -7.0441
 269   2.0000      -0.231085        -6.2881
 270   2.0000      -0.199209        -5.4208
 271   0.0000      -0.089531        -2.4363
 272   0.0000      -0.070853        -1.9280
 273   0.0000      -0.053984        -1.4690
 274   0.0000      -0.033362        -0.9078
 275   0.0000      -0.012862        -0.3500

MULLIKEN ATOMIC CHARGES
-----------------------
   0 C :   -0.030097
   1 C :   -0.063493
   2 C :    0.051148
   3 C :    0.027912
   4 C :   -0.070861
   5 S :    0.076870
   6 C :   -0.046080
   7 C :    0.034558
   8 C :    0.018115
   9 C :    0.000690
  10 S :    0.107683
  11 C :   -0.089880
  12 C :    0.190795
  13 C :    0.166341
  14 O :   -0.258404
  15 C :    0.226243
  16 C :    0.225635
  17 C :   -0.171696
  18 S :    0.107121
  19 C :   -0.177289
  20 O :   -0.276989
  21 C :   -0.078133
  22 C :    0.023836
  23 C :   -0.033464
  24 C :   -0.081955
  25 C :    0.137207
  26 C :   -0.115389
  27 S :    0.107342
  28 C :   -0.112034
  29 C :    0.130929
  30 N :   -0.019563
  31 C :   -0.072050
  32 C :   -0.056317
  33 S :    0.132989
  34 C :    0.026800
  35 C :   -0.039867
  36 C :   -0.052628
  37 S :    0.164196
  38 C :   -0.084048
  39 C :   -0.076955
  40 C :    0.024756
  41 C :   -0.153437
  42 S :   -0.030196
  43 C :    0.086924
  44 C :    0.030348
  45 C :    0.114922
  46 C :   -0.048720
  47 C :   -0.100507
  48 C :    0.321251
  49 C :   -0.362759
  50 C :   -0.188306
  51 N :    0.142313
  52 C :   -0.184016
  53 N :    0.130127
  54 C :    0.010075
  55 C :   -0.007395
  56 C :    0.150042
  57 O :   -0.181713
  58 C :   -0.078550
  59 C :    0.117664
  60 C :   -0.091995
  61 C :   -0.022949
  62 S :    0.181487
  63 C :   -0.122617
  64 C :    0.036503
  65 Br:    0.016888
  66 H :    0.018272
  67 H :    0.020645
  68 H :   -0.012769
  69 H :   -0.012390
  70 H :   -0.017151
  71 H :   -0.014517
  72 H :   -0.017490
  73 H :    0.028612
  74 H :    0.021486
  75 H :    0.001411
  76 H :   -0.002992
  77 H :   -0.028588
  78 H :    0.124538
  79 H :   -0.023781
  80 H :    0.006764
  81 H :    0.004442
  82 H :    0.048300
  83 H :    0.047749
  84 H :    0.011293
  85 H :    0.003208
  86 H :    0.009839
  87 H :    0.009996
  88 H :    0.026832
  89 H :    0.041914
  90 H :   -0.007093
  91 H :   -0.014098
  92 H :   -0.008095
  93 H :   -0.005693
Sum of atomic charges:   -0.0000000

LOEWDIN ATOMIC CHARGES
----------------------
   0 C :   -0.078336
   1 C :   -0.139086
   2 C :   -0.033109
   3 C :   -0.027130
   4 C :   -0.176174
   5 S :    0.349616
   6 C :   -0.189167
   7 C :   -0.028158
   8 C :   -0.039163
   9 C :   -0.136060
  10 S :    0.389433
  11 C :   -0.081858
  12 C :    0.027478
  13 C :    0.018900
  14 O :   -0.054644
  15 C :   -0.006453
  16 C :   -0.007594
  17 C :   -0.207052
  18 S :    0.434562
  19 C :   -0.213951
  20 O :   -0.056681
  21 C :   -0.047520
  22 C :   -0.038733
  23 C :   -0.146623
  24 C :   -0.077255
  25 C :   -0.012689
  26 C :   -0.224170
  27 S :    0.401362
  28 C :   -0.211829
  29 C :   -0.022993
  30 N :    0.060498
  31 C :   -0.059002
  32 C :   -0.165085
  33 S :    0.417583
  34 C :   -0.010481
  35 C :   -0.075136
  36 C :   -0.135777
  37 S :    0.498514
  38 C :   -0.197329
  39 C :   -0.002278
  40 C :   -0.093253
  41 C :   -0.109755
  42 S :    0.170428
  43 C :   -0.043636
  44 C :   -0.024936
  45 C :   -0.027074
  46 C :    0.053023
  47 C :   -0.124070
  48 C :    0.079641
  49 C :   -0.157649
  50 C :   -0.019106
  51 N :   -0.065371
  52 C :   -0.018768
  53 N :   -0.067935
  54 C :   -0.019635
  55 C :   -0.048169
  56 C :    0.080663
  57 O :   -0.172738
  58 C :    0.017575
  59 C :   -0.035170
  60 C :   -0.145665
  61 C :   -0.011269
  62 S :    0.429351
  63 C :   -0.273938
  64 C :   -0.071247
  65 Br:    0.131507
  66 H :    0.028079
  67 H :    0.025697
  68 H :    0.032804
  69 H :    0.031967
  70 H :    0.029953
  71 H :    0.031815
  72 H :    0.036942
  73 H :    0.031116
  74 H :    0.027778
  75 H :    0.024140
  76 H :    0.035712
  77 H :    0.030492
  78 H :    0.092658
  79 H :    0.032538
  80 H :    0.031765
  81 H :    0.012939
  82 H :    0.027814
  83 H :   -0.036493
  84 H :    0.021706
  85 H :    0.024167
  86 H :    0.023699
  87 H :    0.029193
  88 H :    0.041210
  89 H :    0.039084
  90 H :    0.046818
  91 H :    0.039024
  92 H :    0.040523
  93 H :    0.037623

  Mayer bond orders larger than 0.100000
B(  0-C ,  1-C ) :   1.8610 B(  0-C , 66-H ) :   0.9504 B(  0-C , 67-H ) :   0.9419
B(  1-C ,  2-C ) :   1.0817 B(  1-C ,  5-S ) :   1.0081 B(  2-C ,  3-C ) :   1.6566
B(  2-C , 68-H ) :   0.9923 B(  3-C ,  4-C ) :   1.1579 B(  3-C , 69-H ) :   0.9918
B(  4-C ,  5-S ) :   1.0460 B(  4-C ,  6-C ) :   1.5460 B(  6-C ,  7-C ) :   1.1778
B(  6-C , 10-S ) :   1.0148 B(  7-C ,  8-C ) :   1.5980 B(  7-C , 70-H ) :   0.9940
B(  8-C ,  9-C ) :   1.1409 B(  8-C , 71-H ) :   1.0002 B(  9-C , 10-S ) :   1.0471
B(  9-C , 11-C ) :   1.5689 B( 11-C , 12-C ) :   1.2113 B( 11-C , 72-H ) :   0.9543
B( 12-C , 13-C ) :   1.4019 B( 12-C , 20-O ) :   1.0357 B( 13-C , 14-O ) :   1.0580
B( 13-C , 21-C ) :   1.2253 B( 14-O , 15-C ) :   1.0561 B( 15-C , 16-C ) :   1.2099
B( 15-C , 19-C ) :   1.5684 B( 16-C , 17-C ) :   1.5724 B( 16-C , 20-O ) :   1.0320
B( 17-C , 18-S ) :   1.1421 B( 17-C , 73-H ) :   0.9730 B( 18-S , 19-C ) :   1.1395
B( 19-C , 74-H ) :   0.9729 B( 21-C , 22-C ) :   1.6029 B( 21-C , 75-H ) :   0.9474
B( 22-C , 23-C ) :   1.1579 B( 22-C , 76-H ) :   0.9841 B( 23-C , 24-C ) :   1.4425
B( 23-C , 27-S ) :   1.0821 B( 24-C , 25-C ) :   1.2111 B( 24-C , 77-H ) :   1.0231
B( 25-C , 26-C ) :   1.3882 B( 25-C , 30-N ) :   1.1669 B( 26-C , 27-S ) :   1.0284
B( 26-C , 28-C ) :   1.4090 B( 28-C , 29-C ) :   1.3762 B( 28-C , 33-S ) :   1.0403
B( 29-C , 30-N ) :   1.1573 B( 29-C , 31-C ) :   1.2288 B( 30-N , 78-H ) :   0.9364
B( 31-C , 32-C ) :   1.4202 B( 31-C , 79-H ) :   1.0233 B( 32-C , 33-S ) :   1.0787
B( 32-C , 34-C ) :   1.1989 B( 34-C , 35-C ) :   1.5915 B( 34-C , 80-H ) :   0.9751
B( 35-C , 36-C ) :   1.2042 B( 35-C , 81-H ) :   0.9476 B( 36-C , 37-S ) :   1.1320
B( 36-C , 40-C ) :   1.3554 B( 37-S , 38-C ) :   1.0665 B( 38-C , 39-C ) :   1.3434
B( 38-C , 46-C ) :   1.3259 B( 39-C , 40-C ) :   1.4421 B( 39-C , 45-C ) :   1.0563
B( 40-C , 41-C ) :   0.9817 B( 41-C , 42-S ) :   1.0439 B( 41-C , 43-C ) :   1.0285
B( 41-C , 82-H ) :   0.9000 B( 42-S , 83-H ) :   0.9570 B( 43-C , 44-C ) :   1.0786
B( 43-C , 84-H ) :   0.9319 B( 43-C , 85-H ) :   0.9308 B( 44-C , 45-C ) :   1.0811
B( 44-C , 86-H ) :   0.9474 B( 44-C , 87-H ) :   0.9317 B( 45-C , 88-H ) :   0.8997
B( 45-C , 89-H ) :   0.9092 B( 46-C , 47-C ) :   1.4468 B( 46-C , 90-H ) :   0.9315
B( 47-C , 48-C ) :   1.1101 B( 47-C , 56-C ) :   0.9791 B( 48-C , 49-C ) :   1.5926
B( 48-C , 54-C ) :   0.9928 B( 49-C , 50-C ) :   1.1479 B( 49-C , 52-C ) :   1.1544
B( 50-C , 51-N ) :   2.9653 B( 52-C , 53-N ) :   2.9554 B( 54-C , 55-C ) :   1.2771
B( 54-C , 61-C ) :   1.4203 B( 55-C , 56-C ) :   0.9519 B( 55-C , 58-C ) :   1.4298
B( 56-C , 57-O ) :   2.1446 B( 58-C , 59-C ) :   1.2390 B( 58-C , 91-H ) :   1.0165
B( 59-C , 60-C ) :   1.3142 B( 59-C , 64-C ) :   1.1626 B( 60-C , 61-C ) :   1.3226
B( 60-C , 62-S ) :   1.0835 B( 61-C , 92-H ) :   0.9796 B( 62-S , 63-C ) :   1.0866
B( 63-C , 64-C ) :   1.6179 B( 63-C , 65-Br) :   1.0145 B( 64-C , 93-H ) :   1.0005

-----------------------------------------------------------------------------
         ABSORPTION SPECTRUM VIA TRANSITION ELECTRIC DIPOLE MOMENTS
-----------------------------------------------------------------------------
State   Energy  Wavelength   fosc         T2         TX        TY        TZ
        (cm-1)    (nm)                  (au**2)     (au)      (au)      (au)
-----------------------------------------------------------------------------
   0   12798.3    781.4   2.374958950  61.09134   4.64819   4.90017  -3.93370
   1   16636.0    601.1   0.631861209  12.50396   2.91250  -1.95648  -0.43987
   2   18957.7    527.5   0.339430616   5.89442  -0.23883  -2.01852   1.32776
   3   22153.3    451.4   0.064470991   0.95808   0.10045  -0.94340   0.24082
   4   22746.3    439.6   0.074862701   1.08350  -0.64807  -0.29929   0.75758
   5   24776.1    403.6   0.162510457   2.15936   0.22145  -1.37813  -0.45944
   6   25725.0    388.7   0.072431425   0.92693   0.55109   0.29168  -0.73359
   7   26507.0    377.3   0.040951097   0.50861  -0.45947  -0.28103  -0.46745
   8   27227.4    367.3   0.002094813   0.02533   0.15502   0.03597  -0.00190
   9   27678.9    361.3   0.043130019   0.51299  -0.25095   0.36289   0.56420
  10   28346.0    352.8   0.030550508   0.35482   0.24443   0.31159   0.44495
  11   28597.5    349.7   0.295732175   3.40445   0.31897   0.43407   1.76474
  12   28848.9    346.6   0.154216432   1.75986  -0.31529  -1.22471  -0.40067
  13   29547.9    338.4   0.006757022   0.07528   0.06301   0.12180   0.23765
  14   30258.3    330.5   0.004273558   0.04650  -0.02988  -0.03450  -0.21075
  15   30777.9    324.9   0.045078225   0.48217  -0.07412  -0.53770  -0.43308
  16   31286.5    319.6   0.004508112   0.04744   0.05165  -0.01773   0.21084
  17   31440.4    318.1   0.094612667   0.99069  -0.08735   0.75465   0.64309
  18   31920.2    313.3   0.003558377   0.03670  -0.13085  -0.12871  -0.05489
  19   32081.1    311.7   0.103308536   1.06014  -0.53886  -0.53048   0.69882
  20   32301.9    309.6   0.050675624   0.51647   0.24665   0.54575   0.39723
  21   32850.4    304.4   0.009207077   0.09227  -0.11864   0.24963   0.12601
  22   33017.7    302.9   0.022729798   0.22663   0.45130   0.15067  -0.01604
  23   33283.4    300.4   0.289860086   2.86705   0.51694   1.45806   0.68839
  24   33598.4    297.6   0.407147496   3.98940  -0.22715   0.65984   1.87147
  25   33692.5    296.8   0.163269399   1.59532  -0.20357  -1.14600  -0.49048
  26   34560.7    289.3   0.231132068   2.20167  -0.37994   0.69230   1.25620
  27   35080.6    285.1   0.059848543   0.56164   0.07626   0.74373  -0.05189
  28   35828.2    279.1   0.027516315   0.25284  -0.07142  -0.38231  -0.31871
  29   35944.3    278.2   0.011050938   0.10121   0.05465   0.26225   0.17162
  30   36791.1    271.8   0.084329314   0.75459  -0.37620   0.47421   0.62305
  31   37144.6    269.2   0.060185100   0.53342  -0.14648  -0.32682   0.63652
  32   37810.0    264.5   0.032251414   0.28081   0.39108   0.24917  -0.25648
  33   38208.0    261.7   0.035354139   0.30462   0.25125  -0.38373   0.30700
  34   38399.4    260.4   0.013810041   0.11840  -0.24515  -0.00939   0.24127
  35   38630.1    258.9   0.054326816   0.46298   0.45159   0.17693  -0.47722
  36   38672.1    258.6   0.002267961   0.01931  -0.13041   0.04518  -0.01612
  37   39013.6    256.3   0.054735216   0.46188  -0.46520   0.46768   0.16355
  38   39301.6    254.4   0.019645501   0.16456   0.01240  -0.20503  -0.34981
  39   39490.0    253.2   0.036435636   0.30375  -0.30052  -0.44524   0.12330
  40   39851.5    250.9   0.005844928   0.04828   0.08057  -0.17980  -0.09728
  41   40172.8    248.9   0.108098371   0.88585  -0.36290  -0.84833   0.18573
  42   40266.0    248.3   0.114637919   0.93727   0.24025   0.86626   0.35937

FINAL SINGLE POINT ENERGY     -8105.633505408043

DIPOLE MOMENT
-------------
                                X             Y             Z
Electronic contribution:    -50.85654     -65.88315     169.72317
Nuclear contribution   :     51.56490      69.14432    -170.49513
                        -----------------------------------------
Total Dipole Moment    :      0.70836       3.26118      -0.77196
                        -----------------------------------------
Magnitude (a.u.)       :      3.42534
Magnitude (Debye)      :      8.70653

Rotational constants in cm-1:     0.001170     0.000170     0.000162
Rotational constants in MHz :    35.066711     5.108647     4.855205

                             ****ORCA TERMINATED NORMALLY****
TOTAL RUN TIME: 0 days 0 hours 16 minutes 5 seconds 584 msec
