                         Program Version 4.2.0 -  RELEASE  -
|  1> # ORCA input file
|  2> # SCF done       -130.188737891637          0.000486111970
|  3> ! CAM-B3LYP def2-SVP def2/J RIJCOSX Grid4 TightSCF
|  4> %maxcore 5000
|  5> %tddft
|  6>     Mode sTDDFT
|  7>     Ethresh 5.0
|  8>     maxcore 5000
|  9> end
| 10>
| 11> %pal
| 12>   nprocs 6
| 13>   end
| 14> * xyz 0 1
| 15>    C        2.49938       -11.55784        -7.87850
| 16>    C        1.63843       -12.12977        -8.73047
| 17>    C        1.94848       -12.93362        -9.88177
| 18>    C        0.86867       -13.36163       -10.56948
| 19>    C       -0.38139       -12.94027       -10.02655
| 20>    S       -0.12228       -11.97123        -8.58596
| 21>    C       -1.63939       -13.21539       -10.49523
| 22>    C       -1.99496       -13.98826       -11.63335
| 23>    C       -3.33291       -14.09662       -11.81681
| 24>    C       -4.11378       -13.41814       -10.83470
| 25>    S       -3.08521       -12.61129        -9.67871
| 26>    C       -5.46974       -13.37879       -10.72890
| 27>    C       -6.09935       -12.67614        -9.65594
| 28>    N       -7.43245       -12.75226        -9.53786
| 29>    C       -7.97103       -12.13370        -8.50736
| 30>    C       -7.22099       -11.42626        -7.57813
| 31>    C       -5.83843       -11.36094        -7.79445
| 32>    N       -5.29896       -11.99449        -8.83207
| 33>    C       -4.97928       -10.59763        -6.90689
| 34>    C       -3.72269       -10.26270        -7.21911
| 35>    C       -2.84140        -9.49590        -6.35766
| 36>    N       -3.25502        -9.15593        -5.13343
| 37>    C       -2.39968        -8.48019        -4.38565
| 38>    C       -1.13642        -8.12480        -4.82521
| 39>    C       -0.79393        -8.50545        -6.13136
| 40>    N       -1.66061        -9.19253        -6.87757
| 41>    C        0.48382        -8.17901        -6.71749
| 42>    C        0.78307        -8.51934        -7.98673
| 43>    C        2.01313        -8.26022        -8.64638
| 44>    S        3.32386        -7.42783        -7.86476
| 45>    C        4.32816        -7.56030        -9.28347
| 46>    C        3.67077        -8.25311       -10.28867
| 47>    C        2.36187        -8.62239        -9.93799
| 48>    C        1.44303        -9.33783       -10.87363
| 49>    C        1.99130        -9.41915       -12.30171
| 50>    C        1.15127       -10.41890       -13.09324
| 51>    C        3.47844        -9.79402       -12.25054
| 52>    C        4.06790       -10.08887       -13.62744
| 53>    C        4.26038        -8.64520       -11.60341
| 54>    C        5.60604        -6.93380        -9.22894
| 55>    C        6.45226        -6.68978       -10.24816
| 56>    C        7.70096        -5.98722       -10.05559
| 57>    N        8.44592        -5.79534       -11.15004
| 58>    C        9.57787        -5.13513       -10.99483
| 59>    C        9.99932        -4.64705        -9.76898
| 60>    C        9.16153        -4.89727        -8.67539
| 61>    N        8.02548        -5.56885        -8.83388
| 62>    C        9.43853        -4.46175        -7.30990
| 63>    C       10.47390        -3.72968        -6.92028
| 64>    H        3.56148       -11.67160        -8.00726
| 65>    H        2.15974       -10.97001        -7.04577
| 66>    H        2.97036       -13.15355       -10.13744
| 67>    H        0.91439       -13.97413       -11.45307
| 68>    H       -1.25873       -14.44202       -12.27388
| 69>    H       -3.80230       -14.64348       -12.61593
| 70>    H       -6.10243       -13.89675       -11.43092
| 71>    H       -9.04842       -12.21060        -8.42271
| 72>    H       -7.67868       -10.93120        -6.73751
| 73>    H       -5.40785       -10.27433        -5.96855
| 74>    H       -3.29282       -10.55459        -8.16397
| 75>    H       -2.74913        -8.21656        -3.39432
| 76>    H       -0.44923        -7.57693        -4.20070
| 77>    H        1.19444        -7.64852        -6.09797
| 78>    H        0.02845        -9.05057        -8.54969
| 79>    H        0.46862        -8.84338       -10.88080
| 80>    H        1.28542       -10.35328       -10.50207
| 81>    H        1.90318        -8.43440       -12.77461
| 82>    H        1.32008       -11.42932       -12.72539
| 83>    H        1.39129       -10.38630       -14.15207
| 84>    H        0.09384       -10.18895       -12.97932
| 85>    H        3.58379       -10.68641       -11.62245
| 86>    H        3.87243        -9.26435       -14.31007
| 87>    H        3.64748       -10.99694       -14.04965
| 88>    H        5.14544       -10.22022       -13.55163
| 89>    H        4.25370        -7.78476       -12.28078
| 90>    H        5.30094        -8.94502       -11.45920
| 91>    H        5.90563        -6.57667        -8.25139
| 92>    H        6.24705        -6.96296       -11.26904
| 93>    H       10.16676        -4.99239       -11.89330
| 94>    H       10.92563        -4.10733        -9.67059
| 95>    H        8.69305        -4.78673        -6.59709
| 96>    H       11.23166        -3.38101        -7.60176
| 97>    H       10.60145        -3.44518        -5.88985
| 98> *
| 99>
|100>                          ****END OF INPUT****

CARTESIAN COORDINATES (ANGSTROEM)
---------------------------------
  C      2.499380  -11.557840   -7.878500
  C      1.638430  -12.129770   -8.730470
  C      1.948480  -12.933620   -9.881770
  C      0.868670  -13.361630  -10.569480
  C     -0.381390  -12.940270  -10.026550
  S     -0.122280  -11.971230   -8.585960
  C     -1.639390  -13.215390  -10.495230
  C     -1.994960  -13.988260  -11.633350
  C     -3.332910  -14.096620  -11.816810
  C     -4.113780  -13.418140  -10.834700
  S     -3.085210  -12.611290   -9.678710
  C     -5.469740  -13.378790  -10.728900
  C     -6.099350  -12.676140   -9.655940
  N     -7.432450  -12.752260   -9.537860
  C     -7.971030  -12.133700   -8.507360
  C     -7.220990  -11.426260   -7.578130
  C     -5.838430  -11.360940   -7.794450
  N     -5.298960  -11.994490   -8.832070
  C     -4.979280  -10.597630   -6.906890
  C     -3.722690  -10.262700   -7.219110
  C     -2.841400   -9.495900   -6.357660
  N     -3.255020   -9.155930   -5.133430
  C     -2.399680   -8.480190   -4.385650
  C     -1.136420   -8.124800   -4.825210
  C     -0.793930   -8.505450   -6.131360
  N     -1.660610   -9.192530   -6.877570
  C      0.483820   -8.179010   -6.717490
  C      0.783070   -8.519340   -7.986730
  C      2.013130   -8.260220   -8.646380
  S      3.323860   -7.427830   -7.864760
  C      4.328160   -7.560300   -9.283470
  C      3.670770   -8.253110  -10.288670
  C      2.361870   -8.622390   -9.937990
  C      1.443030   -9.337830  -10.873630
  C      1.991300   -9.419150  -12.301710
  C      1.151270  -10.418900  -13.093240
  C      3.478440   -9.794020  -12.250540
  C      4.067900  -10.088870  -13.627440
  C      4.260380   -8.645200  -11.603410
  C      5.606040   -6.933800   -9.228940
  C      6.452260   -6.689780  -10.248160
  C      7.700960   -5.987220  -10.055590
  N      8.445920   -5.795340  -11.150040
  C      9.577870   -5.135130  -10.994830
  C      9.999320   -4.647050   -9.768980
  C      9.161530   -4.897270   -8.675390
  N      8.025480   -5.568850   -8.833880
  C      9.438530   -4.461750   -7.309900
  C     10.473900   -3.729680   -6.920280
  H      3.561480  -11.671600   -8.007260
  H      2.159740  -10.970010   -7.045770
  H      2.970360  -13.153550  -10.137440
  H      0.914390  -13.974130  -11.453070
  H     -1.258730  -14.442020  -12.273880
  H     -3.802300  -14.643480  -12.615930
  H     -6.102430  -13.896750  -11.430920
  H     -9.048420  -12.210600   -8.422710
  H     -7.678680  -10.931200   -6.737510
  H     -5.407850  -10.274330   -5.968550
  H     -3.292820  -10.554590   -8.163970
  H     -2.749130   -8.216560   -3.394320
  H     -0.449230   -7.576930   -4.200700
  H      1.194440   -7.648520   -6.097970
  H      0.028450   -9.050570   -8.549690
  H      0.468620   -8.843380  -10.880800
  H      1.285420  -10.353280  -10.502070
  H      1.903180   -8.434400  -12.774610
  H      1.320080  -11.429320  -12.725390
  H      1.391290  -10.386300  -14.152070
  H      0.093840  -10.188950  -12.979320
  H      3.583790  -10.686410  -11.622450
  H      3.872430   -9.264350  -14.310070
  H      3.647480  -10.996940  -14.049650
  H      5.145440  -10.220220  -13.551630
  H      4.253700   -7.784760  -12.280780
  H      5.300940   -8.945020  -11.459200
  H      5.905630   -6.576670   -8.251390
  H      6.247050   -6.962960  -11.269040
  H     10.166760   -4.992390  -11.893300
  H     10.925630   -4.107330   -9.670590
  H      8.693050   -4.786730   -6.597090
  H     11.231660   -3.381010   -7.601760
  H     10.601450   -3.445180   -5.889850

 Total Charge           Charge          ....    0
 Multiplicity           Mult            ....    1
 Number of Electrons    NEL             ....  364
 Basis Dimension        Dim             ....  868

ORBITAL ENERGIES
----------------

  NO   OCC          E(Eh)            E(eV)
   0   2.0000     -88.942000     -2420.2349
   1   2.0000     -88.932603     -2419.9792
   2   2.0000     -88.928056     -2419.8554
   3   2.0000     -14.399287      -391.8245
   4   2.0000     -14.396876      -391.7589
   5   2.0000     -14.395324      -391.7167
   6   2.0000     -14.394350      -391.6902
   7   2.0000     -14.393208      -391.6591
   8   2.0000     -14.390564      -391.5871
   9   2.0000     -10.331441      -281.1328
  10   2.0000     -10.328042      -281.0403
  11   2.0000     -10.325941      -280.9832
  12   2.0000     -10.321290      -280.8566
  13   2.0000     -10.315490      -280.6987
  14   2.0000     -10.315443      -280.6975
  15   2.0000     -10.311765      -280.5974
  16   2.0000     -10.309075      -280.5242
  17   2.0000     -10.305414      -280.4246
  18   2.0000     -10.303472      -280.3717
  19   2.0000     -10.300906      -280.3019
  20   2.0000     -10.296368      -280.1784
  21   2.0000     -10.291134      -280.0360
  22   2.0000     -10.286259      -279.9034
  23   2.0000     -10.285486      -279.8823
  24   2.0000     -10.285437      -279.8810
  25   2.0000     -10.282593      -279.8036
  26   2.0000     -10.278889      -279.7028
  27   2.0000     -10.276356      -279.6339
  28   2.0000     -10.276195      -279.6295
  29   2.0000     -10.275774      -279.6180
  30   2.0000     -10.275507      -279.6108
  31   2.0000     -10.274297      -279.5778
  32   2.0000     -10.273008      -279.5428
  33   2.0000     -10.272151      -279.5194
  34   2.0000     -10.268552      -279.4215
  35   2.0000     -10.268059      -279.4081
  36   2.0000     -10.267923      -279.4044
  37   2.0000     -10.265733      -279.3448
  38   2.0000     -10.264074      -279.2997
  39   2.0000     -10.263853      -279.2936
  40   2.0000     -10.261117      -279.2192
  41   2.0000     -10.261028      -279.2168
  42   2.0000     -10.260176      -279.1936
  43   2.0000     -10.259739      -279.1817
  44   2.0000     -10.259086      -279.1639
  45   2.0000     -10.255165      -279.0572
  46   2.0000     -10.254060      -279.0272
  47   2.0000     -10.248831      -278.8849
  48   2.0000     -10.245304      -278.7889
  49   2.0000      -8.037565      -218.7133
  50   2.0000      -8.028293      -218.4610
  51   2.0000      -8.021235      -218.2689
  52   2.0000      -6.006616      -163.4483
  53   2.0000      -6.002858      -163.3461
  54   2.0000      -5.999810      -163.2631
  55   2.0000      -5.998124      -163.2172
  56   2.0000      -5.994165      -163.1095
  57   2.0000      -5.991430      -163.0351
  58   2.0000      -5.988933      -162.9671
  59   2.0000      -5.986642      -162.9048
  60   2.0000      -5.982251      -162.7853
  61   2.0000      -1.072326       -29.1795
  62   2.0000      -1.068742       -29.0820
  63   2.0000      -1.067140       -29.0384
  64   2.0000      -0.981829       -26.7169
  65   2.0000      -0.980231       -26.6734
  66   2.0000      -0.970995       -26.4221
  67   2.0000      -0.968224       -26.3467
  68   2.0000      -0.966941       -26.3118
  69   2.0000      -0.957888       -26.0655
  70   2.0000      -0.919493       -25.0207
  71   2.0000      -0.910174       -24.7671
  72   2.0000      -0.904957       -24.6251
  73   2.0000      -0.895213       -24.3600
  74   2.0000      -0.883238       -24.0341
  75   2.0000      -0.867879       -23.6162
  76   2.0000      -0.859410       -23.3857
  77   2.0000      -0.848932       -23.1006
  78   2.0000      -0.840098       -22.8602
  79   2.0000      -0.839381       -22.8407
  80   2.0000      -0.836498       -22.7623
  81   2.0000      -0.830985       -22.6122
  82   2.0000      -0.827026       -22.5045
  83   2.0000      -0.806955       -21.9584
  84   2.0000      -0.797559       -21.7027
  85   2.0000      -0.778714       -21.1899
  86   2.0000      -0.761127       -20.7113
  87   2.0000      -0.757519       -20.6131
  88   2.0000      -0.752831       -20.4856
  89   2.0000      -0.748978       -20.3807
  90   2.0000      -0.740378       -20.1467
  91   2.0000      -0.733056       -19.9475
  92   2.0000      -0.718644       -19.5553
  93   2.0000      -0.708786       -19.2870
  94   2.0000      -0.693524       -18.8717
  95   2.0000      -0.689282       -18.7563
  96   2.0000      -0.684222       -18.6186
  97   2.0000      -0.669129       -18.2079
  98   2.0000      -0.660546       -17.9744
  99   2.0000      -0.645284       -17.5591
 100   2.0000      -0.639872       -17.4118
 101   2.0000      -0.631921       -17.1954
 102   2.0000      -0.628802       -17.1106
 103   2.0000      -0.620994       -16.8981
 104   2.0000      -0.615952       -16.7609
 105   2.0000      -0.609490       -16.5851
 106   2.0000      -0.606178       -16.4949
 107   2.0000      -0.599035       -16.3006
 108   2.0000      -0.593868       -16.1600
 109   2.0000      -0.590357       -16.0644
 110   2.0000      -0.580730       -15.8025
 111   2.0000      -0.575006       -15.6467
 112   2.0000      -0.567336       -15.4380
 113   2.0000      -0.561570       -15.2811
 114   2.0000      -0.554981       -15.1018
 115   2.0000      -0.544422       -14.8145
 116   2.0000      -0.538584       -14.6556
 117   2.0000      -0.535207       -14.5637
 118   2.0000      -0.530124       -14.4254
 119   2.0000      -0.528455       -14.3800
 120   2.0000      -0.525315       -14.2945
 121   2.0000      -0.523117       -14.2347
 122   2.0000      -0.516876       -14.0649
 123   2.0000      -0.515169       -14.0185
 124   2.0000      -0.514017       -13.9871
 125   2.0000      -0.509768       -13.8715
 126   2.0000      -0.507661       -13.8142
 127   2.0000      -0.503835       -13.7100
 128   2.0000      -0.500548       -13.6206
 129   2.0000      -0.499374       -13.5887
 130   2.0000      -0.495581       -13.4854
 131   2.0000      -0.495336       -13.4788
 132   2.0000      -0.490353       -13.3432
 133   2.0000      -0.484495       -13.1838
 134   2.0000      -0.483194       -13.1484
 135   2.0000      -0.480709       -13.0808
 136   2.0000      -0.475330       -12.9344
 137   2.0000      -0.473745       -12.8912
 138   2.0000      -0.469075       -12.7642
 139   2.0000      -0.467285       -12.7155
 140   2.0000      -0.461169       -12.5490
 141   2.0000      -0.455798       -12.4029
 142   2.0000      -0.451285       -12.2801
 143   2.0000      -0.449917       -12.2429
 144   2.0000      -0.447846       -12.1865
 145   2.0000      -0.445470       -12.1218
 146   2.0000      -0.441950       -12.0261
 147   2.0000      -0.436824       -11.8866
 148   2.0000      -0.432917       -11.7803
 149   2.0000      -0.432346       -11.7647
 150   2.0000      -0.430130       -11.7044
 151   2.0000      -0.420018       -11.4293
 152   2.0000      -0.417960       -11.3733
 153   2.0000      -0.415547       -11.3076
 154   2.0000      -0.412886       -11.2352
 155   2.0000      -0.409858       -11.1528
 156   2.0000      -0.403256       -10.9732
 157   2.0000      -0.398517       -10.8442
 158   2.0000      -0.391611       -10.6563
 159   2.0000      -0.389504       -10.5990
 160   2.0000      -0.386459       -10.5161
 161   2.0000      -0.381704       -10.3867
 162   2.0000      -0.376812       -10.2536
 163   2.0000      -0.370086       -10.0706
 164   2.0000      -0.369142       -10.0449
 165   2.0000      -0.368639       -10.0312
 166   2.0000      -0.363834        -9.9004
 167   2.0000      -0.356771        -9.7082
 168   2.0000      -0.353701        -9.6247
 169   2.0000      -0.346509        -9.4290
 170   2.0000      -0.330821        -9.0021
 171   2.0000      -0.326999        -8.8981
 172   2.0000      -0.314826        -8.5668
 173   2.0000      -0.312571        -8.5055
 174   2.0000      -0.311015        -8.4632
 175   2.0000      -0.306862        -8.3501
 176   2.0000      -0.300810        -8.1855
 177   2.0000      -0.298900        -8.1335
 178   2.0000      -0.297482        -8.0949
 179   2.0000      -0.285920        -7.7803
 180   2.0000      -0.243466        -6.6251
 181   2.0000      -0.218895        -5.9564
 182   0.0000      -0.058861        -1.6017
 183   0.0000      -0.053341        -1.4515
 184   0.0000      -0.033295        -0.9060
 185   0.0000      -0.017508        -0.4764
 186   0.0000      -0.004927        -0.1341

MULLIKEN ATOMIC CHARGES
-----------------------
   0 C :    0.005900
   1 C :   -0.108786
   2 C :    0.043743
   3 C :    0.040269
   4 C :   -0.087171
   5 S :    0.098977
   6 C :   -0.031923
   7 C :    0.032074
   8 C :    0.032926
   9 C :    0.026227
  10 S :    0.104214
  11 C :   -0.022772
  12 C :   -0.000214
  13 N :   -0.075536
  14 C :    0.074056
  15 C :   -0.055204
  16 C :    0.082389
  17 N :   -0.139246
  18 C :    0.012825
  19 C :    0.078447
  20 C :   -0.071352
  21 N :   -0.081031
  22 C :    0.080309
  23 C :   -0.051188
  24 C :    0.052016
  25 N :   -0.052449
  26 C :   -0.032930
  27 C :    0.001747
  28 C :   -0.083250
  29 S :    0.105706
  30 C :   -0.113861
  31 C :   -0.067402
  32 C :   -0.063615
  33 C :    0.198635
  34 C :   -0.128952
  35 C :    0.093507
  36 C :   -0.127408
  37 C :    0.096636
  38 C :    0.157943
  39 C :    0.071997
  40 C :    0.006558
  41 C :   -0.070824
  42 N :   -0.072103
  43 C :    0.073365
  44 C :   -0.056500
  45 C :    0.033927
  46 N :   -0.066448
  47 C :    0.031877
  48 C :   -0.001835
  49 H :    0.020150
  50 H :    0.026248
  51 H :   -0.009707
  52 H :   -0.008883
  53 H :   -0.020884
  54 H :   -0.015106
  55 H :   -0.023066
  56 H :    0.002419
  57 H :   -0.009476
  58 H :   -0.002762
  59 H :   -0.000009
  60 H :    0.000348
  61 H :   -0.011400
  62 H :   -0.021976
  63 H :    0.028566
  64 H :    0.016542
  65 H :    0.011406
  66 H :   -0.012790
  67 H :   -0.003770
  68 H :    0.007283
  69 H :    0.009597
  70 H :   -0.013685
  71 H :    0.001830
  72 H :    0.007756
  73 H :    0.003260
  74 H :    0.014656
  75 H :    0.014397
  76 H :   -0.001757
  77 H :   -0.020000
  78 H :    0.002380
  79 H :   -0.013469
  80 H :   -0.003869
  81 H :    0.018627
  82 H :    0.032875
Sum of atomic charges:   -0.0000000

LOEWDIN ATOMIC CHARGES
----------------------
   0 C :   -0.061239
   1 C :   -0.150350
   2 C :   -0.033309
   3 C :   -0.028932
   4 C :   -0.171086
   5 S :    0.377336
   6 C :   -0.198427
   7 C :   -0.023604
   8 C :   -0.038353
   9 C :   -0.117233
  10 S :    0.428502
  11 C :   -0.087993
  12 C :    0.029027
  13 N :   -0.097007
  14 C :    0.046290
  15 C :   -0.074878
  16 C :    0.040805
  17 N :   -0.111286
  18 C :   -0.012494
  19 C :    0.001238
  20 C :    0.026298
  21 N :   -0.098912
  22 C :    0.047823
  23 C :   -0.072009
  24 C :    0.037014
  25 N :   -0.086839
  26 C :   -0.066587
  27 C :    0.007996
  28 C :   -0.182111
  29 S :    0.428252
  30 C :   -0.169019
  31 C :   -0.048874
  32 C :   -0.034746
  33 C :   -0.022764
  34 C :   -0.025123
  35 C :   -0.048931
  36 C :   -0.028097
  37 C :   -0.047641
  38 C :   -0.022160
  39 C :   -0.007549
  40 C :   -0.047942
  41 C :    0.030429
  42 N :   -0.097781
  43 C :    0.045979
  44 C :   -0.068810
  45 C :    0.035084
  46 N :   -0.089916
  47 C :   -0.026630
  48 C :   -0.019345
  49 H :    0.029407
  50 H :    0.027874
  51 H :    0.031894
  52 H :    0.031450
  53 H :    0.027358
  54 H :    0.032091
  55 H :    0.034062
  56 H :    0.024180
  57 H :    0.031625
  58 H :    0.031412
  59 H :    0.022106
  60 H :    0.024018
  61 H :    0.031148
  62 H :    0.019192
  63 H :    0.033253
  64 H :    0.034795
  65 H :    0.034304
  66 H :    0.017811
  67 H :    0.020231
  68 H :    0.020723
  69 H :    0.026073
  70 H :    0.018487
  71 H :    0.022766
  72 H :    0.021495
  73 H :    0.023381
  74 H :    0.031577
  75 H :    0.031505
  76 H :    0.030061
  77 H :    0.029770
  78 H :    0.024522
  79 H :    0.029741
  80 H :    0.034826
  81 H :    0.022268
  82 H :    0.030500

  Mayer bond orders larger than 0.100000
B(  0-C ,  1-C ) :   1.8731 B(  0-C , 49-H ) :   0.9506 B(  0-C , 50-H ) :   0.9305
B(  1-C ,  2-C ) :   1.0689 B(  1-C ,  5-S ) :   1.0057 B(  2-C ,  3-C ) :   1.6586
B(  2-C , 51-H ) :   0.9922 B(  3-C ,  4-C ) :   1.1432 B(  3-C , 52-H ) :   0.9874
B(  4-C ,  5-S ) :   1.0418 B(  4-C ,  6-C ) :   1.5833 B(  6-C ,  7-C ) :   1.1556
B(  6-C , 10-S ) :   0.9716 B(  7-C ,  8-C ) :   1.6264 B(  7-C , 53-H ) :   0.9936
B(  8-C ,  9-C ) :   1.1149 B(  8-C , 54-H ) :   0.9993 B(  9-C , 10-S ) :   1.0681
B(  9-C , 11-C ) :   1.5691 B( 10-S , 17-N ) :   0.1073 B( 11-C , 12-C ) :   1.0993
B( 11-C , 55-H ) :   0.9824 B( 12-C , 13-N ) :   1.4863 B( 12-C , 17-N ) :   1.4308
B( 13-N , 14-C ) :   1.5722 B( 14-C , 15-C ) :   1.3491 B( 14-C , 56-H ) :   0.9787
B( 15-C , 16-C ) :   1.3454 B( 15-C , 57-H ) :   0.9761 B( 16-C , 17-N ) :   1.4983
B( 16-C , 18-C ) :   1.0368 B( 18-C , 19-C ) :   1.7381 B( 18-C , 58-H ) :   0.9699
B( 19-C , 20-C ) :   1.0124 B( 19-C , 59-H ) :   0.9622 B( 20-C , 21-N ) :   1.5261
B( 20-C , 25-N ) :   1.5497 B( 21-N , 22-C ) :   1.5461 B( 22-C , 23-C ) :   1.3739
B( 22-C , 60-H ) :   0.9801 B( 23-C , 24-C ) :   1.3252 B( 23-C , 61-H ) :   0.9759
B( 24-C , 25-N ) :   1.5047 B( 24-C , 26-C ) :   1.0831 B( 26-C , 27-C ) :   1.6708
B( 26-C , 62-H ) :   0.9784 B( 27-C , 28-C ) :   1.1261 B( 27-C , 63-H ) :   0.9621
B( 28-C , 29-S ) :   1.1003 B( 28-C , 32-C ) :   1.4700 B( 29-S , 30-C ) :   1.1193
B( 30-C , 31-C ) :   1.4894 B( 30-C , 39-C ) :   1.0982 B( 31-C , 32-C ) :   1.3362
B( 31-C , 38-C ) :   1.0500 B( 32-C , 33-C ) :   1.0484 B( 33-C , 34-C ) :   1.0509
B( 33-C , 64-H ) :   0.8980 B( 33-C , 65-H ) :   0.8920 B( 34-C , 35-C ) :   1.0819
B( 34-C , 36-C ) :   1.0094 B( 34-C , 66-H ) :   0.9174 B( 35-C , 67-H ) :   0.9555
B( 35-C , 68-H ) :   0.9549 B( 35-C , 69-H ) :   0.9579 B( 36-C , 37-C ) :   1.0840
B( 36-C , 38-C ) :   1.0511 B( 36-C , 70-H ) :   0.9175 B( 37-C , 71-H ) :   0.9587
B( 37-C , 72-H ) :   0.9576 B( 37-C , 73-H ) :   0.9587 B( 38-C , 74-H ) :   0.8922
B( 38-C , 75-H ) :   0.9121 B( 39-C , 40-C ) :   1.6848 B( 39-C , 76-H ) :   0.9449
B( 40-C , 41-C ) :   1.0395 B( 40-C , 77-H ) :   0.9668 B( 41-C , 42-N ) :   1.5393
B( 41-C , 46-N ) :   1.5240 B( 42-N , 43-C ) :   1.5421 B( 43-C , 44-C ) :   1.3955
B( 43-C , 78-H ) :   0.9785 B( 44-C , 45-C ) :   1.3450 B( 44-C , 79-H ) :   0.9680
B( 45-C , 46-N ) :   1.5145 B( 45-C , 47-C ) :   1.0618 B( 47-C , 48-C ) :   1.9452
B( 47-C , 80-H ) :   0.9620 B( 48-C , 81-H ) :   0.9483 B( 48-C , 82-H ) :   0.9508

-----------------------------------------------------------------------------
         ABSORPTION SPECTRUM VIA TRANSITION ELECTRIC DIPOLE MOMENTS
-----------------------------------------------------------------------------
State   Energy  Wavelength   fosc         T2         TX        TY        TZ
        (cm-1)    (nm)                  (au**2)     (au)      (au)      (au)
-----------------------------------------------------------------------------
   0   20180.8    495.5   0.865070647  14.11203   3.70692   0.26724   0.54714
   1   21252.3    470.5   0.017454242   0.27038  -0.39098  -0.23432   0.25022
   2   23030.4    434.2   0.005186594   0.07414  -0.11170  -0.15249  -0.19598
   3   25602.6    390.6   1.684972745  21.66624  -4.15146  -1.39995   1.57218
   4   26076.6    383.5   0.086909534   1.09722  -0.98558   0.19600   0.29567
   5   30181.1    331.3   0.000563491   0.00615  -0.05516   0.00401  -0.05557
   6   31184.4    320.7   0.038190977   0.40318  -0.55176  -0.24058  -0.20214
   7   31242.4    320.1   0.031991448   0.33710  -0.30699  -0.34098  -0.35580
   8   32238.1    310.2   0.019990318   0.20414   0.20300  -0.02819   0.40266
   9   32454.5    308.1   0.047443635   0.48126  -0.05655  -0.50224  -0.47520
  10   32564.4    307.1   0.045408759   0.45906  -0.28637  -0.29715  -0.53736
  11   32782.0    305.0   0.000312701   0.00314   0.03006  -0.01763   0.04388
  12   33230.5    300.9   0.008217225   0.08141   0.05793   0.09740   0.26185
  13   33985.1    294.2   0.023712326   0.22970   0.08632   0.23355   0.40951
  14   34147.9    292.8   0.002111154   0.02035  -0.09255   0.10168   0.03806
  15   34383.3    290.8   0.000653946   0.00626  -0.01440  -0.04923  -0.06026
  16   34906.5    286.5   0.004958951   0.04677   0.09368  -0.19399   0.01903
  17   35717.5    280.0   0.244314571   2.25187   0.68216   0.79328   1.07575
  18   36119.3    276.9   0.030351447   0.27664  -0.43610  -0.28238   0.08196
  19   36431.2    274.5   0.010064648   0.09095   0.08533   0.26210   0.12236
  20   36724.0    272.3   0.198655567   1.78085  -0.41590   0.70207   1.05592
  21   36759.7    272.0   0.011701688   0.10480  -0.14943   0.27772   0.07307
  22   37363.4    267.6   0.095416698   0.84072   0.20674  -0.39656  -0.80045
  23   37657.4    265.6   0.020496498   0.17919  -0.41175  -0.04614   0.08672
  24   38262.2    261.4   0.072141581   0.62071  -0.28498  -0.36501  -0.63739
  25   39226.4    254.9   0.122181590   1.02542   0.84744   0.37681   0.40654
  26   39335.4    254.2   0.006648599   0.05564   0.18528  -0.06652  -0.12996
  27   39782.1    251.4   0.074588457   0.61725   0.76354   0.18076   0.03977
  28   40303.2    248.1   0.266689148   2.17842   1.26351   0.49527   0.58024

FINAL SINGLE POINT ENERGY     -3064.983026114010

DIPOLE MOMENT
-------------
                                X             Y             Z
Electronic contribution:    -33.50654      -6.94947      24.74640
Nuclear contribution   :     35.38311       7.44220     -24.75574
                        -----------------------------------------
Total Dipole Moment    :      1.87658       0.49273      -0.00934
                        -----------------------------------------
Magnitude (a.u.)       :      1.94021
Magnitude (Debye)      :      4.93162

Rotational constants in cm-1:     0.003687     0.000791     0.000688
Rotational constants in MHz :   110.531014    23.728455    20.632647

                             ****ORCA TERMINATED NORMALLY****
TOTAL RUN TIME: 0 days 0 hours 11 minutes 26 seconds 703 msec
