                         Program Version 4.2.0 -  RELEASE  -
|  1> # ORCA input file
|  2> # SCF done       -134.900620492541          0.000620635987
|  3> ! CAM-B3LYP def2-SVP def2/J RIJCOSX Grid4 TightSCF
|  4> %maxcore 5000
|  5> %tddft
|  6>     Mode sTDDFT
|  7>     Ethresh 5.0
|  8>     maxcore 5000
|  9> end
| 10>
| 11> %pal
| 12>   nprocs 6
| 13>   end
| 14> * xyz 0 1
| 15>    C        3.44648       -14.76424         6.49541
| 16>    C        2.84118       -13.70941         5.93821
| 17>    C        1.43248       -13.44483         5.85662
| 18>    C        1.11419       -12.29523         5.22641
| 19>    C        2.23609       -11.55624         4.74535
| 20>    S        3.72206       -12.39062         5.15181
| 21>    C        2.20692       -10.40811         3.99738
| 22>    C        1.06650        -9.75346         3.46152
| 23>    C        1.35216        -8.75561         2.59152
| 24>    C        2.74396        -8.52925         2.37918
| 25>    S        3.67215        -9.60642         3.42964
| 26>    C        3.26225        -7.71839         1.41681
| 27>    C        4.62841        -7.44574         1.12487
| 28>    O        4.94871        -7.22337        -0.18587
| 29>    C        6.24447        -6.98163        -0.27563
| 30>    C        6.82819        -7.02827         0.96978
| 31>    N        8.20902        -6.89391         1.22824
| 32>    O        8.61850        -7.23264         2.32362
| 33>    O        8.90335        -6.46626         0.32698
| 34>    C        5.77707        -7.30773         1.90242
| 35>    N        5.89283        -7.29423         3.26993
| 36>    C        6.71131        -6.35662         3.87890
| 37>    O        6.97892        -5.20715         3.19465
| 38>    C        7.76869        -4.44386         3.93620
| 39>    C        8.01671        -5.06246         5.14091
| 40>    N        8.78784        -4.55065         6.19428
| 41>    O        9.31999        -3.47162         6.03940
| 42>    O        8.86186        -5.21947         7.21768
| 43>    C        7.33221        -6.32889         5.11599
| 44>    N        7.33417        -7.20657         6.14701
| 45>    C        6.73731        -8.44409         6.18185
| 46>    C        6.63064        -9.18092         7.29293
| 47>    C        7.10963        -8.73735         8.64271
| 48>    C        5.94295       -10.51493         7.24116
| 49>    N        4.61038       -10.38290         7.79939
| 50>    C        3.91549       -11.45355         8.26391
| 51>    C        2.57739       -11.50091         8.40864
| 52>    C        1.88734       -12.63683         8.93722
| 53>    O        2.58322       -13.71059         9.40916
| 54>    C        1.72411       -14.65055         9.78084
| 55>    C        0.42999       -14.21841         9.55813
| 56>    N       -0.73974       -14.95798         9.76189
| 57>    O       -0.63395       -16.08122        10.21677
| 58>    O       -1.80308       -14.44169         9.44346
| 59>    C        0.52559       -12.89931         9.00933
| 60>    N       -0.52590       -12.08041         8.70992
| 61>    H        2.87051       -15.54988         6.95134
| 62>    H        4.51619       -14.86506         6.50332
| 63>    H        0.72140       -14.13924         6.26730
| 64>    H        0.10805       -11.94673         5.07318
| 65>    H        0.06922       -10.07209         3.70549
| 66>    H        0.61481        -8.17853         2.06269
| 67>    H        2.56132        -7.28309         0.71702
| 68>    H        6.67821        -6.80512        -1.24001
| 69>    H        5.09821        -7.63916         3.79291
| 70>    H        8.11184        -3.50939         3.54083
| 71>    H        7.86457        -6.89895         6.95785
| 72>    H        6.36775        -8.80638         5.23416
| 73>    H        8.14819        -9.03226         8.79638
| 74>    H        6.50760        -9.20832         9.41602
| 75>    H        7.04365        -7.65882         8.76539
| 76>    H        6.48536       -11.24634         7.84575
| 77>    H        5.90191       -10.88071         6.20538
| 78>    H        4.05768        -9.64230         7.39061
| 79>    H        4.51823       -12.29695         8.56877
| 80>    H        1.95959       -10.66942         8.10387
| 81>    H        2.09582       -15.56851        10.18800
| 82>    H       -1.42322       -12.54476         8.67575
| 83>    H       -0.36132       -11.34894         8.04061
| 84> *
| 85>
| 86>                          ****END OF INPUT****

CARTESIAN COORDINATES (ANGSTROEM)
---------------------------------
  C      3.446480  -14.764240    6.495410
  C      2.841180  -13.709410    5.938210
  C      1.432480  -13.444830    5.856620
  C      1.114190  -12.295230    5.226410
  C      2.236090  -11.556240    4.745350
  S      3.722060  -12.390620    5.151810
  C      2.206920  -10.408110    3.997380
  C      1.066500   -9.753460    3.461520
  C      1.352160   -8.755610    2.591520
  C      2.743960   -8.529250    2.379180
  S      3.672150   -9.606420    3.429640
  C      3.262250   -7.718390    1.416810
  C      4.628410   -7.445740    1.124870
  O      4.948710   -7.223370   -0.185870
  C      6.244470   -6.981630   -0.275630
  C      6.828190   -7.028270    0.969780
  N      8.209020   -6.893910    1.228240
  O      8.618500   -7.232640    2.323620
  O      8.903350   -6.466260    0.326980
  C      5.777070   -7.307730    1.902420
  N      5.892830   -7.294230    3.269930
  C      6.711310   -6.356620    3.878900
  O      6.978920   -5.207150    3.194650
  C      7.768690   -4.443860    3.936200
  C      8.016710   -5.062460    5.140910
  N      8.787840   -4.550650    6.194280
  O      9.319990   -3.471620    6.039400
  O      8.861860   -5.219470    7.217680
  C      7.332210   -6.328890    5.115990
  N      7.334170   -7.206570    6.147010
  C      6.737310   -8.444090    6.181850
  C      6.630640   -9.180920    7.292930
  C      7.109630   -8.737350    8.642710
  C      5.942950  -10.514930    7.241160
  N      4.610380  -10.382900    7.799390
  C      3.915490  -11.453550    8.263910
  C      2.577390  -11.500910    8.408640
  C      1.887340  -12.636830    8.937220
  O      2.583220  -13.710590    9.409160
  C      1.724110  -14.650550    9.780840
  C      0.429990  -14.218410    9.558130
  N     -0.739740  -14.957980    9.761890
  O     -0.633950  -16.081220   10.216770
  O     -1.803080  -14.441690    9.443460
  C      0.525590  -12.899310    9.009330
  N     -0.525900  -12.080410    8.709920
  H      2.870510  -15.549880    6.951340
  H      4.516190  -14.865060    6.503320
  H      0.721400  -14.139240    6.267300
  H      0.108050  -11.946730    5.073180
  H      0.069220  -10.072090    3.705490
  H      0.614810   -8.178530    2.062690
  H      2.561320   -7.283090    0.717020
  H      6.678210   -6.805120   -1.240010
  H      5.098210   -7.639160    3.792910
  H      8.111840   -3.509390    3.540830
  H      7.864570   -6.898950    6.957850
  H      6.367750   -8.806380    5.234160
  H      8.148190   -9.032260    8.796380
  H      6.507600   -9.208320    9.416020
  H      7.043650   -7.658820    8.765390
  H      6.485360  -11.246340    7.845750
  H      5.901910  -10.880710    6.205380
  H      4.057680   -9.642300    7.390610
  H      4.518230  -12.296950    8.568770
  H      1.959590  -10.669420    8.103870
  H      2.095820  -15.568510   10.188000
  H     -1.423220  -12.544760    8.675750
  H     -0.361320  -11.348940    8.040610

 Total Charge           Charge          ....    0
 Multiplicity           Mult            ....    1
 Number of Electrons    NEL             ....  344
 Basis Dimension        Dim             ....  767

ORBITAL ENERGIES
----------------

  NO   OCC          E(Eh)            E(eV)
   0   2.0000     -88.962803     -2420.8010
   1   2.0000     -88.950773     -2420.4736
   2   2.0000     -19.318120      -525.6728
   3   2.0000     -19.317063      -525.6440
   4   2.0000     -19.299693      -525.1713
   5   2.0000     -19.246064      -523.7120
   6   2.0000     -19.243913      -523.6535
   7   2.0000     -19.243305      -523.6370
   8   2.0000     -19.240983      -523.5738
   9   2.0000     -19.237198      -523.4708
  10   2.0000     -19.234612      -523.4004
  11   2.0000     -14.655264      -398.7900
  12   2.0000     -14.653001      -398.7284
  13   2.0000     -14.646195      -398.5432
  14   2.0000     -14.463225      -393.5644
  15   2.0000     -14.437923      -392.8759
  16   2.0000     -14.417425      -392.3181
  17   2.0000     -14.411620      -392.1601
  18   2.0000     -10.366316      -282.0818
  19   2.0000     -10.363201      -281.9970
  20   2.0000     -10.355209      -281.7796
  21   2.0000     -10.345875      -281.5256
  22   2.0000     -10.344393      -281.4852
  23   2.0000     -10.341555      -281.4080
  24   2.0000     -10.331509      -281.1346
  25   2.0000     -10.330993      -281.1206
  26   2.0000     -10.325886      -280.9817
  27   2.0000     -10.325729      -280.9774
  28   2.0000     -10.324726      -280.9501
  29   2.0000     -10.321607      -280.8652
  30   2.0000     -10.316390      -280.7232
  31   2.0000     -10.315829      -280.7080
  32   2.0000     -10.313396      -280.6418
  33   2.0000     -10.311237      -280.5830
  34   2.0000     -10.301320      -280.3132
  35   2.0000     -10.300855      -280.3005
  36   2.0000     -10.300272      -280.2846
  37   2.0000     -10.299164      -280.2545
  38   2.0000     -10.298630      -280.2400
  39   2.0000     -10.298308      -280.2312
  40   2.0000     -10.296260      -280.1755
  41   2.0000     -10.296168      -280.1730
  42   2.0000     -10.281233      -279.7666
  43   2.0000     -10.260047      -279.1901
  44   2.0000     -10.258865      -279.1579
  45   2.0000     -10.252133      -278.9747
  46   2.0000      -8.058384      -219.2798
  47   2.0000      -8.046465      -218.9554
  48   2.0000      -6.028178      -164.0351
  49   2.0000      -6.024269      -163.9287
  50   2.0000      -6.019221      -163.7913
  51   2.0000      -6.016378      -163.7140
  52   2.0000      -6.012460      -163.6074
  53   2.0000      -6.006968      -163.4579
  54   2.0000      -1.324341       -36.0372
  55   2.0000      -1.323181       -36.0056
  56   2.0000      -1.314565       -35.7711
  57   2.0000      -1.239606       -33.7314
  58   2.0000      -1.238223       -33.6938
  59   2.0000      -1.216874       -33.1128
  60   2.0000      -1.143060       -31.1043
  61   2.0000      -1.141551       -31.0632
  62   2.0000      -1.132477       -30.8163
  63   2.0000      -1.063375       -28.9359
  64   2.0000      -1.045854       -28.4591
  65   2.0000      -1.019797       -27.7501
  66   2.0000      -1.004525       -27.3345
  67   2.0000      -1.002440       -27.2778
  68   2.0000      -0.980931       -26.6925
  69   2.0000      -0.944359       -25.6973
  70   2.0000      -0.942771       -25.6541
  71   2.0000      -0.923463       -25.1287
  72   2.0000      -0.916304       -24.9339
  73   2.0000      -0.895065       -24.3560
  74   2.0000      -0.884101       -24.0576
  75   2.0000      -0.872573       -23.7439
  76   2.0000      -0.857694       -23.3390
  77   2.0000      -0.855479       -23.2788
  78   2.0000      -0.843968       -22.9655
  79   2.0000      -0.831607       -22.6292
  80   2.0000      -0.822064       -22.3695
  81   2.0000      -0.816057       -22.2060
  82   2.0000      -0.813274       -22.1303
  83   2.0000      -0.795481       -21.6461
  84   2.0000      -0.789308       -21.4782
  85   2.0000      -0.778332       -21.1795
  86   2.0000      -0.755288       -20.5524
  87   2.0000      -0.738712       -20.1014
  88   2.0000      -0.723596       -19.6900
  89   2.0000      -0.707114       -19.2416
  90   2.0000      -0.699378       -19.0310
  91   2.0000      -0.696092       -18.9416
  92   2.0000      -0.682830       -18.5807
  93   2.0000      -0.675978       -18.3943
  94   2.0000      -0.671984       -18.2856
  95   2.0000      -0.663904       -18.0657
  96   2.0000      -0.653459       -17.7815
  97   2.0000      -0.648513       -17.6469
  98   2.0000      -0.639505       -17.4018
  99   2.0000      -0.637555       -17.3488
 100   2.0000      -0.634066       -17.2538
 101   2.0000      -0.632980       -17.2243
 102   2.0000      -0.631319       -17.1791
 103   2.0000      -0.627938       -17.0871
 104   2.0000      -0.626706       -17.0535
 105   2.0000      -0.622184       -16.9305
 106   2.0000      -0.612644       -16.6709
 107   2.0000      -0.609544       -16.5865
 108   2.0000      -0.603834       -16.4312
 109   2.0000      -0.602172       -16.3859
 110   2.0000      -0.594082       -16.1658
 111   2.0000      -0.589937       -16.0530
 112   2.0000      -0.582422       -15.8485
 113   2.0000      -0.579649       -15.7731
 114   2.0000      -0.578876       -15.7520
 115   2.0000      -0.574220       -15.6253
 116   2.0000      -0.568656       -15.4739
 117   2.0000      -0.565609       -15.3910
 118   2.0000      -0.565389       -15.3850
 119   2.0000      -0.564382       -15.3576
 120   2.0000      -0.556564       -15.1449
 121   2.0000      -0.549164       -14.9435
 122   2.0000      -0.547037       -14.8856
 123   2.0000      -0.541799       -14.7431
 124   2.0000      -0.536899       -14.6098
 125   2.0000      -0.525996       -14.3131
 126   2.0000      -0.522759       -14.2250
 127   2.0000      -0.521052       -14.1785
 128   2.0000      -0.517673       -14.0866
 129   2.0000      -0.507414       -13.8074
 130   2.0000      -0.505941       -13.7674
 131   2.0000      -0.500854       -13.6289
 132   2.0000      -0.494435       -13.4542
 133   2.0000      -0.488192       -13.2844
 134   2.0000      -0.487309       -13.2604
 135   2.0000      -0.478988       -13.0339
 136   2.0000      -0.476433       -12.9644
 137   2.0000      -0.470250       -12.7962
 138   2.0000      -0.466574       -12.6961
 139   2.0000      -0.465215       -12.6591
 140   2.0000      -0.459474       -12.5029
 141   2.0000      -0.454542       -12.3687
 142   2.0000      -0.447365       -12.1734
 143   2.0000      -0.444470       -12.0946
 144   2.0000      -0.440074       -11.9750
 145   2.0000      -0.437513       -11.9053
 146   2.0000      -0.432903       -11.7799
 147   2.0000      -0.429315       -11.6823
 148   2.0000      -0.412266       -11.2183
 149   2.0000      -0.408007       -11.1024
 150   2.0000      -0.398373       -10.8403
 151   2.0000      -0.390805       -10.6344
 152   2.0000      -0.389716       -10.6047
 153   2.0000      -0.384634       -10.4664
 154   2.0000      -0.382749       -10.4151
 155   2.0000      -0.382073       -10.3967
 156   2.0000      -0.375924       -10.2294
 157   2.0000      -0.374461       -10.1896
 158   2.0000      -0.373639       -10.1672
 159   2.0000      -0.368291       -10.0217
 160   2.0000      -0.365062        -9.9338
 161   2.0000      -0.364009        -9.9052
 162   2.0000      -0.357751        -9.7349
 163   2.0000      -0.350400        -9.5349
 164   2.0000      -0.343904        -9.3581
 165   2.0000      -0.333852        -9.0846
 166   2.0000      -0.315888        -8.5957
 167   2.0000      -0.308732        -8.4010
 168   2.0000      -0.295104        -8.0302
 169   2.0000      -0.247461        -6.7338
 170   2.0000      -0.228579        -6.2200
 171   2.0000      -0.221076        -6.0158
 172   0.0000      -0.072280        -1.9669
 173   0.0000      -0.047973        -1.3054
 174   0.0000      -0.040302        -1.0967
 175   0.0000      -0.036826        -1.0021
 176   0.0000      -0.007355        -0.2002

MULLIKEN ATOMIC CHARGES
-----------------------
   0 C :   -0.013323
   1 C :   -0.078566
   2 C :    0.110286
   3 C :   -0.009836
   4 C :   -0.052597
   5 S :    0.077758
   6 C :   -0.069125
   7 C :    0.040777
   8 C :    0.029925
   9 C :   -0.042108
  10 S :    0.051325
  11 C :   -0.061129
  12 C :    0.054380
  13 O :   -0.166123
  14 C :    0.085646
  15 C :    0.090906
  16 N :    0.268006
  17 O :   -0.235549
  18 O :   -0.250824
  19 C :    0.037808
  20 N :   -0.033482
  21 C :   -0.010463
  22 O :   -0.180302
  23 C :    0.065896
  24 C :    0.105114
  25 N :    0.287296
  26 O :   -0.239542
  27 O :   -0.269656
  28 C :    0.069261
  29 N :   -0.003510
  30 C :    0.042721
  31 C :   -0.234828
  32 C :    0.081329
  33 C :    0.214023
  34 N :   -0.156477
  35 C :    0.070727
  36 C :   -0.087220
  37 C :    0.061996
  38 O :   -0.180523
  39 C :    0.052251
  40 C :    0.107290
  41 N :    0.280198
  42 O :   -0.252383
  43 O :   -0.274793
  44 C :   -0.057833
  45 N :   -0.026713
  46 H :    0.028346
  47 H :    0.023515
  48 H :   -0.002665
  49 H :   -0.016001
  50 H :   -0.010852
  51 H :   -0.006504
  52 H :    0.007991
  53 H :    0.027524
  54 H :    0.146968
  55 H :    0.018633
  56 H :    0.133054
  57 H :   -0.017323
  58 H :    0.030493
  59 H :    0.016047
  60 H :    0.017176
  61 H :    0.002570
  62 H :    0.000020
  63 H :    0.102172
  64 H :   -0.001882
  65 H :   -0.039206
  66 H :    0.012717
  67 H :    0.122999
  68 H :    0.106193
Sum of atomic charges:   -0.0000000

LOEWDIN ATOMIC CHARGES
----------------------
   0 C :   -0.060345
   1 C :   -0.136560
   2 C :   -0.008909
   3 C :   -0.041122
   4 C :   -0.167956
   5 S :    0.377813
   6 C :   -0.191086
   7 C :   -0.028173
   8 C :   -0.036278
   9 C :   -0.146515
  10 S :    0.353776
  11 C :   -0.080042
  12 C :   -0.016174
  13 O :    0.041234
  14 C :    0.085981
  15 C :   -0.098289
  16 N :    0.286857
  17 O :   -0.201495
  18 O :   -0.213063
  19 C :   -0.009973
  20 N :    0.005490
  21 C :    0.001053
  22 O :    0.033430
  23 C :    0.074213
  24 C :   -0.093555
  25 N :    0.295879
  26 O :   -0.200609
  27 O :   -0.221703
  28 C :   -0.016225
  29 N :    0.021379
  30 C :    0.001554
  31 C :   -0.097686
  32 C :   -0.053600
  33 C :    0.044742
  34 N :   -0.022085
  35 C :    0.035420
  36 C :   -0.147986
  37 C :   -0.010453
  38 O :    0.039500
  39 C :    0.056426
  40 C :   -0.109106
  41 N :    0.294157
  42 O :   -0.214148
  43 O :   -0.228439
  44 C :   -0.028132
  45 N :   -0.029815
  46 H :    0.030581
  47 H :    0.027432
  48 H :    0.036948
  49 H :    0.029218
  50 H :    0.033222
  51 H :    0.035267
  52 H :    0.043307
  53 H :    0.038331
  54 H :    0.063082
  55 H :    0.037196
  56 H :    0.072915
  57 H :    0.016623
  58 H :    0.035316
  59 H :    0.032193
  60 H :    0.027079
  61 H :    0.024175
  62 H :    0.001308
  63 H :    0.069690
  64 H :    0.023787
  65 H :    0.021089
  66 H :    0.030610
  67 H :    0.065070
  68 H :    0.066181

  Mayer bond orders larger than 0.100000
B(  0-C ,  1-C ) :   1.8812 B(  0-C , 46-H ) :   0.9430 B(  0-C , 47-H ) :   0.9391
B(  1-C ,  2-C ) :   1.0723 B(  1-C ,  5-S ) :   1.0077 B(  2-C ,  3-C ) :   1.6688
B(  2-C , 48-H ) :   0.9845 B(  3-C ,  4-C ) :   1.1375 B(  3-C , 49-H ) :   0.9924
B(  4-C ,  5-S ) :   1.0553 B(  4-C ,  6-C ) :   1.5813 B(  6-C ,  7-C ) :   1.1516
B(  6-C , 10-S ) :   1.0172 B(  7-C ,  8-C ) :   1.6340 B(  7-C , 50-H ) :   0.9926
B(  8-C ,  9-C ) :   1.1142 B(  8-C , 51-H ) :   0.9978 B(  9-C , 10-S ) :   1.0075
B(  9-C , 11-C ) :   1.6709 B( 11-C , 12-C ) :   1.1022 B( 11-C , 52-H ) :   0.9460
B( 12-C , 13-O ) :   1.0803 B( 12-C , 19-C ) :   1.4276 B( 13-O , 14-C ) :   1.2219
B( 14-C , 15-C ) :   1.4458 B( 14-C , 53-H ) :   1.0127 B( 15-C , 16-N ) :   0.9335
B( 15-C , 19-C ) :   1.2501 B( 16-N , 17-O ) :   1.5259 B( 16-N , 18-O ) :   1.5320
B( 17-O , 18-O ) :   0.2609 B( 19-C , 20-N ) :   1.1839 B( 20-N , 21-C ) :   1.0879
B( 20-N , 54-H ) :   0.8748 B( 21-C , 22-O ) :   1.0832 B( 21-C , 23-C ) :   0.1056
B( 21-C , 28-C ) :   1.4870 B( 22-O , 23-C ) :   1.1939 B( 23-C , 24-C ) :   1.4180
B( 23-C , 55-H ) :   1.0287 B( 24-C , 25-N ) :   0.9595 B( 24-C , 28-C ) :   1.2411
B( 25-N , 26-O ) :   1.5533 B( 25-N , 27-O ) :   1.4715 B( 26-O , 27-O ) :   0.2551
B( 28-C , 29-N ) :   1.2397 B( 29-N , 30-C ) :   1.1089 B( 29-N , 56-H ) :   0.8563
B( 30-C , 31-C ) :   1.8018 B( 30-C , 57-H ) :   0.9494 B( 31-C , 32-C ) :   1.0756
B( 31-C , 33-C ) :   1.0651 B( 32-C , 58-H ) :   0.9527 B( 32-C , 59-H ) :   0.9457
B( 32-C , 60-H ) :   0.9506 B( 33-C , 34-N ) :   0.9809 B( 33-C , 61-H ) :   0.9263
B( 33-C , 62-H ) :   0.9258 B( 34-N , 35-C ) :   1.2044 B( 34-N , 63-H ) :   0.9361
B( 35-C , 36-C ) :   1.6530 B( 35-C , 64-H ) :   0.9682 B( 36-C , 37-C ) :   1.1584
B( 36-C , 65-H ) :   0.9515 B( 37-C , 38-O ) :   1.0873 B( 37-C , 39-C ) :   0.1010
B( 37-C , 44-C ) :   1.4049 B( 38-O , 39-C ) :   1.2015 B( 39-C , 40-C ) :   1.3951
B( 39-C , 66-H ) :   1.0180 B( 40-C , 41-N ) :   0.9578 B( 40-C , 44-C ) :   1.2463
B( 41-N , 42-O ) :   1.5415 B( 41-N , 43-O ) :   1.4859 B( 42-O , 43-O ) :   0.2546
B( 44-C , 45-N ) :   1.2874 B( 45-N , 67-H ) :   0.9127 B( 45-N , 68-H ) :   0.9367

-----------------------------------------------------------------------------
         ABSORPTION SPECTRUM VIA TRANSITION ELECTRIC DIPOLE MOMENTS
-----------------------------------------------------------------------------
State   Energy  Wavelength   fosc         T2         TX        TY        TZ
        (cm-1)    (nm)                  (au**2)     (au)      (au)      (au)
-----------------------------------------------------------------------------
   0   14549.6    687.3   0.015454830   0.34969   0.14014   0.15822  -0.55229
   1   18612.9    537.3   0.524555471   9.27797   1.41236   2.54425  -0.90000
   2   19713.0    507.3   0.038428668   0.64177   0.00140   0.74791  -0.28704
   3   20272.8    493.3   0.037903860   0.61552   0.07862  -0.15637  -0.76478
   4   21844.2    457.8   0.042957627   0.64741  -0.40358  -0.35827   0.59681
   5   23549.3    424.6   0.680399205   9.51177   0.30414   2.29313  -2.03981
   6   26644.3    375.3   0.004000620   0.04943   0.20813  -0.01754  -0.07620
   7   27017.5    370.1   0.001541660   0.01879  -0.11899  -0.02286   0.06406
   8   28546.7    350.3   0.001092112   0.01259  -0.05368   0.04795  -0.08611
   9   28687.1    348.6   0.007144020   0.08198  -0.15104  -0.21191   0.11943
  10   29008.9    344.7   0.018746442   0.21275   0.19304   0.40579  -0.10401
  11   29208.8    342.4   0.006203660   0.06992  -0.09574   0.01964   0.24570
  12   30226.7    330.8   0.012298303   0.13395   0.09568  -0.19610   0.29383
  13   32367.2    309.0   0.183362320   1.86501   1.03904  -0.54801   0.69648
  14   33603.3    297.6   0.038503805   0.37722   0.26680   0.09100   0.54568
  15   33766.4    296.2   0.042260884   0.41203  -0.55715   0.15805  -0.27684
  16   34813.3    287.2   0.006219749   0.05882   0.23885   0.03022  -0.02924
  17   34920.7    286.4   0.004809359   0.04534   0.20383   0.03110  -0.05315
  18   35228.2    283.9   0.017095014   0.15976  -0.36972   0.07721  -0.13076
  19   35357.9    282.8   0.015346869   0.14289   0.29332   0.20227  -0.12625
  20   35718.2    280.0   0.031467971   0.29004   0.02994   0.15244  -0.51566
  21   35842.3    279.0   0.081734983   0.75074  -0.72121  -0.28922   0.38333
  22   36617.4    273.1   0.028928238   0.26008  -0.44621  -0.20700   0.13466
  23   37335.1    267.8   0.229723002   2.02564  -1.14513  -0.84486  -0.02311
  24   37578.3    266.1   0.491463433   4.30556  -1.43916  -1.06851   1.04531
  25   38308.8    261.0   0.104371752   0.89693   0.91011  -0.13622  -0.22379
  26   38457.5    260.0   0.171537194   1.46843  -0.84490  -0.76726   0.40729
  27   39228.6    254.9   0.169750916   1.42457  -1.07092  -0.31008  -0.42610
  28   40071.1    249.6   0.061649380   0.50649  -0.43607  -0.13901  -0.54499
  29   40205.8    248.7   0.042847154   0.35084  -0.51240  -0.27458   0.11356

FINAL SINGLE POINT ENERGY     -2934.240014341915

DIPOLE MOMENT
-------------
                                X             Y             Z
Electronic contribution:      7.85820      13.31218     -19.25981
Nuclear contribution   :     -9.36246     -13.15071      17.57558
                        -----------------------------------------
Total Dipole Moment    :     -1.50426       0.16146      -1.68423
                        -----------------------------------------
Magnitude (a.u.)       :      2.26396
Magnitude (Debye)      :      5.75453

Rotational constants in cm-1:     0.003885     0.001054     0.000903
Rotational constants in MHz :   116.459149    31.597040    27.074945

                             ****ORCA TERMINATED NORMALLY****
TOTAL RUN TIME: 0 days 0 hours 5 minutes 18 seconds 97 msec
