                         Program Version 4.2.0 -  RELEASE  -
|  1> # ORCA input file
|  2> # SCF done       -152.275496982815          0.000256148471
|  3> ! CAM-B3LYP def2-SVP def2/J RIJCOSX Grid4 TightSCF
|  4> %maxcore 5000
|  5> %tddft
|  6>     Mode sTDDFT
|  7>     Ethresh 5.0
|  8>     maxcore 5000
|  9> end
| 10>
| 11> %pal
| 12>   nprocs 6
| 13>   end
| 14> * xyz 0 1
| 15>    C       -0.40938        -5.31707         1.25518
| 16>    C        0.69628        -4.77307         1.77983
| 17>    C        0.82487        -3.50071         2.43229
| 18>    C        2.06874        -3.22285         2.87689
| 19>    C        3.02470        -4.24579         2.61752
| 20>    S        2.27415        -5.57602         1.75675
| 21>    C        4.33849        -4.27076         3.00531
| 22>    C        5.02530        -3.35189         3.83889
| 23>    C        6.26687        -3.75460         4.20216
| 24>    C        6.67744        -5.00108         3.64726
| 25>    S        5.40109        -5.60560         2.58290
| 26>    C        7.91077        -5.54927         3.85552
| 27>    C        8.57261        -6.64204         3.24139
| 28>    S       10.28071        -6.34171         2.98408
| 29>    C       10.45264        -7.69034         1.96916
| 30>    C        9.27763        -8.39990         1.84858
| 31>    C        8.19993        -7.84623         2.62847
| 32>    C        7.01050        -8.61986         2.76233
| 33>    C        6.82999        -9.70254         1.90820
| 34>    C        7.86337       -10.15337         1.06034
| 35>    C        9.08428        -9.55588         1.06066
| 36>    O        5.63123       -10.34725         1.91117
| 37>    N        6.06928        -8.32651         3.74366
| 38>    C        5.29893        -9.22028         4.39817
| 39>    S        5.76208       -10.88006         4.55550
| 40>    C        4.32429       -11.19601         5.47825
| 41>    N        4.10868       -12.49673         5.91021
| 42>    O        3.09611       -12.73021         6.55362
| 43>    O        4.95669       -13.32901         5.61103
| 44>    C        3.54087       -10.08323         5.64815
| 45>    C        4.08398        -8.93320         5.05127
| 46>    C        3.47291        -7.63830         5.09093
| 47>    C        2.13488        -7.44394         5.22375
| 48>    C        1.48081        -6.20157         5.36626
| 49>    C        2.01780        -5.01167         5.79044
| 50>    C        1.31620        -3.78991         5.92735
| 51>    C        2.05489        -2.76627         6.44524
| 52>    C        3.38332        -3.11820         6.74955
| 53>    S        3.66768        -4.79872         6.35754
| 54>    C        4.38678        -2.31101         7.26544
| 55>    C        4.32446        -0.94456         7.58425
| 56>    C        5.49974        -0.43579         8.07130
| 57>    C        6.54164        -1.37265         8.16215
| 58>    S        5.98423        -2.93971         7.60550
| 59>    C        7.82980        -1.14708         8.62568
| 60>    C        8.81861        -2.10702         8.70685
| 61>    C       10.09718        -1.88425         9.19554
| 62>    C       11.13191        -2.82952         9.31584
| 63>    C       12.28813        -2.33430         9.85143
| 64>    C       12.22254        -0.96504        10.17951
| 65>    S       10.64124        -0.32483         9.78125
| 66>    C       13.20875        -0.17551        10.73833
| 67>    C       14.51768        -0.57051        11.11547
| 68>    C       15.27016         0.42229        11.64733
| 69>    C       14.60492         1.68813        11.72956
| 70>    S       12.96367         1.52317        11.08525
| 71>    C       15.08930         2.84519        12.20563
| 72>    H       -1.34882        -4.79411         1.29022
| 73>    H       -0.39626        -6.28363         0.78610
| 74>    H       -0.02659        -2.85201         2.53883
| 75>    H        2.34536        -2.31678         3.38620
| 76>    H        4.56589        -2.43692         4.16708
| 77>    H        6.91826        -3.20203         4.85496
| 78>    H        8.56682        -4.93272         4.46108
| 79>    H       11.39124        -7.89762         1.49614
| 80>    H        7.67214       -11.01605         0.43709
| 81>    H        9.90144        -9.93843         0.47105
| 82>    H        5.65700       -11.09109         1.29725
| 83>    H        5.90268        -7.34954         3.94883
| 84>    H        2.62162       -10.10807         6.20362
| 85>    H        4.12206        -6.78352         4.97030
| 86>    H        1.48701        -8.30926         5.17689
| 87>    H        0.41595        -6.18794         5.16987
| 88>    H        0.28258        -3.70784         5.64053
| 89>    H        1.67297        -1.77683         6.62452
| 90>    H        3.42674        -0.36750         7.45210
| 91>    H        5.63884         0.58902         8.36772
| 92>    H        8.06134        -0.14112         8.95273
| 93>    H        8.58860        -3.11337         8.37862
| 94>    H       10.99625        -3.85173         9.00825
| 95>    H       13.17523        -2.91879        10.01643
| 96>    H       14.85842        -1.58189        10.98092
| 97>    H       16.28312         0.31035        11.99085
| 98>    H       16.09254         2.90306        12.58907
| 99>    H       14.49826         3.74226        12.22047
|100> *
|101>
|102>                          ****END OF INPUT****

CARTESIAN COORDINATES (ANGSTROEM)
---------------------------------
  C     -0.409380   -5.317070    1.255180
  C      0.696280   -4.773070    1.779830
  C      0.824870   -3.500710    2.432290
  C      2.068740   -3.222850    2.876890
  C      3.024700   -4.245790    2.617520
  S      2.274150   -5.576020    1.756750
  C      4.338490   -4.270760    3.005310
  C      5.025300   -3.351890    3.838890
  C      6.266870   -3.754600    4.202160
  C      6.677440   -5.001080    3.647260
  S      5.401090   -5.605600    2.582900
  C      7.910770   -5.549270    3.855520
  C      8.572610   -6.642040    3.241390
  S     10.280710   -6.341710    2.984080
  C     10.452640   -7.690340    1.969160
  C      9.277630   -8.399900    1.848580
  C      8.199930   -7.846230    2.628470
  C      7.010500   -8.619860    2.762330
  C      6.829990   -9.702540    1.908200
  C      7.863370  -10.153370    1.060340
  C      9.084280   -9.555880    1.060660
  O      5.631230  -10.347250    1.911170
  N      6.069280   -8.326510    3.743660
  C      5.298930   -9.220280    4.398170
  S      5.762080  -10.880060    4.555500
  C      4.324290  -11.196010    5.478250
  N      4.108680  -12.496730    5.910210
  O      3.096110  -12.730210    6.553620
  O      4.956690  -13.329010    5.611030
  C      3.540870  -10.083230    5.648150
  C      4.083980   -8.933200    5.051270
  C      3.472910   -7.638300    5.090930
  C      2.134880   -7.443940    5.223750
  C      1.480810   -6.201570    5.366260
  C      2.017800   -5.011670    5.790440
  C      1.316200   -3.789910    5.927350
  C      2.054890   -2.766270    6.445240
  C      3.383320   -3.118200    6.749550
  S      3.667680   -4.798720    6.357540
  C      4.386780   -2.311010    7.265440
  C      4.324460   -0.944560    7.584250
  C      5.499740   -0.435790    8.071300
  C      6.541640   -1.372650    8.162150
  S      5.984230   -2.939710    7.605500
  C      7.829800   -1.147080    8.625680
  C      8.818610   -2.107020    8.706850
  C     10.097180   -1.884250    9.195540
  C     11.131910   -2.829520    9.315840
  C     12.288130   -2.334300    9.851430
  C     12.222540   -0.965040   10.179510
  S     10.641240   -0.324830    9.781250
  C     13.208750   -0.175510   10.738330
  C     14.517680   -0.570510   11.115470
  C     15.270160    0.422290   11.647330
  C     14.604920    1.688130   11.729560
  S     12.963670    1.523170   11.085250
  C     15.089300    2.845190   12.205630
  H     -1.348820   -4.794110    1.290220
  H     -0.396260   -6.283630    0.786100
  H     -0.026590   -2.852010    2.538830
  H      2.345360   -2.316780    3.386200
  H      4.565890   -2.436920    4.167080
  H      6.918260   -3.202030    4.854960
  H      8.566820   -4.932720    4.461080
  H     11.391240   -7.897620    1.496140
  H      7.672140  -11.016050    0.437090
  H      9.901440   -9.938430    0.471050
  H      5.657000  -11.091090    1.297250
  H      5.902680   -7.349540    3.948830
  H      2.621620  -10.108070    6.203620
  H      4.122060   -6.783520    4.970300
  H      1.487010   -8.309260    5.176890
  H      0.415950   -6.187940    5.169870
  H      0.282580   -3.707840    5.640530
  H      1.672970   -1.776830    6.624520
  H      3.426740   -0.367500    7.452100
  H      5.638840    0.589020    8.367720
  H      8.061340   -0.141120    8.952730
  H      8.588600   -3.113370    8.378620
  H     10.996250   -3.851730    9.008250
  H     13.175230   -2.918790   10.016430
  H     14.858420   -1.581890   10.980920
  H     16.283120    0.310350   11.990850
  H     16.092540    2.903060   12.589070
  H     14.498260    3.742260   12.220470

 Total Charge           Charge          ....    0
 Multiplicity           Mult            ....    1
 Number of Electrons    NEL             ....  458
 Basis Dimension        Dim             ....  970

ORBITAL ENERGIES
----------------

  NO   OCC          E(Eh)            E(eV)
   0   2.0000     -88.965929     -2420.8860
   1   2.0000     -88.953438     -2420.5461
   2   2.0000     -88.947701     -2420.3900
   3   2.0000     -88.943614     -2420.2788
   4   2.0000     -88.940813     -2420.2026
   5   2.0000     -88.939543     -2420.1680
   6   2.0000     -88.935637     -2420.0617
   7   2.0000     -88.934828     -2420.0397
   8   2.0000     -19.252697      -523.8925
   9   2.0000     -19.208125      -522.6797
  10   2.0000     -19.207659      -522.6670
  11   2.0000     -14.619889      -397.8274
  12   2.0000     -14.450792      -393.2260
  13   2.0000     -10.343176      -281.4521
  14   2.0000     -10.338283      -281.3190
  15   2.0000     -10.319332      -280.8033
  16   2.0000     -10.310425      -280.5609
  17   2.0000     -10.310348      -280.5588
  18   2.0000     -10.307986      -280.4946
  19   2.0000     -10.307163      -280.4722
  20   2.0000     -10.306654      -280.4583
  21   2.0000     -10.305730      -280.4332
  22   2.0000     -10.305341      -280.4226
  23   2.0000     -10.305185      -280.4183
  24   2.0000     -10.304541      -280.4008
  25   2.0000     -10.304475      -280.3990
  26   2.0000     -10.302507      -280.3455
  27   2.0000     -10.301703      -280.3236
  28   2.0000     -10.301008      -280.3047
  29   2.0000     -10.299254      -280.2569
  30   2.0000     -10.297644      -280.2131
  31   2.0000     -10.292150      -280.0636
  32   2.0000     -10.290576      -280.0208
  33   2.0000     -10.287093      -279.9260
  34   2.0000     -10.285227      -279.8753
  35   2.0000     -10.284601      -279.8582
  36   2.0000     -10.282938      -279.8130
  37   2.0000     -10.282682      -279.8060
  38   2.0000     -10.282159      -279.7918
  39   2.0000     -10.281895      -279.7846
  40   2.0000     -10.281708      -279.7795
  41   2.0000     -10.281351      -279.7698
  42   2.0000     -10.281096      -279.7628
  43   2.0000     -10.280495      -279.7465
  44   2.0000     -10.280383      -279.7434
  45   2.0000     -10.279872      -279.7295
  46   2.0000     -10.279013      -279.7062
  47   2.0000     -10.278809      -279.7006
  48   2.0000     -10.277533      -279.6659
  49   2.0000     -10.275171      -279.6016
  50   2.0000     -10.274738      -279.5898
  51   2.0000     -10.273299      -279.5507
  52   2.0000     -10.272105      -279.5182
  53   2.0000     -10.270134      -279.4646
  54   2.0000     -10.267342      -279.3886
  55   2.0000     -10.266053      -279.3535
  56   2.0000     -10.263894      -279.2947
  57   2.0000      -8.061682      -219.3695
  58   2.0000      -8.048868      -219.0208
  59   2.0000      -8.043362      -218.8710
  60   2.0000      -8.039297      -218.7604
  61   2.0000      -8.035731      -218.6634
  62   2.0000      -8.035695      -218.6624
  63   2.0000      -8.032102      -218.5646
  64   2.0000      -8.031577      -218.5503
  65   2.0000      -6.030644      -164.1022
  66   2.0000      -6.026438      -163.9877
  67   2.0000      -6.024535      -163.9359
  68   2.0000      -6.018535      -163.7727
  69   2.0000      -6.014115      -163.6524
  70   2.0000      -6.013172      -163.6267
  71   2.0000      -6.010264      -163.5476
  72   2.0000      -6.009122      -163.5165
  73   2.0000      -6.008960      -163.5121
  74   2.0000      -6.005472      -163.4172
  75   2.0000      -6.005421      -163.4158
  76   2.0000      -6.004972      -163.4036
  77   2.0000      -6.004183      -163.3821
  78   2.0000      -6.001989      -163.3224
  79   2.0000      -6.001466      -163.3082
  80   2.0000      -6.001424      -163.3071
  81   2.0000      -6.001375      -163.3057
  82   2.0000      -6.000458      -163.2808
  83   2.0000      -5.998029      -163.2147
  84   2.0000      -5.997465      -163.1993
  85   2.0000      -5.996748      -163.1798
  86   2.0000      -5.996727      -163.1792
  87   2.0000      -5.992557      -163.0658
  88   2.0000      -5.992147      -163.0546
  89   2.0000      -1.286623       -35.0108
  90   2.0000      -1.151332       -31.3293
  91   2.0000      -1.104906       -30.0660
  92   2.0000      -1.060960       -28.8702
  93   2.0000      -0.997295       -27.1378
  94   2.0000      -0.992049       -26.9950
  95   2.0000      -0.988759       -26.9055
  96   2.0000      -0.987663       -26.8757
  97   2.0000      -0.973872       -26.5004
  98   2.0000      -0.969099       -26.3705
  99   2.0000      -0.966591       -26.3023
 100   2.0000      -0.964633       -26.2490
 101   2.0000      -0.928366       -25.2621
 102   2.0000      -0.905899       -24.6508
 103   2.0000      -0.897445       -24.4207
 104   2.0000      -0.891876       -24.2692
 105   2.0000      -0.877954       -23.8903
 106   2.0000      -0.869144       -23.6506
 107   2.0000      -0.861695       -23.4479
 108   2.0000      -0.854659       -23.2564
 109   2.0000      -0.843777       -22.9603
 110   2.0000      -0.842336       -22.9211
 111   2.0000      -0.840333       -22.8666
 112   2.0000      -0.839660       -22.8483
 113   2.0000      -0.833366       -22.6771
 114   2.0000      -0.829168       -22.5628
 115   2.0000      -0.818874       -22.2827
 116   2.0000      -0.817156       -22.2359
 117   2.0000      -0.814853       -22.1733
 118   2.0000      -0.807912       -21.9844
 119   2.0000      -0.804566       -21.8934
 120   2.0000      -0.787122       -21.4187
 121   2.0000      -0.771095       -20.9826
 122   2.0000      -0.764921       -20.8146
 123   2.0000      -0.750370       -20.4186
 124   2.0000      -0.732398       -19.9296
 125   2.0000      -0.727211       -19.7884
 126   2.0000      -0.709434       -19.3047
 127   2.0000      -0.704438       -19.1687
 128   2.0000      -0.693135       -18.8612
 129   2.0000      -0.685812       -18.6619
 130   2.0000      -0.678186       -18.4544
 131   2.0000      -0.670141       -18.2355
 132   2.0000      -0.667216       -18.1559
 133   2.0000      -0.662842       -18.0368
 134   2.0000      -0.651164       -17.7191
 135   2.0000      -0.646069       -17.5804
 136   2.0000      -0.633820       -17.2471
 137   2.0000      -0.629716       -17.1354
 138   2.0000      -0.624774       -17.0010
 139   2.0000      -0.622948       -16.9513
 140   2.0000      -0.619995       -16.8709
 141   2.0000      -0.617583       -16.8053
 142   2.0000      -0.613372       -16.6907
 143   2.0000      -0.606565       -16.5055
 144   2.0000      -0.603731       -16.4284
 145   2.0000      -0.602946       -16.4070
 146   2.0000      -0.600910       -16.3516
 147   2.0000      -0.596593       -16.2341
 148   2.0000      -0.593608       -16.1529
 149   2.0000      -0.589476       -16.0405
 150   2.0000      -0.585746       -15.9390
 151   2.0000      -0.583931       -15.8896
 152   2.0000      -0.575727       -15.6663
 153   2.0000      -0.560970       -15.2648
 154   2.0000      -0.554716       -15.0946
 155   2.0000      -0.552849       -15.0438
 156   2.0000      -0.551951       -15.0193
 157   2.0000      -0.548405       -14.9229
 158   2.0000      -0.542784       -14.7699
 159   2.0000      -0.530192       -14.4273
 160   2.0000      -0.526272       -14.3206
 161   2.0000      -0.522058       -14.2059
 162   2.0000      -0.520176       -14.1547
 163   2.0000      -0.519194       -14.1280
 164   2.0000      -0.512687       -13.9509
 165   2.0000      -0.506880       -13.7929
 166   2.0000      -0.506019       -13.7695
 167   2.0000      -0.505114       -13.7449
 168   2.0000      -0.503169       -13.6919
 169   2.0000      -0.495928       -13.4949
 170   2.0000      -0.493635       -13.4325
 171   2.0000      -0.491304       -13.3691
 172   2.0000      -0.490807       -13.3555
 173   2.0000      -0.490234       -13.3399
 174   2.0000      -0.486657       -13.2426
 175   2.0000      -0.485641       -13.2150
 176   2.0000      -0.481902       -13.1132
 177   2.0000      -0.478856       -13.0303
 178   2.0000      -0.477880       -13.0038
 179   2.0000      -0.476813       -12.9747
 180   2.0000      -0.472991       -12.8707
 181   2.0000      -0.468952       -12.7608
 182   2.0000      -0.463482       -12.6120
 183   2.0000      -0.461555       -12.5596
 184   2.0000      -0.459535       -12.5046
 185   2.0000      -0.456238       -12.4149
 186   2.0000      -0.453721       -12.3464
 187   2.0000      -0.451547       -12.2872
 188   2.0000      -0.450904       -12.2697
 189   2.0000      -0.446573       -12.1519
 190   2.0000      -0.441145       -12.0042
 191   2.0000      -0.436201       -11.8696
 192   2.0000      -0.428396       -11.6573
 193   2.0000      -0.426674       -11.6104
 194   2.0000      -0.424954       -11.5636
 195   2.0000      -0.423828       -11.5329
 196   2.0000      -0.421539       -11.4707
 197   2.0000      -0.420725       -11.4485
 198   2.0000      -0.418104       -11.3772
 199   2.0000      -0.415779       -11.3139
 200   2.0000      -0.412280       -11.2187
 201   2.0000      -0.406279       -11.0554
 202   2.0000      -0.402624       -10.9560
 203   2.0000      -0.396116       -10.7789
 204   2.0000      -0.394492       -10.7347
 205   2.0000      -0.390422       -10.6239
 206   2.0000      -0.385795       -10.4980
 207   2.0000      -0.384464       -10.4618
 208   2.0000      -0.365392        -9.9428
 209   2.0000      -0.357907        -9.7391
 210   2.0000      -0.354984        -9.6596
 211   2.0000      -0.350229        -9.5302
 212   2.0000      -0.342459        -9.3188
 213   2.0000      -0.338122        -9.2008
 214   2.0000      -0.335404        -9.1268
 215   2.0000      -0.334211        -9.0943
 216   2.0000      -0.332403        -9.0451
 217   2.0000      -0.324015        -8.8169
 218   2.0000      -0.322668        -8.7803
 219   2.0000      -0.318316        -8.6618
 220   2.0000      -0.312300        -8.4981
 221   2.0000      -0.308971        -8.4075
 222   2.0000      -0.299220        -8.1422
 223   2.0000      -0.287326        -7.8185
 224   2.0000      -0.274142        -7.4598
 225   2.0000      -0.252788        -6.8787
 226   2.0000      -0.234133        -6.3711
 227   2.0000      -0.210840        -5.7372
 228   2.0000      -0.185409        -5.0452
 229   0.0000      -0.089081        -2.4240
 230   0.0000      -0.064750        -1.7619
 231   0.0000      -0.040249        -1.0952
 232   0.0000      -0.033931        -0.9233
 233   0.0000      -0.016932        -0.4607

MULLIKEN ATOMIC CHARGES
-----------------------
   0 C :   -0.034503
   1 C :   -0.059416
   2 C :    0.024497
   3 C :    0.079201
   4 C :   -0.069060
   5 S :    0.083593
   6 C :   -0.080260
   7 C :    0.069964
   8 C :    0.027316
   9 C :   -0.053501
  10 S :    0.047936
  11 C :    0.001968
  12 C :   -0.258174
  13 S :    0.150057
  14 C :   -0.118492
  15 C :    0.061829
  16 C :    0.170814
  17 C :    0.018483
  18 C :    0.057364
  19 C :   -0.025976
  20 C :    0.007885
  21 O :   -0.171314
  22 N :   -0.021015
  23 C :   -0.093049
  24 S :    0.169527
  25 C :   -0.025737
  26 N :    0.281298
  27 O :   -0.272543
  28 O :   -0.288393
  29 C :   -0.004606
  30 C :    0.111565
  31 C :   -0.033142
  32 C :   -0.003673
  33 C :    0.013012
  34 C :   -0.040339
  35 C :    0.065968
  36 C :   -0.000524
  37 C :   -0.059566
  38 S :    0.067575
  39 C :   -0.045635
  40 C :    0.013779
  41 C :    0.029520
  42 C :   -0.027601
  43 S :    0.067837
  44 C :   -0.012356
  45 C :   -0.019466
  46 C :   -0.023302
  47 C :    0.028969
  48 C :    0.016344
  49 C :   -0.042755
  50 S :    0.073771
  51 C :   -0.067205
  52 C :    0.027561
  53 C :    0.051578
  54 C :   -0.065921
  55 S :    0.078364
  56 C :   -0.029512
  57 H :    0.017472
  58 H :    0.020627
  59 H :   -0.015756
  60 H :   -0.014504
  61 H :   -0.005204
  62 H :   -0.007574
  63 H :   -0.004603
  64 H :    0.020807
  65 H :   -0.031190
  66 H :   -0.022848
  67 H :    0.182728
  68 H :    0.143939
  69 H :    0.000440
  70 H :    0.003650
  71 H :   -0.012248
  72 H :   -0.012613
  73 H :   -0.019199
  74 H :   -0.021619
  75 H :   -0.018832
  76 H :   -0.015203
  77 H :   -0.008077
  78 H :   -0.010643
  79 H :   -0.015013
  80 H :   -0.016090
  81 H :   -0.013651
  82 H :   -0.013978
  83 H :    0.018098
  84 H :    0.020542
Sum of atomic charges:   -0.0000000

LOEWDIN ATOMIC CHARGES
----------------------
   0 C :   -0.082685
   1 C :   -0.138794
   2 C :   -0.037394
   3 C :   -0.016600
   4 C :   -0.175555
   5 S :    0.356541
   6 C :   -0.182953
   7 C :   -0.033766
   8 C :   -0.036710
   9 C :   -0.157502
  10 S :    0.379445
  11 C :   -0.091996
  12 C :   -0.190118
  13 S :    0.483674
  14 C :   -0.190649
  15 C :   -0.055565
  16 C :   -0.050389
  17 C :   -0.030046
  18 C :    0.017362
  19 C :   -0.056897
  20 C :   -0.009383
  21 O :   -0.048353
  22 N :    0.033421
  23 C :   -0.084317
  24 S :    0.471280
  25 C :   -0.225207
  26 N :    0.274628
  27 O :   -0.237613
  28 O :   -0.254122
  29 C :   -0.002730
  30 C :   -0.109907
  31 C :   -0.021223
  32 C :   -0.043906
  33 C :   -0.045802
  34 C :   -0.151533
  35 C :   -0.023957
  36 C :   -0.053923
  37 C :   -0.181680
  38 S :    0.402458
  39 C :   -0.188270
  40 C :   -0.041601
  41 C :   -0.040665
  42 C :   -0.150713
  43 S :    0.382814
  44 C :   -0.065545
  45 C :   -0.067765
  46 C :   -0.147315
  47 C :   -0.038122
  48 C :   -0.037530
  49 C :   -0.179833
  50 S :    0.370928
  51 C :   -0.179783
  52 C :   -0.027398
  53 C :   -0.035145
  54 C :   -0.139395
  55 S :    0.352050
  56 C :   -0.079148
  57 H :    0.027458
  58 H :    0.025972
  59 H :    0.030888
  60 H :    0.031193
  61 H :    0.032306
  62 H :    0.024974
  63 H :    0.034618
  64 H :    0.025411
  65 H :    0.029493
  66 H :    0.032491
  67 H :    0.095266
  68 H :    0.058473
  69 H :    0.040703
  70 H :    0.005572
  71 H :    0.029128
  72 H :    0.034405
  73 H :    0.030563
  74 H :    0.028190
  75 H :    0.029900
  76 H :    0.032917
  77 H :    0.027910
  78 H :    0.026242
  79 H :    0.032763
  80 H :    0.030288
  81 H :    0.031863
  82 H :    0.032446
  83 H :    0.027949
  84 H :    0.025520

  Mayer bond orders larger than 0.100000
B(  0-C ,  1-C ) :   1.8632 B(  0-C , 57-H ) :   0.9512 B(  0-C , 58-H ) :   0.9408
B(  1-C ,  2-C ) :   1.0784 B(  1-C ,  5-S ) :   1.0076 B(  2-C ,  3-C ) :   1.6534
B(  2-C , 59-H ) :   0.9946 B(  3-C ,  4-C ) :   1.1609 B(  3-C , 60-H ) :   0.9850
B(  4-C ,  5-S ) :   1.0468 B(  4-C ,  6-C ) :   1.5810 B(  6-C ,  7-C ) :   1.1537
B(  6-C , 10-S ) :   1.0198 B(  7-C ,  8-C ) :   1.6194 B(  7-C , 61-H ) :   0.9861
B(  8-C ,  9-C ) :   1.1155 B(  8-C , 62-H ) :   0.9918 B(  9-C , 10-S ) :   1.0063
B(  9-C , 11-C ) :   1.6526 B( 11-C , 12-C ) :   1.1307 B( 11-C , 63-H ) :   0.9336
B( 12-C , 13-S ) :   1.1560 B( 12-C , 14-C ) :   0.1066 B( 12-C , 16-C ) :   1.3447
B( 13-S , 14-C ) :   1.2086 B( 14-C , 15-C ) :   1.4251 B( 14-C , 64-H ) :   0.9712
B( 15-C , 16-C ) :   1.2148 B( 15-C , 20-C ) :   1.1561 B( 16-C , 17-C ) :   1.2157
B( 17-C , 18-C ) :   1.4569 B( 17-C , 22-N ) :   1.0990 B( 18-C , 19-C ) :   1.1750
B( 18-C , 21-O ) :   1.1954 B( 19-C , 20-C ) :   1.5352 B( 19-C , 65-H ) :   0.9859
B( 20-C , 66-H ) :   1.0016 B( 21-O , 67-H ) :   0.9506 B( 22-N , 23-C ) :   1.2546
B( 22-N , 68-H ) :   0.8753 B( 23-C , 24-S ) :   1.1479 B( 23-C , 30-C ) :   1.3225
B( 24-S , 25-C ) :   1.0784 B( 25-C , 26-N ) :   0.9996 B( 25-C , 29-C ) :   1.4467
B( 26-N , 27-O ) :   1.5155 B( 26-N , 28-O ) :   1.4925 B( 27-O , 28-O ) :   0.2432
B( 29-C , 30-C ) :   1.2533 B( 29-C , 69-H ) :   1.0016 B( 30-C , 31-C ) :   1.1011
B( 31-C , 32-C ) :   1.6754 B( 31-C , 70-H ) :   0.9375 B( 32-C , 33-C ) :   1.1779
B( 32-C , 71-H ) :   0.9655 B( 33-C , 34-C ) :   1.5784 B( 33-C , 72-H ) :   0.9610
B( 34-C , 35-C ) :   1.1583 B( 34-C , 38-S ) :   1.0322 B( 35-C , 36-C ) :   1.5591
B( 35-C , 73-H ) :   0.9977 B( 36-C , 37-C ) :   1.2023 B( 36-C , 74-H ) :   0.9965
B( 37-C , 38-S ) :   1.0573 B( 37-C , 39-C ) :   1.4530 B( 39-C , 40-C ) :   1.2255
B( 39-C , 43-S ) :   1.0467 B( 40-C , 41-C ) :   1.5294 B( 40-C , 75-H ) :   0.9955
B( 41-C , 42-C ) :   1.1955 B( 41-C , 76-H ) :   0.9999 B( 42-C , 43-S ) :   1.0402
B( 42-C , 44-C ) :   1.4991 B( 44-C , 45-C ) :   1.2263 B( 44-C , 77-H ) :   0.9714
B( 45-C , 46-C ) :   1.5072 B( 45-C , 78-H ) :   0.9718 B( 46-C , 47-C ) :   1.1834
B( 46-C , 50-S ) :   1.0445 B( 47-C , 48-C ) :   1.5543 B( 47-C , 79-H ) :   1.0001
B( 48-C , 49-C ) :   1.2035 B( 48-C , 80-H ) :   0.9941 B( 49-C , 50-S ) :   1.0435
B( 49-C , 51-C ) :   1.5121 B( 51-C , 52-C ) :   1.1721 B( 51-C , 55-S ) :   1.0481
B( 52-C , 53-C ) :   1.6430 B( 52-C , 81-H ) :   0.9919 B( 53-C , 54-C ) :   1.0882
B( 53-C , 82-H ) :   0.9926 B( 54-C , 55-S ) :   1.0096 B( 54-C , 56-C ) :   1.8533
B( 56-C , 83-H ) :   0.9503 B( 56-C , 84-H ) :   0.9420

-----------------------------------------------------------------------------
         ABSORPTION SPECTRUM VIA TRANSITION ELECTRIC DIPOLE MOMENTS
-----------------------------------------------------------------------------
State   Energy  Wavelength   fosc         T2         TX        TY        TZ
        (cm-1)    (nm)                  (au**2)     (au)      (au)      (au)
-----------------------------------------------------------------------------
   0    9268.2   1079.0   1.210395674  42.99393   4.58757   3.70131   2.87201
   1   12017.3    832.1   0.015484051   0.42418   0.38353  -0.51730  -0.09742
   2   13086.9    764.1   0.147872066   3.71986   1.63643   0.87088   0.53247
   3   16791.2    595.6   0.040430813   0.79270   0.81735  -0.35261  -0.01747
   4   17184.9    581.9   0.443043624   8.48742  -2.68092   1.12236  -0.20101
   5   19665.7    508.5   0.766649529  12.83401   3.40472  -1.11319  -0.05229
   6   20338.2    491.7   0.156112092   2.52697   0.28906  -1.21130   0.98802
   7   22234.4    449.8   0.125069748   1.85184  -1.16962   0.37474  -0.58599
   8   22757.8    439.4   0.034208188   0.49485   0.47915   0.39618  -0.32911
   9   23098.7    432.9   0.044515622   0.63445   0.37154  -0.36226   0.60430
  10   23978.5    417.0   0.051588796   0.70829  -0.70892  -0.30644  -0.33438
  11   24224.6    412.8   0.017668031   0.24011  -0.09567   0.40352  -0.26102
  12   25428.6    393.3   0.009319912   0.12066  -0.30270   0.16706   0.03353
  13   25889.9    386.3   0.034753303   0.44192  -0.01539  -0.03603   0.66361
  14   27374.7    365.3   0.053111270   0.63872  -0.66553  -0.17951  -0.40445
  15   27538.3    363.1   0.082362204   0.98462   0.48966  -0.85346  -0.12825
  16   28929.6    345.7   0.040657266   0.46267  -0.24499   0.63243  -0.05184
  17   29115.6    343.5   0.285853958   3.23217   1.60515   0.32672  -0.74088
  18   29412.0    340.0   0.179140657   2.00514  -0.26950   1.38448  -0.12538
  19   29956.6    333.8   0.239641769   2.63357  -1.31267  -0.83948  -0.45357
  20   30137.1    331.8   0.279080529   3.04862   0.71820  -1.59018  -0.06446
  21   30944.7    323.2   0.009563119   0.10174   0.28525   0.14258  -0.00640
  22   31449.1    318.0   0.032557006   0.34081  -0.11658  -0.57111  -0.03238
  23   31514.1    317.3   0.027548932   0.28779   0.53414  -0.02227  -0.04458
  24   31923.3    313.3   0.068995234   0.71152   0.20049   0.78060   0.24898
  25   32186.5    310.7   0.040593756   0.41520  -0.41962   0.48871  -0.01668
  26   32879.9    304.1   0.011538050   0.11553  -0.00964   0.11278   0.32049
  27   32939.4    303.6   0.064293990   0.64258  -0.22811  -0.64939  -0.41091
  28   33150.5    301.7   0.052027995   0.51668   0.37100   0.48586  -0.37813
  29   33293.1    300.4   0.055619984   0.54999   0.03763   0.73942   0.04274
  30   33365.7    299.7   0.036301874   0.35818  -0.09055  -0.39708  -0.43853
  31   33715.3    296.6   0.095855249   0.93598   0.79819   0.37196   0.40064
  32   33996.4    294.1   0.065869168   0.63786   0.13446   0.78718   0.01115
  33   34087.5    293.4   0.008498226   0.08207   0.21793   0.10097   0.15616
  34   34393.7    290.8   0.034934302   0.33439  -0.39711   0.41463  -0.06909
  35   34515.5    289.7   0.002395249   0.02285   0.11373  -0.00580  -0.09938
  36   34931.4    286.3   0.070791021   0.66717   0.73350  -0.17044  -0.31638
  37   35246.1    283.7   0.070689804   0.66027   0.80062  -0.06997  -0.11995
  38   35809.4    279.3   0.019387910   0.17824   0.13265  -0.38396  -0.11499
  39   36033.3    277.5   0.002047398   0.01871  -0.07270   0.00722  -0.11562
  40   36300.5    275.5   0.011492018   0.10422  -0.05532  -0.31678  -0.02855
  41   36547.2    273.6   0.017159101   0.15457   0.02290   0.27312   0.28187
  42   36896.2    271.0   0.023155131   0.20661  -0.15719   0.02868  -0.42553
  43   37307.5    268.0   0.034704017   0.30624  -0.16762  -0.52711  -0.01716
  44   37435.7    267.1   0.086860105   0.76385   0.11979  -0.85365  -0.14419
  45   37916.5    263.7   0.025605591   0.22232  -0.23053  -0.40080  -0.09242
  46   38147.8    262.1   0.029182192   0.25184   0.43628   0.13900   0.20537
  47   38370.3    260.6   0.000158221   0.00136  -0.01933   0.01337   0.02838
  48   38503.6    259.7   0.061173486   0.52304  -0.69959  -0.15428  -0.09905
  49   38658.0    258.7   0.017376463   0.14798  -0.22561   0.18891  -0.24777
  50   38761.5    258.0   0.086246778   0.73252  -0.84646   0.12649   0.00404
  51   39373.9    254.0   0.064646707   0.54052   0.31020   0.65417   0.12791
  52   39408.8    253.8   0.027953291   0.23352   0.39702  -0.19311   0.19646
  53   39550.3    252.8   0.015949535   0.13276   0.02736   0.36268  -0.02181
  54   39813.2    251.2   0.022482123   0.18590   0.40174  -0.10927   0.11212
  55   40050.3    249.7   0.064275024   0.52834  -0.35728   0.56092   0.29335
  56   40238.9    248.5   0.001444895   0.01182   0.03620   0.10240  -0.00504

FINAL SINGLE POINT ENERGY     -5210.424739244590

DIPOLE MOMENT
-------------
                                X             Y             Z
Electronic contribution:      3.12899     -21.65492      -5.28084
Nuclear contribution   :     -2.13573      24.19883       3.72044
                        -----------------------------------------
Total Dipole Moment    :      0.99326       2.54392      -1.56039
                        -----------------------------------------
Magnitude (a.u.)       :      3.14530
Magnitude (Debye)      :      7.99471

Rotational constants in cm-1:     0.001593     0.000581     0.000503
Rotational constants in MHz :    47.763773    17.417623    15.082259

                             ****ORCA TERMINATED NORMALLY****
TOTAL RUN TIME: 0 days 0 hours 8 minutes 10 seconds 750 msec
