                         Program Version 4.2.0 -  RELEASE  -
|  1> # ORCA input file
|  2> # SCF done       -175.186804623817          0.001470070652
|  3> ! CAM-B3LYP def2-SVP def2/J RIJCOSX Grid4 TightSCF
|  4> %maxcore 5000
|  5> %tddft
|  6>     Mode sTDDFT
|  7>     Ethresh 5.0
|  8>     maxcore 5000
|  9> end
| 10>
| 11> %pal
| 12>   nprocs 6
| 13>   end
| 14> * xyz 0 1
| 15>    C        7.10544        -7.93476         7.45594
| 16>    C        8.10646        -7.71156         6.59504
| 17>    C        9.34309        -7.02852         6.84045
| 18>    C       10.17181        -6.96674         5.77426
| 19>    C        9.65212        -7.56916         4.59343
| 20>    S        8.06659        -8.23687         4.90077
| 21>    C       10.22891        -7.61750         3.34550
| 22>    C       11.47961        -7.10902         2.92055
| 23>    C       11.68192        -7.20297         1.57863
| 24>    C       10.58566        -7.74244         0.85369
| 25>    S        9.35778        -8.28488         1.97818
| 26>    C       10.48978        -7.79628        -0.51733
| 27>    C        9.37915        -8.07906        -1.33904
| 28>    S        9.73581        -8.80030        -2.89731
| 29>    C        8.06055        -9.02202        -3.22617
| 30>    C        7.25607        -8.55402        -2.24207
| 31>    C        5.76537        -8.60459        -2.29575
| 32>    C        7.98842        -7.95163        -1.16585
| 33>    C        7.34031        -7.23149        -0.12631
| 34>    C        7.93903        -6.24286         0.59847
| 35>    C        7.47971        -5.73802         1.82756
| 36>    C        8.29379        -4.92771         2.57816
| 37>    C        8.22475        -4.54818         3.92212
| 38>    S        9.59813        -3.64649         4.51244
| 39>    C        9.01934        -3.63639         6.15581
| 40>    C        7.77455        -4.31650         6.23115
| 41>    C        7.32010        -4.81989         4.98210
| 42>    C        6.10561        -5.51862         4.91728
| 43>    C        5.37924        -5.73257         6.07086
| 44>    O        4.21141        -6.41209         6.13578
| 45>    C        3.71805        -7.03464         4.97412
| 46>    C        5.84278        -5.23142         7.30789
| 47>    C        7.01080        -4.52888         7.38809
| 48>    C        9.71898        -3.08341         7.21023
| 49>    C       10.93007        -2.41099         7.13177
| 50>    C       11.66465        -1.92959         8.20302
| 51>    C       11.44629        -2.11417         9.56835
| 52>    C       12.20648        -1.55070        10.60553
| 53>    C       11.80155        -1.90319        11.87258
| 54>    C       10.70633        -2.77216        11.88484
| 55>    S       10.20205        -3.13089        10.25855
| 56>    C        9.99525        -3.33329        12.94855
| 57>    C       10.15815        -3.17997        14.32794
| 58>    C        9.23163        -3.87681        15.07052
| 59>    C        8.31104        -4.60431        14.30297
| 60>    S        8.64931        -4.39225        12.60364
| 61>    C        7.24486        -5.38918        14.73962
| 62>    C        6.42387        -6.05446        13.85288
| 63>    C        5.30547        -6.81423        14.17799
| 64>    C        4.46290        -7.50830        13.25506
| 65>    C        4.63127        -7.63292        11.88819
| 66>    C        3.76295        -8.34719        11.04333
| 67>    N        3.10462        -8.91189        10.28737
| 68>    C        5.67946        -7.09529        11.12516
| 69>    N        6.48791        -6.70526        10.40296
| 70>    C        3.35990        -8.09927        14.01441
| 71>    C        3.54316        -7.79333        15.38438
| 72>    C        4.77946        -6.98829        15.53706
| 73>    O        5.23408        -6.56636        16.58516
| 74>    C        2.66462        -8.19666        16.35684
| 75>    C        1.54428        -8.93765        15.95860
| 76>    C        1.37135        -9.23883        14.59006
| 77>    C        2.26456        -8.83201        13.60420
| 78>    S       -0.08007       -10.15687        14.31530
| 79>    C       -0.42966       -10.11857        16.02286
| 80>    C        0.49127        -9.45723        16.76170
| 81>   Br       -1.98140       -10.95517        16.66902
| 82>    H        7.16359        -7.58876         8.47430
| 83>    H        6.21840        -8.47038         7.16856
| 84>    H        9.55108        -6.61626         7.81155
| 85>    H       11.13710        -6.49210         5.77987
| 86>    H       12.18125        -6.67676         3.61079
| 87>    H       12.56216        -6.84851         1.07119
| 88>    H       11.42330        -7.65214        -1.05127
| 89>    H        7.76910        -9.48745        -4.14747
| 90>    H        5.43711        -9.08945        -3.21148
| 91>    H        5.34873        -7.59842        -2.26379
| 92>    H        5.37455        -9.16322        -1.44584
| 93>    H        6.32035        -7.51038         0.10071
| 94>    H        8.90105        -5.87937         0.25964
| 95>    H        6.54652        -6.12028         2.20741
| 96>    H        9.19785        -4.58762         2.08162
| 97>    H        5.75466        -5.88890         3.97195
| 98>    H        2.82471        -7.57244         5.28676
| 99>    H        4.44400        -7.74335         4.56255
|100>    H        3.44778        -6.30010         4.20817
|101>    H        5.24831        -5.42676         8.18508
|102>    H        7.34938        -4.16174         8.34313
|103>    H        9.24387        -3.18436         8.17267
|104>    H       11.33112        -2.23143         6.14156
|105>    H       12.54337        -1.34170         7.96700
|106>    H       13.03214        -0.89049        10.40426
|107>    H       12.27155        -1.55660        12.77541
|108>    H       10.93495        -2.56783        14.75095
|109>    H        9.19423        -3.87662        16.14537
|110>    H        7.06159        -5.46232        15.80123
|111>    H        6.66957        -5.96215        12.80110
|112>    H        2.82993        -7.94690        17.39341
|113>    H        2.08500        -9.08601        12.57280
|114>    H        0.43204        -9.33725        17.82819
|115> *
|116>
|117>                          ****END OF INPUT****

CARTESIAN COORDINATES (ANGSTROEM)
---------------------------------
  C      7.105440   -7.934760    7.455940
  C      8.106460   -7.711560    6.595040
  C      9.343090   -7.028520    6.840450
  C     10.171810   -6.966740    5.774260
  C      9.652120   -7.569160    4.593430
  S      8.066590   -8.236870    4.900770
  C     10.228910   -7.617500    3.345500
  C     11.479610   -7.109020    2.920550
  C     11.681920   -7.202970    1.578630
  C     10.585660   -7.742440    0.853690
  S      9.357780   -8.284880    1.978180
  C     10.489780   -7.796280   -0.517330
  C      9.379150   -8.079060   -1.339040
  S      9.735810   -8.800300   -2.897310
  C      8.060550   -9.022020   -3.226170
  C      7.256070   -8.554020   -2.242070
  C      5.765370   -8.604590   -2.295750
  C      7.988420   -7.951630   -1.165850
  C      7.340310   -7.231490   -0.126310
  C      7.939030   -6.242860    0.598470
  C      7.479710   -5.738020    1.827560
  C      8.293790   -4.927710    2.578160
  C      8.224750   -4.548180    3.922120
  S      9.598130   -3.646490    4.512440
  C      9.019340   -3.636390    6.155810
  C      7.774550   -4.316500    6.231150
  C      7.320100   -4.819890    4.982100
  C      6.105610   -5.518620    4.917280
  C      5.379240   -5.732570    6.070860
  O      4.211410   -6.412090    6.135780
  C      3.718050   -7.034640    4.974120
  C      5.842780   -5.231420    7.307890
  C      7.010800   -4.528880    7.388090
  C      9.718980   -3.083410    7.210230
  C     10.930070   -2.410990    7.131770
  C     11.664650   -1.929590    8.203020
  C     11.446290   -2.114170    9.568350
  C     12.206480   -1.550700   10.605530
  C     11.801550   -1.903190   11.872580
  C     10.706330   -2.772160   11.884840
  S     10.202050   -3.130890   10.258550
  C      9.995250   -3.333290   12.948550
  C     10.158150   -3.179970   14.327940
  C      9.231630   -3.876810   15.070520
  C      8.311040   -4.604310   14.302970
  S      8.649310   -4.392250   12.603640
  C      7.244860   -5.389180   14.739620
  C      6.423870   -6.054460   13.852880
  C      5.305470   -6.814230   14.177990
  C      4.462900   -7.508300   13.255060
  C      4.631270   -7.632920   11.888190
  C      3.762950   -8.347190   11.043330
  N      3.104620   -8.911890   10.287370
  C      5.679460   -7.095290   11.125160
  N      6.487910   -6.705260   10.402960
  C      3.359900   -8.099270   14.014410
  C      3.543160   -7.793330   15.384380
  C      4.779460   -6.988290   15.537060
  O      5.234080   -6.566360   16.585160
  C      2.664620   -8.196660   16.356840
  C      1.544280   -8.937650   15.958600
  C      1.371350   -9.238830   14.590060
  C      2.264560   -8.832010   13.604200
  S     -0.080070  -10.156870   14.315300
  C     -0.429660  -10.118570   16.022860
  C      0.491270   -9.457230   16.761700
  Br    -1.981400  -10.955170   16.669020
  H      7.163590   -7.588760    8.474300
  H      6.218400   -8.470380    7.168560
  H      9.551080   -6.616260    7.811550
  H     11.137100   -6.492100    5.779870
  H     12.181250   -6.676760    3.610790
  H     12.562160   -6.848510    1.071190
  H     11.423300   -7.652140   -1.051270
  H      7.769100   -9.487450   -4.147470
  H      5.437110   -9.089450   -3.211480
  H      5.348730   -7.598420   -2.263790
  H      5.374550   -9.163220   -1.445840
  H      6.320350   -7.510380    0.100710
  H      8.901050   -5.879370    0.259640
  H      6.546520   -6.120280    2.207410
  H      9.197850   -4.587620    2.081620
  H      5.754660   -5.888900    3.971950
  H      2.824710   -7.572440    5.286760
  H      4.444000   -7.743350    4.562550
  H      3.447780   -6.300100    4.208170
  H      5.248310   -5.426760    8.185080
  H      7.349380   -4.161740    8.343130
  H      9.243870   -3.184360    8.172670
  H     11.331120   -2.231430    6.141560
  H     12.543370   -1.341700    7.967000
  H     13.032140   -0.890490   10.404260
  H     12.271550   -1.556600   12.775410
  H     10.934950   -2.567830   14.750950
  H      9.194230   -3.876620   16.145370
  H      7.061590   -5.462320   15.801230
  H      6.669570   -5.962150   12.801100
  H      2.829930   -7.946900   17.393410
  H      2.085000   -9.086010   12.572800
  H      0.432040   -9.337250   17.828190

 Total Charge           Charge          ....    0
 Multiplicity           Mult            ....    1
 Number of Electrons    NEL             ....  540
 Basis Dimension        Dim             .... 1149

ORBITAL ENERGIES
----------------

  NO   OCC          E(Eh)            E(eV)
   0   2.0000    -482.865882    -13139.4486
   1   2.0000     -88.968640     -2420.9598
   2   2.0000     -88.957991     -2420.6700
   3   2.0000     -88.952773     -2420.5280
   4   2.0000     -88.951360     -2420.4896
   5   2.0000     -88.950854     -2420.4758
   6   2.0000     -88.949322     -2420.4341
   7   2.0000     -88.941856     -2420.2309
   8   2.0000     -62.543602     -1701.8979
   9   2.0000     -56.377521     -1534.1103
  10   2.0000     -56.374865     -1534.0381
  11   2.0000     -56.374816     -1534.0367
  12   2.0000     -19.249735      -523.8119
  13   2.0000     -19.176495      -521.8190
  14   2.0000     -14.392207      -391.6319
  15   2.0000     -14.379874      -391.2963
  16   2.0000     -10.339160      -281.3428
  17   2.0000     -10.334431      -281.2142
  18   2.0000     -10.330843      -281.1165
  19   2.0000     -10.326464      -280.9974
  20   2.0000     -10.325635      -280.9748
  21   2.0000     -10.324361      -280.9402
  22   2.0000     -10.321780      -280.8699
  23   2.0000     -10.314881      -280.6822
  24   2.0000     -10.311511      -280.5905
  25   2.0000     -10.311488      -280.5898
  26   2.0000     -10.308677      -280.5134
  27   2.0000     -10.305565      -280.4287
  28   2.0000     -10.304843      -280.4090
  29   2.0000     -10.303134      -280.3625
  30   2.0000     -10.302695      -280.3506
  31   2.0000     -10.301528      -280.3188
  32   2.0000     -10.301373      -280.3146
  33   2.0000     -10.298896      -280.2472
  34   2.0000     -10.297865      -280.2192
  35   2.0000     -10.297680      -280.2141
  36   2.0000     -10.296670      -280.1866
  37   2.0000     -10.296370      -280.1785
  38   2.0000     -10.296265      -280.1756
  39   2.0000     -10.294447      -280.1262
  40   2.0000     -10.293251      -280.0936
  41   2.0000     -10.292839      -280.0824
  42   2.0000     -10.292795      -280.0812
  43   2.0000     -10.292008      -280.0598
  44   2.0000     -10.291792      -280.0539
  45   2.0000     -10.291579      -280.0481
  46   2.0000     -10.290299      -280.0133
  47   2.0000     -10.288954      -279.9767
  48   2.0000     -10.287126      -279.9269
  49   2.0000     -10.286101      -279.8990
  50   2.0000     -10.285774      -279.8901
  51   2.0000     -10.283745      -279.8349
  52   2.0000     -10.282405      -279.7985
  53   2.0000     -10.281376      -279.7705
  54   2.0000     -10.281230      -279.7665
  55   2.0000     -10.280698      -279.7520
  56   2.0000     -10.279507      -279.7196
  57   2.0000     -10.278471      -279.6914
  58   2.0000     -10.278444      -279.6907
  59   2.0000     -10.277875      -279.6752
  60   2.0000     -10.275427      -279.6086
  61   2.0000     -10.274505      -279.5835
  62   2.0000     -10.273521      -279.5567
  63   2.0000     -10.273300      -279.5507
  64   2.0000     -10.272602      -279.5317
  65   2.0000     -10.270263      -279.4681
  66   2.0000     -10.270213      -279.4667
  67   2.0000     -10.266384      -279.3625
  68   2.0000     -10.258810      -279.1564
  69   2.0000     -10.247501      -278.8487
  70   2.0000     -10.246289      -278.8157
  71   2.0000      -8.773024      -238.7261
  72   2.0000      -8.063900      -219.4299
  73   2.0000      -8.053520      -219.1474
  74   2.0000      -8.047982      -218.9967
  75   2.0000      -8.047721      -218.9896
  76   2.0000      -8.046879      -218.9667
  77   2.0000      -8.045029      -218.9164
  78   2.0000      -8.037706      -218.7171
  79   2.0000      -6.609186      -179.8451
  80   2.0000      -6.594785      -179.4532
  81   2.0000      -6.594694      -179.4507
  82   2.0000      -6.033056      -164.1678
  83   2.0000      -6.029128      -164.0609
  84   2.0000      -6.026100      -163.9785
  85   2.0000      -6.023008      -163.8944
  86   2.0000      -6.018891      -163.7824
  87   2.0000      -6.017650      -163.7486
  88   2.0000      -6.017100      -163.7336
  89   2.0000      -6.016572      -163.7193
  90   2.0000      -6.015165      -163.6810
  91   2.0000      -6.014760      -163.6700
  92   2.0000      -6.013518      -163.6362
  93   2.0000      -6.012895      -163.6192
  94   2.0000      -6.012338      -163.6040
  95   2.0000      -6.010847      -163.5635
  96   2.0000      -6.009612      -163.5299
  97   2.0000      -6.009209      -163.5189
  98   2.0000      -6.008080      -163.4882
  99   2.0000      -6.007156      -163.4630
 100   2.0000      -6.005942      -163.4300
 101   2.0000      -6.003135      -163.3536
 102   2.0000      -5.999275      -163.2486
 103   2.0000      -2.725087       -74.1534
 104   2.0000      -2.721029       -74.0430
 105   2.0000      -2.720946       -74.0407
 106   2.0000      -2.709510       -73.7295
 107   2.0000      -2.709486       -73.7289
 108   2.0000      -1.155735       -31.4491
 109   2.0000      -1.088980       -29.6327
 110   2.0000      -1.005983       -27.3742
 111   2.0000      -0.999361       -27.1940
 112   2.0000      -0.997750       -27.1501
 113   2.0000      -0.993593       -27.0370
 114   2.0000      -0.987041       -26.8588
 115   2.0000      -0.986773       -26.8515
 116   2.0000      -0.973150       -26.4808
 117   2.0000      -0.971226       -26.4284
 118   2.0000      -0.965973       -26.2855
 119   2.0000      -0.955953       -26.0128
 120   2.0000      -0.938086       -25.5266
 121   2.0000      -0.930419       -25.3180
 122   2.0000      -0.914502       -24.8849
 123   2.0000      -0.912818       -24.8390
 124   2.0000      -0.898288       -24.4437
 125   2.0000      -0.892524       -24.2868
 126   2.0000      -0.882540       -24.0151
 127   2.0000      -0.877976       -23.8909
 128   2.0000      -0.872698       -23.7473
 129   2.0000      -0.865709       -23.5571
 130   2.0000      -0.857584       -23.3361
 131   2.0000      -0.855945       -23.2914
 132   2.0000      -0.850067       -23.1315
 133   2.0000      -0.848271       -23.0826
 134   2.0000      -0.846029       -23.0216
 135   2.0000      -0.841829       -22.9073
 136   2.0000      -0.838993       -22.8302
 137   2.0000      -0.826795       -22.4982
 138   2.0000      -0.821849       -22.3637
 139   2.0000      -0.817232       -22.2380
 140   2.0000      -0.810692       -22.0601
 141   2.0000      -0.801099       -21.7990
 142   2.0000      -0.796324       -21.6691
 143   2.0000      -0.788998       -21.4697
 144   2.0000      -0.785168       -21.3655
 145   2.0000      -0.764371       -20.7996
 146   2.0000      -0.758732       -20.6461
 147   2.0000      -0.750302       -20.4167
 148   2.0000      -0.729867       -19.8607
 149   2.0000      -0.725165       -19.7327
 150   2.0000      -0.719727       -19.5848
 151   2.0000      -0.714750       -19.4493
 152   2.0000      -0.700180       -19.0529
 153   2.0000      -0.690511       -18.7898
 154   2.0000      -0.688185       -18.7265
 155   2.0000      -0.677447       -18.4343
 156   2.0000      -0.674567       -18.3559
 157   2.0000      -0.665576       -18.1113
 158   2.0000      -0.658953       -17.9310
 159   2.0000      -0.656084       -17.8529
 160   2.0000      -0.652938       -17.7673
 161   2.0000      -0.649639       -17.6776
 162   2.0000      -0.639066       -17.3899
 163   2.0000      -0.634332       -17.2611
 164   2.0000      -0.632022       -17.1982
 165   2.0000      -0.629185       -17.1210
 166   2.0000      -0.627390       -17.0722
 167   2.0000      -0.620729       -16.8909
 168   2.0000      -0.615945       -16.7607
 169   2.0000      -0.610719       -16.6185
 170   2.0000      -0.600637       -16.3442
 171   2.0000      -0.599184       -16.3046
 172   2.0000      -0.598040       -16.2735
 173   2.0000      -0.593201       -16.1418
 174   2.0000      -0.591827       -16.1044
 175   2.0000      -0.584516       -15.9055
 176   2.0000      -0.577717       -15.7205
 177   2.0000      -0.569237       -15.4897
 178   2.0000      -0.566995       -15.4287
 179   2.0000      -0.563856       -15.3433
 180   2.0000      -0.560001       -15.2384
 181   2.0000      -0.559484       -15.2243
 182   2.0000      -0.552863       -15.0442
 183   2.0000      -0.545974       -14.8567
 184   2.0000      -0.541120       -14.7246
 185   2.0000      -0.536523       -14.5995
 186   2.0000      -0.533301       -14.5119
 187   2.0000      -0.527240       -14.3469
 188   2.0000      -0.524106       -14.2617
 189   2.0000      -0.521863       -14.2006
 190   2.0000      -0.518353       -14.1051
 191   2.0000      -0.515353       -14.0235
 192   2.0000      -0.513103       -13.9622
 193   2.0000      -0.510846       -13.9008
 194   2.0000      -0.509144       -13.8545
 195   2.0000      -0.506158       -13.7732
 196   2.0000      -0.504828       -13.7371
 197   2.0000      -0.501638       -13.6503
 198   2.0000      -0.500664       -13.6238
 199   2.0000      -0.498496       -13.5648
 200   2.0000      -0.498208       -13.5569
 201   2.0000      -0.496067       -13.4987
 202   2.0000      -0.493880       -13.4392
 203   2.0000      -0.491055       -13.3623
 204   2.0000      -0.486279       -13.2323
 205   2.0000      -0.484734       -13.1903
 206   2.0000      -0.482280       -13.1235
 207   2.0000      -0.481100       -13.0914
 208   2.0000      -0.479258       -13.0413
 209   2.0000      -0.474719       -12.9178
 210   2.0000      -0.470899       -12.8138
 211   2.0000      -0.467936       -12.7332
 212   2.0000      -0.467029       -12.7085
 213   2.0000      -0.465169       -12.6579
 214   2.0000      -0.463856       -12.6222
 215   2.0000      -0.462463       -12.5843
 216   2.0000      -0.461541       -12.5592
 217   2.0000      -0.460884       -12.5413
 218   2.0000      -0.459066       -12.4918
 219   2.0000      -0.457544       -12.4504
 220   2.0000      -0.453698       -12.3457
 221   2.0000      -0.450120       -12.2484
 222   2.0000      -0.445814       -12.1312
 223   2.0000      -0.444456       -12.0943
 224   2.0000      -0.441788       -12.0217
 225   2.0000      -0.438645       -11.9361
 226   2.0000      -0.435706       -11.8562
 227   2.0000      -0.432484       -11.7685
 228   2.0000      -0.431196       -11.7335
 229   2.0000      -0.430707       -11.7201
 230   2.0000      -0.429215       -11.6795
 231   2.0000      -0.425744       -11.5851
 232   2.0000      -0.420960       -11.4549
 233   2.0000      -0.419659       -11.4195
 234   2.0000      -0.417032       -11.3480
 235   2.0000      -0.415161       -11.2971
 236   2.0000      -0.413853       -11.2615
 237   2.0000      -0.412198       -11.2165
 238   2.0000      -0.411263       -11.1910
 239   2.0000      -0.407272       -11.0824
 240   2.0000      -0.405591       -11.0367
 241   2.0000      -0.400940       -10.9101
 242   2.0000      -0.398320       -10.8388
 243   2.0000      -0.396061       -10.7774
 244   2.0000      -0.392802       -10.6887
 245   2.0000      -0.390217       -10.6183
 246   2.0000      -0.382288       -10.4026
 247   2.0000      -0.379686       -10.3318
 248   2.0000      -0.378568       -10.3014
 249   2.0000      -0.368828       -10.0363
 250   2.0000      -0.359196        -9.7742
 251   2.0000      -0.355748        -9.6804
 252   2.0000      -0.347632        -9.4596
 253   2.0000      -0.345853        -9.4111
 254   2.0000      -0.344308        -9.3691
 255   2.0000      -0.337370        -9.1803
 256   2.0000      -0.335120        -9.1191
 257   2.0000      -0.324113        -8.8196
 258   2.0000      -0.320561        -8.7229
 259   2.0000      -0.316209        -8.6045
 260   2.0000      -0.305536        -8.3141
 261   2.0000      -0.298084        -8.1113
 262   2.0000      -0.294965        -8.0264
 263   2.0000      -0.288835        -7.8596
 264   2.0000      -0.287183        -7.8146
 265   2.0000      -0.272690        -7.4203
 266   2.0000      -0.266675        -7.2566
 267   2.0000      -0.244144        -6.6435
 268   2.0000      -0.224411        -6.1065
 269   2.0000      -0.195282        -5.3139
 270   0.0000      -0.111806        -3.0424
 271   0.0000      -0.076686        -2.0867
 272   0.0000      -0.061818        -1.6821
 273   0.0000      -0.037772        -1.0278
 274   0.0000      -0.017653        -0.4804

MULLIKEN ATOMIC CHARGES
-----------------------
   0 C :    0.056061
   1 C :   -0.139426
   2 C :    0.106752
   3 C :    0.014607
   4 C :   -0.039378
   5 S :    0.082260
   6 C :   -0.069685
   7 C :    0.026945
   8 C :    0.043335
   9 C :   -0.068649
  10 S :    0.106658
  11 C :    0.005985
  12 C :   -0.173960
  13 S :    0.102588
  14 C :   -0.118476
  15 C :   -0.082602
  16 C :    0.118311
  17 C :    0.131549
  18 C :   -0.044954
  19 C :    0.014283
  20 C :    0.026662
  21 C :    0.035316
  22 C :   -0.080086
  23 S :    0.117517
  24 C :   -0.091343
  25 C :    0.154771
  26 C :    0.120868
  27 C :   -0.133537
  28 C :    0.216853
  29 O :   -0.297668
  30 C :    0.178016
  31 C :    0.035959
  32 C :   -0.060698
  33 C :   -0.001791
  34 C :   -0.029738
  35 C :    0.047210
  36 C :   -0.060349
  37 C :    0.047101
  38 C :    0.001743
  39 C :    0.000505
  40 S :    0.059144
  41 C :   -0.051947
  42 C :    0.038661
  43 C :    0.004682
  44 C :    0.006508
  45 S :    0.076803
  46 C :   -0.019570
  47 C :   -0.056438
  48 C :   -0.099329
  49 C :    0.339659
  50 C :   -0.401307
  51 C :   -0.205141
  52 N :    0.116472
  53 C :   -0.134693
  54 N :    0.067621
  55 C :    0.009353
  56 C :   -0.002523
  57 C :    0.128872
  58 O :   -0.173922
  59 C :   -0.089954
  60 C :    0.118343
  61 C :   -0.090519
  62 C :   -0.035773
  63 S :    0.166835
  64 C :   -0.124445
  65 C :    0.034295
  66 Br:    0.001686
  67 H :    0.041238
  68 H :    0.028774
  69 H :    0.005736
  70 H :   -0.012847
  71 H :   -0.014076
  72 H :   -0.013437
  73 H :   -0.003128
  74 H :    0.016949
  75 H :    0.010414
  76 H :    0.028371
  77 H :    0.028842
  78 H :   -0.016278
  79 H :    0.014622
  80 H :   -0.010205
  81 H :   -0.012901
  82 H :   -0.067000
  83 H :    0.048778
  84 H :    0.018606
  85 H :    0.023059
  86 H :    0.003710
  87 H :   -0.009224
  88 H :    0.014550
  89 H :   -0.016031
  90 H :   -0.006255
  91 H :   -0.010724
  92 H :   -0.014817
  93 H :   -0.015029
  94 H :   -0.010445
  95 H :    0.006483
  96 H :    0.005001
  97 H :   -0.020924
  98 H :   -0.015078
  99 H :   -0.009620
Sum of atomic charges:   -0.0000000

LOEWDIN ATOMIC CHARGES
----------------------
   0 C :   -0.011053
   1 C :   -0.156728
   2 C :    0.004082
   3 C :   -0.043914
   4 C :   -0.151623
   5 S :    0.370690
   6 C :   -0.193847
   7 C :   -0.037375
   8 C :   -0.040223
   9 C :   -0.150196
  10 S :    0.435556
  11 C :   -0.090188
  12 C :   -0.156787
  13 S :    0.415715
  14 C :   -0.187424
  15 C :   -0.056477
  16 C :   -0.044348
  17 C :   -0.069629
  18 C :   -0.022433
  19 C :   -0.030737
  20 C :    0.002872
  21 C :   -0.064063
  22 C :   -0.117630
  23 S :    0.447811
  24 C :   -0.184364
  25 C :   -0.024187
  26 C :   -0.041061
  27 C :   -0.074737
  28 C :    0.056334
  29 O :   -0.089580
  30 C :    0.076489
  31 C :    0.006724
  32 C :   -0.007873
  33 C :   -0.011316
  34 C :   -0.082843
  35 C :   -0.004262
  36 C :   -0.189600
  37 C :   -0.011375
  38 C :   -0.070881
  39 C :   -0.139959
  40 S :    0.419883
  41 C :   -0.214891
  42 C :   -0.015252
  43 C :   -0.068000
  44 C :   -0.107292
  45 S :    0.410370
  46 C :   -0.085927
  47 C :    0.029699
  48 C :   -0.133566
  49 C :    0.074781
  50 C :   -0.194948
  51 C :   -0.022580
  52 N :   -0.098307
  53 C :    0.004814
  54 N :   -0.112468
  55 C :   -0.015606
  56 C :   -0.044765
  57 C :    0.078219
  58 O :   -0.170076
  59 C :    0.010796
  60 C :   -0.040455
  61 C :   -0.149184
  62 C :   -0.020382
  63 S :    0.418038
  64 C :   -0.279869
  65 C :   -0.071283
  66 Br:    0.119628
  67 H :    0.034295
  68 H :    0.031351
  69 H :    0.040885
  70 H :    0.031565
  71 H :    0.031946
  72 H :    0.032714
  73 H :    0.034404
  74 H :    0.022180
  75 H :    0.034010
  76 H :    0.035526
  77 H :    0.034753
  78 H :    0.026483
  79 H :    0.031929
  80 H :    0.025608
  81 H :    0.029078
  82 H :    0.021917
  83 H :    0.034592
  84 H :    0.012991
  85 H :    0.014638
  86 H :    0.042524
  87 H :    0.034985
  88 H :    0.016124
  89 H :    0.023074
  90 H :    0.039962
  91 H :    0.034037
  92 H :    0.031546
  93 H :    0.031804
  94 H :    0.033763
  95 H :    0.035858
  96 H :    0.024211
  97 H :    0.036387
  98 H :    0.037905
  99 H :    0.036013

  Mayer bond orders larger than 0.100000
B(  0-C ,  1-C ) :   1.8605 B(  0-C , 67-H ) :   0.9130 B(  0-C , 68-H ) :   0.9330
B(  1-C ,  2-C ) :   1.0860 B(  1-C ,  5-S ) :   0.9935 B(  2-C ,  3-C ) :   1.6295
B(  2-C , 69-H ) :   0.9938 B(  3-C ,  4-C ) :   1.1603 B(  3-C , 70-H ) :   0.9952
B(  4-C ,  5-S ) :   1.0799 B(  4-C ,  6-C ) :   1.5040 B(  6-C ,  7-C ) :   1.1902
B(  6-C , 10-S ) :   1.0441 B(  7-C ,  8-C ) :   1.5753 B(  7-C , 71-H ) :   0.9941
B(  8-C ,  9-C ) :   1.1507 B(  8-C , 72-H ) :   0.9973 B(  9-C , 10-S ) :   1.0853
B(  9-C , 11-C ) :   1.5442 B( 11-C , 12-C ) :   1.1958 B( 11-C , 73-H ) :   0.9433
B( 12-C , 13-S ) :   1.1276 B( 12-C , 17-C ) :   1.3554 B( 13-S , 14-C ) :   1.1141
B( 14-C , 15-C ) :   1.6302 B( 14-C , 74-H ) :   0.9655 B( 15-C , 16-C ) :   1.0968
B( 15-C , 17-C ) :   1.1974 B( 16-C , 75-H ) :   0.9515 B( 16-C , 76-H ) :   0.9425
B( 16-C , 77-H ) :   0.9427 B( 17-C , 18-C ) :   1.1827 B( 18-C , 19-C ) :   1.5589
B( 18-C , 78-H ) :   0.9610 B( 19-C , 20-C ) :   1.2045 B( 19-C , 79-H ) :   0.9814
B( 20-C , 21-C ) :   1.5162 B( 20-C , 80-H ) :   0.9881 B( 21-C , 22-C ) :   1.2534
B( 21-C , 81-H ) :   0.9403 B( 22-C , 23-S ) :   1.1523 B( 22-C , 26-C ) :   1.2399
B( 23-S , 24-C ) :   1.0494 B( 24-C , 25-C ) :   1.1745 B( 24-C , 33-C ) :   1.4503
B( 25-C , 26-C ) :   1.2618 B( 25-C , 32-C ) :   1.2287 B( 26-C , 27-C ) :   1.2006
B( 27-C , 28-C ) :   1.4047 B( 27-C , 82-H ) :   0.9998 B( 28-C , 29-O ) :   1.1552
B( 28-C , 31-C ) :   1.2295 B( 29-O , 30-C ) :   0.9649 B( 30-C , 83-H ) :   0.9768
B( 30-C , 84-H ) :   0.9660 B( 30-C , 85-H ) :   0.9671 B( 31-C , 32-C ) :   1.4985
B( 31-C , 86-H ) :   0.9916 B( 32-C , 87-H ) :   1.0003 B( 33-C , 34-C ) :   1.3370
B( 33-C , 88-H ) :   0.9376 B( 34-C , 35-C ) :   1.4067 B( 34-C , 89-H ) :   0.9705
B( 35-C , 36-C ) :   1.3625 B( 35-C , 90-H ) :   0.9638 B( 36-C , 37-C ) :   1.2866
B( 36-C , 40-S ) :   1.0405 B( 37-C , 38-C ) :   1.4323 B( 37-C , 91-H ) :   0.9987
B( 38-C , 39-C ) :   1.3194 B( 38-C , 92-H ) :   0.9960 B( 39-C , 40-S ) :   1.1134
B( 39-C , 41-C ) :   1.3026 B( 41-C , 42-C ) :   1.3396 B( 41-C , 45-S ) :   1.0572
B( 42-C , 43-C ) :   1.4122 B( 42-C , 93-H ) :   0.9960 B( 43-C , 44-C ) :   1.2898
B( 43-C , 94-H ) :   1.0007 B( 44-C , 45-S ) :   1.1125 B( 44-C , 46-C ) :   1.2739
B( 46-C , 47-C ) :   1.4131 B( 46-C , 95-H ) :   0.9834 B( 47-C , 48-C ) :   1.3346
B( 47-C , 96-H ) :   0.9403 B( 48-C , 49-C ) :   1.2074 B( 48-C , 57-C ) :   0.9897
B( 49-C , 50-C ) :   1.4828 B( 49-C , 55-C ) :   0.9737 B( 50-C , 51-C ) :   1.1559
B( 50-C , 53-C ) :   1.1942 B( 51-C , 52-N ) :   2.9588 B( 53-C , 54-N ) :   2.8073
B( 55-C , 56-C ) :   1.2806 B( 55-C , 62-C ) :   1.4331 B( 56-C , 57-C ) :   0.9223
B( 56-C , 59-C ) :   1.4425 B( 57-C , 58-O ) :   2.1859 B( 59-C , 60-C ) :   1.2255
B( 59-C , 97-H ) :   1.0167 B( 60-C , 61-C ) :   1.3322 B( 60-C , 65-C ) :   1.1592
B( 61-C , 62-C ) :   1.3047 B( 61-C , 63-S ) :   1.0779 B( 62-C , 98-H ) :   0.9799
B( 63-S , 64-C ) :   1.0846 B( 64-C , 65-C ) :   1.6213 B( 64-C , 66-Br) :   1.0060
B( 65-C , 99-H ) :   1.0004

-----------------------------------------------------------------------------
         ABSORPTION SPECTRUM VIA TRANSITION ELECTRIC DIPOLE MOMENTS
-----------------------------------------------------------------------------
State   Energy  Wavelength   fosc         T2         TX        TY        TZ
        (cm-1)    (nm)                  (au**2)     (au)      (au)      (au)
-----------------------------------------------------------------------------
   0    4940.3   2024.2   0.394959677  26.31949   1.18407  -0.33802  -4.98028
   1   11068.1    903.5   0.199761876   5.94176   0.78656   2.21842  -0.63379
   2   12415.4    805.4   0.129204839   3.42604  -0.55963  -1.20593   1.28786
   3   14321.0    698.3   0.046553978   1.07019  -0.00299  -0.28646   0.99404
   4   15740.0    635.3   0.427385720   8.93903   2.07476   2.06553   0.60661
   5   18214.0    549.0   1.340730860  24.23328   1.95501   1.68107   4.19348
   6   19850.4    503.8   0.015199163   0.25207  -0.25297  -0.21826   0.37475
   7   20369.9    490.9   0.013489190   0.21801   0.10709   0.12688  -0.43640
   8   21298.9    469.5   0.177978518   2.75097   0.59460   0.87997   1.27400
   9   22546.4    443.5   0.022964371   0.33532   0.47346  -0.17099   0.28621
  10   23273.2    429.7   0.334195146   4.72737   1.19436  -0.20681  -1.80502
  11   23986.8    416.9   0.135692188   1.86234  -0.13758   0.72120   1.15034
  12   24597.7    406.5   0.674023483   9.02104   2.52003   0.76538  -1.44385
  13   25269.5    395.7   0.132159941   1.72179   1.28826   0.24739   0.03099
  14   26066.1    383.6   0.029444899   0.37189   0.52828   0.14902   0.26570
  15   26724.7    374.2   0.074305017   0.91534  -0.60407  -0.03392  -0.74114
  16   27132.5    368.6   0.000527985   0.00641   0.05520   0.02600   0.05180
  17   27422.2    364.7   0.021904482   0.26297   0.15319  -0.12323  -0.47362
  18   27945.3    357.8   0.056669834   0.66760  -0.16102   0.23573   0.76558
  19   28494.0    351.0   0.118247518   1.36620  -0.68415   0.20976   0.92420
  20   28697.1    348.5   0.133713518   1.53396  -0.71131   0.04001   1.01311
  21   28849.3    346.6   0.041675446   0.47558   0.57817   0.26528  -0.26631
  22   28939.1    345.6   0.037461157   0.42616  -0.00368   0.34916   0.55158
  23   29741.7    336.2   0.072130556   0.79842   0.47751  -0.22186  -0.72193
  24   29994.3    333.4   0.099582380   1.09300  -1.00402  -0.24575  -0.15668
  25   30381.9    329.1   0.076689486   0.83099   0.34429   0.56999  -0.62255
  26   30506.6    327.8   0.166287016   1.79449   1.20373   0.44048  -0.38924
  27   30577.3    327.0   0.006445714   0.06940   0.23515   0.11817  -0.01182
  28   30994.8    322.6   0.008348981   0.08868   0.18486   0.16573   0.16443
  29   31370.1    318.8   0.478702214   5.02372  -1.28225  -0.60736   1.73513
  30   31635.5    316.1   0.066331371   0.69027   0.76227   0.17569  -0.27990
  31   32100.8    311.5   0.011979891   0.12286   0.28020   0.08652  -0.19200
  32   32407.8    308.6   0.010506207   0.10673   0.15333   0.09608  -0.27200
  33   32599.4    306.8   0.061460360   0.62067   0.58490   0.39078   0.35476
  34   32950.7    303.5   0.099941779   0.99852   0.82104   0.56764  -0.04697
  35   33083.8    302.3   0.007496264   0.07459   0.04875  -0.26182   0.06056
  36   33141.5    301.7   0.028830181   0.28639   0.29312   0.03635   0.44626
  37   33603.6    297.6   0.081617797   0.79960  -0.60756  -0.05947   0.65340
  38   33865.5    295.3   0.007961667   0.07740  -0.01699  -0.09917   0.25937
  39   34145.4    292.9   0.035276279   0.34012   0.20767  -0.11339  -0.53304
  40   34378.6    290.9   0.043127168   0.41299   0.36104   0.37168   0.38012
  41   34700.1    288.2   0.020516562   0.19465   0.17284   0.15993  -0.37309
  42   35126.6    284.7   0.088680302   0.83113   0.19321  -0.01811  -0.89077
  43   35266.5    283.6   0.068078821   0.63551  -0.52767  -0.31236  -0.50941
  44   35407.7    282.4   0.004672232   0.04344   0.07102   0.18348  -0.06880
  45   35560.8    281.2   0.094327050   0.87325   0.41721   0.19056  -0.81417
  46   36126.1    276.8   0.147682484   1.34581  -0.50341  -0.23984   1.01728
  47   36280.0    275.6   0.003724482   0.03380   0.07955   0.06907  -0.15066
  48   36463.5    274.2   0.180858789   1.63289  -0.54591  -0.10181   1.15087
  49   36950.3    270.6   0.012743996   0.11354   0.06666   0.20339   0.26026
  50   37015.4    270.2   0.085040519   0.75634  -0.48665  -0.21871   0.68679
  51   37234.3    268.6   0.063166008   0.55849   0.43022   0.59193   0.15170
  52   37390.6    267.4   0.007338285   0.06461  -0.20369   0.00750  -0.15187
  53   37578.0    266.1   0.032106576   0.28128  -0.01039   0.24060   0.47253
  54   37737.4    265.0   0.009752989   0.08508   0.04122  -0.08193  -0.27690
  55   37915.2    263.7   0.009629793   0.08361   0.05092   0.11623  -0.25983
  56   38202.8    261.8   0.024386507   0.21015  -0.42001  -0.17792   0.04567
  57   38353.8    260.7   0.061070235   0.52420   0.02485  -0.20037  -0.69529
  58   38572.2    259.3   0.007364779   0.06286  -0.21759  -0.12429  -0.00819
  59   38941.3    256.8   0.011855129   0.10022   0.21007   0.09309  -0.21778
  60   39164.7    255.3   0.024176938   0.20323  -0.04566  -0.20811  -0.39728
  61   39542.1    252.9   0.008233830   0.06855  -0.18298  -0.13481   0.12999
  62   39573.2    252.7   0.020549612   0.17095   0.00667   0.13953   0.38915
  63   39872.4    250.8   0.001535903   0.01268  -0.01400   0.02223   0.10950
  64   39919.7    250.5   0.015224442   0.12555  -0.02408   0.03570   0.35171
  65   40182.1    248.9   0.058119476   0.47617   0.48822   0.13437  -0.46879

FINAL SINGLE POINT ENERGY     -7732.905123366183

DIPOLE MOMENT
-------------
                                X             Y             Z
Electronic contribution:   -108.44934     -58.00467     132.11776
Nuclear contribution   :    111.14269      59.74392    -136.42000
                        -----------------------------------------
Total Dipole Moment    :      2.69335       1.73925      -4.30224
                        -----------------------------------------
Magnitude (a.u.)       :      5.36549
Magnitude (Debye)      :     13.63798

Rotational constants in cm-1:     0.001111     0.000354     0.000279
Rotational constants in MHz :    33.299253    10.597921     8.376682

                             ****ORCA TERMINATED NORMALLY****
TOTAL RUN TIME: 0 days 0 hours 11 minutes 37 seconds 624 msec
