                         Program Version 4.2.0 -  RELEASE  -
|  1> # ORCA input file
|  2> # SCF done       -163.655364270274          0.000771578608
|  3> ! CAM-B3LYP def2-SVP def2/J RIJCOSX Grid4 TightSCF
|  4> %maxcore 5000
|  5> %tddft
|  6>     Mode sTDDFT
|  7>     Ethresh 5.0
|  8>     maxcore 5000
|  9> end
| 10>
| 11> %pal
| 12>   nprocs 6
| 13>   end
| 14> * xyz 0 1
| 15>    C       -1.75720        -4.22857        -1.41274
| 16>    C       -0.47369        -4.05528        -1.75246
| 17>    C        0.06760        -3.10782        -2.68648
| 18>    C        1.40762        -3.16996        -2.83435
| 19>    C        2.04338        -4.16248        -2.03353
| 20>    S        0.84736        -5.01987        -1.07360
| 21>    C        3.37796        -4.46236        -1.97266
| 22>    C        4.43952        -3.89059        -2.72802
| 23>    C        5.65465        -4.42552        -2.46900
| 24>    C        5.65025        -5.45423        -1.47722
| 25>    S        4.00153        -5.69816        -0.89193
| 26>    C        6.72770        -6.13432        -1.01276
| 27>    C        6.68886        -7.07805         0.08379
| 28>    C        7.54855        -6.91122         1.13130
| 29>    S        7.14981        -7.82455         2.53187
| 30>    C        5.78458        -8.50587         1.69851
| 31>    C        5.69503        -8.08942         0.36223
| 32>    C        4.74069        -8.69813        -0.48730
| 33>    C        4.90226        -8.57565        -1.98114
| 34>    C        5.53595        -9.85860        -2.53000
| 35>    C        3.76246        -9.52391         0.05124
| 36>    C        2.58427        -9.95564        -0.78040
| 37>    C        1.45269        -8.93968        -0.59844
| 38>    C        3.79929        -9.86396         1.42392
| 39>    C        2.90806       -10.68074         2.21166
| 40>    C        3.27988       -10.73055         3.51935
| 41>    S        4.73338        -9.88441         3.88185
| 42>    C        4.84101        -9.36979         2.22697
| 43>    C        1.76165       -11.46328         1.77071
| 44>    C        0.53568       -11.33763         2.29373
| 45>    C       -0.56869       -12.18134         1.91047
| 46>    N       -1.78150       -11.88730         2.42892
| 47>    C       -2.75536       -12.69590         2.12417
| 48>    C       -2.53590       -13.84250         1.31987
| 49>    N       -1.31220       -14.01348         0.78457
| 50>    N       -0.35772       -13.19178         1.06881
| 51>    C       -3.55415       -14.79847         1.05233
| 52>    S       -5.15449       -14.59943         1.67196
| 53>    C       -5.72292       -16.10027         1.00510
| 54>    C       -4.68918       -16.73617         0.28511
| 55>    C       -3.46477       -15.99739         0.32512
| 56>    C       -2.32376       -16.48694        -0.32224
| 57>    C       -2.36274       -17.68093        -1.01175
| 58>    C       -1.16866       -18.23196        -1.69341
| 59>    O       -1.19562       -19.27431        -2.31778
| 60>    O       -0.02397       -17.55516        -1.61063
| 61>    C       -3.59546       -18.40855        -1.08378
| 62>    O       -3.70751       -19.55990        -1.75622
| 63>    C       -4.72332       -17.92735        -0.44897
| 64>    C       -7.06064       -16.44282         1.28516
| 65>    C       -7.69887       -17.62423         1.05552
| 66>    C       -9.04659       -17.86232         1.38137
| 67>    S      -10.10194       -16.66928         2.11422
| 68>    C      -11.48656       -17.72381         2.16842
| 69>    C      -11.14562       -18.96200         1.63277
| 70>    C       -9.78797       -19.02476         1.20110
| 71>    N       -9.60074       -20.27321         0.70896
| 72>    N      -10.72790       -21.00124         0.79430
| 73>    C      -11.65482       -20.25577         1.33422
| 74>    C      -12.71097       -17.23536         2.71519
| 75>    C      -13.83995       -17.94057         2.82140
| 76>    H       -2.52802        -3.61927        -1.85068
| 77>    H       -2.05768        -4.97467        -0.70031
| 78>    H       -0.57857        -2.42212        -3.20568
| 79>    H        1.97614        -2.53406        -3.48992
| 80>    H        4.26284        -3.10675        -3.44293
| 81>    H        6.57072        -4.12532        -2.94720
| 82>    H        7.70533        -5.83505        -1.36785
| 83>    H        8.36669        -6.21869         1.18206
| 84>    H        5.57152        -7.75451        -2.22217
| 85>    H        3.94905        -8.38228        -2.47209
| 86>    H        4.92603       -10.73152        -2.31191
| 87>    H        6.51438       -10.01027        -2.07882
| 88>    H        5.66179        -9.78235        -3.60786
| 89>    H        2.23203       -10.93706        -0.47552
| 90>    H        2.84316       -10.01531        -1.83436
| 91>    H        1.14129        -8.89923         0.44247
| 92>    H        0.59366        -9.21797        -1.20446
| 93>    H        1.78095        -7.94501        -0.89210
| 94>    H        2.79119       -11.28164         4.29930
| 95>    H        1.93067       -12.23740         1.03344
| 96>    H        0.30347       -10.57623         3.02406
| 97>    H       -3.74130       -12.45787         2.50591
| 98>    H       -1.43911       -15.87071        -0.24672
| 99>    H       -0.09473       -16.73887        -1.09495
|100>    H       -2.83168       -19.78003        -2.15196
|101>    H       -5.62696       -18.49918        -0.56147
|102>    H       -7.63411       -15.66472         1.77685
|103>    H       -7.17570       -18.46252         0.62285
|104>    H       -8.77113       -20.68351         0.31513
|105>    H      -12.63666       -20.65324         1.48952
|106>    H      -12.67994       -16.21005         3.06083
|107>    H      -13.90699       -18.96107         2.49015
|108>    H      -14.72764       -17.50813         3.24695
|109> *
|110>
|111>                          ****END OF INPUT****

CARTESIAN COORDINATES (ANGSTROEM)
---------------------------------
  C     -1.757200   -4.228570   -1.412740
  C     -0.473690   -4.055280   -1.752460
  C      0.067600   -3.107820   -2.686480
  C      1.407620   -3.169960   -2.834350
  C      2.043380   -4.162480   -2.033530
  S      0.847360   -5.019870   -1.073600
  C      3.377960   -4.462360   -1.972660
  C      4.439520   -3.890590   -2.728020
  C      5.654650   -4.425520   -2.469000
  C      5.650250   -5.454230   -1.477220
  S      4.001530   -5.698160   -0.891930
  C      6.727700   -6.134320   -1.012760
  C      6.688860   -7.078050    0.083790
  C      7.548550   -6.911220    1.131300
  S      7.149810   -7.824550    2.531870
  C      5.784580   -8.505870    1.698510
  C      5.695030   -8.089420    0.362230
  C      4.740690   -8.698130   -0.487300
  C      4.902260   -8.575650   -1.981140
  C      5.535950   -9.858600   -2.530000
  C      3.762460   -9.523910    0.051240
  C      2.584270   -9.955640   -0.780400
  C      1.452690   -8.939680   -0.598440
  C      3.799290   -9.863960    1.423920
  C      2.908060  -10.680740    2.211660
  C      3.279880  -10.730550    3.519350
  S      4.733380   -9.884410    3.881850
  C      4.841010   -9.369790    2.226970
  C      1.761650  -11.463280    1.770710
  C      0.535680  -11.337630    2.293730
  C     -0.568690  -12.181340    1.910470
  N     -1.781500  -11.887300    2.428920
  C     -2.755360  -12.695900    2.124170
  C     -2.535900  -13.842500    1.319870
  N     -1.312200  -14.013480    0.784570
  N     -0.357720  -13.191780    1.068810
  C     -3.554150  -14.798470    1.052330
  S     -5.154490  -14.599430    1.671960
  C     -5.722920  -16.100270    1.005100
  C     -4.689180  -16.736170    0.285110
  C     -3.464770  -15.997390    0.325120
  C     -2.323760  -16.486940   -0.322240
  C     -2.362740  -17.680930   -1.011750
  C     -1.168660  -18.231960   -1.693410
  O     -1.195620  -19.274310   -2.317780
  O     -0.023970  -17.555160   -1.610630
  C     -3.595460  -18.408550   -1.083780
  O     -3.707510  -19.559900   -1.756220
  C     -4.723320  -17.927350   -0.448970
  C     -7.060640  -16.442820    1.285160
  C     -7.698870  -17.624230    1.055520
  C     -9.046590  -17.862320    1.381370
  S    -10.101940  -16.669280    2.114220
  C    -11.486560  -17.723810    2.168420
  C    -11.145620  -18.962000    1.632770
  C     -9.787970  -19.024760    1.201100
  N     -9.600740  -20.273210    0.708960
  N    -10.727900  -21.001240    0.794300
  C    -11.654820  -20.255770    1.334220
  C    -12.710970  -17.235360    2.715190
  C    -13.839950  -17.940570    2.821400
  H     -2.528020   -3.619270   -1.850680
  H     -2.057680   -4.974670   -0.700310
  H     -0.578570   -2.422120   -3.205680
  H      1.976140   -2.534060   -3.489920
  H      4.262840   -3.106750   -3.442930
  H      6.570720   -4.125320   -2.947200
  H      7.705330   -5.835050   -1.367850
  H      8.366690   -6.218690    1.182060
  H      5.571520   -7.754510   -2.222170
  H      3.949050   -8.382280   -2.472090
  H      4.926030  -10.731520   -2.311910
  H      6.514380  -10.010270   -2.078820
  H      5.661790   -9.782350   -3.607860
  H      2.232030  -10.937060   -0.475520
  H      2.843160  -10.015310   -1.834360
  H      1.141290   -8.899230    0.442470
  H      0.593660   -9.217970   -1.204460
  H      1.780950   -7.945010   -0.892100
  H      2.791190  -11.281640    4.299300
  H      1.930670  -12.237400    1.033440
  H      0.303470  -10.576230    3.024060
  H     -3.741300  -12.457870    2.505910
  H     -1.439110  -15.870710   -0.246720
  H     -0.094730  -16.738870   -1.094950
  H     -2.831680  -19.780030   -2.151960
  H     -5.626960  -18.499180   -0.561470
  H     -7.634110  -15.664720    1.776850
  H     -7.175700  -18.462520    0.622850
  H     -8.771130  -20.683510    0.315130
  H    -12.636660  -20.653240    1.489520
  H    -12.679940  -16.210050    3.060830
  H    -13.906990  -18.961070    2.490150
  H    -14.727640  -17.508130    3.246950

 Total Charge           Charge          ....    0
 Multiplicity           Mult            ....    1
 Number of Electrons    NEL             ....  470
 Basis Dimension        Dim             .... 1043

ORBITAL ENERGIES
----------------

  NO   OCC          E(Eh)            E(eV)
   0   2.0000     -88.977136     -2421.1910
   1   2.0000     -88.964404     -2420.8445
   2   2.0000     -88.945994     -2420.3435
   3   2.0000     -88.944251     -2420.2961
   4   2.0000     -88.934633     -2420.0344
   5   2.0000     -88.932588     -2419.9788
   6   2.0000     -19.266490      -524.2678
   7   2.0000     -19.227769      -523.2142
   8   2.0000     -19.213063      -522.8140
   9   2.0000     -14.481156      -394.0523
  10   2.0000     -14.458331      -393.4312
  11   2.0000     -14.447044      -393.1241
  12   2.0000     -14.437345      -392.8601
  13   2.0000     -14.431591      -392.7035
  14   2.0000     -10.416018      -283.4343
  15   2.0000     -10.344816      -281.4968
  16   2.0000     -10.342704      -281.4393
  17   2.0000     -10.336572      -281.2724
  18   2.0000     -10.335831      -281.2522
  19   2.0000     -10.316660      -280.7306
  20   2.0000     -10.315912      -280.7102
  21   2.0000     -10.313445      -280.6431
  22   2.0000     -10.313246      -280.6377
  23   2.0000     -10.305943      -280.4390
  24   2.0000     -10.302662      -280.3497
  25   2.0000     -10.301012      -280.3048
  26   2.0000     -10.300911      -280.3020
  27   2.0000     -10.299681      -280.2686
  28   2.0000     -10.297171      -280.2003
  29   2.0000     -10.295831      -280.1638
  30   2.0000     -10.295650      -280.1589
  31   2.0000     -10.293546      -280.1016
  32   2.0000     -10.293221      -280.0928
  33   2.0000     -10.292394      -280.0703
  34   2.0000     -10.291121      -280.0356
  35   2.0000     -10.290718      -280.0247
  36   2.0000     -10.289663      -279.9960
  37   2.0000     -10.288986      -279.9775
  38   2.0000     -10.287186      -279.9286
  39   2.0000     -10.287056      -279.9250
  40   2.0000     -10.284711      -279.8612
  41   2.0000     -10.282863      -279.8109
  42   2.0000     -10.282110      -279.7904
  43   2.0000     -10.279584      -279.7217
  44   2.0000     -10.279289      -279.7137
  45   2.0000     -10.278877      -279.7025
  46   2.0000     -10.277595      -279.6676
  47   2.0000     -10.276782      -279.6455
  48   2.0000     -10.276662      -279.6422
  49   2.0000     -10.272905      -279.5400
  50   2.0000     -10.271269      -279.4954
  51   2.0000     -10.270955      -279.4869
  52   2.0000     -10.270774      -279.4820
  53   2.0000     -10.268054      -279.4080
  54   2.0000     -10.264612      -279.3143
  55   2.0000     -10.264003      -279.2977
  56   2.0000     -10.263907      -279.2951
  57   2.0000     -10.252107      -278.9740
  58   2.0000     -10.247877      -278.8589
  59   2.0000     -10.243288      -278.7340
  60   2.0000     -10.239370      -278.6274
  61   2.0000      -8.072107      -219.6532
  62   2.0000      -8.059210      -219.3023
  63   2.0000      -8.042127      -218.8374
  64   2.0000      -8.040506      -218.7933
  65   2.0000      -8.029774      -218.5012
  66   2.0000      -8.028860      -218.4764
  67   2.0000      -6.040994      -164.3838
  68   2.0000      -6.037018      -164.2756
  69   2.0000      -6.035031      -164.2215
  70   2.0000      -6.028422      -164.0417
  71   2.0000      -6.024390      -163.9320
  72   2.0000      -6.021546      -163.8546
  73   2.0000      -6.011633      -163.5849
  74   2.0000      -6.010015      -163.5408
  75   2.0000      -6.007436      -163.4706
  76   2.0000      -6.005824      -163.4268
  77   2.0000      -6.003759      -163.3706
  78   2.0000      -6.002116      -163.3259
  79   2.0000      -5.999703      -163.2602
  80   2.0000      -5.998702      -163.2330
  81   2.0000      -5.995596      -163.1485
  82   2.0000      -5.994811      -163.1271
  83   2.0000      -5.990495      -163.0097
  84   2.0000      -5.989392      -162.9797
  85   2.0000      -1.194376       -32.5006
  86   2.0000      -1.144961       -31.1560
  87   2.0000      -1.142470       -31.0882
  88   2.0000      -1.136244       -30.9188
  89   2.0000      -1.102195       -29.9922
  90   2.0000      -1.029772       -28.0215
  91   2.0000      -1.007368       -27.4119
  92   2.0000      -0.995614       -27.0920
  93   2.0000      -0.985801       -26.8250
  94   2.0000      -0.984587       -26.7920
  95   2.0000      -0.967534       -26.3279
  96   2.0000      -0.959487       -26.1090
  97   2.0000      -0.951174       -25.8828
  98   2.0000      -0.938265       -25.5315
  99   2.0000      -0.923965       -25.1424
 100   2.0000      -0.916527       -24.9400
 101   2.0000      -0.904460       -24.6116
 102   2.0000      -0.892863       -24.2960
 103   2.0000      -0.885931       -24.1074
 104   2.0000      -0.876615       -23.8539
 105   2.0000      -0.864783       -23.5319
 106   2.0000      -0.861089       -23.4314
 107   2.0000      -0.852594       -23.2003
 108   2.0000      -0.848168       -23.0798
 109   2.0000      -0.843856       -22.9625
 110   2.0000      -0.840756       -22.8781
 111   2.0000      -0.838469       -22.8159
 112   2.0000      -0.829023       -22.5589
 113   2.0000      -0.819523       -22.3004
 114   2.0000      -0.813515       -22.1369
 115   2.0000      -0.808977       -22.0134
 116   2.0000      -0.795301       -21.6412
 117   2.0000      -0.785217       -21.3668
 118   2.0000      -0.780599       -21.2412
 119   2.0000      -0.768951       -20.9242
 120   2.0000      -0.759989       -20.6804
 121   2.0000      -0.754420       -20.5288
 122   2.0000      -0.745300       -20.2806
 123   2.0000      -0.723049       -19.6752
 124   2.0000      -0.712315       -19.3831
 125   2.0000      -0.710817       -19.3423
 126   2.0000      -0.709176       -19.2977
 127   2.0000      -0.704369       -19.1669
 128   2.0000      -0.698855       -19.0168
 129   2.0000      -0.695084       -18.9142
 130   2.0000      -0.692635       -18.8476
 131   2.0000      -0.684989       -18.6395
 132   2.0000      -0.681967       -18.5573
 133   2.0000      -0.677199       -18.4275
 134   2.0000      -0.672731       -18.3060
 135   2.0000      -0.663148       -18.0452
 136   2.0000      -0.647140       -17.6096
 137   2.0000      -0.640460       -17.4278
 138   2.0000      -0.634164       -17.2565
 139   2.0000      -0.632877       -17.2215
 140   2.0000      -0.626216       -17.0402
 141   2.0000      -0.620007       -16.8713
 142   2.0000      -0.615489       -16.7483
 143   2.0000      -0.604576       -16.4513
 144   2.0000      -0.600739       -16.3469
 145   2.0000      -0.600533       -16.3413
 146   2.0000      -0.598488       -16.2857
 147   2.0000      -0.593551       -16.1513
 148   2.0000      -0.588802       -16.0221
 149   2.0000      -0.586562       -15.9612
 150   2.0000      -0.577952       -15.7269
 151   2.0000      -0.564802       -15.3690
 152   2.0000      -0.555872       -15.1260
 153   2.0000      -0.554607       -15.0916
 154   2.0000      -0.551932       -15.0188
 155   2.0000      -0.548005       -14.9120
 156   2.0000      -0.544591       -14.8191
 157   2.0000      -0.543382       -14.7862
 158   2.0000      -0.542039       -14.7496
 159   2.0000      -0.536718       -14.6048
 160   2.0000      -0.536582       -14.6011
 161   2.0000      -0.530821       -14.4444
 162   2.0000      -0.529957       -14.4209
 163   2.0000      -0.528716       -14.3871
 164   2.0000      -0.517409       -14.0794
 165   2.0000      -0.516671       -14.0593
 166   2.0000      -0.514835       -14.0094
 167   2.0000      -0.511567       -13.9204
 168   2.0000      -0.507796       -13.8178
 169   2.0000      -0.507387       -13.8067
 170   2.0000      -0.503295       -13.6953
 171   2.0000      -0.500017       -13.6062
 172   2.0000      -0.494024       -13.4431
 173   2.0000      -0.492272       -13.3954
 174   2.0000      -0.487560       -13.2672
 175   2.0000      -0.484849       -13.1934
 176   2.0000      -0.480258       -13.0685
 177   2.0000      -0.478742       -13.0272
 178   2.0000      -0.477733       -12.9998
 179   2.0000      -0.475407       -12.9365
 180   2.0000      -0.472552       -12.8588
 181   2.0000      -0.471552       -12.8316
 182   2.0000      -0.466065       -12.6823
 183   2.0000      -0.465311       -12.6618
 184   2.0000      -0.464634       -12.6433
 185   2.0000      -0.463752       -12.6193
 186   2.0000      -0.462460       -12.5842
 187   2.0000      -0.456729       -12.4282
 188   2.0000      -0.453749       -12.3471
 189   2.0000      -0.451458       -12.2848
 190   2.0000      -0.443990       -12.0816
 191   2.0000      -0.443196       -12.0600
 192   2.0000      -0.439797       -11.9675
 193   2.0000      -0.438469       -11.9313
 194   2.0000      -0.436862       -11.8876
 195   2.0000      -0.433714       -11.8020
 196   2.0000      -0.431805       -11.7500
 197   2.0000      -0.429825       -11.6961
 198   2.0000      -0.426815       -11.6142
 199   2.0000      -0.425837       -11.5876
 200   2.0000      -0.424075       -11.5397
 201   2.0000      -0.419105       -11.4044
 202   2.0000      -0.417260       -11.3542
 203   2.0000      -0.416408       -11.3310
 204   2.0000      -0.413673       -11.2566
 205   2.0000      -0.411481       -11.1970
 206   2.0000      -0.410440       -11.1686
 207   2.0000      -0.406791       -11.0693
 208   2.0000      -0.402630       -10.9561
 209   2.0000      -0.400168       -10.8891
 210   2.0000      -0.396239       -10.7822
 211   2.0000      -0.391319       -10.6483
 212   2.0000      -0.390260       -10.6195
 213   2.0000      -0.377657       -10.2766
 214   2.0000      -0.376695       -10.2504
 215   2.0000      -0.369581       -10.0568
 216   2.0000      -0.364518        -9.9190
 217   2.0000      -0.363553        -9.8928
 218   2.0000      -0.360429        -9.8078
 219   2.0000      -0.347863        -9.4658
 220   2.0000      -0.346573        -9.4307
 221   2.0000      -0.342328        -9.3152
 222   2.0000      -0.332500        -9.0478
 223   2.0000      -0.331057        -9.0085
 224   2.0000      -0.319977        -8.7070
 225   2.0000      -0.316540        -8.6135
 226   2.0000      -0.315647        -8.5892
 227   2.0000      -0.302179        -8.2227
 228   2.0000      -0.300440        -8.1754
 229   2.0000      -0.300145        -8.1674
 230   2.0000      -0.274573        -7.4715
 231   2.0000      -0.263122        -7.1599
 232   2.0000      -0.257247        -7.0001
 233   2.0000      -0.219423        -5.9708
 234   2.0000      -0.217606        -5.9214
 235   0.0000      -0.085252        -2.3198
 236   0.0000      -0.051998        -1.4149
 237   0.0000      -0.043377        -1.1804
 238   0.0000      -0.028262        -0.7690
 239   0.0000      -0.016223        -0.4415

MULLIKEN ATOMIC CHARGES
-----------------------
   0 C :   -0.032907
   1 C :   -0.062550
   2 C :    0.049796
   3 C :    0.032238
   4 C :   -0.070596
   5 S :    0.078315
   6 C :   -0.049831
   7 C :    0.026585
   8 C :    0.043512
   9 C :   -0.024132
  10 S :    0.080149
  11 C :   -0.061049
  12 C :    0.031051
  13 C :   -0.093426
  14 S :    0.125112
  15 C :   -0.144606
  16 C :    0.096808
  17 C :   -0.140469
  18 C :    0.062468
  19 C :    0.044950
  20 C :   -0.155301
  21 C :    0.067539
  22 C :    0.051438
  23 C :    0.135062
  24 C :    0.048801
  25 C :   -0.100363
  26 S :    0.118004
  27 C :   -0.142294
  28 C :   -0.017542
  29 C :    0.035591
  30 C :   -0.070613
  31 N :   -0.021883
  32 C :   -0.005800
  33 C :    0.020519
  34 N :   -0.083397
  35 N :   -0.053113
  36 C :   -0.083249
  37 S :    0.155472
  38 C :   -0.106919
  39 C :    0.156226
  40 C :    0.054163
  41 C :   -0.082574
  42 C :   -0.040827
  43 C :    0.197006
  44 O :   -0.233402
  45 O :   -0.133944
  46 C :    0.128437
  47 O :   -0.174243
  48 C :   -0.130223
  49 C :    0.022435
  50 C :   -0.008543
  51 C :   -0.156810
  52 S :    0.125789
  53 C :   -0.129594
  54 C :    0.026150
  55 C :    0.140889
  56 N :   -0.047642
  57 N :   -0.055863
  58 C :   -0.014194
  59 C :    0.041594
  60 C :   -0.015668
  61 H :    0.017037
  62 H :    0.020641
  63 H :   -0.013292
  64 H :   -0.013776
  65 H :   -0.016497
  66 H :   -0.016112
  67 H :   -0.007393
  68 H :    0.016336
  69 H :    0.004081
  70 H :    0.007174
  71 H :    0.007290
  72 H :    0.006579
  73 H :    0.009650
  74 H :   -0.018363
  75 H :   -0.000988
  76 H :    0.005690
  77 H :    0.006894
  78 H :    0.006126
  79 H :    0.017500
  80 H :    0.052850
  81 H :   -0.004899
  82 H :    0.017695
  83 H :   -0.030805
  84 H :    0.192480
  85 H :    0.195746
  86 H :   -0.043325
  87 H :   -0.016015
  88 H :   -0.023875
  89 H :    0.138378
  90 H :    0.000282
  91 H :   -0.013308
  92 H :    0.013745
  93 H :    0.029943
Sum of atomic charges:   -0.0000000

LOEWDIN ATOMIC CHARGES
----------------------
   0 C :   -0.081378
   1 C :   -0.139304
   2 C :   -0.033875
   3 C :   -0.026371
   4 C :   -0.179977
   5 S :    0.354372
   6 C :   -0.181136
   7 C :   -0.034095
   8 C :   -0.032284
   9 C :   -0.142174
  10 S :    0.391721
  11 C :   -0.059034
  12 C :   -0.069615
  13 C :   -0.164155
  14 S :    0.411620
  15 C :   -0.177648
  16 C :   -0.052484
  17 C :   -0.026084
  18 C :   -0.039618
  19 C :   -0.048271
  20 C :   -0.016916
  21 C :   -0.028484
  22 C :   -0.047921
  23 C :   -0.040558
  24 C :   -0.064225
  25 C :   -0.164691
  26 S :    0.406776
  27 C :   -0.178339
  28 C :    0.029034
  29 C :   -0.049007
  30 C :   -0.001727
  31 N :   -0.052029
  32 C :    0.028778
  33 C :   -0.049267
  34 N :   -0.036354
  35 N :   -0.054934
  36 C :   -0.201245
  37 S :    0.487950
  38 C :   -0.163627
  39 C :   -0.030931
  40 C :   -0.043086
  41 C :    0.013020
  42 C :   -0.115885
  43 C :    0.105208
  44 O :   -0.166719
  45 O :   -0.008962
  46 C :    0.073665
  47 O :   -0.047763
  48 C :   -0.068083
  49 C :   -0.069633
  50 C :   -0.032941
  51 C :   -0.213352
  52 S :    0.453720
  53 C :   -0.161745
  54 C :   -0.092605
  55 C :   -0.014270
  56 N :    0.085802
  57 N :   -0.049650
  58 C :   -0.039127
  59 C :   -0.043474
  60 C :   -0.034501
  61 H :    0.027452
  62 H :    0.025737
  63 H :    0.032520
  64 H :    0.031487
  65 H :    0.030222
  66 H :    0.032018
  67 H :    0.033535
  68 H :    0.022757
  69 H :    0.026441
  70 H :    0.022058
  71 H :    0.019213
  72 H :    0.024218
  73 H :    0.021819
  74 H :    0.024354
  75 H :    0.025644
  76 H :    0.021739
  77 H :    0.021687
  78 H :    0.012968
  79 H :    0.023758
  80 H :    0.035828
  81 H :    0.035220
  82 H :    0.022033
  83 H :    0.019603
  84 H :    0.100343
  85 H :    0.065945
  86 H :    0.027894
  87 H :    0.020389
  88 H :    0.030256
  89 H :    0.087539
  90 H :    0.021203
  91 H :    0.029983
  92 H :    0.023393
  93 H :    0.028632

  Mayer bond orders larger than 0.100000
B(  0-C ,  1-C ) :   1.8678 B(  0-C , 61-H ) :   0.9506 B(  0-C , 62-H ) :   0.9416
B(  1-C ,  2-C ) :   1.0759 B(  1-C ,  5-S ) :   1.0098 B(  2-C ,  3-C ) :   1.6711
B(  2-C , 63-H ) :   0.9922 B(  3-C ,  4-C ) :   1.1433 B(  3-C , 64-H ) :   0.9908
B(  4-C ,  5-S ) :   1.0390 B(  4-C ,  6-C ) :   1.5855 B(  6-C ,  7-C ) :   1.1455
B(  6-C , 10-S ) :   1.0314 B(  7-C ,  8-C ) :   1.6435 B(  7-C , 65-H ) :   0.9929
B(  8-C ,  9-C ) :   1.1006 B(  8-C , 66-H ) :   0.9986 B(  9-C , 10-S ) :   1.0371
B(  9-C , 11-C ) :   1.6863 B( 11-C , 12-C ) :   1.0264 B( 11-C , 67-H ) :   0.9607
B( 12-C , 13-C ) :   1.6058 B( 12-C , 16-C ) :   1.1379 B( 13-C , 14-S ) :   1.1220
B( 13-C , 68-H ) :   0.9669 B( 14-S , 15-C ) :   1.0734 B( 15-C , 16-C ) :   1.3780
B( 15-C , 27-C ) :   1.3844 B( 16-C , 17-C ) :   1.2705 B( 17-C , 18-C ) :   1.0732
B( 17-C , 20-C ) :   1.4867 B( 18-C , 19-C ) :   1.1087 B( 18-C , 69-H ) :   0.9111
B( 18-C , 70-H ) :   0.9092 B( 19-C , 71-H ) :   0.9673 B( 19-C , 72-H ) :   0.9617
B( 19-C , 73-H ) :   0.9668 B( 20-C , 21-C ) :   1.0874 B( 20-C , 23-C ) :   1.2730
B( 21-C , 22-C ) :   1.1116 B( 21-C , 74-H ) :   0.9081 B( 21-C , 75-H ) :   0.9067
B( 22-C , 76-H ) :   0.9633 B( 22-C , 77-H ) :   0.9647 B( 22-C , 78-H ) :   0.9579
B( 23-C , 24-C ) :   1.1580 B( 23-C , 27-C ) :   1.3623 B( 24-C , 25-C ) :   1.6355
B( 24-C , 28-C ) :   0.9631 B( 25-C , 26-S ) :   1.1114 B( 25-C , 79-H ) :   0.9657
B( 26-S , 27-C ) :   1.0729 B( 28-C , 29-C ) :   1.7910 B( 28-C , 80-H ) :   0.9381
B( 29-C , 30-C ) :   1.0686 B( 29-C , 81-H ) :   0.9668 B( 30-C , 31-N ) :   1.4227
B( 30-C , 35-N ) :   1.5488 B( 31-N , 32-C ) :   1.6645 B( 32-C , 33-C ) :   1.2274
B( 32-C , 82-H ) :   0.9713 B( 33-C , 34-N ) :   1.4832 B( 33-C , 36-C ) :   1.1184
B( 34-N , 35-N ) :   1.3413 B( 34-N , 83-H ) :   0.1255 B( 36-C , 37-S ) :   1.1615
B( 36-C , 38-C ) :   0.1129 B( 36-C , 40-C ) :   1.3191 B( 37-S , 38-C ) :   1.1584
B( 38-C , 39-C ) :   1.2923 B( 38-C , 49-C ) :   1.1823 B( 39-C , 40-C ) :   1.2026
B( 39-C , 48-C ) :   1.1950 B( 40-C , 41-C ) :   1.3144 B( 41-C , 42-C ) :   1.3738
B( 41-C , 83-H ) :   0.9357 B( 42-C , 43-C ) :   0.9184 B( 42-C , 46-C ) :   1.1501
B( 43-C , 44-O ) :   1.9946 B( 43-C , 45-O ) :   1.2933 B( 44-O , 85-H ) :   0.1390
B( 45-O , 84-H ) :   0.9564 B( 46-C , 47-O ) :   1.3609 B( 46-C , 48-C ) :   1.4614
B( 47-O , 85-H ) :   0.8869 B( 48-C , 86-H ) :   0.9978 B( 49-C , 50-C ) :   1.5993
B( 49-C , 87-H ) :   0.9470 B( 50-C , 51-C ) :   1.2231 B( 50-C , 88-H ) :   0.9735
B( 51-C , 52-S ) :   1.0789 B( 51-C , 53-C ) :   0.1084 B( 51-C , 55-C ) :   1.3567
B( 52-S , 53-C ) :   1.1553 B( 53-C , 54-C ) :   1.3478 B( 53-C , 59-C ) :   1.1346
B( 54-C , 55-C ) :   1.2510 B( 54-C , 58-C ) :   1.1415 B( 55-C , 56-N ) :   1.1547
B( 56-N , 57-N ) :   1.1306 B( 56-N , 89-H ) :   0.9498 B( 57-N , 58-C ) :   1.7536
B( 58-C , 90-H ) :   0.9984 B( 59-C , 60-C ) :   1.9111 B( 59-C , 91-H ) :   0.9508
B( 60-C , 92-H ) :   0.9542 B( 60-C , 93-H ) :   0.9478

-----------------------------------------------------------------------------
         ABSORPTION SPECTRUM VIA TRANSITION ELECTRIC DIPOLE MOMENTS
-----------------------------------------------------------------------------
State   Energy  Wavelength   fosc         T2         TX        TY        TZ
        (cm-1)    (nm)                  (au**2)     (au)      (au)      (au)
-----------------------------------------------------------------------------
   0   14783.1    676.4   1.191027438  26.52357   4.57822   2.34398  -0.26318
   1   20351.0    491.4   0.001104136   0.01786  -0.10737  -0.07033  -0.03723
   2   21900.9    456.6   1.032505407  15.52048  -3.49633   1.58109  -0.89234
   3   22793.2    438.7   0.339932833   4.90980   2.08597  -0.03983  -0.74628
   4   24153.8    414.0   0.010082958   0.13743   0.19143   0.04159   0.31473
   5   25345.0    394.6   0.012269451   0.15937  -0.17557   0.20204   0.29618
   6   25917.2    385.8   0.041002734   0.52084  -0.14638   0.52835   0.46931
   7   26164.9    382.2   0.127625504   1.60581   1.05157   0.69548   0.12769
   8   27467.9    364.1   0.009117830   0.10928  -0.12312   0.13758  -0.27421
   9   28392.8    352.2   0.020961460   0.24305  -0.16807  -0.35996  -0.29194
  10   28616.6    349.4   0.060982142   0.70155   0.68768   0.41429  -0.23877
  11   28947.2    345.5   0.196863304   2.23889  -0.91452  -1.08302  -0.47919
  12   29162.4    342.9   0.038736093   0.43729   0.59755   0.22064  -0.17761
  13   30042.2    332.9   0.009143265   0.10019  -0.06903   0.17768   0.25270
  14   30378.2    329.2   0.003357506   0.03639  -0.03771  -0.17508  -0.06565
  15   30812.1    324.5   0.344146168   3.67703  -0.13495  -1.65961  -0.95106
  16   31154.9    321.0   0.002713635   0.02867   0.01393   0.16542   0.03343
  17   31560.9    316.8   0.017960578   0.18735   0.21572  -0.03164  -0.37391
  18   32881.0    304.1   0.042199258   0.42251  -0.56582  -0.31964   0.01343
  19   32974.1    303.3   0.037349875   0.37290   0.09532  -0.43122  -0.42174
  20   33952.6    294.5   0.001730631   0.01678   0.12759   0.02118   0.00735
  21   34251.3    292.0   0.005147628   0.04948  -0.18714   0.10169   0.06415
  22   34477.7    290.0   0.150855884   1.44045  -1.09763  -0.48407  -0.03646
  23   34838.6    287.0   0.000713494   0.00674   0.06553  -0.04049   0.02845
  24   35005.9    285.7   0.053875893   0.50667   0.04825   0.69564   0.14291
  25   35195.0    284.1   0.102484776   0.95864   0.20805  -0.08702   0.95277
  26   36067.7    277.3   0.097640542   0.89123   0.38366   0.60499  -0.61483
  27   36766.8    272.0   0.167787885   1.50238  -1.13089   0.03577   0.47137
  28   36903.6    271.0   0.019716129   0.17588  -0.35529   0.05857   0.21500
  29   37055.3    269.9   0.007560127   0.06717   0.20947  -0.12731  -0.08415
  30   37172.9    269.0   0.016162286   0.14314   0.36727   0.05967   0.06846
  31   37630.4    265.7   0.032900557   0.28783  -0.50773  -0.03767   0.16918
  32   37847.7    264.2   0.005202063   0.04525  -0.17820  -0.10064  -0.05802
  33   38136.1    262.2   0.031451882   0.27151   0.08661   0.27549  -0.43372
  34   38847.2    257.4   0.021719727   0.18406   0.10075   0.41109   0.07012
  35   39047.0    256.1   0.087345071   0.73642   0.80755   0.16176  -0.24108
  36   39239.4    254.8   0.024140601   0.20254  -0.13944  -0.33582  -0.26518
  37   39621.7    252.4   0.026933913   0.22379   0.43857   0.10741  -0.14110
  38   39819.2    251.1   0.001518867   0.01256   0.02940   0.10780  -0.00845
  39   39823.8    251.1   0.032808735   0.27122   0.17959   0.47702  -0.10689
  40   40068.0    249.6   0.125514643   1.03127  -0.04430   0.83647  -0.57413

FINAL SINGLE POINT ENERGY     -4695.689348143568

DIPOLE MOMENT
-------------
                                X             Y             Z
Electronic contribution:     -4.21040     -19.08423      24.28909
Nuclear contribution   :      3.34763      21.20456     -24.07937
                        -----------------------------------------
Total Dipole Moment    :     -0.86277       2.12034       0.20973
                        -----------------------------------------
Magnitude (a.u.)       :      2.29874
Magnitude (Debye)      :      5.84292

Rotational constants in cm-1:     0.001890     0.000317     0.000297
Rotational constants in MHz :    56.649177     9.505208     8.904796

                             ****ORCA TERMINATED NORMALLY****
TOTAL RUN TIME: 0 days 0 hours 7 minutes 16 seconds 894 msec
