                         Program Version 4.2.0 -  RELEASE  -
|  1> # ORCA input file
|  2> # SCF done       -166.497290006613          0.000682803213
|  3> ! CAM-B3LYP def2-SVP def2/J RIJCOSX Grid4 TightSCF
|  4> %maxcore 5000
|  5> %tddft
|  6>     Mode sTDDFT
|  7>     Ethresh 5.0
|  8>     maxcore 5000
|  9> end
| 10>
| 11> %pal
| 12>   nprocs 6
| 13>   end
| 14> * xyz 0 1
| 15>    C       11.69787       -17.50197       -10.16143
| 16>    C       11.22890       -16.27696       -10.43048
| 17>    C       11.64780       -15.39058       -11.48116
| 18>    C       10.99119       -14.21276       -11.51020
| 19>    C       10.00046       -14.06336       -10.49358
| 20>    S        9.94421       -15.49800        -9.49090
| 21>    C        9.17727       -12.98972       -10.27675
| 22>    C        9.12855       -11.78022       -11.02018
| 23>    C        8.19858       -10.90536       -10.56759
| 24>    C        7.45922       -11.37195        -9.44185
| 25>    S        7.98966       -12.96489        -8.96619
| 26>    C        6.46141       -10.71783        -8.78253
| 27>    C        5.81786       -11.32577        -7.66705
| 28>    N        6.25906       -12.54411        -7.31636
| 29>    C        5.69312       -13.13312        -6.28466
| 30>    C        4.67825       -12.52944        -5.55960
| 31>    C        4.27068       -11.25888        -5.99167
| 32>    N        4.83444       -10.67303        -7.04245
| 33>    C        3.22787       -10.47354        -5.34974
| 34>    C        2.80016       -10.63889        -4.09186
| 35>    C        1.80255        -9.81321        -3.44847
| 36>    C        0.95522       -10.33826        -2.49166
| 37>    C        0.94629       -11.64514        -2.01180
| 38>    N        0.95912       -12.72386        -1.61569
| 39>    S       -0.21268        -9.17603        -1.93126
| 40>    C        0.46795        -7.96771        -2.97304
| 41>    O       -0.00815        -6.72115        -3.01140
| 42>    C       -1.03087        -6.38702        -2.09958
| 43>    C        1.54295        -8.43146        -3.71403
| 44>    C        2.37358        -7.62106        -4.56492
| 45>    C        2.03025        -6.44180        -5.11633
| 46>    C        2.88389        -5.69824        -5.98576
| 47>    S        2.34483        -4.12159        -6.53565
| 48>    C        3.77592        -3.93061        -7.47803
| 49>    C        4.61233        -5.04783        -7.35647
| 50>    C        4.10943        -6.04225        -6.51692
| 51>    S        6.06929        -4.90716        -8.29946
| 52>    C        5.55186        -3.33837        -8.85818
| 53>    C        6.11063        -2.39695        -9.71264
| 54>    C        5.30213        -1.27980        -9.85732
| 55>    S        3.82444        -1.41415        -8.90680
| 56>    C        4.30543        -2.95946        -8.32949
| 57>    C        5.51148        -0.12028       -10.63254
| 58>    C        6.61550         0.11946       -11.39697
| 59>    C        6.75048         1.30244       -12.14645
| 60>    C        7.83845         1.61950       -12.91835
| 61>    C        8.02351         2.82181       -13.70417
| 62>    C        7.12438         3.84378       -13.88182
| 63>    C        7.37074         4.98774       -14.66867
| 64>    N        7.50676         5.94184       -15.29288
| 65>    C        5.83072         3.90906       -13.32493
| 66>    N        4.76531         4.04267       -12.91629
| 67>    C        9.35299         2.75956       -14.30485
| 68>    C        9.96778         1.54177       -13.92571
| 69>    C        9.04816         0.77768       -13.05863
| 70>    O        9.26635        -0.31359       -12.57160
| 71>    C       11.23149         1.18991       -14.33218
| 72>    C       11.92619         2.08490       -15.15243
| 73>    C       11.30494         3.29976       -15.52640
| 74>    C       10.02551         3.65429       -15.11643
| 75>    S       12.33902         4.26041       -16.54068
| 76>    C       13.57530         3.03428       -16.44695
| 77>    C       13.23330         1.95948       -15.69793
| 78>   Br       15.19995         3.28751       -17.34970
| 79>    H       12.47879       -17.93618       -10.76074
| 80>    H       11.31301       -18.08790        -9.34727
| 81>    H       12.42422       -15.68191       -12.16637
| 82>    H       11.17541       -13.43247       -12.22724
| 83>    H        9.77475       -11.59382       -11.86013
| 84>    H        8.00571        -9.93641       -10.99394
| 85>    H        6.13924        -9.73585        -9.08788
| 86>    H        6.06722       -14.11785        -6.03484
| 87>    H        4.21208       -13.02461        -4.72496
| 88>    H        2.82635        -9.69055        -5.97683
| 89>    H        3.17215       -11.45906        -3.49085
| 90>    H       -1.26736        -5.34083        -2.28022
| 91>    H       -0.69514        -6.51891        -1.06667
| 92>    H       -1.92043        -7.00231        -2.26696
| 93>    H        3.35820        -8.02376        -4.75085
| 94>    H        1.05610        -6.01594        -4.92982
| 95>    H        4.61077        -6.97248        -6.32616
| 96>    H        7.05577        -2.51424       -10.20863
| 97>    H        4.72401         0.62328       -10.60372
| 98>    H        7.41702        -0.60060       -11.43984
| 99>    H        5.92864         2.00480       -12.09330
|100>    H       11.67134         0.25396       -14.02505
|101>    H        9.59857         4.59239       -15.42878
|102>    H       13.87476         1.11275       -15.53493
|103> *
|104>
|105>                          ****END OF INPUT****

CARTESIAN COORDINATES (ANGSTROEM)
---------------------------------
  C     11.697870  -17.501970  -10.161430
  C     11.228900  -16.276960  -10.430480
  C     11.647800  -15.390580  -11.481160
  C     10.991190  -14.212760  -11.510200
  C     10.000460  -14.063360  -10.493580
  S      9.944210  -15.498000   -9.490900
  C      9.177270  -12.989720  -10.276750
  C      9.128550  -11.780220  -11.020180
  C      8.198580  -10.905360  -10.567590
  C      7.459220  -11.371950   -9.441850
  S      7.989660  -12.964890   -8.966190
  C      6.461410  -10.717830   -8.782530
  C      5.817860  -11.325770   -7.667050
  N      6.259060  -12.544110   -7.316360
  C      5.693120  -13.133120   -6.284660
  C      4.678250  -12.529440   -5.559600
  C      4.270680  -11.258880   -5.991670
  N      4.834440  -10.673030   -7.042450
  C      3.227870  -10.473540   -5.349740
  C      2.800160  -10.638890   -4.091860
  C      1.802550   -9.813210   -3.448470
  C      0.955220  -10.338260   -2.491660
  C      0.946290  -11.645140   -2.011800
  N      0.959120  -12.723860   -1.615690
  S     -0.212680   -9.176030   -1.931260
  C      0.467950   -7.967710   -2.973040
  O     -0.008150   -6.721150   -3.011400
  C     -1.030870   -6.387020   -2.099580
  C      1.542950   -8.431460   -3.714030
  C      2.373580   -7.621060   -4.564920
  C      2.030250   -6.441800   -5.116330
  C      2.883890   -5.698240   -5.985760
  S      2.344830   -4.121590   -6.535650
  C      3.775920   -3.930610   -7.478030
  C      4.612330   -5.047830   -7.356470
  C      4.109430   -6.042250   -6.516920
  S      6.069290   -4.907160   -8.299460
  C      5.551860   -3.338370   -8.858180
  C      6.110630   -2.396950   -9.712640
  C      5.302130   -1.279800   -9.857320
  S      3.824440   -1.414150   -8.906800
  C      4.305430   -2.959460   -8.329490
  C      5.511480   -0.120280  -10.632540
  C      6.615500    0.119460  -11.396970
  C      6.750480    1.302440  -12.146450
  C      7.838450    1.619500  -12.918350
  C      8.023510    2.821810  -13.704170
  C      7.124380    3.843780  -13.881820
  C      7.370740    4.987740  -14.668670
  N      7.506760    5.941840  -15.292880
  C      5.830720    3.909060  -13.324930
  N      4.765310    4.042670  -12.916290
  C      9.352990    2.759560  -14.304850
  C      9.967780    1.541770  -13.925710
  C      9.048160    0.777680  -13.058630
  O      9.266350   -0.313590  -12.571600
  C     11.231490    1.189910  -14.332180
  C     11.926190    2.084900  -15.152430
  C     11.304940    3.299760  -15.526400
  C     10.025510    3.654290  -15.116430
  S     12.339020    4.260410  -16.540680
  C     13.575300    3.034280  -16.446950
  C     13.233300    1.959480  -15.697930
  Br    15.199950    3.287510  -17.349700
  H     12.478790  -17.936180  -10.760740
  H     11.313010  -18.087900   -9.347270
  H     12.424220  -15.681910  -12.166370
  H     11.175410  -13.432470  -12.227240
  H      9.774750  -11.593820  -11.860130
  H      8.005710   -9.936410  -10.993940
  H      6.139240   -9.735850   -9.087880
  H      6.067220  -14.117850   -6.034840
  H      4.212080  -13.024610   -4.724960
  H      2.826350   -9.690550   -5.976830
  H      3.172150  -11.459060   -3.490850
  H     -1.267360   -5.340830   -2.280220
  H     -0.695140   -6.518910   -1.066670
  H     -1.920430   -7.002310   -2.266960
  H      3.358200   -8.023760   -4.750850
  H      1.056100   -6.015940   -4.929820
  H      4.610770   -6.972480   -6.326160
  H      7.055770   -2.514240  -10.208630
  H      4.724010    0.623280  -10.603720
  H      7.417020   -0.600600  -11.439840
  H      5.928640    2.004800  -12.093300
  H     11.671340    0.253960  -14.025050
  H      9.598570    4.592390  -15.428780
  H     13.874760    1.112750  -15.534930

 Total Charge           Charge          ....    0
 Multiplicity           Mult            ....    1
 Number of Electrons    NEL             ....  516
 Basis Dimension        Dim             .... 1062

ORBITAL ENERGIES
----------------

  NO   OCC          E(Eh)            E(eV)
   0   2.0000    -482.882523    -13139.9015
   1   2.0000     -88.986935     -2421.4576
   2   2.0000     -88.971789     -2421.0455
   3   2.0000     -88.971041     -2421.0251
   4   2.0000     -88.966107     -2420.8909
   5   2.0000     -88.964026     -2420.8342
   6   2.0000     -88.935766     -2420.0652
   7   2.0000     -88.932851     -2419.9859
   8   2.0000     -62.560256     -1702.3511
   9   2.0000     -56.394201     -1534.5642
  10   2.0000     -56.391494     -1534.4906
  11   2.0000     -56.391456     -1534.4895
  12   2.0000     -19.291866      -524.9584
  13   2.0000     -19.210371      -522.7408
  14   2.0000     -14.409874      -392.1126
  15   2.0000     -14.408006      -392.0618
  16   2.0000     -14.407759      -392.0551
  17   2.0000     -14.405153      -391.9841
  18   2.0000     -14.403385      -391.9360
  19   2.0000     -10.383538      -282.5504
  20   2.0000     -10.360786      -281.9313
  21   2.0000     -10.355248      -281.7806
  22   2.0000     -10.353180      -281.7243
  23   2.0000     -10.335234      -281.2360
  24   2.0000     -10.334310      -281.2109
  25   2.0000     -10.333401      -281.1861
  26   2.0000     -10.329794      -281.0880
  27   2.0000     -10.326401      -280.9957
  28   2.0000     -10.320833      -280.8441
  29   2.0000     -10.320380      -280.8318
  30   2.0000     -10.319373      -280.8044
  31   2.0000     -10.314870      -280.6819
  32   2.0000     -10.314040      -280.6593
  33   2.0000     -10.313691      -280.6498
  34   2.0000     -10.313257      -280.6380
  35   2.0000     -10.311751      -280.5970
  36   2.0000     -10.311624      -280.5935
  37   2.0000     -10.311433      -280.5884
  38   2.0000     -10.311328      -280.5855
  39   2.0000     -10.311106      -280.5795
  40   2.0000     -10.309414      -280.5334
  41   2.0000     -10.309265      -280.5294
  42   2.0000     -10.307816      -280.4899
  43   2.0000     -10.305398      -280.4241
  44   2.0000     -10.303161      -280.3633
  45   2.0000     -10.302920      -280.3567
  46   2.0000     -10.302338      -280.3409
  47   2.0000     -10.300021      -280.2778
  48   2.0000     -10.298746      -280.2431
  49   2.0000     -10.297091      -280.1981
  50   2.0000     -10.295849      -280.1643
  51   2.0000     -10.295414      -280.1524
  52   2.0000     -10.293156      -280.0910
  53   2.0000     -10.288833      -279.9734
  54   2.0000     -10.288321      -279.9594
  55   2.0000     -10.287937      -279.9490
  56   2.0000     -10.287419      -279.9349
  57   2.0000     -10.287293      -279.9315
  58   2.0000     -10.286236      -279.9027
  59   2.0000     -10.285557      -279.8842
  60   2.0000     -10.285439      -279.8810
  61   2.0000     -10.284760      -279.8625
  62   2.0000     -10.283455      -279.8270
  63   2.0000     -10.278903      -279.7032
  64   2.0000     -10.278600      -279.6949
  65   2.0000     -10.276479      -279.6372
  66   2.0000     -10.270789      -279.4824
  67   2.0000     -10.259194      -279.1669
  68   2.0000      -8.789700      -239.1799
  69   2.0000      -8.082678      -219.9408
  70   2.0000      -8.067616      -219.5310
  71   2.0000      -8.066313      -219.4955
  72   2.0000      -8.061451      -219.3632
  73   2.0000      -8.059286      -219.3043
  74   2.0000      -8.032515      -218.5758
  75   2.0000      -8.026282      -218.4062
  76   2.0000      -6.625995      -180.3025
  77   2.0000      -6.611419      -179.9059
  78   2.0000      -6.611260      -179.9015
  79   2.0000      -6.052124      -164.6867
  80   2.0000      -6.047952      -164.5731
  81   2.0000      -6.044372      -164.4757
  82   2.0000      -6.037319      -164.2838
  83   2.0000      -6.035777      -164.2418
  84   2.0000      -6.033035      -164.1672
  85   2.0000      -6.031775      -164.1329
  86   2.0000      -6.030963      -164.1108
  87   2.0000      -6.029012      -164.0577
  88   2.0000      -6.028894      -164.0545
  89   2.0000      -6.027985      -164.0298
  90   2.0000      -6.026914      -164.0007
  91   2.0000      -6.025201      -163.9540
  92   2.0000      -6.023076      -163.8962
  93   2.0000      -6.020212      -163.8183
  94   2.0000      -6.002325      -163.3316
  95   2.0000      -5.998377      -163.2241
  96   2.0000      -5.996429      -163.1711
  97   2.0000      -5.993064      -163.0796
  98   2.0000      -5.991709      -163.0427
  99   2.0000      -5.987291      -162.9225
 100   2.0000      -2.741848       -74.6095
 101   2.0000      -2.737814       -74.4997
 102   2.0000      -2.737616       -74.4943
 103   2.0000      -2.726072       -74.1802
 104   2.0000      -2.726057       -74.1798
 105   2.0000      -1.199692       -32.6453
 106   2.0000      -1.124360       -30.5954
 107   2.0000      -1.078699       -29.3529
 108   2.0000      -1.025749       -27.9120
 109   2.0000      -1.017411       -27.6852
 110   2.0000      -1.013438       -27.5770
 111   2.0000      -1.007744       -27.4221
 112   2.0000      -0.987798       -26.8793
 113   2.0000      -0.987303       -26.8659
 114   2.0000      -0.986945       -26.8561
 115   2.0000      -0.984640       -26.7934
 116   2.0000      -0.983167       -26.7533
 117   2.0000      -0.979473       -26.6528
 118   2.0000      -0.962228       -26.1836
 119   2.0000      -0.942401       -25.6440
 120   2.0000      -0.936695       -25.4888
 121   2.0000      -0.919248       -25.0140
 122   2.0000      -0.913766       -24.8648
 123   2.0000      -0.906215       -24.6594
 124   2.0000      -0.903074       -24.5739
 125   2.0000      -0.894841       -24.3499
 126   2.0000      -0.881936       -23.9987
 127   2.0000      -0.880590       -23.9621
 128   2.0000      -0.872580       -23.7441
 129   2.0000      -0.870863       -23.6974
 130   2.0000      -0.855284       -23.2735
 131   2.0000      -0.847461       -23.0606
 132   2.0000      -0.842663       -22.9300
 133   2.0000      -0.840938       -22.8831
 134   2.0000      -0.833694       -22.6860
 135   2.0000      -0.825764       -22.4702
 136   2.0000      -0.824047       -22.4235
 137   2.0000      -0.819302       -22.2944
 138   2.0000      -0.811798       -22.0902
 139   2.0000      -0.796017       -21.6607
 140   2.0000      -0.787210       -21.4211
 141   2.0000      -0.785389       -21.3715
 142   2.0000      -0.764078       -20.7916
 143   2.0000      -0.755030       -20.5454
 144   2.0000      -0.750669       -20.4267
 145   2.0000      -0.738641       -20.0994
 146   2.0000      -0.729754       -19.8576
 147   2.0000      -0.711313       -19.3558
 148   2.0000      -0.705188       -19.1892
 149   2.0000      -0.700125       -19.0514
 150   2.0000      -0.688262       -18.7286
 151   2.0000      -0.684476       -18.6255
 152   2.0000      -0.681922       -18.5561
 153   2.0000      -0.673085       -18.3156
 154   2.0000      -0.665714       -18.1150
 155   2.0000      -0.659018       -17.9328
 156   2.0000      -0.651730       -17.7345
 157   2.0000      -0.648795       -17.6546
 158   2.0000      -0.645225       -17.5575
 159   2.0000      -0.636082       -17.3087
 160   2.0000      -0.630731       -17.1631
 161   2.0000      -0.625730       -17.0270
 162   2.0000      -0.620889       -16.8952
 163   2.0000      -0.619082       -16.8461
 164   2.0000      -0.614195       -16.7131
 165   2.0000      -0.604732       -16.4556
 166   2.0000      -0.598954       -16.2984
 167   2.0000      -0.596408       -16.2291
 168   2.0000      -0.594796       -16.1852
 169   2.0000      -0.591726       -16.1017
 170   2.0000      -0.590803       -16.0766
 171   2.0000      -0.587923       -15.9982
 172   2.0000      -0.581965       -15.8361
 173   2.0000      -0.573454       -15.6045
 174   2.0000      -0.563894       -15.3443
 175   2.0000      -0.562441       -15.3048
 176   2.0000      -0.555733       -15.1223
 177   2.0000      -0.549920       -14.9641
 178   2.0000      -0.544989       -14.8299
 179   2.0000      -0.538733       -14.6597
 180   2.0000      -0.534986       -14.5577
 181   2.0000      -0.533978       -14.5303
 182   2.0000      -0.532843       -14.4994
 183   2.0000      -0.529200       -14.4003
 184   2.0000      -0.523957       -14.2576
 185   2.0000      -0.523370       -14.2416
 186   2.0000      -0.521035       -14.1781
 187   2.0000      -0.515373       -14.0240
 188   2.0000      -0.513462       -13.9720
 189   2.0000      -0.511228       -13.9112
 190   2.0000      -0.505552       -13.7568
 191   2.0000      -0.504129       -13.7180
 192   2.0000      -0.503993       -13.7143
 193   2.0000      -0.502289       -13.6680
 194   2.0000      -0.499913       -13.6033
 195   2.0000      -0.494368       -13.4524
 196   2.0000      -0.489768       -13.3273
 197   2.0000      -0.487997       -13.2791
 198   2.0000      -0.487475       -13.2649
 199   2.0000      -0.486801       -13.2465
 200   2.0000      -0.484991       -13.1973
 201   2.0000      -0.481732       -13.1086
 202   2.0000      -0.479822       -13.0566
 203   2.0000      -0.478412       -13.0183
 204   2.0000      -0.475413       -12.9366
 205   2.0000      -0.472793       -12.8654
 206   2.0000      -0.469705       -12.7813
 207   2.0000      -0.463492       -12.6122
 208   2.0000      -0.460849       -12.5403
 209   2.0000      -0.456858       -12.4317
 210   2.0000      -0.454495       -12.3674
 211   2.0000      -0.452960       -12.3257
 212   2.0000      -0.451097       -12.2750
 213   2.0000      -0.448618       -12.2075
 214   2.0000      -0.445781       -12.1303
 215   2.0000      -0.444029       -12.0826
 216   2.0000      -0.443097       -12.0573
 217   2.0000      -0.437574       -11.9070
 218   2.0000      -0.437490       -11.9047
 219   2.0000      -0.435654       -11.8548
 220   2.0000      -0.434075       -11.8118
 221   2.0000      -0.428261       -11.6536
 222   2.0000      -0.427846       -11.6423
 223   2.0000      -0.424174       -11.5424
 224   2.0000      -0.421385       -11.4665
 225   2.0000      -0.420990       -11.4557
 226   2.0000      -0.419039       -11.4026
 227   2.0000      -0.417598       -11.3634
 228   2.0000      -0.416358       -11.3297
 229   2.0000      -0.415863       -11.3162
 230   2.0000      -0.410238       -11.1631
 231   2.0000      -0.408619       -11.1191
 232   2.0000      -0.404823       -11.0158
 233   2.0000      -0.401411       -10.9229
 234   2.0000      -0.396976       -10.8023
 235   2.0000      -0.391698       -10.6586
 236   2.0000      -0.391581       -10.6555
 237   2.0000      -0.382844       -10.4177
 238   2.0000      -0.375417       -10.2156
 239   2.0000      -0.372024       -10.1233
 240   2.0000      -0.367792       -10.0081
 241   2.0000      -0.358504        -9.7554
 242   2.0000      -0.357235        -9.7208
 243   2.0000      -0.346715        -9.4346
 244   2.0000      -0.341035        -9.2800
 245   2.0000      -0.333705        -9.0806
 246   2.0000      -0.329978        -8.9792
 247   2.0000      -0.323105        -8.7921
 248   2.0000      -0.315487        -8.5848
 249   2.0000      -0.310933        -8.4609
 250   2.0000      -0.307600        -8.3702
 251   2.0000      -0.300255        -8.1704
 252   2.0000      -0.293560        -7.9882
 253   2.0000      -0.291031        -7.9193
 254   2.0000      -0.289559        -7.8793
 255   2.0000      -0.280095        -7.6218
 256   2.0000      -0.241610        -6.5746
 257   2.0000      -0.224877        -6.1192
 258   0.0000      -0.094383        -2.5683
 259   0.0000      -0.066013        -1.7963
 260   0.0000      -0.059016        -1.6059
 261   0.0000      -0.046859        -1.2751
 262   0.0000      -0.036597        -0.9958

MULLIKEN ATOMIC CHARGES
-----------------------
   0 C :   -0.029573
   1 C :   -0.064311
   2 C :    0.055090
   3 C :    0.031206
   4 C :   -0.069548
   5 S :    0.087274
   6 C :   -0.047141
   7 C :    0.035800
   8 C :    0.034884
   9 C :    0.021327
  10 S :    0.120453
  11 C :   -0.034864
  12 C :    0.014027
  13 N :   -0.156637
  14 C :    0.104074
  15 C :   -0.064590
  16 C :    0.024854
  17 N :   -0.070030
  18 C :    0.028055
  19 C :   -0.033357
  20 C :    0.204885
  21 C :   -0.310802
  22 C :   -0.194740
  23 N :    0.122826
  24 S :    0.147681
  25 C :    0.018439
  26 O :   -0.273493
  27 C :    0.167098
  28 C :    0.052567
  29 C :   -0.054757
  30 C :    0.057210
  31 C :   -0.073241
  32 S :    0.150342
  33 C :   -0.085412
  34 C :   -0.027150
  35 C :   -0.036961
  36 S :    0.161349
  37 C :   -0.032866
  38 C :   -0.015743
  39 C :   -0.088574
  40 S :    0.163314
  41 C :   -0.069823
  42 C :    0.085046
  43 C :   -0.017565
  44 C :   -0.036605
  45 C :   -0.075854
  46 C :    0.335148
  47 C :   -0.361589
  48 C :   -0.183141
  49 N :    0.141507
  50 C :   -0.189835
  51 N :    0.140489
  52 C :    0.013858
  53 C :   -0.012525
  54 C :    0.143673
  55 O :   -0.161038
  56 C :   -0.073514
  57 C :    0.118728
  58 C :   -0.092719
  59 C :   -0.021460
  60 S :    0.184355
  61 C :   -0.124090
  62 C :    0.038657
  63 Br:    0.020035
  64 H :    0.021051
  65 H :    0.023683
  66 H :   -0.010192
  67 H :   -0.010822
  68 H :   -0.018486
  69 H :   -0.016093
  70 H :   -0.027354
  71 H :    0.005904
  72 H :    0.000897
  73 H :    0.018320
  74 H :    0.022280
  75 H :    0.056704
  76 H :    0.041815
  77 H :    0.042160
  78 H :    0.010814
  79 H :   -0.008959
  80 H :   -0.006614
  81 H :    0.003239
  82 H :    0.006817
  83 H :    0.023971
  84 H :    0.007415
  85 H :   -0.014240
  86 H :   -0.008467
  87 H :   -0.004548
Sum of atomic charges:   -0.0000000

LOEWDIN ATOMIC CHARGES
----------------------
   0 C :   -0.071503
   1 C :   -0.140615
   2 C :   -0.025627
   3 C :   -0.026946
   4 C :   -0.162464
   5 S :    0.356402
   6 C :   -0.201386
   7 C :   -0.019024
   8 C :   -0.041659
   9 C :   -0.111298
  10 S :    0.415091
  11 C :   -0.098544
  12 C :    0.030493
  13 N :   -0.111634
  14 C :    0.060232
  15 C :   -0.076199
  16 C :    0.030671
  17 N :   -0.099294
  18 C :   -0.007511
  19 C :   -0.006858
  20 C :   -0.003397
  21 C :   -0.246618
  22 C :   -0.061273
  23 N :   -0.060833
  24 S :    0.450726
  25 C :   -0.074955
  26 O :   -0.073791
  27 C :    0.072201
  28 C :   -0.098713
  29 C :   -0.012450
  30 C :   -0.047684
  31 C :   -0.148386
  32 S :    0.427827
  33 C :   -0.228398
  34 C :   -0.177461
  35 C :   -0.068943
  36 S :    0.408204
  37 C :   -0.193894
  38 C :   -0.031864
  39 C :   -0.177869
  40 S :    0.437246
  41 C :   -0.201840
  42 C :    0.018543
  43 C :   -0.039527
  44 C :    0.068272
  45 C :   -0.105877
  46 C :    0.076393
  47 C :   -0.147429
  48 C :   -0.018132
  49 N :   -0.060024
  50 C :   -0.019871
  51 N :   -0.059298
  52 C :   -0.019814
  53 C :   -0.049855
  54 C :    0.084464
  55 O :   -0.154569
  56 C :    0.019801
  57 C :   -0.033756
  58 C :   -0.144639
  59 C :   -0.010787
  60 S :    0.430827
  61 C :   -0.272561
  62 C :   -0.070910
  63 Br:    0.134017
  64 H :    0.029038
  65 H :    0.027061
  66 H :    0.033881
  67 H :    0.032557
  68 H :    0.028060
  69 H :    0.031914
  70 H :    0.032124
  71 H :    0.027753
  72 H :    0.033511
  73 H :    0.039026
  74 H :    0.038333
  75 H :    0.037181
  76 H :    0.020830
  77 H :    0.019673
  78 H :    0.033364
  79 H :    0.025596
  80 H :    0.035439
  81 H :    0.041517
  82 H :    0.036923
  83 H :    0.031192
  84 H :    0.041232
  85 H :    0.039530
  86 H :    0.040610
  87 H :    0.038223

  Mayer bond orders larger than 0.100000
B(  0-C ,  1-C ) :   1.8679 B(  0-C , 64-H ) :   0.9515 B(  0-C , 65-H ) :   0.9420
B(  1-C ,  2-C ) :   1.0742 B(  1-C ,  5-S ) :   1.0057 B(  2-C ,  3-C ) :   1.6705
B(  2-C , 66-H ) :   0.9933 B(  3-C ,  4-C ) :   1.1396 B(  3-C , 67-H ) :   0.9916
B(  4-C ,  5-S ) :   1.0509 B(  4-C ,  6-C ) :   1.5884 B(  6-C ,  7-C ) :   1.1578
B(  6-C , 10-S ) :   0.9630 B(  7-C ,  8-C ) :   1.6211 B(  7-C , 68-H ) :   0.9940
B(  8-C ,  9-C ) :   1.1182 B(  8-C , 69-H ) :   1.0010 B(  9-C , 10-S ) :   1.0773
B(  9-C , 11-C ) :   1.5524 B( 10-S , 13-N ) :   0.1098 B( 11-C , 12-C ) :   1.1165
B( 11-C , 70-H ) :   0.9809 B( 12-C , 13-N ) :   1.4103 B( 12-C , 17-N ) :   1.4803
B( 13-N , 14-C ) :   1.5219 B( 14-C , 15-C ) :   1.3903 B( 14-C , 71-H ) :   0.9772
B( 15-C , 16-C ) :   1.3399 B( 15-C , 72-H ) :   0.9710 B( 16-C , 17-N ) :   1.5248
B( 16-C , 18-C ) :   1.0365 B( 18-C , 19-C ) :   1.7489 B( 18-C , 73-H ) :   0.9731
B( 19-C , 20-C ) :   1.0884 B( 19-C , 74-H ) :   0.9437 B( 20-C , 21-C ) :   1.4790
B( 20-C , 28-C ) :   1.2172 B( 21-C , 22-C ) :   1.2282 B( 21-C , 24-S ) :   1.0879
B( 22-C , 23-N ) :   2.9883 B( 24-S , 25-C ) :   1.1169 B( 25-C , 26-O ) :   1.1796
B( 25-C , 28-C ) :   1.4435 B( 26-O , 27-C ) :   0.9310 B( 27-C , 75-H ) :   0.9808
B( 27-C , 76-H ) :   0.9668 B( 27-C , 77-H ) :   0.9657 B( 28-C , 29-C ) :   1.0813
B( 29-C , 30-C ) :   1.7377 B( 29-C , 78-H ) :   0.9584 B( 30-C , 31-C ) :   1.0915
B( 30-C , 79-H ) :   0.9621 B( 31-C , 32-S ) :   1.1012 B( 31-C , 35-C ) :   1.5225
B( 32-S , 33-C ) :   1.0664 B( 33-C , 34-C ) :   1.4543 B( 33-C , 41-C ) :   1.3159
B( 34-C , 35-C ) :   1.2733 B( 34-C , 36-S ) :   1.0537 B( 35-C , 80-H ) :   0.9944
B( 36-S , 37-C ) :   1.0428 B( 37-C , 38-C ) :   1.3119 B( 37-C , 41-C ) :   1.4257
B( 38-C , 39-C ) :   1.4633 B( 38-C , 81-H ) :   0.9976 B( 39-C , 40-S ) :   1.0713
B( 39-C , 42-C ) :   1.1501 B( 40-S , 41-C ) :   1.0965 B( 42-C , 43-C ) :   1.5559
B( 42-C , 82-H ) :   0.9708 B( 43-C , 44-C ) :   1.2030 B( 43-C , 83-H ) :   0.9740
B( 44-C , 45-C ) :   1.4953 B( 44-C , 84-H ) :   0.9618 B( 45-C , 46-C ) :   1.0797
B( 45-C , 54-C ) :   0.9554 B( 46-C , 47-C ) :   1.6108 B( 46-C , 52-C ) :   0.9988
B( 47-C , 48-C ) :   1.1440 B( 47-C , 50-C ) :   1.1507 B( 48-C , 49-N ) :   2.9641
B( 50-C , 51-N ) :   2.9593 B( 52-C , 53-C ) :   1.2775 B( 52-C , 59-C ) :   1.4093
B( 53-C , 54-C ) :   0.9427 B( 53-C , 56-C ) :   1.4244 B( 54-C , 55-O ) :   2.1866
B( 56-C , 57-C ) :   1.2426 B( 56-C , 85-H ) :   1.0170 B( 57-C , 58-C ) :   1.3091
B( 57-C , 62-C ) :   1.1621 B( 58-C , 59-C ) :   1.3285 B( 58-C , 60-S ) :   1.0849
B( 59-C , 86-H ) :   0.9797 B( 60-S , 61-C ) :   1.0864 B( 61-C , 62-C ) :   1.6200
B( 61-C , 63-Br) :   1.0159 B( 62-C , 87-H ) :   0.9997

-----------------------------------------------------------------------------
         ABSORPTION SPECTRUM VIA TRANSITION ELECTRIC DIPOLE MOMENTS
-----------------------------------------------------------------------------
State   Energy  Wavelength   fosc         T2         TX        TY        TZ
        (cm-1)    (nm)                  (au**2)     (au)      (au)      (au)
-----------------------------------------------------------------------------
   0   17744.0    563.6   1.988288140  36.88954  -1.99972  -4.57967   3.45215
   1   20246.5    493.9   0.825555248  13.42372   2.71776  -1.67213  -1.80042
   2   20482.9    488.2   0.350363918   5.63125   1.74692  -1.15487  -1.11616
   3   24634.5    405.9   0.166416633   2.22397  -0.91653   1.14965   0.24951
   4   25481.7    392.4   0.080836608   1.04437  -0.64712  -0.51008   0.60450
   5   26540.7    376.8   0.027125138   0.33646   0.07520  -0.57515   0.00212
   6   27040.4    369.8   0.063669602   0.77517  -0.81165   0.14618   0.30826
   7   27696.4    361.1   0.319913991   3.80264  -1.76454   0.18660   0.80883
   8   28463.5    351.3   0.003251007   0.03760  -0.17131  -0.01680   0.08928
   9   28759.3    347.7   0.000307154   0.00352   0.02630   0.03964  -0.03540
  10   28887.6    346.2   0.167674985   1.91088  -1.10880  -0.32798   0.75755
  11   29244.4    341.9   0.044257591   0.49822  -0.13919  -0.63508   0.27481
  12   29973.6    333.6   0.023394138   0.25695   0.09492  -0.42836   0.25385
  13   29993.9    333.4   0.000929096   0.01020   0.01227  -0.00847  -0.09988
  14   30093.4    332.3   0.265277601   2.90205   0.63766   1.17941  -1.05092
  15   31209.9    320.4   0.005058917   0.05336  -0.10920  -0.08490   0.18502
  16   31594.3    316.5   0.000063893   0.00067  -0.01642  -0.00445   0.01940
  17   32247.7    310.1   0.000825786   0.00843   0.08957  -0.01773  -0.00962
  18   32740.3    305.4   0.087037089   0.87518   0.20199   0.64192  -0.64986
  19   33140.3    301.7   0.012995970   0.12910   0.23836  -0.19667  -0.18332
  20   33279.3    300.5   0.614665116   6.08050   2.24676  -0.82200  -0.59742
  21   33948.9    294.6   0.005283793   0.05124  -0.19965  -0.10188  -0.03163
  22   35261.2    283.6   0.032577971   0.30416  -0.39443   0.37371   0.09449
  23   35363.5    282.8   0.015383989   0.14322   0.08855   0.30330  -0.20828
  24   35899.1    278.6   0.184920722   1.69581   0.68693   0.41290  -1.02638
  25   36428.5    274.5   0.113267068   1.02362   0.14684   0.61079  -0.79309
  26   36523.4    273.8   0.105926165   0.95479  -0.74200  -0.22780   0.59358
  27   36753.0    272.1   0.005431256   0.04865   0.01780  -0.09252  -0.19943
  28   37083.0    269.7   0.008604683   0.07639   0.24900  -0.08819   0.08131
  29   37554.8    266.3   0.053375276   0.46790   0.20049  -0.52667   0.38770
  30   37644.3    265.6   0.009839849   0.08605   0.02267  -0.21357   0.19981
  31   37891.3    263.9   0.394515026   3.42767   1.30864  -0.54363  -1.19147
  32   38102.6    262.4   0.130265255   1.12551   0.73337  -0.48898  -0.59040
  33   38185.5    261.9   0.014327850   0.12353   0.16409   0.22886  -0.21029
  34   38378.1    260.6   0.125360400   1.07536  -0.40605  -0.68084   0.66853
  35   38699.7    258.4   0.121590079   1.03435   0.67939   0.20682  -0.72801
  36   38850.1    257.4   0.018575920   0.15741  -0.13320  -0.15130   0.34173
  37   38881.4    257.2   0.091414796   0.77402  -0.12917   0.75752  -0.42837
  38   39216.6    255.0   0.310244280   2.60441  -1.10650   1.01526   0.59102
  39   39938.6    250.4   0.037683785   0.31063  -0.33524  -0.15657   0.41681
  40   40060.2    249.6   0.093413652   0.76767   0.00250  -0.64726   0.59052
  41   40208.9    248.7   0.186534025   1.52725  -0.31667  -0.89435   0.79190

FINAL SINGLE POINT ENERGY     -7663.259259197978

DIPOLE MOMENT
-------------
                                X             Y             Z
Electronic contribution:     90.08172     131.77186     -94.85993
Nuclear contribution   :    -89.61653    -133.54007      96.04628
                        -----------------------------------------
Total Dipole Moment    :      0.46519      -1.76821       1.18635
                        -----------------------------------------
Magnitude (a.u.)       :      2.17954
Magnitude (Debye)      :      5.53994

Rotational constants in cm-1:     0.000791     0.000253     0.000194
Rotational constants in MHz :    23.725540     7.592187     5.813111

                             ****ORCA TERMINATED NORMALLY****
TOTAL RUN TIME: 0 days 0 hours 7 minutes 17 seconds 957 msec
