                         Program Version 4.2.0 -  RELEASE  -
|  1> # ORCA input file
|  2> # SCF done       -130.762945052193          0.000382864112
|  3> ! CAM-B3LYP def2-SVP def2/J RIJCOSX Grid4 TightSCF
|  4> %maxcore 5000
|  5> %tddft
|  6>     Mode sTDDFT
|  7>     Ethresh 5.0
|  8>     maxcore 5000
|  9> end
| 10>
| 11> %pal
| 12>   nprocs 6
| 13>   end
| 14> * xyz 0 1
| 15>    C       15.21449        -1.39332         5.18047
| 16>    C       14.20585        -0.67508         4.66901
| 17>    C       13.97655         0.73619         4.79790
| 18>    C       12.85613         1.17966         4.18703
| 19>    C       12.10460         0.16723         3.52765
| 20>    S       12.90411        -1.38538         3.70243
| 21>    C       10.91243         0.29695         2.86290
| 22>    C       10.10171         1.45271         2.71601
| 23>    C        8.93117         1.21879         2.07326
| 24>    C        8.72784        -0.13407         1.67116
| 25>    S       10.13256        -1.08520         2.11356
| 26>    C        7.61798        -0.57756         1.00606
| 27>    C        7.27327        -1.86138         0.52241
| 28>    S        6.18068        -1.87487        -0.85322
| 29>    C        6.35491        -3.57428        -1.02828
| 30>    C        7.17144        -4.12249        -0.09281
| 31>    C        7.46707        -5.58326        -0.00583
| 32>    C        7.67903        -3.15841         0.83346
| 33>    C        8.42246        -3.56083         1.99482
| 34>    C        8.32656        -2.97754         3.20753
| 35>    C        9.10648        -3.32371         4.36041
| 36>    C       10.31984        -3.90997         4.31845
| 37>    C       11.10215        -4.17894         5.48640
| 38>    C       12.34558        -4.68581         5.49232
| 39>    C       13.08707        -5.06206         4.24220
| 40>    C       13.03854        -5.01990         6.78866
| 41>    N       13.08432        -6.46020         6.99194
| 42>    C       11.93542        -7.18211         7.22153
| 43>    C       10.81966        -6.73856         7.82016
| 44>    C        9.64420        -7.53980         8.07388
| 45>    C        9.09559        -8.46300         7.27558
| 46>    C        9.60060        -8.81936         5.91056
| 47>    C        7.87250        -9.23064         7.71914
| 48>    N        8.16793       -10.63394         7.92619
| 49>    C        8.13757       -11.53453         6.91957
| 50>    C        8.72363       -12.75110         6.94556
| 51>    C        8.61180       -13.70504         5.89714
| 52>    S        7.74410       -13.42111         4.40016
| 53>    C        8.10221       -14.97277         3.73883
| 54>    C        8.86073       -15.69553         4.62171
| 55>    C        9.14009       -14.97139         5.82674
| 56>    O        9.89219       -15.72044         6.67571
| 57>    C       10.08588       -16.89745         6.02580
| 58>    N       10.84694       -17.89023         6.68051
| 59>    O       11.00430       -18.93936         6.08024
| 60>    O       11.29088       -17.63967         7.78172
| 61>    C        9.49842       -16.95492         4.79064
| 62>    H       15.98325        -0.92209         5.76676
| 63>    H       15.28676        -2.45349         5.02333
| 64>    H       14.66404         1.35454         5.34758
| 65>    H       12.53120         2.20527         4.18388
| 66>    H       10.40086         2.40971         3.10446
| 67>    H        8.18373         1.96875         1.88050
| 68>    H        6.92199         0.20317         0.71730
| 69>    H        5.83112        -4.07533        -1.81878
| 70>    H        6.94206        -6.12254        -0.79012
| 71>    H        7.15520        -5.97605         0.96116
| 72>    H        8.53631        -5.76204        -0.11568
| 73>    H        9.04937        -4.43353         1.87598
| 74>    H        7.59280        -2.19282         3.34614
| 75>    H        8.70438        -3.02143         5.31964
| 76>    H       10.75120        -4.15913         3.36095
| 77>    H       10.63648        -3.92861         6.43081
| 78>    H       12.60790        -5.90421         3.74149
| 79>    H       14.11459        -5.33929         4.46954
| 80>    H       13.10557        -4.22653         3.54498
| 81>    H       12.52358        -4.56402         7.63501
| 82>    H       14.07096        -4.65747         6.78102
| 83>    H       13.73893        -6.92372         6.37892
| 84>    H       12.02300        -8.22929         6.96757
| 85>    H       10.77117        -5.72497         8.19016
| 86>    H        9.12982        -7.30365         8.99989
| 87>    H       10.21188        -8.01238         5.51303
| 88>    H        8.76201        -8.99035         5.23614
| 89>    H       10.19810        -9.73186         5.92863
| 90>    H        7.08619        -9.16648         6.96080
| 91>    H        7.48588        -8.82343         8.65756
| 92>    H        8.80889       -10.83066         8.68237
| 93>    H        7.54356       -11.24680         6.06151
| 94>    H        9.31480       -13.06359         7.79459
| 95>    H        7.73657       -15.23725         2.76957
| 96>    H        9.53003       -17.78702         4.11835
| 97> *
| 98>
| 99>                          ****END OF INPUT****

CARTESIAN COORDINATES (ANGSTROEM)
---------------------------------
  C     15.214490   -1.393320    5.180470
  C     14.205850   -0.675080    4.669010
  C     13.976550    0.736190    4.797900
  C     12.856130    1.179660    4.187030
  C     12.104600    0.167230    3.527650
  S     12.904110   -1.385380    3.702430
  C     10.912430    0.296950    2.862900
  C     10.101710    1.452710    2.716010
  C      8.931170    1.218790    2.073260
  C      8.727840   -0.134070    1.671160
  S     10.132560   -1.085200    2.113560
  C      7.617980   -0.577560    1.006060
  C      7.273270   -1.861380    0.522410
  S      6.180680   -1.874870   -0.853220
  C      6.354910   -3.574280   -1.028280
  C      7.171440   -4.122490   -0.092810
  C      7.467070   -5.583260   -0.005830
  C      7.679030   -3.158410    0.833460
  C      8.422460   -3.560830    1.994820
  C      8.326560   -2.977540    3.207530
  C      9.106480   -3.323710    4.360410
  C     10.319840   -3.909970    4.318450
  C     11.102150   -4.178940    5.486400
  C     12.345580   -4.685810    5.492320
  C     13.087070   -5.062060    4.242200
  C     13.038540   -5.019900    6.788660
  N     13.084320   -6.460200    6.991940
  C     11.935420   -7.182110    7.221530
  C     10.819660   -6.738560    7.820160
  C      9.644200   -7.539800    8.073880
  C      9.095590   -8.463000    7.275580
  C      9.600600   -8.819360    5.910560
  C      7.872500   -9.230640    7.719140
  N      8.167930  -10.633940    7.926190
  C      8.137570  -11.534530    6.919570
  C      8.723630  -12.751100    6.945560
  C      8.611800  -13.705040    5.897140
  S      7.744100  -13.421110    4.400160
  C      8.102210  -14.972770    3.738830
  C      8.860730  -15.695530    4.621710
  C      9.140090  -14.971390    5.826740
  O      9.892190  -15.720440    6.675710
  C     10.085880  -16.897450    6.025800
  N     10.846940  -17.890230    6.680510
  O     11.004300  -18.939360    6.080240
  O     11.290880  -17.639670    7.781720
  C      9.498420  -16.954920    4.790640
  H     15.983250   -0.922090    5.766760
  H     15.286760   -2.453490    5.023330
  H     14.664040    1.354540    5.347580
  H     12.531200    2.205270    4.183880
  H     10.400860    2.409710    3.104460
  H      8.183730    1.968750    1.880500
  H      6.921990    0.203170    0.717300
  H      5.831120   -4.075330   -1.818780
  H      6.942060   -6.122540   -0.790120
  H      7.155200   -5.976050    0.961160
  H      8.536310   -5.762040   -0.115680
  H      9.049370   -4.433530    1.875980
  H      7.592800   -2.192820    3.346140
  H      8.704380   -3.021430    5.319640
  H     10.751200   -4.159130    3.360950
  H     10.636480   -3.928610    6.430810
  H     12.607900   -5.904210    3.741490
  H     14.114590   -5.339290    4.469540
  H     13.105570   -4.226530    3.544980
  H     12.523580   -4.564020    7.635010
  H     14.070960   -4.657470    6.781020
  H     13.738930   -6.923720    6.378920
  H     12.023000   -8.229290    6.967570
  H     10.771170   -5.724970    8.190160
  H      9.129820   -7.303650    8.999890
  H     10.211880   -8.012380    5.513030
  H      8.762010   -8.990350    5.236140
  H     10.198100   -9.731860    5.928630
  H      7.086190   -9.166480    6.960800
  H      7.485880   -8.823430    8.657560
  H      8.808890  -10.830660    8.682370
  H      7.543560  -11.246800    6.061510
  H      9.314800  -13.063590    7.794590
  H      7.736570  -15.237250    2.769570
  H      9.530030  -17.787020    4.118350

 Total Charge           Charge          ....    0
 Multiplicity           Mult            ....    1
 Number of Electrons    NEL             ....  366
 Basis Dimension        Dim             ....  849

ORBITAL ENERGIES
----------------

  NO   OCC          E(Eh)            E(eV)
   0   2.0000     -88.954527     -2420.5757
   1   2.0000     -88.939250     -2420.1600
   2   2.0000     -88.937459     -2420.1113
   3   2.0000     -88.935614     -2420.0611
   4   2.0000     -19.287785      -524.8473
   5   2.0000     -19.231267      -523.3094
   6   2.0000     -19.228811      -523.2425
   7   2.0000     -14.642105      -398.4319
   8   2.0000     -14.422753      -392.4630
   9   2.0000     -14.416557      -392.2945
  10   2.0000     -10.371702      -282.2284
  11   2.0000     -10.320221      -280.8275
  12   2.0000     -10.306630      -280.4577
  13   2.0000     -10.305416      -280.4246
  14   2.0000     -10.304634      -280.4033
  15   2.0000     -10.301511      -280.3184
  16   2.0000     -10.299677      -280.2685
  17   2.0000     -10.299428      -280.2617
  18   2.0000     -10.298793      -280.2444
  19   2.0000     -10.297128      -280.1991
  20   2.0000     -10.296491      -280.1818
  21   2.0000     -10.293992      -280.1138
  22   2.0000     -10.292540      -280.0742
  23   2.0000     -10.289308      -279.9863
  24   2.0000     -10.287289      -279.9314
  25   2.0000     -10.282054      -279.7889
  26   2.0000     -10.279732      -279.7257
  27   2.0000     -10.279626      -279.7228
  28   2.0000     -10.279463      -279.7184
  29   2.0000     -10.279055      -279.7073
  30   2.0000     -10.278890      -279.7028
  31   2.0000     -10.268875      -279.4303
  32   2.0000     -10.268032      -279.4074
  33   2.0000     -10.267589      -279.3953
  34   2.0000     -10.266135      -279.3557
  35   2.0000     -10.264182      -279.3026
  36   2.0000     -10.262879      -279.2671
  37   2.0000     -10.262203      -279.2487
  38   2.0000     -10.262052      -279.2446
  39   2.0000     -10.260283      -279.1965
  40   2.0000     -10.259329      -279.1705
  41   2.0000     -10.256745      -279.1002
  42   2.0000     -10.254574      -279.0411
  43   2.0000     -10.254297      -279.0336
  44   2.0000     -10.252302      -278.9793
  45   2.0000     -10.252085      -278.9734
  46   2.0000     -10.239561      -278.6326
  47   2.0000      -8.049595      -219.0406
  48   2.0000      -8.035479      -218.6565
  49   2.0000      -8.032601      -218.5782
  50   2.0000      -8.031800      -218.5564
  51   2.0000      -6.018910      -163.7829
  52   2.0000      -6.014752      -163.6697
  53   2.0000      -6.011846      -163.5906
  54   2.0000      -6.004802      -163.3990
  55   2.0000      -6.002369      -163.3328
  56   2.0000      -6.001670      -163.3137
  57   2.0000      -6.000652      -163.2860
  58   2.0000      -5.998185      -163.2189
  59   2.0000      -5.997740      -163.2068
  60   2.0000      -5.997495      -163.2001
  61   2.0000      -5.993648      -163.0954
  62   2.0000      -5.992321      -163.0593
  63   2.0000      -1.313029       -35.7293
  64   2.0000      -1.206927       -32.8421
  65   2.0000      -1.128952       -30.7204
  66   2.0000      -1.025862       -27.9151
  67   2.0000      -1.015831       -27.6422
  68   2.0000      -0.987593       -26.8738
  69   2.0000      -0.975425       -26.5427
  70   2.0000      -0.973742       -26.4969
  71   2.0000      -0.961778       -26.1713
  72   2.0000      -0.919059       -25.0089
  73   2.0000      -0.908883       -24.7320
  74   2.0000      -0.898063       -24.4375
  75   2.0000      -0.887128       -24.1400
  76   2.0000      -0.885584       -24.0980
  77   2.0000      -0.877787       -23.8858
  78   2.0000      -0.862515       -23.4702
  79   2.0000      -0.854654       -23.2563
  80   2.0000      -0.849414       -23.1137
  81   2.0000      -0.841123       -22.8881
  82   2.0000      -0.831632       -22.6299
  83   2.0000      -0.825190       -22.4546
  84   2.0000      -0.815067       -22.1791
  85   2.0000      -0.800522       -21.7833
  86   2.0000      -0.797119       -21.6907
  87   2.0000      -0.781686       -21.2708
  88   2.0000      -0.780255       -21.2318
  89   2.0000      -0.770517       -20.9668
  90   2.0000      -0.756809       -20.5938
  91   2.0000      -0.748593       -20.3703
  92   2.0000      -0.746046       -20.3010
  93   2.0000      -0.730979       -19.8909
  94   2.0000      -0.711478       -19.3603
  95   2.0000      -0.697142       -18.9702
  96   2.0000      -0.692535       -18.8448
  97   2.0000      -0.686774       -18.6881
  98   2.0000      -0.677517       -18.4362
  99   2.0000      -0.656141       -17.8545
 100   2.0000      -0.647606       -17.6223
 101   2.0000      -0.644587       -17.5401
 102   2.0000      -0.633125       -17.2282
 103   2.0000      -0.626952       -17.0602
 104   2.0000      -0.626779       -17.0555
 105   2.0000      -0.621432       -16.9100
 106   2.0000      -0.620946       -16.8968
 107   2.0000      -0.615037       -16.7360
 108   2.0000      -0.609871       -16.5954
 109   2.0000      -0.608238       -16.5510
 110   2.0000      -0.601383       -16.3645
 111   2.0000      -0.594829       -16.1861
 112   2.0000      -0.590141       -16.0586
 113   2.0000      -0.582304       -15.8453
 114   2.0000      -0.575871       -15.6703
 115   2.0000      -0.575171       -15.6512
 116   2.0000      -0.566694       -15.4205
 117   2.0000      -0.562261       -15.2999
 118   2.0000      -0.555003       -15.1024
 119   2.0000      -0.552623       -15.0376
 120   2.0000      -0.545963       -14.8564
 121   2.0000      -0.542383       -14.7590
 122   2.0000      -0.533480       -14.5167
 123   2.0000      -0.529430       -14.4065
 124   2.0000      -0.525217       -14.2919
 125   2.0000      -0.522058       -14.2059
 126   2.0000      -0.515702       -14.0330
 127   2.0000      -0.511399       -13.9159
 128   2.0000      -0.507468       -13.8089
 129   2.0000      -0.505659       -13.7597
 130   2.0000      -0.500873       -13.6295
 131   2.0000      -0.496850       -13.5200
 132   2.0000      -0.494088       -13.4448
 133   2.0000      -0.493051       -13.4166
 134   2.0000      -0.491415       -13.3721
 135   2.0000      -0.490761       -13.3543
 136   2.0000      -0.487617       -13.2687
 137   2.0000      -0.482776       -13.1370
 138   2.0000      -0.478076       -13.0091
 139   2.0000      -0.472740       -12.8639
 140   2.0000      -0.466418       -12.6919
 141   2.0000      -0.461131       -12.5480
 142   2.0000      -0.459383       -12.5004
 143   2.0000      -0.456036       -12.4094
 144   2.0000      -0.454643       -12.3715
 145   2.0000      -0.454094       -12.3565
 146   2.0000      -0.450276       -12.2526
 147   2.0000      -0.448133       -12.1943
 148   2.0000      -0.444700       -12.1009
 149   2.0000      -0.443741       -12.0748
 150   2.0000      -0.441827       -12.0227
 151   2.0000      -0.437038       -11.8924
 152   2.0000      -0.433991       -11.8095
 153   2.0000      -0.431627       -11.7452
 154   2.0000      -0.425679       -11.5833
 155   2.0000      -0.423612       -11.5271
 156   2.0000      -0.419592       -11.4177
 157   2.0000      -0.418046       -11.3756
 158   2.0000      -0.415311       -11.3012
 159   2.0000      -0.410726       -11.1764
 160   2.0000      -0.402883       -10.9630
 161   2.0000      -0.401209       -10.9175
 162   2.0000      -0.399757       -10.8779
 163   2.0000      -0.389467       -10.5979
 164   2.0000      -0.385970       -10.5028
 165   2.0000      -0.383407       -10.4330
 166   2.0000      -0.377667       -10.2768
 167   2.0000      -0.375597       -10.2205
 168   2.0000      -0.366886        -9.9835
 169   2.0000      -0.358458        -9.7541
 170   2.0000      -0.352041        -9.5795
 171   2.0000      -0.339355        -9.2343
 172   2.0000      -0.332152        -9.0383
 173   2.0000      -0.331223        -9.0130
 174   2.0000      -0.317448        -8.6382
 175   2.0000      -0.314883        -8.5684
 176   2.0000      -0.299596        -8.1524
 177   2.0000      -0.293847        -7.9960
 178   2.0000      -0.284185        -7.7331
 179   2.0000      -0.248832        -6.7711
 180   2.0000      -0.246647        -6.7116
 181   2.0000      -0.224632        -6.1126
 182   2.0000      -0.213260        -5.8031
 183   0.0000      -0.063373        -1.7245
 184   0.0000      -0.051003        -1.3878
 185   0.0000      -0.016013        -0.4357
 186   0.0000       0.013516         0.3678
 187   0.0000       0.015018         0.4087

MULLIKEN ATOMIC CHARGES
-----------------------
   0 C :   -0.038701
   1 C :   -0.054210
   2 C :    0.047761
   3 C :    0.029748
   4 C :   -0.054930
   5 S :    0.065710
   6 C :   -0.049767
   7 C :    0.026175
   8 C :    0.038800
   9 C :   -0.033743
  10 S :    0.092658
  11 C :    0.001759
  12 C :   -0.179845
  13 S :    0.093292
  14 C :   -0.123908
  15 C :   -0.084082
  16 C :    0.117432
  17 C :    0.131258
  18 C :   -0.057663
  19 C :    0.023913
  20 C :    0.007280
  21 C :    0.013853
  22 C :    0.040433
  23 C :   -0.205341
  24 C :    0.073631
  25 C :    0.206455
  26 N :   -0.171333
  27 C :    0.036443
  28 C :   -0.035276
  29 C :    0.006790
  30 C :   -0.212652
  31 C :    0.097131
  32 C :    0.193901
  33 N :   -0.142561
  34 C :    0.047780
  35 C :   -0.025603
  36 C :   -0.180350
  37 S :    0.100021
  38 C :   -0.160521
  39 C :    0.144654
  40 C :    0.172447
  41 O :   -0.193981
  42 C :    0.233168
  43 N :    0.274498
  44 O :   -0.257183
  45 O :   -0.235793
  46 C :   -0.080959
  47 H :    0.018138
  48 H :    0.013437
  49 H :   -0.012596
  50 H :   -0.011716
  51 H :   -0.020653
  52 H :   -0.015646
  53 H :   -0.014453
  54 H :    0.012224
  55 H :    0.005405
  56 H :    0.028436
  57 H :    0.027008
  58 H :   -0.016911
  59 H :    0.004569
  60 H :   -0.020194
  61 H :   -0.017507
  62 H :   -0.037644
  63 H :    0.029337
  64 H :   -0.003913
  65 H :    0.037990
  66 H :    0.009246
  67 H :    0.003184
  68 H :    0.112567
  69 H :   -0.001115
  70 H :   -0.025493
  71 H :   -0.030295
  72 H :    0.026553
  73 H :   -0.006040
  74 H :    0.033227
  75 H :    0.012578
  76 H :   -0.000925
  77 H :    0.114677
  78 H :    0.000153
  79 H :   -0.018274
  80 H :    0.019273
  81 H :    0.006784
Sum of atomic charges:   -0.0000000

LOEWDIN ATOMIC CHARGES
----------------------
   0 C :   -0.087813
   1 C :   -0.136645
   2 C :   -0.034274
   3 C :   -0.024923
   4 C :   -0.178240
   5 S :    0.363410
   6 C :   -0.180109
   7 C :   -0.045280
   8 C :   -0.028601
   9 C :   -0.155113
  10 S :    0.425803
  11 C :   -0.082769
  12 C :   -0.170103
  13 S :    0.412873
  14 C :   -0.194915
  15 C :   -0.057944
  16 C :   -0.044932
  17 C :   -0.064897
  18 C :   -0.043334
  19 C :   -0.029662
  20 C :   -0.032151
  21 C :   -0.019916
  22 C :   -0.038675
  23 C :   -0.045899
  24 C :   -0.060190
  25 C :    0.041537
  26 N :   -0.028763
  27 C :    0.030783
  28 C :   -0.120740
  29 C :   -0.040052
  30 C :   -0.067047
  31 C :   -0.056876
  32 C :    0.043355
  33 N :   -0.005414
  34 C :    0.037330
  35 C :   -0.146786
  36 C :   -0.179199
  37 S :    0.441129
  38 C :   -0.210805
  39 C :   -0.080647
  40 C :   -0.003814
  41 O :   -0.010877
  42 C :    0.023053
  43 N :    0.272741
  44 O :   -0.217769
  45 O :   -0.197282
  46 C :   -0.013836
  47 H :    0.027811
  48 H :    0.021914
  49 H :    0.032691
  50 H :    0.032512
  51 H :    0.028894
  52 H :    0.031817
  53 H :    0.031810
  54 H :    0.019764
  55 H :    0.031402
  56 H :    0.035591
  57 H :    0.033717
  58 H :    0.022855
  59 H :    0.029996
  60 H :    0.025255
  61 H :    0.019929
  62 H :    0.022584
  63 H :    0.034960
  64 H :    0.020151
  65 H :    0.028535
  66 H :    0.026262
  67 H :    0.023666
  68 H :    0.069045
  69 H :    0.024046
  70 H :    0.018211
  71 H :    0.020180
  72 H :    0.032364
  73 H :    0.022809
  74 H :    0.031382
  75 H :    0.025744
  76 H :    0.023401
  77 H :    0.077938
  78 H :    0.019130
  79 H :    0.031042
  80 H :    0.022944
  81 H :    0.043922

  Mayer bond orders larger than 0.100000
B(  0-C ,  1-C ) :   1.8636 B(  0-C , 47-H ) :   0.9498 B(  0-C , 48-H ) :   0.9395
B(  1-C ,  2-C ) :   1.0794 B(  1-C ,  5-S ) :   1.0133 B(  2-C ,  3-C ) :   1.6622
B(  2-C , 49-H ) :   0.9932 B(  3-C ,  4-C ) :   1.1496 B(  3-C , 50-H ) :   0.9922
B(  4-C ,  5-S ) :   1.0405 B(  4-C ,  6-C ) :   1.5628 B(  6-C ,  7-C ) :   1.1540
B(  6-C , 10-S ) :   1.0331 B(  7-C ,  8-C ) :   1.6227 B(  7-C , 51-H ) :   0.9917
B(  8-C ,  9-C ) :   1.1196 B(  8-C , 52-H ) :   0.9969 B(  9-C , 10-S ) :   1.0518
B(  9-C , 11-C ) :   1.6294 B( 11-C , 12-C ) :   1.1443 B( 11-C , 53-H ) :   0.9393
B( 12-C , 13-S ) :   1.1198 B( 12-C , 17-C ) :   1.4290 B( 13-S , 14-C ) :   1.1313
B( 14-C , 15-C ) :   1.6020 B( 14-C , 54-H ) :   0.9661 B( 15-C , 16-C ) :   1.0972
B( 15-C , 17-C ) :   1.2290 B( 16-C , 55-H ) :   0.9510 B( 16-C , 56-H ) :   0.9429
B( 16-C , 57-H ) :   0.9428 B( 17-C , 18-C ) :   1.1101 B( 18-C , 19-C ) :   1.7197
B( 18-C , 58-H ) :   0.9505 B( 19-C , 20-C ) :   1.0794 B( 19-C , 59-H ) :   0.9700
B( 20-C , 21-C ) :   1.7340 B( 20-C , 60-H ) :   0.9767 B( 21-C , 22-C ) :   1.1153
B( 21-C , 61-H ) :   0.9599 B( 22-C , 23-C ) :   1.7807 B( 22-C , 62-H ) :   0.9700
B( 23-C , 24-C ) :   1.0673 B( 23-C , 25-C ) :   1.0532 B( 24-C , 63-H ) :   0.9465
B( 24-C , 64-H ) :   0.9513 B( 24-C , 65-H ) :   0.9425 B( 25-C , 26-N ) :   1.0313
B( 25-C , 66-H ) :   0.9332 B( 25-C , 67-H ) :   0.9327 B( 26-N , 27-C ) :   1.1712
B( 26-N , 68-H ) :   0.9432 B( 27-C , 28-C ) :   1.7537 B( 27-C , 69-H ) :   0.9667
B( 28-C , 29-C ) :   1.0744 B( 28-C , 70-H ) :   0.9420 B( 29-C , 30-C ) :   1.8588
B( 29-C , 71-H ) :   0.9466 B( 30-C , 31-C ) :   1.0797 B( 30-C , 32-C ) :   1.0504
B( 31-C , 72-H ) :   0.9410 B( 31-C , 73-H ) :   0.9426 B( 31-C , 74-H ) :   0.9395
B( 32-C , 33-N ) :   1.0033 B( 32-C , 75-H ) :   0.9316 B( 32-C , 76-H ) :   0.9415
B( 33-N , 34-C ) :   1.2402 B( 33-N , 77-H ) :   0.9375 B( 34-C , 35-C ) :   1.6071
B( 34-C , 78-H ) :   0.9632 B( 35-C , 36-C ) :   1.1614 B( 35-C , 79-H ) :   0.9700
B( 36-C , 37-S ) :   1.1162 B( 36-C , 38-C ) :   0.1120 B( 36-C , 40-C ) :   1.4933
B( 37-S , 38-C ) :   1.1518 B( 38-C , 39-C ) :   1.4490 B( 38-C , 80-H ) :   0.9775
B( 39-C , 40-C ) :   1.2024 B( 39-C , 46-C ) :   1.0570 B( 40-C , 41-O ) :   1.0903
B( 41-O , 42-C ) :   1.1359 B( 42-C , 43-N ) :   0.9204 B( 42-C , 46-C ) :   1.5727
B( 43-N , 44-O ) :   1.5275 B( 43-N , 45-O ) :   1.5119 B( 44-O , 45-O ) :   0.2770
B( 46-C , 81-H ) :   1.0250

-----------------------------------------------------------------------------
         ABSORPTION SPECTRUM VIA TRANSITION ELECTRIC DIPOLE MOMENTS
-----------------------------------------------------------------------------
State   Energy  Wavelength   fosc         T2         TX        TY        TZ
        (cm-1)    (nm)                  (au**2)     (au)      (au)      (au)
-----------------------------------------------------------------------------
   0   17427.9    573.8   0.528056483   9.97494   2.55999   1.47847   1.11155
   1   20082.2    498.0   0.068059014   1.11571  -0.23677  -0.56253  -0.86210
   2   22546.9    443.5   0.083088194   1.21319  -0.83916   0.27053  -0.66015
   3   25470.5    392.6   0.021159586   0.27349  -0.29030   0.22247  -0.37380
   4   26674.0    374.9   0.848781274  10.47569  -2.43749   0.65614  -2.02579
   5   28386.7    352.3   0.001523109   0.01766  -0.09445  -0.08107   0.04659
   6   28560.6    350.1   0.000109950   0.00127   0.02131   0.02494   0.01382
   7   30486.3    328.0   0.060484783   0.65316  -0.45497   0.64792  -0.16235
   8   31123.5    321.3   0.012453786   0.13173  -0.21252   0.28295  -0.08064
   9   31308.3    319.4   0.073609446   0.77402   0.10786  -0.86761   0.09817
  10   32232.7    310.2   0.091004329   0.92948   0.27833  -0.77854   0.49586
  11   32579.2    306.9   0.000096978   0.00098   0.01280  -0.02855   0.00107
  12   32964.7    303.4   0.262725533   2.62379   0.81973  -1.29626   0.52110
  13   34262.2    291.9   0.864894689   8.31044  -1.01859   2.69655  -0.03908
  14   34658.6    288.5   0.218959366   2.07983  -0.77884  -0.38588  -1.15080
  15   35030.7    285.5   0.203169209   1.90935  -0.85059  -0.47585  -0.97949
  16   35095.5    284.9   0.101305994   0.95030   0.52441   0.44238   0.69252
  17   36260.2    275.8   0.022324936   0.20269   0.23088  -0.16067   0.35153
  18   36708.4    272.4   0.359686135   3.22577   1.02601   0.04547   1.47344
  19   36911.7    270.9   0.210735545   1.87953   1.00946   0.15931   0.91386
  20   37292.6    268.1   0.000140907   0.00124  -0.00326   0.00906   0.03393
  21   38508.5    259.7   0.050239582   0.42950  -0.43519  -0.25824  -0.41644
  22   39369.1    254.0   0.065895259   0.55103   0.21616   0.56046   0.43611
  23   39754.9    251.5   0.030943038   0.25624  -0.43972   0.15537  -0.19685

FINAL SINGLE POINT ENERGY     -3410.618960584280

DIPOLE MOMENT
-------------
                                X             Y             Z
Electronic contribution:    -10.91482     -27.26674     -13.46167
Nuclear contribution   :     10.74122      30.69467      12.73185
                        -----------------------------------------
Total Dipole Moment    :     -0.17359       3.42792      -0.72983
                        -----------------------------------------
Magnitude (a.u.)       :      3.50905
Magnitude (Debye)      :      8.91929

Rotational constants in cm-1:     0.002606     0.000580     0.000505
Rotational constants in MHz :    78.140894    17.398219    15.151913

                             ****ORCA TERMINATED NORMALLY****
TOTAL RUN TIME: 0 days 0 hours 5 minutes 34 seconds 640 msec
