                         Program Version 4.2.0 -  RELEASE  -
|  1> # ORCA input file
|  2> # SCF done       -155.185053222836          0.000387222808
|  3> ! CAM-B3LYP def2-SVP def2/J RIJCOSX Grid4 TightSCF
|  4> %maxcore 5000
|  5> %tddft
|  6>     Mode sTDDFT
|  7>     Ethresh 5.0
|  8>     maxcore 5000
|  9> end
| 10>
| 11> %pal
| 12>   nprocs 6
| 13>   end
| 14> * xyz 0 1
| 15>    C        1.88049         1.56188        -3.21678
| 16>    C        0.90473         1.26920        -2.34746
| 17>    C        0.44702         2.05985        -1.23981
| 18>    C       -0.55829         1.50122        -0.53202
| 19>    C       -0.98108         0.22915        -1.01368
| 20>    S       -0.03979        -0.22742        -2.41833
| 21>    C       -1.96820        -0.57732        -0.50328
| 22>    C       -2.80141        -0.33352         0.61883
| 23>    C       -3.68462        -1.33247         0.87421
| 24>    C       -3.60612        -2.42728        -0.02801
| 25>    S       -2.35768        -2.13129        -1.22017
| 26>    C       -4.36963        -3.56460        -0.01115
| 27>    C       -4.22551        -4.60029        -0.94926
| 28>    O       -3.28305        -4.49267        -1.92976
| 29>    C       -4.88605        -5.80776        -1.11864
| 30>    C       -5.93717        -6.66942        -0.58941
| 31>    O       -6.68045        -6.54121         0.35097
| 32>    N       -5.92268        -7.77094        -1.45045
| 33>    C       -4.98104        -7.71424        -2.47446
| 34>    O       -4.81790        -8.56147        -3.31718
| 35>    C       -4.30780        -6.43570        -2.25042
| 36>    C       -3.31934        -5.59637        -2.72709
| 37>    C       -2.43249        -5.72088        -3.82558
| 38>    C       -1.52166        -4.77671        -4.15847
| 39>    C       -0.64771        -4.90659        -5.27705
| 40>    C        0.23485        -3.97406        -5.68462
| 41>    C        0.41288        -2.65052        -5.00835
| 42>    C        0.99736        -4.19992        -6.96594
| 43>    N        0.24452        -3.67413        -8.09083
| 44>    C       -0.84690        -4.35091        -8.55228
| 45>    C       -1.84596        -3.76061        -9.24027
| 46>    C       -2.98430        -4.35818        -9.86048
| 47>    S       -4.09284        -3.25049       -10.61592
| 48>    C       -3.41619        -5.66469       -10.02160
| 49>    C       -2.67798        -6.83771        -9.45540
| 50>    C       -2.88396        -6.96571        -7.93765
| 51>    N       -1.77016        -7.70218        -7.34929
| 52>    C       -4.62242        -5.76931       -10.75090
| 53>    C       -5.25679        -7.07635       -11.10523
| 54>    C       -6.15343        -7.61163        -9.98265
| 55>    N       -6.73566        -8.87745       -10.39379
| 56>    C       -5.13594        -4.54358       -11.15371
| 57>    C       -6.32978        -4.23219       -11.86096
| 58>    S       -7.71079        -5.27770       -11.81506
| 59>    C       -8.67042        -4.22825       -12.76301
| 60>    C       -7.98500        -3.09344       -13.12207
| 61>    C       -6.63696        -3.08321       -12.61317
| 62>    C       -5.80616        -2.01084       -12.95115
| 63>    C       -6.28063        -0.96579       -13.71857
| 64>    C       -5.39952         0.14578       -14.06002
| 65>    O       -5.72630         1.11685       -14.72587
| 66>    O       -4.15217         0.04296       -13.57983
| 67>    C       -7.63961        -0.96027       -14.19259
| 68>    O       -8.12260         0.05447       -14.92954
| 69>    C       -8.45985        -2.01635       -13.89983
| 70>    H        2.42944         2.48330        -3.13621
| 71>    H        2.14638         0.89346        -4.01492
| 72>    H        0.89612         3.01328        -1.02544
| 73>    H       -1.02012         1.95381         0.32737
| 74>    H       -2.72384         0.56783         1.19999
| 75>    H       -4.39689        -1.32977         1.68009
| 76>    H       -5.12618        -3.69465         0.74643
| 77>    H       -6.55407        -8.55072        -1.33672
| 78>    H       -2.53577        -6.63010        -4.39895
| 79>    H       -1.46138        -3.88146        -3.55586
| 80>    H       -0.72392        -5.83042        -5.83551
| 81>    H        0.70832        -2.78652        -3.96915
| 82>    H       -0.51574        -2.08055        -5.00528
| 83>    H        1.17817        -2.05888        -5.50484
| 84>    H        1.14972        -5.26774        -7.13832
| 85>    H        1.96985        -3.70163        -6.94238
| 86>    H        0.17286        -2.66543        -8.12205
| 87>    H       -0.81356        -5.40834        -8.35622
| 88>    H       -1.79994        -2.68383        -9.36126
| 89>    H       -1.61113        -6.72360        -9.65697
| 90>    H       -3.00621        -7.75955        -9.93517
| 91>    H       -3.85979        -7.43655        -7.74310
| 92>    H       -2.90276        -5.97336        -7.47639
| 93>    H       -1.66971        -8.59727        -7.82007
| 94>    H       -1.97148        -7.90797        -6.37502
| 95>    H       -4.49158        -7.82371       -11.31873
| 96>    H       -5.85881        -6.96317       -12.00910
| 97>    H       -6.90324        -6.84486        -9.72480
| 98>    H       -5.55066        -7.79848        -9.09076
| 99>    H       -7.33293        -8.73614       -11.20249
|100>    H       -7.31053        -9.25903        -9.65046
|101>    H       -9.67642        -4.50337       -13.00549
|102>    H       -4.77879        -1.98833       -12.62804
|103>    H       -3.64141         0.82085       -13.85255
|104>    H       -7.40800         0.71448       -15.05922
|105>    H       -9.47198        -2.02154       -14.27015
|106> *
|107>
|108>                          ****END OF INPUT****

CARTESIAN COORDINATES (ANGSTROEM)
---------------------------------
  C      1.880490    1.561880   -3.216780
  C      0.904730    1.269200   -2.347460
  C      0.447020    2.059850   -1.239810
  C     -0.558290    1.501220   -0.532020
  C     -0.981080    0.229150   -1.013680
  S     -0.039790   -0.227420   -2.418330
  C     -1.968200   -0.577320   -0.503280
  C     -2.801410   -0.333520    0.618830
  C     -3.684620   -1.332470    0.874210
  C     -3.606120   -2.427280   -0.028010
  S     -2.357680   -2.131290   -1.220170
  C     -4.369630   -3.564600   -0.011150
  C     -4.225510   -4.600290   -0.949260
  O     -3.283050   -4.492670   -1.929760
  C     -4.886050   -5.807760   -1.118640
  C     -5.937170   -6.669420   -0.589410
  O     -6.680450   -6.541210    0.350970
  N     -5.922680   -7.770940   -1.450450
  C     -4.981040   -7.714240   -2.474460
  O     -4.817900   -8.561470   -3.317180
  C     -4.307800   -6.435700   -2.250420
  C     -3.319340   -5.596370   -2.727090
  C     -2.432490   -5.720880   -3.825580
  C     -1.521660   -4.776710   -4.158470
  C     -0.647710   -4.906590   -5.277050
  C      0.234850   -3.974060   -5.684620
  C      0.412880   -2.650520   -5.008350
  C      0.997360   -4.199920   -6.965940
  N      0.244520   -3.674130   -8.090830
  C     -0.846900   -4.350910   -8.552280
  C     -1.845960   -3.760610   -9.240270
  C     -2.984300   -4.358180   -9.860480
  S     -4.092840   -3.250490  -10.615920
  C     -3.416190   -5.664690  -10.021600
  C     -2.677980   -6.837710   -9.455400
  C     -2.883960   -6.965710   -7.937650
  N     -1.770160   -7.702180   -7.349290
  C     -4.622420   -5.769310  -10.750900
  C     -5.256790   -7.076350  -11.105230
  C     -6.153430   -7.611630   -9.982650
  N     -6.735660   -8.877450  -10.393790
  C     -5.135940   -4.543580  -11.153710
  C     -6.329780   -4.232190  -11.860960
  S     -7.710790   -5.277700  -11.815060
  C     -8.670420   -4.228250  -12.763010
  C     -7.985000   -3.093440  -13.122070
  C     -6.636960   -3.083210  -12.613170
  C     -5.806160   -2.010840  -12.951150
  C     -6.280630   -0.965790  -13.718570
  C     -5.399520    0.145780  -14.060020
  O     -5.726300    1.116850  -14.725870
  O     -4.152170    0.042960  -13.579830
  C     -7.639610   -0.960270  -14.192590
  O     -8.122600    0.054470  -14.929540
  C     -8.459850   -2.016350  -13.899830
  H      2.429440    2.483300   -3.136210
  H      2.146380    0.893460   -4.014920
  H      0.896120    3.013280   -1.025440
  H     -1.020120    1.953810    0.327370
  H     -2.723840    0.567830    1.199990
  H     -4.396890   -1.329770    1.680090
  H     -5.126180   -3.694650    0.746430
  H     -6.554070   -8.550720   -1.336720
  H     -2.535770   -6.630100   -4.398950
  H     -1.461380   -3.881460   -3.555860
  H     -0.723920   -5.830420   -5.835510
  H      0.708320   -2.786520   -3.969150
  H     -0.515740   -2.080550   -5.005280
  H      1.178170   -2.058880   -5.504840
  H      1.149720   -5.267740   -7.138320
  H      1.969850   -3.701630   -6.942380
  H      0.172860   -2.665430   -8.122050
  H     -0.813560   -5.408340   -8.356220
  H     -1.799940   -2.683830   -9.361260
  H     -1.611130   -6.723600   -9.656970
  H     -3.006210   -7.759550   -9.935170
  H     -3.859790   -7.436550   -7.743100
  H     -2.902760   -5.973360   -7.476390
  H     -1.669710   -8.597270   -7.820070
  H     -1.971480   -7.907970   -6.375020
  H     -4.491580   -7.823710  -11.318730
  H     -5.858810   -6.963170  -12.009100
  H     -6.903240   -6.844860   -9.724800
  H     -5.550660   -7.798480   -9.090760
  H     -7.332930   -8.736140  -11.202490
  H     -7.310530   -9.259030   -9.650460
  H     -9.676420   -4.503370  -13.005490
  H     -4.778790   -1.988330  -12.628040
  H     -3.641410    0.820850  -13.852550
  H     -7.408000    0.714480  -15.059220
  H     -9.471980   -2.021540  -14.270150

 Total Charge           Charge          ....    0
 Multiplicity           Mult            ....    1
 Number of Electrons    NEL             ....  422
 Basis Dimension        Dim             ....  966

ORBITAL ENERGIES
----------------

  NO   OCC          E(Eh)            E(eV)
   0   2.0000     -88.955160     -2420.5930
   1   2.0000     -88.950834     -2420.4753
   2   2.0000     -88.950548     -2420.4675
   3   2.0000     -88.933670     -2420.0082
   4   2.0000     -19.302173      -525.2388
   5   2.0000     -19.260388      -524.1018
   6   2.0000     -19.208881      -522.7002
   7   2.0000     -19.207507      -522.6628
   8   2.0000     -19.200068      -522.4604
   9   2.0000     -19.198632      -522.4213
  10   2.0000     -14.443551      -393.0290
  11   2.0000     -14.422449      -392.4548
  12   2.0000     -14.388280      -391.5250
  13   2.0000     -14.370916      -391.0525
  14   2.0000     -10.404922      -283.1323
  15   2.0000     -10.389353      -282.7087
  16   2.0000     -10.388339      -282.6811
  17   2.0000     -10.353447      -281.7316
  18   2.0000     -10.351209      -281.6707
  19   2.0000     -10.321445      -280.8608
  20   2.0000     -10.319386      -280.8048
  21   2.0000     -10.319200      -280.7997
  22   2.0000     -10.317349      -280.7493
  23   2.0000     -10.312841      -280.6267
  24   2.0000     -10.304199      -280.3915
  25   2.0000     -10.301693      -280.3233
  26   2.0000     -10.299623      -280.2670
  27   2.0000     -10.299102      -280.2528
  28   2.0000     -10.296118      -280.1716
  29   2.0000     -10.295380      -280.1515
  30   2.0000     -10.290738      -280.0252
  31   2.0000     -10.287780      -279.9447
  32   2.0000     -10.285293      -279.8771
  33   2.0000     -10.283837      -279.8374
  34   2.0000     -10.282118      -279.7907
  35   2.0000     -10.281870      -279.7839
  36   2.0000     -10.281460      -279.7727
  37   2.0000     -10.280565      -279.7484
  38   2.0000     -10.279204      -279.7114
  39   2.0000     -10.279089      -279.7082
  40   2.0000     -10.278615      -279.6953
  41   2.0000     -10.278290      -279.6865
  42   2.0000     -10.276002      -279.6242
  43   2.0000     -10.272882      -279.5393
  44   2.0000     -10.268919      -279.4315
  45   2.0000     -10.268127      -279.4100
  46   2.0000     -10.266497      -279.3656
  47   2.0000     -10.266114      -279.3552
  48   2.0000     -10.264355      -279.3073
  49   2.0000     -10.261165      -279.2205
  50   2.0000     -10.259267      -279.1688
  51   2.0000     -10.255850      -279.0759
  52   2.0000     -10.254248      -279.0323
  53   2.0000     -10.253233      -279.0046
  54   2.0000     -10.240765      -278.6654
  55   2.0000      -8.049532      -219.0389
  56   2.0000      -8.046885      -218.9669
  57   2.0000      -8.046096      -218.9454
  58   2.0000      -8.029286      -218.4880
  59   2.0000      -6.018588      -163.7741
  60   2.0000      -6.016711      -163.7230
  61   2.0000      -6.016021      -163.7042
  62   2.0000      -6.014101      -163.6520
  63   2.0000      -6.012783      -163.6162
  64   2.0000      -6.012758      -163.6155
  65   2.0000      -6.011689      -163.5864
  66   2.0000      -6.007499      -163.4724
  67   2.0000      -6.006971      -163.4580
  68   2.0000      -5.998630      -163.2310
  69   2.0000      -5.994624      -163.1220
  70   2.0000      -5.991128      -163.0269
  71   2.0000      -1.218566       -33.1589
  72   2.0000      -1.189803       -32.3762
  73   2.0000      -1.143281       -31.1103
  74   2.0000      -1.122388       -30.5417
  75   2.0000      -1.116202       -30.3734
  76   2.0000      -1.086428       -29.5632
  77   2.0000      -1.030987       -28.0546
  78   2.0000      -1.025325       -27.9005
  79   2.0000      -1.001214       -27.2444
  80   2.0000      -0.985349       -26.8127
  81   2.0000      -0.979092       -26.6424
  82   2.0000      -0.967532       -26.3279
  83   2.0000      -0.959079       -26.0979
  84   2.0000      -0.950608       -25.8674
  85   2.0000      -0.926984       -25.2245
  86   2.0000      -0.915885       -24.9225
  87   2.0000      -0.912663       -24.8348
  88   2.0000      -0.908793       -24.7295
  89   2.0000      -0.888487       -24.1770
  90   2.0000      -0.874957       -23.8088
  91   2.0000      -0.867038       -23.5933
  92   2.0000      -0.862850       -23.4793
  93   2.0000      -0.854044       -23.2397
  94   2.0000      -0.844628       -22.9835
  95   2.0000      -0.834458       -22.7068
  96   2.0000      -0.827151       -22.5079
  97   2.0000      -0.825499       -22.4630
  98   2.0000      -0.820539       -22.3280
  99   2.0000      -0.797580       -21.7033
 100   2.0000      -0.794917       -21.6308
 101   2.0000      -0.778725       -21.1902
 102   2.0000      -0.770719       -20.9723
 103   2.0000      -0.762885       -20.7591
 104   2.0000      -0.757701       -20.6181
 105   2.0000      -0.753130       -20.4937
 106   2.0000      -0.745332       -20.2815
 107   2.0000      -0.729049       -19.8384
 108   2.0000      -0.722089       -19.6490
 109   2.0000      -0.699981       -19.0474
 110   2.0000      -0.695428       -18.9236
 111   2.0000      -0.693465       -18.8701
 112   2.0000      -0.687106       -18.6971
 113   2.0000      -0.684889       -18.6368
 114   2.0000      -0.680397       -18.5145
 115   2.0000      -0.675959       -18.3938
 116   2.0000      -0.663200       -18.0466
 117   2.0000      -0.652223       -17.7479
 118   2.0000      -0.649862       -17.6836
 119   2.0000      -0.633276       -17.2323
 120   2.0000      -0.623765       -16.9735
 121   2.0000      -0.621242       -16.9048
 122   2.0000      -0.615754       -16.7555
 123   2.0000      -0.610039       -16.6000
 124   2.0000      -0.607864       -16.5408
 125   2.0000      -0.599604       -16.3160
 126   2.0000      -0.591815       -16.1041
 127   2.0000      -0.585531       -15.9331
 128   2.0000      -0.584411       -15.9026
 129   2.0000      -0.577761       -15.7217
 130   2.0000      -0.575863       -15.6700
 131   2.0000      -0.573764       -15.6129
 132   2.0000      -0.570441       -15.5225
 133   2.0000      -0.562101       -15.2955
 134   2.0000      -0.558455       -15.1963
 135   2.0000      -0.550605       -14.9827
 136   2.0000      -0.549997       -14.9662
 137   2.0000      -0.548637       -14.9292
 138   2.0000      -0.546788       -14.8789
 139   2.0000      -0.545909       -14.8549
 140   2.0000      -0.539045       -14.6681
 141   2.0000      -0.538094       -14.6423
 142   2.0000      -0.534127       -14.5343
 143   2.0000      -0.533932       -14.5290
 144   2.0000      -0.528320       -14.3763
 145   2.0000      -0.525612       -14.3026
 146   2.0000      -0.523192       -14.2368
 147   2.0000      -0.517524       -14.0825
 148   2.0000      -0.515334       -14.0230
 149   2.0000      -0.511041       -13.9061
 150   2.0000      -0.505735       -13.7618
 151   2.0000      -0.504913       -13.7394
 152   2.0000      -0.502513       -13.6741
 153   2.0000      -0.501340       -13.6422
 154   2.0000      -0.498269       -13.5586
 155   2.0000      -0.495778       -13.4908
 156   2.0000      -0.494646       -13.4600
 157   2.0000      -0.491466       -13.3735
 158   2.0000      -0.489507       -13.3202
 159   2.0000      -0.483796       -13.1648
 160   2.0000      -0.481494       -13.1021
 161   2.0000      -0.479414       -13.0455
 162   2.0000      -0.472776       -12.8649
 163   2.0000      -0.470020       -12.7899
 164   2.0000      -0.467923       -12.7328
 165   2.0000      -0.465390       -12.6639
 166   2.0000      -0.465094       -12.6558
 167   2.0000      -0.463824       -12.6213
 168   2.0000      -0.459689       -12.5088
 169   2.0000      -0.456389       -12.4190
 170   2.0000      -0.452262       -12.3067
 171   2.0000      -0.449796       -12.2396
 172   2.0000      -0.447707       -12.1827
 173   2.0000      -0.445453       -12.1214
 174   2.0000      -0.442108       -12.0304
 175   2.0000      -0.437208       -11.8970
 176   2.0000      -0.432474       -11.7682
 177   2.0000      -0.427629       -11.6364
 178   2.0000      -0.425790       -11.5863
 179   2.0000      -0.421662       -11.4740
 180   2.0000      -0.419342       -11.4109
 181   2.0000      -0.417810       -11.3692
 182   2.0000      -0.412250       -11.2179
 183   2.0000      -0.409913       -11.1543
 184   2.0000      -0.403682       -10.9847
 185   2.0000      -0.400433       -10.8963
 186   2.0000      -0.399549       -10.8723
 187   2.0000      -0.397833       -10.8256
 188   2.0000      -0.396485       -10.7889
 189   2.0000      -0.393301       -10.7023
 190   2.0000      -0.385839       -10.4992
 191   2.0000      -0.375393       -10.2150
 192   2.0000      -0.370118       -10.0714
 193   2.0000      -0.358733        -9.7616
 194   2.0000      -0.358552        -9.7567
 195   2.0000      -0.352755        -9.5990
 196   2.0000      -0.351663        -9.5692
 197   2.0000      -0.350760        -9.5447
 198   2.0000      -0.346312        -9.4236
 199   2.0000      -0.334777        -9.1097
 200   2.0000      -0.332097        -9.0368
 201   2.0000      -0.319379        -8.6907
 202   2.0000      -0.314101        -8.5471
 203   2.0000      -0.310801        -8.4573
 204   2.0000      -0.296848        -8.0777
 205   2.0000      -0.291345        -7.9279
 206   2.0000      -0.287123        -7.8130
 207   2.0000      -0.269780        -7.3411
 208   2.0000      -0.251534        -6.8446
 209   2.0000      -0.224907        -6.1200
 210   2.0000      -0.209586        -5.7031
 211   0.0000      -0.080375        -2.1871
 212   0.0000      -0.044410        -1.2085
 213   0.0000      -0.040084        -1.0907
 214   0.0000      -0.012816        -0.3487
 215   0.0000       0.016248         0.4421

MULLIKEN ATOMIC CHARGES
-----------------------
   0 C :   -0.025717
   1 C :   -0.061762
   2 C :    0.054601
   3 C :    0.032154
   4 C :   -0.060491
   5 S :    0.073998
   6 C :   -0.039843
   7 C :    0.033993
   8 C :    0.026467
   9 C :    0.002141
  10 S :    0.088757
  11 C :   -0.049592
  12 C :    0.091300
  13 O :   -0.242001
  14 C :   -0.026914
  15 C :    0.151030
  16 O :   -0.150406
  17 N :   -0.166424
  18 C :    0.155934
  19 O :   -0.156797
  20 C :   -0.037469
  21 C :    0.101650
  22 C :   -0.027872
  23 C :    0.039082
  24 C :    0.021057
  25 C :   -0.210684
  26 C :    0.082078
  27 C :    0.193350
  28 N :   -0.157437
  29 C :    0.026277
  30 C :    0.035287
  31 C :   -0.110979
  32 S :    0.094160
  33 C :   -0.098589
  34 C :    0.087098
  35 C :    0.077197
  36 N :   -0.216659
  37 C :   -0.030332
  38 C :    0.052752
  39 C :    0.105682
  40 N :   -0.221132
  41 C :   -0.143635
  42 C :   -0.106965
  43 S :    0.130717
  44 C :   -0.149130
  45 C :    0.131873
  46 C :    0.127954
  47 C :   -0.052735
  48 C :   -0.086416
  49 C :    0.168271
  50 O :   -0.264840
  51 O :   -0.162321
  52 C :    0.151277
  53 O :   -0.186506
  54 C :   -0.108332
  55 H :    0.025105
  56 H :    0.021614
  57 H :   -0.007645
  58 H :   -0.007412
  59 H :   -0.011554
  60 H :   -0.004599
  61 H :    0.007550
  62 H :    0.134016
  63 H :   -0.019366
  64 H :   -0.000529
  65 H :   -0.038033
  66 H :    0.042804
  67 H :    0.041395
  68 H :   -0.003479
  69 H :    0.025446
  70 H :    0.004099
  71 H :    0.106934
  72 H :    0.021210
  73 H :   -0.043377
  74 H :    0.007900
  75 H :   -0.008927
  76 H :    0.005508
  77 H :    0.017939
  78 H :    0.097751
  79 H :    0.099381
  80 H :    0.006282
  81 H :    0.000041
  82 H :   -0.006254
  83 H :   -0.017643
  84 H :    0.088975
  85 H :    0.090546
  86 H :    0.007001
  87 H :   -0.002315
  88 H :    0.191164
  89 H :    0.186515
  90 H :   -0.042203
Sum of atomic charges:   -0.0000000

LOEWDIN ATOMIC CHARGES
----------------------
   0 C :   -0.069153
   1 C :   -0.139499
   2 C :   -0.025692
   3 C :   -0.025053
   4 C :   -0.169077
   5 S :    0.363964
   6 C :   -0.188157
   7 C :   -0.022998
   8 C :   -0.034968
   9 C :   -0.127209
  10 S :    0.390785
  11 C :   -0.081986
  12 C :    0.066308
  13 O :   -0.000066
  14 C :   -0.105038
  15 C :    0.082774
  16 O :   -0.168728
  17 N :   -0.009132
  18 C :    0.082997
  19 O :   -0.173607
  20 C :   -0.101392
  21 C :    0.070531
  22 C :   -0.051096
  23 C :    0.007565
  24 C :   -0.052789
  25 C :   -0.028756
  26 C :   -0.062111
  27 C :    0.041373
  28 N :   -0.015129
  29 C :    0.040930
  30 C :   -0.137520
  31 C :   -0.149825
  32 S :    0.434821
  33 C :   -0.077040
  34 C :   -0.033855
  35 C :    0.018924
  36 N :   -0.120142
  37 C :   -0.043293
  38 C :   -0.042187
  39 C :    0.016764
  40 N :   -0.123308
  41 C :   -0.210005
  42 C :   -0.172834
  43 S :    0.501501
  44 C :   -0.235327
  45 C :   -0.030421
  46 C :   -0.075625
  47 C :    0.033376
  48 C :   -0.125611
  49 C :    0.105681
  50 O :   -0.202307
  51 O :   -0.029739
  52 C :    0.066906
  53 O :   -0.055872
  54 C :   -0.075885
  55 H :    0.031013
  56 H :    0.026165
  57 H :    0.035275
  58 H :    0.034150
  59 H :    0.032235
  60 H :    0.036289
  61 H :    0.049523
  62 H :    0.091961
  63 H :    0.037017
  64 H :    0.026008
  65 H :    0.024503
  66 H :    0.036713
  67 H :    0.036116
  68 H :    0.022581
  69 H :    0.034427
  70 H :    0.022859
  71 H :    0.071002
  72 H :    0.027648
  73 H :    0.017439
  74 H :    0.027145
  75 H :    0.025683
  76 H :    0.006003
  77 H :    0.017760
  78 H :    0.058405
  79 H :    0.054685
  80 H :    0.028609
  81 H :    0.012079
  82 H :   -0.008455
  83 H :    0.013307
  84 H :    0.050262
  85 H :    0.054498
  86 H :    0.019625
  87 H :    0.018239
  88 H :    0.102320
  89 H :    0.063325
  90 H :    0.030817

  Mayer bond orders larger than 0.100000
B(  0-C ,  1-C ) :   1.8664 B(  0-C , 55-H ) :   0.9508 B(  0-C , 56-H ) :   0.9419
B(  1-C ,  2-C ) :   1.0786 B(  1-C ,  5-S ) :   1.0048 B(  2-C ,  3-C ) :   1.6663
B(  2-C , 57-H ) :   0.9926 B(  3-C ,  4-C ) :   1.1482 B(  3-C , 58-H ) :   0.9920
B(  4-C ,  5-S ) :   1.0482 B(  4-C ,  6-C ) :   1.5581 B(  6-C ,  7-C ) :   1.1696
B(  6-C , 10-S ) :   1.0142 B(  7-C ,  8-C ) :   1.6098 B(  7-C , 59-H ) :   0.9941
B(  8-C ,  9-C ) :   1.1317 B(  8-C , 60-H ) :   1.0015 B(  9-C , 10-S ) :   1.0595
B(  9-C , 11-C ) :   1.5384 B( 11-C , 12-C ) :   1.2188 B( 11-C , 61-H ) :   0.9662
B( 12-C , 13-O ) :   1.1158 B( 12-C , 14-C ) :   1.3697 B( 13-O , 21-C ) :   1.1327
B( 14-C , 15-C ) :   0.8938 B( 14-C , 20-C ) :   1.2739 B( 15-C , 16-O ) :   2.2652
B( 15-C , 17-N ) :   1.0677 B( 17-N , 18-C ) :   1.0845 B( 17-N , 62-H ) :   0.9146
B( 18-C , 19-O ) :   2.2576 B( 18-C , 20-C ) :   0.8843 B( 20-C , 21-C ) :   1.3948
B( 21-C , 22-C ) :   1.1640 B( 22-C , 23-C ) :   1.6335 B( 22-C , 63-H ) :   0.9672
B( 23-C , 24-C ) :   1.1058 B( 23-C , 64-H ) :   0.9764 B( 24-C , 25-C ) :   1.7497
B( 24-C , 65-H ) :   0.9624 B( 25-C , 26-C ) :   1.0742 B( 25-C , 27-C ) :   1.0428
B( 26-C , 66-H ) :   0.9420 B( 26-C , 67-H ) :   0.9468 B( 26-C , 68-H ) :   0.9504
B( 27-C , 28-N ) :   1.0346 B( 27-C , 69-H ) :   0.9372 B( 27-C , 70-H ) :   0.9370
B( 28-N , 29-C ) :   1.1971 B( 28-N , 71-H ) :   0.9420 B( 29-C , 30-C ) :   1.6357
B( 29-C , 72-H ) :   0.9593 B( 30-C , 31-C ) :   1.1501 B( 30-C , 73-H ) :   0.9311
B( 31-C , 32-S ) :   1.1237 B( 31-C , 33-C ) :   1.5043 B( 31-C , 41-C ) :   0.1020
B( 32-S , 41-C ) :   1.0961 B( 33-C , 34-C ) :   1.0820 B( 33-C , 37-C ) :   1.3004
B( 34-C , 35-C ) :   1.0825 B( 34-C , 74-H ) :   0.9165 B( 34-C , 75-H ) :   0.8962
B( 35-C , 36-N ) :   1.0433 B( 35-C , 76-H ) :   0.9387 B( 35-C , 77-H ) :   0.9487
B( 36-N , 78-H ) :   0.9615 B( 36-N , 79-H ) :   0.9582 B( 37-C , 38-C ) :   1.0666
B( 37-C , 41-C ) :   1.5045 B( 38-C , 39-C ) :   1.0833 B( 38-C , 80-H ) :   0.9026
B( 38-C , 81-H ) :   0.9033 B( 39-C , 40-N ) :   1.0842 B( 39-C , 82-H ) :   0.9328
B( 39-C , 83-H ) :   0.9375 B( 40-N , 84-H ) :   0.9704 B( 40-N , 85-H ) :   0.9684
B( 41-C , 42-C ) :   1.1262 B( 42-C , 43-S ) :   1.2146 B( 42-C , 44-C ) :   0.1144
B( 42-C , 46-C ) :   1.3228 B( 43-S , 44-C ) :   1.1444 B( 44-C , 45-C ) :   1.4381
B( 44-C , 86-H ) :   0.9696 B( 45-C , 46-C ) :   1.1792 B( 45-C , 54-C ) :   1.1429
B( 46-C , 47-C ) :   1.1892 B( 47-C , 48-C ) :   1.4810 B( 47-C , 87-H ) :   0.9717
B( 48-C , 49-C ) :   0.9731 B( 48-C , 52-C ) :   1.1024 B( 49-C , 50-O ) :   1.9634
B( 49-C , 51-O ) :   1.3000 B( 50-O , 89-H ) :   0.1267 B( 51-O , 88-H ) :   0.9408
B( 52-C , 53-O ) :   1.3113 B( 52-C , 54-C ) :   1.5099 B( 53-O , 89-H ) :   0.9024
B( 54-C , 90-H ) :   1.0128

-----------------------------------------------------------------------------
         ABSORPTION SPECTRUM VIA TRANSITION ELECTRIC DIPOLE MOMENTS
-----------------------------------------------------------------------------
State   Energy  Wavelength   fosc         T2         TX        TY        TZ
        (cm-1)    (nm)                  (au**2)     (au)      (au)      (au)
-----------------------------------------------------------------------------
   0   16853.1    593.4   0.617311559  12.05866  -1.96701  -2.69116  -0.97324
   1   18255.5    547.8   0.224293446   4.04481  -0.76506  -1.78528   0.52179
   2   19869.7    503.3   0.545458580   9.03744  -1.95411   1.23033  -1.92489
   3   22612.8    442.2   0.088685625   1.29114  -0.77950  -0.39577   0.72588
   4   23746.1    421.1   0.012835351   0.17795  -0.36066  -0.21639  -0.03236
   5   26057.1    383.8   0.589003934   7.44163  -1.98061  -1.01302   1.57880
   6   27543.2    363.1   0.027017536   0.32293  -0.26742   0.37319  -0.33488
   7   28141.7    355.3   0.006284356   0.07352  -0.04583  -0.12878   0.23416
   8   30155.6    331.6   0.161573405   1.76391   0.76759  -0.07049  -1.08155
   9   30378.6    329.2   0.143755509   1.55787  -0.76375  -0.20991   0.96462
  10   32054.4    312.0   0.268722885   2.75990  -0.86349   0.44125  -1.34892
  11   32731.2    305.5   0.300225290   3.01968   1.72883   0.09567  -0.14722
  12   32919.5    303.8   0.060071411   0.60075  -0.57250  -0.33071  -0.40449
  13   33113.4    302.0   0.102175663   1.01583   0.74829   0.43779  -0.51403
  14   34352.9    291.1   0.324991079   3.11446  -1.51460  -0.81243   0.40053
  15   34884.1    286.7   0.021324739   0.20125   0.33275   0.11854  -0.27654
  16   35538.1    281.4   0.008229187   0.07623  -0.04655  -0.24402  -0.12050
  17   35757.4    279.7   0.001087201   0.01001   0.06888  -0.03932   0.06098
  18   35801.5    279.3   0.000170875   0.00157   0.00858   0.03864   0.00221
  19   36159.1    276.6   0.098922990   0.90065   0.44883   0.03758  -0.83534
  20   36312.8    275.4   0.342449968   3.10465  -0.53639  -1.67427  -0.11731
  21   36867.6    271.2   0.015689831   0.14010   0.24373   0.03153  -0.28232
  22   37866.8    264.1   0.026617948   0.23142  -0.23431  -0.28971   0.30427
  23   37934.8    263.6   0.066668003   0.57857  -0.32152  -0.61456   0.31227
  24   37986.2    263.3   0.205566418   1.78157  -1.05936  -0.49291   0.64527
  25   38350.6    260.8   0.005741532   0.04929   0.00696   0.21736  -0.04464
  26   38723.7    258.2   0.007627474   0.06485   0.06936  -0.08494  -0.22983
  27   38963.0    256.7   0.019655602   0.16608   0.14872   0.37493  -0.05823
  28   39484.3    253.3   0.091850262   0.76583   0.15634   0.76263  -0.39973
  29   40099.9    249.4   0.000889653   0.00730  -0.08156   0.02386   0.00909
  30   40143.8    249.1   0.001253545   0.01028  -0.09029  -0.04526   0.00893

FINAL SINGLE POINT ENERGY     -3843.837355486795

DIPOLE MOMENT
-------------
                                X             Y             Z
Electronic contribution:    -25.15604      18.24147      14.26123
Nuclear contribution   :     27.81508     -16.90512     -12.04499
                        -----------------------------------------
Total Dipole Moment    :      2.65903       1.33635       2.21624
                        -----------------------------------------
Magnitude (a.u.)       :      3.71053
Magnitude (Debye)      :      9.43141

Rotational constants in cm-1:     0.001555     0.000645     0.000550
Rotational constants in MHz :    46.627602    19.324627    16.485395

                             ****ORCA TERMINATED NORMALLY****
TOTAL RUN TIME: 0 days 0 hours 6 minutes 43 seconds 408 msec
