                         Program Version 4.2.0 -  RELEASE  -
|  1> # ORCA input file
|  2> # SCF done       -124.997984357652          0.000433397906
|  3> ! CAM-B3LYP def2-SVP def2/J RIJCOSX Grid4 TightSCF
|  4> %maxcore 5000
|  5> %tddft
|  6>     Mode sTDDFT
|  7>     Ethresh 5.0
|  8>     maxcore 5000
|  9> end
| 10>
| 11> %pal
| 12>   nprocs 6
| 13>   end
| 14> * xyz 0 1
| 15>    C        5.65680        -9.51065        -7.39928
| 16>    C        6.30000        -9.11903        -6.29238
| 17>    C        7.72165        -9.10239        -6.08198
| 18>    C        8.09963        -8.65275        -4.86867
| 19>    C        7.01722        -8.28820        -4.01176
| 20>    S        5.48742        -8.52958        -4.83084
| 21>    C        7.10947        -7.82531        -2.72452
| 22>    C        8.30200        -7.57636        -1.99298
| 23>    C        8.08407        -7.13137        -0.73247
| 24>    C        6.70605        -7.01155        -0.38841
| 25>    S        5.69155        -7.46658        -1.73259
| 26>    C        6.18711        -6.62050         0.80719
| 27>    C        4.77894        -6.57518         1.03000
| 28>    N        4.35131        -6.22500         2.25305
| 29>    C        3.04971        -6.21547         2.44623
| 30>    C        2.14259        -6.54511         1.44959
| 31>    C        2.66887        -6.88306         0.19490
| 32>    N        3.98475        -6.89447         0.00301
| 33>    C        1.77546        -7.21801        -0.89827
| 34>    C        2.16591        -7.45568        -2.15615
| 35>    C        1.23015        -7.77555        -3.21881
| 36>    N       -0.06926        -7.87899        -2.92132
| 37>    C       -0.88686        -8.17595        -3.91352
| 38>    C       -0.45062        -8.37099        -5.21395
| 39>    C        0.92550        -8.23457        -5.43820
| 40>    N        1.74553        -7.94159        -4.43046
| 41>    C        1.56697        -8.38796        -6.73162
| 42>    C        0.94965        -8.65117        -7.88925
| 43>    C        1.65883        -8.78221        -9.15159
| 44>    N        2.99324        -8.71960        -9.13974
| 45>    C        3.60607        -8.83339       -10.30574
| 46>    C        2.92169        -9.01688       -11.49154
| 47>    C        1.51950        -9.07787       -11.41315
| 48>    N        0.90794        -8.95678       -10.23015
| 49>    C        0.71651        -9.26703       -12.58979
| 50>    C       -0.63937        -9.27870       -12.57428
| 51>    C       -1.43061        -9.45861       -13.72621
| 52>    C       -2.79819        -9.44349       -13.74467
| 53>    C       -3.62915        -9.61806       -14.88583
| 54>    C       -4.95875        -9.54462       -14.62813
| 55>    C       -5.26950        -9.30559       -13.26394
| 56>    S       -3.79416        -9.18555       -12.32096
| 57>    C       -6.51471        -9.16995       -12.70153
| 58>    C       -7.77270        -9.23995       -13.36774
| 59>    C       -8.84071        -9.06014       -12.56191
| 60>    C       -8.51198        -8.83173       -11.18300
| 61>    S       -6.75109        -8.86643       -10.99263
| 62>    C       -9.35571        -8.61999       -10.16471
| 63>    H        6.21634        -9.86717        -8.24756
| 64>    H        4.58734        -9.47255        -7.49719
| 65>    H        8.39441        -9.42708        -6.85654
| 66>    H        9.12179        -8.57255        -4.54338
| 67>    H        9.27900        -7.72854        -2.41733
| 68>    H        8.85546        -6.88568        -0.02363
| 69>    H        6.83004        -6.34989         1.62904
| 70>    H        2.72189        -5.93382         3.44005
| 71>    H        1.07928        -6.53648         1.62487
| 72>    H        0.72188        -7.26121        -0.65670
| 73>    H        3.20411        -7.41370        -2.44332
| 74>    H       -1.93494        -8.25853        -3.65050
| 75>    H       -1.13935        -8.61320        -6.00518
| 76>    H        2.64003        -8.25963        -6.71289
| 77>    H       -0.12065        -8.77250        -7.96914
| 78>    H        4.68743        -8.77454       -10.27538
| 79>    H        3.43347        -9.10915       -12.43599
| 80>    H        1.25085        -9.39569       -13.52204
| 81>    H       -1.14147        -9.13727       -11.62644
| 82>    H       -0.92495        -9.61611       -14.67077
| 83>    H       -3.20513        -9.79136       -15.85943
| 84>    H       -5.72631        -9.65279       -15.37338
| 85>    H       -7.83593        -9.42118       -14.42603
| 86>    H       -9.86650        -9.07764       -12.88500
| 87>    H      -10.41911        -8.60728       -10.32690
| 88>    H       -9.00387        -8.45830        -9.16238
| 89> *
| 90>
| 91>                          ****END OF INPUT****

CARTESIAN COORDINATES (ANGSTROEM)
---------------------------------
  C      5.656800   -9.510650   -7.399280
  C      6.300000   -9.119030   -6.292380
  C      7.721650   -9.102390   -6.081980
  C      8.099630   -8.652750   -4.868670
  C      7.017220   -8.288200   -4.011760
  S      5.487420   -8.529580   -4.830840
  C      7.109470   -7.825310   -2.724520
  C      8.302000   -7.576360   -1.992980
  C      8.084070   -7.131370   -0.732470
  C      6.706050   -7.011550   -0.388410
  S      5.691550   -7.466580   -1.732590
  C      6.187110   -6.620500    0.807190
  C      4.778940   -6.575180    1.030000
  N      4.351310   -6.225000    2.253050
  C      3.049710   -6.215470    2.446230
  C      2.142590   -6.545110    1.449590
  C      2.668870   -6.883060    0.194900
  N      3.984750   -6.894470    0.003010
  C      1.775460   -7.218010   -0.898270
  C      2.165910   -7.455680   -2.156150
  C      1.230150   -7.775550   -3.218810
  N     -0.069260   -7.878990   -2.921320
  C     -0.886860   -8.175950   -3.913520
  C     -0.450620   -8.370990   -5.213950
  C      0.925500   -8.234570   -5.438200
  N      1.745530   -7.941590   -4.430460
  C      1.566970   -8.387960   -6.731620
  C      0.949650   -8.651170   -7.889250
  C      1.658830   -8.782210   -9.151590
  N      2.993240   -8.719600   -9.139740
  C      3.606070   -8.833390  -10.305740
  C      2.921690   -9.016880  -11.491540
  C      1.519500   -9.077870  -11.413150
  N      0.907940   -8.956780  -10.230150
  C      0.716510   -9.267030  -12.589790
  C     -0.639370   -9.278700  -12.574280
  C     -1.430610   -9.458610  -13.726210
  C     -2.798190   -9.443490  -13.744670
  C     -3.629150   -9.618060  -14.885830
  C     -4.958750   -9.544620  -14.628130
  C     -5.269500   -9.305590  -13.263940
  S     -3.794160   -9.185550  -12.320960
  C     -6.514710   -9.169950  -12.701530
  C     -7.772700   -9.239950  -13.367740
  C     -8.840710   -9.060140  -12.561910
  C     -8.511980   -8.831730  -11.183000
  S     -6.751090   -8.866430  -10.992630
  C     -9.355710   -8.619990  -10.164710
  H      6.216340   -9.867170   -8.247560
  H      4.587340   -9.472550   -7.497190
  H      8.394410   -9.427080   -6.856540
  H      9.121790   -8.572550   -4.543380
  H      9.279000   -7.728540   -2.417330
  H      8.855460   -6.885680   -0.023630
  H      6.830040   -6.349890    1.629040
  H      2.721890   -5.933820    3.440050
  H      1.079280   -6.536480    1.624870
  H      0.721880   -7.261210   -0.656700
  H      3.204110   -7.413700   -2.443320
  H     -1.934940   -8.258530   -3.650500
  H     -1.139350   -8.613200   -6.005180
  H      2.640030   -8.259630   -6.712890
  H     -0.120650   -8.772500   -7.969140
  H      4.687430   -8.774540  -10.275380
  H      3.433470   -9.109150  -12.435990
  H      1.250850   -9.395690  -13.522040
  H     -1.141470   -9.137270  -11.626440
  H     -0.924950   -9.616110  -14.670770
  H     -3.205130   -9.791360  -15.859430
  H     -5.726310   -9.652790  -15.373380
  H     -7.835930   -9.421180  -14.426030
  H     -9.866500   -9.077640  -12.885000
  H    -10.419110   -8.607280  -10.326900
  H     -9.003870   -8.458300   -9.162380

 Total Charge           Charge          ....    0
 Multiplicity           Mult            ....    1
 Number of Electrons    NEL             ....  360
 Basis Dimension        Dim             ....  818

ORBITAL ENERGIES
----------------

  NO   OCC          E(Eh)            E(eV)
   0   2.0000     -88.944993     -2420.3163
   1   2.0000     -88.942679     -2420.2533
   2   2.0000     -88.922352     -2419.7002
   3   2.0000     -88.921291     -2419.6713
   4   2.0000     -14.400243      -391.8505
   5   2.0000     -14.400065      -391.8457
   6   2.0000     -14.396765      -391.7559
   7   2.0000     -14.394673      -391.6990
   8   2.0000     -14.388917      -391.5423
   9   2.0000     -14.384826      -391.4310
  10   2.0000     -10.335515      -281.2437
  11   2.0000     -10.327675      -281.0303
  12   2.0000     -10.320702      -280.8406
  13   2.0000     -10.319481      -280.8073
  14   2.0000     -10.316719      -280.7322
  15   2.0000     -10.315853      -280.7086
  16   2.0000     -10.314360      -280.6680
  17   2.0000     -10.312026      -280.6045
  18   2.0000     -10.311494      -280.5900
  19   2.0000     -10.310460      -280.5619
  20   2.0000     -10.310019      -280.5499
  21   2.0000     -10.309744      -280.5424
  22   2.0000     -10.300017      -280.2777
  23   2.0000     -10.296061      -280.1701
  24   2.0000     -10.293662      -280.1048
  25   2.0000     -10.293203      -280.0923
  26   2.0000     -10.290467      -280.0178
  27   2.0000     -10.289699      -279.9970
  28   2.0000     -10.289617      -279.9947
  29   2.0000     -10.286640      -279.9137
  30   2.0000     -10.279160      -279.7102
  31   2.0000     -10.278139      -279.6824
  32   2.0000     -10.276952      -279.6501
  33   2.0000     -10.276094      -279.6267
  34   2.0000     -10.275179      -279.6018
  35   2.0000     -10.275013      -279.5973
  36   2.0000     -10.274859      -279.5931
  37   2.0000     -10.272691      -279.5341
  38   2.0000     -10.271539      -279.5028
  39   2.0000     -10.271126      -279.4915
  40   2.0000     -10.269506      -279.4475
  41   2.0000     -10.269045      -279.4349
  42   2.0000     -10.264579      -279.3134
  43   2.0000     -10.262471      -279.2560
  44   2.0000     -10.260500      -279.2024
  45   2.0000     -10.257008      -279.1074
  46   2.0000     -10.253340      -279.0076
  47   2.0000     -10.245234      -278.7870
  48   2.0000      -8.041308      -218.8151
  49   2.0000      -8.039382      -218.7627
  50   2.0000      -8.018575      -218.1965
  51   2.0000      -8.014697      -218.0910
  52   2.0000      -6.011055      -163.5691
  53   2.0000      -6.009212      -163.5190
  54   2.0000      -6.007137      -163.4625
  55   2.0000      -6.005286      -163.4121
  56   2.0000      -6.002050      -163.3241
  57   2.0000      -5.999897      -163.2655
  58   2.0000      -5.988382      -162.9522
  59   2.0000      -5.984780      -162.8542
  60   2.0000      -5.984461      -162.8455
  61   2.0000      -5.980232      -162.7304
  62   2.0000      -5.979151      -162.7010
  63   2.0000      -5.975681      -162.6066
  64   2.0000      -1.074178       -29.2299
  65   2.0000      -1.069689       -29.1077
  66   2.0000      -1.060623       -28.8610
  67   2.0000      -0.995731       -27.0952
  68   2.0000      -0.974089       -26.5063
  69   2.0000      -0.973132       -26.4803
  70   2.0000      -0.972029       -26.4503
  71   2.0000      -0.968196       -26.3460
  72   2.0000      -0.961211       -26.1559
  73   2.0000      -0.950222       -25.8569
  74   2.0000      -0.913504       -24.8577
  75   2.0000      -0.903988       -24.5988
  76   2.0000      -0.895875       -24.3780
  77   2.0000      -0.886867       -24.1329
  78   2.0000      -0.872948       -23.7541
  79   2.0000      -0.860854       -23.4250
  80   2.0000      -0.850920       -23.1547
  81   2.0000      -0.848397       -23.0861
  82   2.0000      -0.835963       -22.7477
  83   2.0000      -0.829184       -22.5632
  84   2.0000      -0.826904       -22.5012
  85   2.0000      -0.820999       -22.3405
  86   2.0000      -0.819664       -22.3042
  87   2.0000      -0.799866       -21.7655
  88   2.0000      -0.786188       -21.3933
  89   2.0000      -0.771943       -21.0056
  90   2.0000      -0.766123       -20.8473
  91   2.0000      -0.752705       -20.4821
  92   2.0000      -0.747426       -20.3385
  93   2.0000      -0.725897       -19.7526
  94   2.0000      -0.716600       -19.4997
  95   2.0000      -0.710098       -19.3227
  96   2.0000      -0.706216       -19.2171
  97   2.0000      -0.688491       -18.7348
  98   2.0000      -0.682896       -18.5825
  99   2.0000      -0.669765       -18.2252
 100   2.0000      -0.660083       -17.9618
 101   2.0000      -0.648665       -17.6511
 102   2.0000      -0.637871       -17.3573
 103   2.0000      -0.628157       -17.0930
 104   2.0000      -0.623667       -16.9708
 105   2.0000      -0.621955       -16.9243
 106   2.0000      -0.616535       -16.7768
 107   2.0000      -0.608603       -16.5609
 108   2.0000      -0.606754       -16.5106
 109   2.0000      -0.602060       -16.3829
 110   2.0000      -0.597503       -16.2589
 111   2.0000      -0.595953       -16.2167
 112   2.0000      -0.583319       -15.8729
 113   2.0000      -0.579511       -15.7693
 114   2.0000      -0.575232       -15.6529
 115   2.0000      -0.563714       -15.3394
 116   2.0000      -0.557859       -15.1801
 117   2.0000      -0.557205       -15.1623
 118   2.0000      -0.537085       -14.6148
 119   2.0000      -0.534946       -14.5566
 120   2.0000      -0.533584       -14.5196
 121   2.0000      -0.531165       -14.4537
 122   2.0000      -0.520291       -14.1578
 123   2.0000      -0.518758       -14.1161
 124   2.0000      -0.514928       -14.0119
 125   2.0000      -0.512823       -13.9546
 126   2.0000      -0.511584       -13.9209
 127   2.0000      -0.504737       -13.7346
 128   2.0000      -0.503862       -13.7108
 129   2.0000      -0.499888       -13.6026
 130   2.0000      -0.498495       -13.5647
 131   2.0000      -0.498189       -13.5564
 132   2.0000      -0.493074       -13.4172
 133   2.0000      -0.487244       -13.2586
 134   2.0000      -0.485822       -13.2199
 135   2.0000      -0.483158       -13.1474
 136   2.0000      -0.482087       -13.1182
 137   2.0000      -0.474600       -12.9145
 138   2.0000      -0.472147       -12.8478
 139   2.0000      -0.468947       -12.7607
 140   2.0000      -0.465851       -12.6765
 141   2.0000      -0.464934       -12.6515
 142   2.0000      -0.461136       -12.5482
 143   2.0000      -0.458546       -12.4777
 144   2.0000      -0.449871       -12.2416
 145   2.0000      -0.441983       -12.0270
 146   2.0000      -0.438959       -11.9447
 147   2.0000      -0.434889       -11.8339
 148   2.0000      -0.430605       -11.7173
 149   2.0000      -0.427678       -11.6377
 150   2.0000      -0.426325       -11.6009
 151   2.0000      -0.421485       -11.4692
 152   2.0000      -0.413421       -11.2498
 153   2.0000      -0.410601       -11.1730
 154   2.0000      -0.405023       -11.0212
 155   2.0000      -0.400088       -10.8870
 156   2.0000      -0.399455       -10.8697
 157   2.0000      -0.392589       -10.6829
 158   2.0000      -0.390636       -10.6297
 159   2.0000      -0.378891       -10.3101
 160   2.0000      -0.375085       -10.2066
 161   2.0000      -0.370486       -10.0814
 162   2.0000      -0.366249        -9.9661
 163   2.0000      -0.364472        -9.9178
 164   2.0000      -0.353770        -9.6266
 165   2.0000      -0.346571        -9.4307
 166   2.0000      -0.342005        -9.3064
 167   2.0000      -0.341022        -9.2797
 168   2.0000      -0.327143        -8.9020
 169   2.0000      -0.320797        -8.7293
 170   2.0000      -0.317466        -8.6387
 171   2.0000      -0.310613        -8.4522
 172   2.0000      -0.308015        -8.3815
 173   2.0000      -0.304604        -8.2887
 174   2.0000      -0.294780        -8.0214
 175   2.0000      -0.294499        -8.0137
 176   2.0000      -0.288625        -7.8539
 177   2.0000      -0.279217        -7.5979
 178   2.0000      -0.223153        -6.0723
 179   2.0000      -0.210744        -5.7346
 180   0.0000      -0.075632        -2.0581
 181   0.0000      -0.050223        -1.3666
 182   0.0000      -0.044306        -1.2056
 183   0.0000      -0.025566        -0.6957
 184   0.0000      -0.016463        -0.4480

MULLIKEN ATOMIC CHARGES
-----------------------
   0 C :   -0.044355
   1 C :   -0.058692
   2 C :    0.054811
   3 C :    0.023169
   4 C :   -0.066064
   5 S :    0.101269
   6 C :   -0.034807
   7 C :    0.024774
   8 C :    0.034274
   9 C :    0.033783
  10 S :    0.094200
  11 C :   -0.026934
  12 C :   -0.005339
  13 N :   -0.078273
  14 C :    0.078651
  15 C :   -0.062679
  16 C :    0.080315
  17 N :   -0.126202
  18 C :    0.017979
  19 C :    0.081102
  20 C :   -0.076740
  21 N :   -0.073194
  22 C :    0.075673
  23 C :   -0.055170
  24 C :    0.045648
  25 N :   -0.038516
  26 C :    0.061689
  27 C :    0.060837
  28 C :   -0.068713
  29 N :   -0.093941
  30 C :    0.088400
  31 C :   -0.041711
  32 C :    0.062503
  33 N :   -0.057476
  34 C :   -0.029498
  35 C :    0.056920
  36 C :   -0.028553
  37 C :   -0.004619
  38 C :    0.035335
  39 C :    0.031408
  40 C :   -0.052912
  41 S :    0.082856
  42 C :   -0.065551
  43 C :    0.031035
  44 C :    0.054158
  45 C :   -0.064761
  46 S :    0.086341
  47 C :   -0.027866
  48 H :    0.008854
  49 H :    0.039299
  50 H :   -0.016586
  51 H :   -0.015375
  52 H :   -0.021718
  53 H :   -0.018448
  54 H :   -0.025449
  55 H :   -0.002570
  56 H :   -0.010855
  57 H :   -0.005557
  58 H :   -0.001109
  59 H :    0.002366
  60 H :   -0.005160
  61 H :    0.007643
  62 H :   -0.015122
  63 H :    0.000311
  64 H :   -0.011515
  65 H :   -0.027794
  66 H :    0.014938
  67 H :   -0.018076
  68 H :   -0.012228
  69 H :   -0.010790
  70 H :   -0.009753
  71 H :   -0.008705
  72 H :    0.023739
  73 H :    0.025095
Sum of atomic charges:   -0.0000000

LOEWDIN ATOMIC CHARGES
----------------------
   0 C :   -0.071531
   1 C :   -0.143610
   2 C :   -0.028004
   3 C :   -0.030959
   4 C :   -0.164868
   5 S :    0.368996
   6 C :   -0.201082
   7 C :   -0.022338
   8 C :   -0.042947
   9 C :   -0.115483
  10 S :    0.423796
  11 C :   -0.094878
  12 C :    0.029625
  13 N :   -0.097444
  14 C :    0.044752
  15 C :   -0.076884
  16 C :    0.037421
  17 N :   -0.111599
  18 C :   -0.009738
  19 C :    0.000454
  20 C :    0.027786
  21 N :   -0.088704
  22 C :    0.045729
  23 C :   -0.059237
  24 C :    0.032861
  25 N :   -0.079707
  26 C :    0.005332
  27 C :   -0.017558
  28 C :    0.028863
  29 N :   -0.091792
  30 C :    0.050749
  31 C :   -0.069027
  32 C :    0.037231
  33 N :   -0.092470
  34 C :   -0.055222
  35 C :    0.016303
  36 C :   -0.069774
  37 C :   -0.129011
  38 C :   -0.037311
  39 C :   -0.022627
  40 C :   -0.183825
  41 S :    0.370746
  42 C :   -0.170489
  43 C :   -0.027194
  44 C :   -0.026402
  45 C :   -0.140044
  46 S :    0.355857
  47 C :   -0.069745
  48 H :    0.023353
  49 H :    0.024069
  50 H :    0.031238
  51 H :    0.030376
  52 H :    0.026886
  53 H :    0.031028
  54 H :    0.033152
  55 H :    0.022823
  56 H :    0.030640
  57 H :    0.030188
  58 H :    0.025537
  59 H :    0.024683
  60 H :    0.032086
  61 H :    0.038235
  62 H :    0.029656
  63 H :    0.023504
  64 H :    0.031390
  65 H :    0.025032
  66 H :    0.028533
  67 H :    0.031100
  68 H :    0.033693
  69 H :    0.032432
  70 H :    0.032811
  71 H :    0.034619
  72 H :    0.030151
  73 H :    0.027789

  Mayer bond orders larger than 0.100000
B(  0-C ,  1-C ) :   1.8653 B(  0-C , 48-H ) :   0.9468 B(  0-C , 49-H ) :   0.9273
B(  1-C ,  2-C ) :   1.0696 B(  1-C ,  5-S ) :   1.0062 B(  2-C ,  3-C ) :   1.6699
B(  2-C , 50-H ) :   0.9925 B(  3-C ,  4-C ) :   1.1357 B(  3-C , 51-H ) :   0.9925
B(  4-C ,  5-S ) :   1.0485 B(  4-C ,  6-C ) :   1.5828 B(  6-C ,  7-C ) :   1.1611
B(  6-C , 10-S ) :   0.9680 B(  7-C ,  8-C ) :   1.6215 B(  7-C , 52-H ) :   0.9934
B(  8-C ,  9-C ) :   1.1179 B(  8-C , 53-H ) :   1.0001 B(  9-C , 10-S ) :   1.0746
B(  9-C , 11-C ) :   1.5584 B( 11-C , 12-C ) :   1.1059 B( 11-C , 54-H ) :   0.9801
B( 12-C , 13-N ) :   1.4794 B( 12-C , 17-N ) :   1.4369 B( 13-N , 14-C ) :   1.5778
B( 14-C , 15-C ) :   1.3442 B( 14-C , 55-H ) :   0.9781 B( 15-C , 16-C ) :   1.3426
B( 15-C , 56-H ) :   0.9765 B( 16-C , 17-N ) :   1.5127 B( 16-C , 18-C ) :   1.0408
B( 18-C , 19-C ) :   1.7264 B( 18-C , 57-H ) :   0.9667 B( 19-C , 20-C ) :   1.0145
B( 19-C , 58-H ) :   0.9721 B( 20-C , 21-N ) :   1.5265 B( 20-C , 25-N ) :   1.5450
B( 21-N , 22-C ) :   1.5508 B( 22-C , 23-C ) :   1.3799 B( 22-C , 59-H ) :   0.9791
B( 23-C , 24-C ) :   1.3598 B( 23-C , 60-H ) :   0.9674 B( 24-C , 25-N ) :   1.5042
B( 24-C , 26-C ) :   1.0347 B( 26-C , 27-C ) :   1.7087 B( 26-C , 61-H ) :   0.9811
B( 27-C , 28-C ) :   1.0221 B( 27-C , 62-H ) :   0.9619 B( 28-C , 29-N ) :   1.5159
B( 28-C , 33-N ) :   1.5608 B( 29-N , 30-C ) :   1.5111 B( 30-C , 31-C ) :   1.3849
B( 30-C , 63-H ) :   0.9748 B( 31-C , 32-C ) :   1.3167 B( 31-C , 64-H ) :   0.9768
B( 32-C , 33-N ) :   1.4935 B( 32-C , 34-C ) :   1.0837 B( 34-C , 35-C ) :   1.6583
B( 34-C , 65-H ) :   0.9818 B( 35-C , 36-C ) :   1.1264 B( 35-C , 66-H ) :   0.9664
B( 36-C , 37-C ) :   1.5802 B( 36-C , 67-H ) :   0.9822 B( 37-C , 38-C ) :   1.1245
B( 37-C , 41-S ) :   1.0396 B( 38-C , 39-C ) :   1.6147 B( 38-C , 68-H ) :   0.9996
B( 39-C , 40-C ) :   1.1675 B( 39-C , 69-H ) :   0.9926 B( 40-C , 41-S ) :   1.0315
B( 40-C , 42-C ) :   1.5629 B( 42-C , 43-C ) :   1.1474 B( 42-C , 46-S ) :   1.0501
B( 43-C , 44-C ) :   1.6667 B( 43-C , 70-H ) :   0.9913 B( 44-C , 45-C ) :   1.0781
B( 44-C , 71-H ) :   0.9934 B( 45-C , 46-S ) :   1.0055 B( 45-C , 47-C ) :   1.8659
B( 47-C , 72-H ) :   0.9513 B( 47-C , 73-H ) :   0.9421

-----------------------------------------------------------------------------
         ABSORPTION SPECTRUM VIA TRANSITION ELECTRIC DIPOLE MOMENTS
-----------------------------------------------------------------------------
State   Energy  Wavelength   fosc         T2         TX        TY        TZ
        (cm-1)    (nm)                  (au**2)     (au)      (au)      (au)
-----------------------------------------------------------------------------
   0   18591.6    537.9   1.273403481  22.54892  -4.69340  -0.14455  -0.70711
   1   20139.5    496.5   0.043780451   0.71566   0.21103  -0.25352  -0.77901
   2   20613.3    485.1   0.980608118  15.66116  -1.65554   1.22716   3.37852
   3   21238.8    470.8   0.002211121   0.03427  -0.17533   0.00941  -0.05867
   4   24330.4    411.0   0.003123723   0.04227  -0.02695  -0.04742  -0.19822
   5   26279.9    380.5   0.000700499   0.00878  -0.09084   0.01902   0.01274
   6   28553.6    350.2   0.074185054   0.85532  -0.61516   0.13758   0.67674
   7   29898.2    334.5   0.000014654   0.00016  -0.00292   0.00005  -0.01236
   8   31099.5    321.5   0.000189027   0.00200   0.03110  -0.00819  -0.03109
   9   31507.8    317.4   0.009840921   0.10282   0.02047  -0.14305  -0.28625
  10   31598.6    316.5   0.006438551   0.06708   0.03430  -0.24630   0.07238
  11   31857.5    313.9   0.006232578   0.06441   0.16567  -0.06968   0.17918
  12   32135.6    311.2   0.003459088   0.03544   0.03522  -0.17424   0.06193
  13   32479.3    307.9   0.383704794   3.88925  -0.77155  -0.38553  -1.77351
  14   32816.8    304.7   0.007769544   0.07794   0.19171   0.03229   0.20037
  15   32974.8    303.3   0.115997762   1.15809  -0.96665  -0.21097  -0.42328
  16   33196.5    301.2   0.080764633   0.80095  -0.11295   0.13458   0.87754
  17   33670.0    297.0   0.029268189   0.28617  -0.43905   0.01296   0.30535
  18   34331.6    291.3   0.078166307   0.74955   0.66513   0.21346   0.51145
  19   34804.4    287.3   0.215468948   2.03811  -0.29146  -0.15685  -1.38872
  20   35116.7    284.8   0.034250299   0.32109   0.14121   0.18088   0.51810
  21   35369.1    282.7   0.005624779   0.05235   0.09705   0.06553   0.19657
  22   35522.4    281.5   0.542533205   5.02805  -0.85758  -0.41590  -2.02969
  23   36061.5    277.3   0.006162236   0.05626   0.09404  -0.18410   0.11628
  24   36557.7    273.5   0.112322539   1.01150   0.71204  -0.11171  -0.70144
  25   36806.6    271.7   0.039875632   0.35666   0.58443   0.08618   0.08760
  26   37047.9    269.9   0.271127949   2.40927   1.23531   0.20556   0.91708
  27   37645.9    265.6   0.022461887   0.19643  -0.42837   0.02687   0.11048
  28   37905.7    263.8   0.128392277   1.11509  -0.54478   0.20755   0.88047
  29   38471.7    259.9   0.373463821   3.19582  -0.52026  -0.49396  -1.63742
  30   38947.7    256.8   0.393907804   3.32957   0.92423  -0.16981  -1.56414
  31   39111.8    255.7   0.002579016   0.02171   0.02763   0.05564   0.13360
  32   39251.4    254.8   0.527600507   4.42513   0.11915  -0.50422  -2.03880
  33   39356.2    254.1   0.288823059   2.41598  -0.08382  -0.36677  -1.50812
  34   39710.2    251.8   0.032340224   0.26811   0.42578  -0.03592  -0.29246
  35   40084.7    249.5   0.011436345   0.09393  -0.26290   0.00054  -0.15751
  36   40311.2    248.1   0.000794582   0.00649   0.05325  -0.04734  -0.03757

FINAL SINGLE POINT ENERGY     -3382.087085544500

DIPOLE MOMENT
-------------
                                X             Y             Z
Electronic contribution:      3.69596       2.98133      12.72310
Nuclear contribution   :     -5.43640      -3.67454     -16.13956
                        -----------------------------------------
Total Dipole Moment    :     -1.74044      -0.69321      -3.41646
                        -----------------------------------------
Magnitude (a.u.)       :      3.89639
Magnitude (Debye)      :      9.90385

Rotational constants in cm-1:     0.002930     0.000556     0.000468
Rotational constants in MHz :    87.845863    16.659829    14.043949

                             ****ORCA TERMINATED NORMALLY****
TOTAL RUN TIME: 0 days 0 hours 4 minutes 24 seconds 384 msec
