                         Program Version 4.2.0 -  RELEASE  -
|  1> # ORCA input file
|  2> # SCF done       -141.975977965030          0.000399402309
|  3> ! CAM-B3LYP def2-SVP def2/J RIJCOSX Grid4 TightSCF
|  4> %maxcore 5000
|  5> %tddft
|  6>     Mode sTDDFT
|  7>     Ethresh 5.0
|  8>     maxcore 5000
|  9> end
| 10>
| 11> %pal
| 12>   nprocs 6
| 13>   end
| 14> * xyz 0 1
| 15>    C        7.64954         2.42691        -6.67630
| 16>    C        7.96608         2.29470        -5.38129
| 17>    C        7.75783         3.24420        -4.32518
| 18>    C        8.18020         2.83048        -3.11082
| 19>    C        8.75535         1.52813        -3.09997
| 20>    S        8.73703         0.84564        -4.71527
| 21>    C        9.26680         0.85140        -2.02060
| 22>    C        9.33615         1.28873        -0.67306
| 23>    C        9.90360         0.38860         0.16811
| 24>    C       10.32302        -0.81980        -0.45433
| 25>    S        9.95530        -0.75788        -2.17027
| 26>    C       10.91121        -1.87152         0.19280
| 27>    C       11.38831        -3.07536        -0.35769
| 28>    S       11.52480        -3.31823        -2.08032
| 29>    C       12.33815        -4.81413        -1.83889
| 30>    C       12.50877        -5.13031        -0.52819
| 31>    C       13.17269        -6.38093        -0.05434
| 32>    C       11.94191        -4.15424         0.34280
| 33>    C       11.93734        -4.31118         1.77007
| 34>    C       10.96393        -3.89624         2.60833
| 35>    C       11.02070        -4.06092         4.02547
| 36>    C       10.01938        -3.66874         4.84106
| 37>    C        9.95739        -3.74369         6.27601
| 38>    C       10.59048        -4.57563         7.11810
| 39>    C       11.51967        -5.67792         6.72002
| 40>    C       10.39346        -4.41520         8.60775
| 41>    N       11.58279        -3.87125         9.22345
| 42>    C       12.45063        -4.57868         9.96008
| 43>    C       13.63111        -4.08924        10.42183
| 44>    C       14.52450        -4.79245        11.26733
| 45>    S       15.93755        -3.99455        11.88651
| 46>    C       16.44205        -5.39569        12.79561
| 47>    C       15.55139        -6.43417        12.60139
| 48>    C       14.48330        -6.09606        11.75083
| 49>    O       13.45949        -6.92975        11.39516
| 50>    C       13.36592        -8.22932        11.69041
| 51>    O       12.39974        -8.83728        11.31242
| 52>    C       14.44439        -8.95622        12.48033
| 53>    O       14.40360       -10.14611        12.62135
| 54>    S       15.76319        -8.05419        13.25300
| 55>    C       17.61201        -5.35763        13.60271
| 56>    S       18.90113        -4.21197        13.30058
| 57>    C       19.86503        -4.76080        14.61090
| 58>    C       19.23857        -5.78837        15.26873
| 59>    C       17.96737        -6.11559        14.69393
| 60>    O       17.36027        -7.09341        15.40214
| 61>    C       18.22944        -7.40224        16.40253
| 62>    N       17.83821        -8.40639        17.32469
| 63>    O       18.64224        -8.67864        18.19614
| 64>    O       16.74599        -8.90920        17.18727
| 65>    C       19.37765        -6.66136        16.38444
| 66>    H        7.18130         3.32523        -7.03811
| 67>    H        7.84998         1.64882        -7.38959
| 68>    H        7.29931         4.19614        -4.52682
| 69>    H        8.10220         3.41420        -2.21058
| 70>    H        8.96497         2.25115        -0.36939
| 71>    H       10.04183         0.54339         1.22420
| 72>    H       11.05974        -1.75179         1.25826
| 73>    H       12.64477        -5.38309        -2.69463
| 74>    H       13.47604        -6.99110        -0.90089
| 75>    H       12.49286        -6.95918         0.57006
| 76>    H       14.05705        -6.14287         0.53643
| 77>    H       12.77523        -4.85994         2.18350
| 78>    H       10.06583        -3.44614         2.20701
| 79>    H       11.93265        -4.47619         4.42643
| 80>    H        9.16051        -3.19322         4.38072
| 81>    H        9.26083        -3.03802         6.71683
| 82>    H       12.54582        -5.31659         6.64090
| 83>    H       11.22858        -6.09532         5.75910
| 84>    H       11.50707        -6.47090         7.46495
| 85>    H       10.18322        -5.38121         9.07343
| 86>    H        9.55519        -3.74002         8.81016
| 87>    H       11.86191        -2.95044         8.91608
| 88>    H       12.13588        -5.57998        10.21097
| 89>    H       13.92422        -3.07985        10.16829
| 90>    H       20.80835        -4.29892        14.81442
| 91>    H       20.18876        -6.73789        17.07831
| 92> *
| 93>
| 94>                          ****END OF INPUT****

CARTESIAN COORDINATES (ANGSTROEM)
---------------------------------
  C      7.649540    2.426910   -6.676300
  C      7.966080    2.294700   -5.381290
  C      7.757830    3.244200   -4.325180
  C      8.180200    2.830480   -3.110820
  C      8.755350    1.528130   -3.099970
  S      8.737030    0.845640   -4.715270
  C      9.266800    0.851400   -2.020600
  C      9.336150    1.288730   -0.673060
  C      9.903600    0.388600    0.168110
  C     10.323020   -0.819800   -0.454330
  S      9.955300   -0.757880   -2.170270
  C     10.911210   -1.871520    0.192800
  C     11.388310   -3.075360   -0.357690
  S     11.524800   -3.318230   -2.080320
  C     12.338150   -4.814130   -1.838890
  C     12.508770   -5.130310   -0.528190
  C     13.172690   -6.380930   -0.054340
  C     11.941910   -4.154240    0.342800
  C     11.937340   -4.311180    1.770070
  C     10.963930   -3.896240    2.608330
  C     11.020700   -4.060920    4.025470
  C     10.019380   -3.668740    4.841060
  C      9.957390   -3.743690    6.276010
  C     10.590480   -4.575630    7.118100
  C     11.519670   -5.677920    6.720020
  C     10.393460   -4.415200    8.607750
  N     11.582790   -3.871250    9.223450
  C     12.450630   -4.578680    9.960080
  C     13.631110   -4.089240   10.421830
  C     14.524500   -4.792450   11.267330
  S     15.937550   -3.994550   11.886510
  C     16.442050   -5.395690   12.795610
  C     15.551390   -6.434170   12.601390
  C     14.483300   -6.096060   11.750830
  O     13.459490   -6.929750   11.395160
  C     13.365920   -8.229320   11.690410
  O     12.399740   -8.837280   11.312420
  C     14.444390   -8.956220   12.480330
  O     14.403600  -10.146110   12.621350
  S     15.763190   -8.054190   13.253000
  C     17.612010   -5.357630   13.602710
  S     18.901130   -4.211970   13.300580
  C     19.865030   -4.760800   14.610900
  C     19.238570   -5.788370   15.268730
  C     17.967370   -6.115590   14.693930
  O     17.360270   -7.093410   15.402140
  C     18.229440   -7.402240   16.402530
  N     17.838210   -8.406390   17.324690
  O     18.642240   -8.678640   18.196140
  O     16.745990   -8.909200   17.187270
  C     19.377650   -6.661360   16.384440
  H      7.181300    3.325230   -7.038110
  H      7.849980    1.648820   -7.389590
  H      7.299310    4.196140   -4.526820
  H      8.102200    3.414200   -2.210580
  H      8.964970    2.251150   -0.369390
  H     10.041830    0.543390    1.224200
  H     11.059740   -1.751790    1.258260
  H     12.644770   -5.383090   -2.694630
  H     13.476040   -6.991100   -0.900890
  H     12.492860   -6.959180    0.570060
  H     14.057050   -6.142870    0.536430
  H     12.775230   -4.859940    2.183500
  H     10.065830   -3.446140    2.207010
  H     11.932650   -4.476190    4.426430
  H      9.160510   -3.193220    4.380720
  H      9.260830   -3.038020    6.716830
  H     12.545820   -5.316590    6.640900
  H     11.228580   -6.095320    5.759100
  H     11.507070   -6.470900    7.464950
  H     10.183220   -5.381210    9.073430
  H      9.555190   -3.740020    8.810160
  H     11.861910   -2.950440    8.916080
  H     12.135880   -5.579980   10.210970
  H     13.924220   -3.079850   10.168290
  H     20.808350   -4.298920   14.814420
  H     20.188760   -6.737890   17.078310

 Total Charge           Charge          ....    0
 Multiplicity           Mult            ....    1
 Number of Electrons    NEL             ....  406
 Basis Dimension        Dim             ....  868

ORBITAL ENERGIES
----------------

  NO   OCC          E(Eh)            E(eV)
   0   2.0000     -88.979346     -2421.2511
   1   2.0000     -88.965227     -2420.8669
   2   2.0000     -88.960888     -2420.7488
   3   2.0000     -88.943788     -2420.2835
   4   2.0000     -88.937963     -2420.1250
   5   2.0000     -88.933027     -2419.9907
   6   2.0000     -19.309411      -525.4358
   7   2.0000     -19.299456      -525.1649
   8   2.0000     -19.244015      -523.6563
   9   2.0000     -19.241318      -523.5829
  10   2.0000     -19.233207      -523.3622
  11   2.0000     -19.221257      -523.0370
  12   2.0000     -14.655310      -398.7913
  13   2.0000     -14.442405      -392.9978
  14   2.0000     -10.424710      -283.6708
  15   2.0000     -10.399190      -282.9763
  16   2.0000     -10.388779      -282.6931
  17   2.0000     -10.349329      -281.6196
  18   2.0000     -10.345387      -281.5123
  19   2.0000     -10.326422      -280.9962
  20   2.0000     -10.321708      -280.8680
  21   2.0000     -10.320333      -280.8305
  22   2.0000     -10.317046      -280.7411
  23   2.0000     -10.316218      -280.7186
  24   2.0000     -10.314728      -280.6780
  25   2.0000     -10.314524      -280.6725
  26   2.0000     -10.313376      -280.6412
  27   2.0000     -10.304372      -280.3962
  28   2.0000     -10.302672      -280.3500
  29   2.0000     -10.301914      -280.3293
  30   2.0000     -10.301000      -280.3045
  31   2.0000     -10.300606      -280.2937
  32   2.0000     -10.294745      -280.1343
  33   2.0000     -10.285314      -279.8776
  34   2.0000     -10.281590      -279.7763
  35   2.0000     -10.281282      -279.7679
  36   2.0000     -10.280167      -279.7376
  37   2.0000     -10.279648      -279.7234
  38   2.0000     -10.279434      -279.7176
  39   2.0000     -10.276804      -279.6461
  40   2.0000     -10.274580      -279.5855
  41   2.0000     -10.273694      -279.5614
  42   2.0000     -10.272828      -279.5379
  43   2.0000     -10.271112      -279.4912
  44   2.0000     -10.270632      -279.4781
  45   2.0000     -10.270281      -279.4685
  46   2.0000     -10.269966      -279.4600
  47   2.0000     -10.267379      -279.3896
  48   2.0000     -10.265224      -279.3309
  49   2.0000     -10.264530      -279.3121
  50   2.0000     -10.264468      -279.3104
  51   2.0000      -8.074473      -219.7176
  52   2.0000      -8.060911      -219.3485
  53   2.0000      -8.057206      -219.2477
  54   2.0000      -8.039489      -218.7656
  55   2.0000      -8.034049      -218.6176
  56   2.0000      -8.029747      -218.5005
  57   2.0000      -6.043894      -164.4627
  58   2.0000      -6.039430      -164.3413
  59   2.0000      -6.036711      -164.2672
  60   2.0000      -6.030357      -164.0944
  61   2.0000      -6.026958      -164.0019
  62   2.0000      -6.026468      -163.9885
  63   2.0000      -6.022559      -163.8822
  64   2.0000      -6.022386      -163.8775
  65   2.0000      -6.017999      -163.7581
  66   2.0000      -6.008800      -163.5078
  67   2.0000      -6.004487      -163.3904
  68   2.0000      -6.003861      -163.3734
  69   2.0000      -6.001702      -163.3146
  70   2.0000      -5.999796      -163.2628
  71   2.0000      -5.999586      -163.2570
  72   2.0000      -5.995686      -163.1509
  73   2.0000      -5.994805      -163.1269
  74   2.0000      -5.990219      -163.0021
  75   2.0000      -1.327219       -36.1155
  76   2.0000      -1.230433       -33.4818
  77   2.0000      -1.227312       -33.3969
  78   2.0000      -1.157248       -31.4903
  79   2.0000      -1.143865       -31.1262
  80   2.0000      -1.121889       -30.5282
  81   2.0000      -1.043833       -28.4041
  82   2.0000      -1.010306       -27.4918
  83   2.0000      -0.989726       -26.9318
  84   2.0000      -0.987949       -26.8835
  85   2.0000      -0.976160       -26.5627
  86   2.0000      -0.961689       -26.1689
  87   2.0000      -0.936607       -25.4864
  88   2.0000      -0.924141       -25.1472
  89   2.0000      -0.918703       -24.9992
  90   2.0000      -0.899115       -24.4662
  91   2.0000      -0.894370       -24.3371
  92   2.0000      -0.887932       -24.1619
  93   2.0000      -0.875948       -23.8358
  94   2.0000      -0.863142       -23.4873
  95   2.0000      -0.860144       -23.4057
  96   2.0000      -0.847259       -23.0551
  97   2.0000      -0.841003       -22.8849
  98   2.0000      -0.839537       -22.8450
  99   2.0000      -0.832356       -22.6496
 100   2.0000      -0.816648       -22.2221
 101   2.0000      -0.807565       -21.9750
 102   2.0000      -0.802092       -21.8260
 103   2.0000      -0.788705       -21.4618
 104   2.0000      -0.783894       -21.3309
 105   2.0000      -0.772251       -21.0140
 106   2.0000      -0.759710       -20.6728
 107   2.0000      -0.754839       -20.5402
 108   2.0000      -0.747937       -20.3524
 109   2.0000      -0.732810       -19.9408
 110   2.0000      -0.716391       -19.4940
 111   2.0000      -0.714758       -19.4496
 112   2.0000      -0.709167       -19.2974
 113   2.0000      -0.694062       -18.8864
 114   2.0000      -0.680946       -18.5295
 115   2.0000      -0.675687       -18.3864
 116   2.0000      -0.661727       -18.0065
 117   2.0000      -0.658376       -17.9153
 118   2.0000      -0.643990       -17.5239
 119   2.0000      -0.642219       -17.4757
 120   2.0000      -0.640713       -17.4347
 121   2.0000      -0.635222       -17.2853
 122   2.0000      -0.624654       -16.9977
 123   2.0000      -0.622710       -16.9448
 124   2.0000      -0.620799       -16.8928
 125   2.0000      -0.615658       -16.7529
 126   2.0000      -0.607529       -16.5317
 127   2.0000      -0.595896       -16.2152
 128   2.0000      -0.593592       -16.1525
 129   2.0000      -0.589443       -16.0395
 130   2.0000      -0.586137       -15.9496
 131   2.0000      -0.585703       -15.9378
 132   2.0000      -0.584823       -15.9138
 133   2.0000      -0.582147       -15.8410
 134   2.0000      -0.568253       -15.4630
 135   2.0000      -0.566344       -15.4110
 136   2.0000      -0.564904       -15.3718
 137   2.0000      -0.558434       -15.1958
 138   2.0000      -0.545178       -14.8350
 139   2.0000      -0.543469       -14.7885
 140   2.0000      -0.539371       -14.6770
 141   2.0000      -0.535093       -14.5606
 142   2.0000      -0.525086       -14.2883
 143   2.0000      -0.522110       -14.2073
 144   2.0000      -0.515207       -14.0195
 145   2.0000      -0.514422       -13.9981
 146   2.0000      -0.513548       -13.9743
 147   2.0000      -0.508888       -13.8476
 148   2.0000      -0.508091       -13.8259
 149   2.0000      -0.504012       -13.7149
 150   2.0000      -0.502327       -13.6690
 151   2.0000      -0.495889       -13.4938
 152   2.0000      -0.495382       -13.4800
 153   2.0000      -0.492385       -13.3985
 154   2.0000      -0.489795       -13.3280
 155   2.0000      -0.485908       -13.2222
 156   2.0000      -0.484813       -13.1924
 157   2.0000      -0.484330       -13.1793
 158   2.0000      -0.481847       -13.1117
 159   2.0000      -0.474103       -12.9010
 160   2.0000      -0.471904       -12.8412
 161   2.0000      -0.468764       -12.7557
 162   2.0000      -0.466076       -12.6826
 163   2.0000      -0.463270       -12.6062
 164   2.0000      -0.460156       -12.5215
 165   2.0000      -0.455107       -12.3841
 166   2.0000      -0.452618       -12.3164
 167   2.0000      -0.448840       -12.2136
 168   2.0000      -0.447511       -12.1774
 169   2.0000      -0.443884       -12.0787
 170   2.0000      -0.436104       -11.8670
 171   2.0000      -0.434904       -11.8343
 172   2.0000      -0.433706       -11.8017
 173   2.0000      -0.429788       -11.6951
 174   2.0000      -0.428181       -11.6514
 175   2.0000      -0.425722       -11.5845
 176   2.0000      -0.421626       -11.4730
 177   2.0000      -0.417820       -11.3695
 178   2.0000      -0.413083       -11.2406
 179   2.0000      -0.411395       -11.1946
 180   2.0000      -0.401988       -10.9387
 181   2.0000      -0.396160       -10.7801
 182   2.0000      -0.389507       -10.5990
 183   2.0000      -0.385984       -10.5032
 184   2.0000      -0.385101       -10.4791
 185   2.0000      -0.383294       -10.4300
 186   2.0000      -0.381494       -10.3810
 187   2.0000      -0.379313       -10.3216
 188   2.0000      -0.371362       -10.1053
 189   2.0000      -0.362332        -9.8596
 190   2.0000      -0.346228        -9.4213
 191   2.0000      -0.341022        -9.2797
 192   2.0000      -0.340580        -9.2676
 193   2.0000      -0.333056        -9.0629
 194   2.0000      -0.325501        -8.8573
 195   2.0000      -0.321029        -8.7356
 196   2.0000      -0.308836        -8.4038
 197   2.0000      -0.301598        -8.2069
 198   2.0000      -0.292080        -7.9479
 199   2.0000      -0.284144        -7.7319
 200   2.0000      -0.261304        -7.1104
 201   2.0000      -0.231490        -6.2992
 202   2.0000      -0.209412        -5.6984
 203   0.0000      -0.066104        -1.7988
 204   0.0000      -0.064408        -1.7526
 205   0.0000      -0.042374        -1.1530
 206   0.0000      -0.025284        -0.6880
 207   0.0000      -0.018683        -0.5084

MULLIKEN ATOMIC CHARGES
-----------------------
   0 C :   -0.032815
   1 C :   -0.062987
   2 C :    0.052452
   3 C :    0.026426
   4 C :   -0.067911
   5 S :    0.078796
   6 C :   -0.040951
   7 C :    0.028368
   8 C :    0.031190
   9 C :   -0.039028
  10 S :    0.069133
  11 C :   -0.028020
  12 C :   -0.130920
  13 S :    0.100397
  14 C :   -0.115881
  15 C :   -0.076381
  16 C :    0.119452
  17 C :    0.119915
  18 C :   -0.051114
  19 C :    0.002970
  20 C :    0.005592
  21 C :    0.000263
  22 C :    0.014690
  23 C :   -0.205692
  24 C :    0.091795
  25 C :    0.200260
  26 N :   -0.139757
  27 C :    0.057698
  28 C :   -0.016939
  29 C :   -0.102570
  30 S :    0.138916
  31 C :   -0.154789
  32 C :   -0.030022
  33 C :    0.136652
  34 O :   -0.218977
  35 C :    0.207572
  36 O :   -0.136864
  37 C :    0.006379
  38 O :   -0.123933
  39 S :    0.138999
  40 C :   -0.215290
  41 S :    0.158186
  42 C :   -0.144247
  43 C :    0.124258
  44 C :    0.196681
  45 O :   -0.194077
  46 C :    0.242048
  47 N :    0.270701
  48 O :   -0.249151
  49 O :   -0.222115
  50 C :   -0.069945
  51 H :    0.018216
  52 H :    0.021331
  53 H :   -0.013918
  54 H :   -0.012880
  55 H :   -0.019207
  56 H :   -0.016139
  57 H :   -0.007439
  58 H :    0.012078
  59 H :    0.007695
  60 H :    0.028419
  61 H :    0.026369
  62 H :   -0.015417
  63 H :    0.001650
  64 H :   -0.016588
  65 H :   -0.012760
  66 H :   -0.023726
  67 H :    0.038511
  68 H :    0.034198
  69 H :    0.013751
  70 H :    0.027407
  71 H :    0.007790
  72 H :    0.116987
  73 H :    0.029137
  74 H :   -0.041894
  75 H :    0.032215
  76 H :    0.014800
Sum of atomic charges:   -0.0000000

LOEWDIN ATOMIC CHARGES
----------------------
   0 C :   -0.080071
   1 C :   -0.139005
   2 C :   -0.033058
   3 C :   -0.027049
   4 C :   -0.178532
   5 S :    0.349196
   6 C :   -0.180165
   7 C :   -0.038666
   8 C :   -0.033097
   9 C :   -0.155580
  10 S :    0.360731
  11 C :   -0.074908
  12 C :   -0.166905
  13 S :    0.426187
  14 C :   -0.195829
  15 C :   -0.058208
  16 C :   -0.044595
  17 C :   -0.065966
  18 C :   -0.019749
  19 C :   -0.027291
  20 C :   -0.020963
  21 C :   -0.037781
  22 C :   -0.055788
  23 C :   -0.036220
  24 C :   -0.053180
  25 C :    0.048797
  26 N :    0.011931
  27 C :    0.058841
  28 C :   -0.163307
  29 C :   -0.155528
  30 S :    0.436099
  31 C :   -0.233063
  32 C :   -0.212530
  33 C :   -0.039558
  34 O :   -0.019978
  35 C :    0.044276
  36 O :   -0.112358
  37 C :   -0.108342
  38 O :   -0.099587
  39 S :    0.404474
  40 C :   -0.220835
  41 S :    0.471656
  42 C :   -0.190107
  43 C :   -0.079358
  44 C :    0.008047
  45 O :   -0.005279
  46 C :    0.030162
  47 N :    0.271460
  48 O :   -0.209837
  49 O :   -0.185096
  50 C :   -0.009862
  51 H :    0.027837
  52 H :    0.025931
  53 H :    0.032530
  54 H :    0.031618
  55 H :    0.029671
  56 H :    0.031703
  57 H :    0.038960
  58 H :    0.020267
  59 H :    0.032623
  60 H :    0.035555
  61 H :    0.033588
  62 H :    0.026335
  63 H :    0.029349
  64 H :    0.025890
  65 H :    0.027219
  66 H :    0.024447
  67 H :    0.037463
  68 H :    0.037602
  69 H :    0.031400
  70 H :    0.033825
  71 H :    0.024282
  72 H :    0.079792
  73 H :    0.030728
  74 H :    0.019690
  75 H :    0.029305
  76 H :    0.047764

  Mayer bond orders larger than 0.100000
B(  0-C ,  1-C ) :   1.8642 B(  0-C , 51-H ) :   0.9504 B(  0-C , 52-H ) :   0.9416
B(  1-C ,  2-C ) :   1.0807 B(  1-C ,  5-S ) :   1.0083 B(  2-C ,  3-C ) :   1.6617
B(  2-C , 53-H ) :   0.9923 B(  3-C ,  4-C ) :   1.1505 B(  3-C , 54-H ) :   0.9919
B(  4-C ,  5-S ) :   1.0410 B(  4-C ,  6-C ) :   1.5666 B(  6-C ,  7-C ) :   1.1644
B(  6-C , 10-S ) :   1.0314 B(  7-C ,  8-C ) :   1.6141 B(  7-C , 55-H ) :   0.9912
B(  8-C ,  9-C ) :   1.1297 B(  8-C , 56-H ) :   0.9991 B(  9-C , 10-S ) :   1.0293
B(  9-C , 11-C ) :   1.5943 B( 11-C , 12-C ) :   1.1840 B( 11-C , 57-H ) :   0.9582
B( 12-C , 13-S ) :   1.1201 B( 12-C , 17-C ) :   1.4172 B( 13-S , 14-C ) :   1.1319
B( 14-C , 15-C ) :   1.5912 B( 14-C , 58-H ) :   0.9652 B( 15-C , 16-C ) :   1.0964
B( 15-C , 17-C ) :   1.2464 B( 16-C , 59-H ) :   0.9503 B( 16-C , 60-H ) :   0.9445
B( 16-C , 61-H ) :   0.9419 B( 17-C , 18-C ) :   1.0792 B( 18-C , 19-C ) :   1.6894
B( 18-C , 62-H ) :   0.9563 B( 19-C , 20-C ) :   1.1134 B( 19-C , 63-H ) :   0.9874
B( 20-C , 21-C ) :   1.7035 B( 20-C , 64-H ) :   0.9826 B( 21-C , 22-C ) :   1.0904
B( 21-C , 65-H ) :   0.9604 B( 22-C , 23-C ) :   1.8161 B( 22-C , 66-H ) :   0.9499
B( 23-C , 24-C ) :   1.0781 B( 23-C , 25-C ) :   1.0553 B( 24-C , 67-H ) :   0.9409
B( 24-C , 68-H ) :   0.9437 B( 24-C , 69-H ) :   0.9455 B( 25-C , 26-N ) :   0.9980
B( 25-C , 70-H ) :   0.9293 B( 25-C , 71-H ) :   0.9398 B( 26-N , 27-C ) :   1.2617
B( 26-N , 72-H ) :   0.9369 B( 27-C , 28-C ) :   1.5833 B( 27-C , 73-H ) :   0.9571
B( 28-C , 29-C ) :   1.1753 B( 28-C , 74-H ) :   0.9418 B( 29-C , 30-S ) :   1.1152
B( 29-C , 31-C ) :   0.1163 B( 29-C , 33-C ) :   1.4996 B( 30-S , 31-C ) :   1.1021
B( 31-C , 32-C ) :   1.6063 B( 31-C , 40-C ) :   1.0953 B( 32-C , 33-C ) :   1.2517
B( 32-C , 39-S ) :   0.9693 B( 33-C , 34-O ) :   1.0242 B( 34-O , 35-C ) :   1.0958
B( 35-C , 36-O ) :   2.2144 B( 35-C , 37-C ) :   0.8039 B( 37-C , 38-O ) :   2.1624
B( 37-C , 39-S ) :   1.0555 B( 38-O , 39-S ) :   0.1400 B( 40-C , 41-S ) :   1.1409
B( 40-C , 42-C ) :   0.1244 B( 40-C , 44-C ) :   1.5103 B( 41-S , 42-C ) :   1.1748
B( 42-C , 43-C ) :   1.4493 B( 42-C , 75-H ) :   0.9761 B( 43-C , 44-C ) :   1.2111
B( 43-C , 50-C ) :   1.0563 B( 44-C , 45-O ) :   1.0984 B( 45-O , 46-C ) :   1.1164
B( 46-C , 47-N ) :   0.9111 B( 46-C , 50-C ) :   1.5933 B( 47-N , 48-O ) :   1.5326
B( 47-N , 49-O ) :   1.5216 B( 48-O , 49-O ) :   0.2823 B( 50-C , 76-H ) :   1.0247

-----------------------------------------------------------------------------
         ABSORPTION SPECTRUM VIA TRANSITION ELECTRIC DIPOLE MOMENTS
-----------------------------------------------------------------------------
State   Energy  Wavelength   fosc         T2         TX        TY        TZ
        (cm-1)    (nm)                  (au**2)     (au)      (au)      (au)
-----------------------------------------------------------------------------
   0   17953.9    557.0   1.563496389  28.66900  -1.91964   3.26496  -3.78471
   1   20479.2    488.3   0.166420759   2.67528   1.39870   0.30537   0.79098
   2   22204.2    450.4   0.023790907   0.35274  -0.25094   0.32405  -0.42983
   3   25308.7    395.1   0.018424441   0.23966   0.35469  -0.33270   0.05628
   4   25806.3    387.5   0.029528516   0.37670  -0.28380   0.35416  -0.41319
   5   26675.4    374.9   0.207431695   2.56000  -0.46590  -0.04485  -1.53001
   6   28883.3    346.2   0.488889213   5.57237  -1.42250   0.59360  -1.78788
   7   28990.9    344.9   0.302832105   3.43887  -1.72023   0.46078  -0.51706
   8   29509.3    338.9   0.014417510   0.16084  -0.04149  -0.04544   0.39631
   9   30358.2    329.4   0.037030359   0.40157   0.06941   0.15079   0.61156
  10   32308.1    309.5   0.097928007   0.99786   0.73302   0.56016   0.38311
  11   32534.6    307.4   0.067902860   0.68710  -0.62153  -0.35781  -0.41566
  12   33019.9    302.8   0.008387519   0.08362  -0.17147  -0.09882  -0.21085
  13   33190.9    301.3   0.011584111   0.11490  -0.14065  -0.25810   0.16882
  14   33228.2    300.9   0.016119877   0.15971  -0.14792  -0.01061   0.37110
  15   33670.8    297.0   0.098468831   0.96277  -0.06850   0.50019   0.84136
  16   33940.5    294.6   0.105839079   1.02660  -0.84017   0.30915   0.47450
  17   34271.6    291.8   0.126658636   1.21668   0.18519  -0.50826  -0.96128
  18   34385.1    290.8   0.067899708   0.65009  -0.46020  -0.32646   0.57596
  19   34544.2    289.5   0.011781558   0.11228   0.06715   0.18144   0.27359
  20   34932.8    286.3   0.145615481   1.37230   0.66934   0.95179   0.13555
  21   35529.1    281.5   0.077711011   0.72007   0.45861   0.69913   0.14478
  22   37657.4    265.6   0.152866459   1.33640  -0.13022   0.16687   1.13649
  23   38315.3    261.0   0.323517999   2.77972  -0.69952  -0.01570   1.51333
  24   38792.3    257.8   0.466785265   3.96139   0.38459   1.22928  -1.51735
  25   39024.7    256.2   0.113737240   0.95949   0.26383   0.90375  -0.27041
  26   39378.0    253.9   0.040835407   0.34140   0.19434  -0.55035  -0.02720
  27   39582.6    252.6   0.118019834   0.98158   0.57373  -0.56566   0.57658
  28   39969.7    250.2   0.003454028   0.02845   0.14234   0.03357   0.08404

FINAL SINGLE POINT ENERGY     -4372.150289538522

DIPOLE MOMENT
-------------
                                X             Y             Z
Electronic contribution:     40.12703     -21.12155      66.38235
Nuclear contribution   :    -39.78298      24.75577     -67.95343
                        -----------------------------------------
Total Dipole Moment    :      0.34405       3.63422      -1.57108
                        -----------------------------------------
Magnitude (a.u.)       :      3.97419
Magnitude (Debye)      :     10.10160

Rotational constants in cm-1:     0.003728     0.000280     0.000276
Rotational constants in MHz :   111.768849     8.396165     8.268222

                             ****ORCA TERMINATED NORMALLY****
TOTAL RUN TIME: 0 days 0 hours 5 minutes 3 seconds 437 msec
