                         Program Version 4.2.0 -  RELEASE  -
|  1> # ORCA input file
|  2> # SCF done       -146.909794555212          0.000524556380
|  3> ! CAM-B3LYP def2-SVP def2/J RIJCOSX Grid4 TightSCF
|  4> %maxcore 5000
|  5> %tddft
|  6>     Mode sTDDFT
|  7>     Ethresh 5.0
|  8>     maxcore 5000
|  9> end
| 10>
| 11> %pal
| 12>   nprocs 6
| 13>   end
| 14> * xyz 0 1
| 15>    C       17.63355        -9.83527         1.61743
| 16>    C       17.13282        -8.92898         0.76692
| 17>    C       17.81539        -7.82037         0.16338
| 18>    C       17.05103        -7.07866        -0.66818
| 19>    C       15.70807        -7.53083        -0.79277
| 20>    S       15.45215        -8.94925         0.20660
| 21>    C       14.70832        -6.98712        -1.56078
| 22>    C       14.75529        -5.82724        -2.37363
| 23>    C       13.57621        -5.53943        -2.98219
| 24>    C       12.51630        -6.43913        -2.68279
| 25>    S       13.10535        -7.70016        -1.61755
| 26>    C       11.25155        -6.34292        -3.20756
| 27>    C       10.10974        -7.14328        -3.01382
| 28>    S        8.99297        -7.19704        -4.37024
| 29>    C        8.07562        -8.44318        -3.61771
| 30>    C        8.54645        -8.78816        -2.39581
| 31>    C        7.91039        -9.82984        -1.53566
| 32>    C        9.68756        -8.01271        -1.99664
| 33>    C       10.18395        -8.07039        -0.66741
| 34>    C       10.86795        -7.07865        -0.02701
| 35>    C       11.36866        -7.19637         1.28203
| 36>    C       12.07067        -6.20195         1.90938
| 37>    C       12.56554        -6.29056         3.21215
| 38>    C       13.22245        -5.27024         3.86442
| 39>    C       13.64490        -5.24847         5.21043
| 40>    C       14.15150        -4.04733         5.61946
| 41>    C       14.14990        -3.05859         4.61797
| 42>    S       13.56987        -3.72439         3.10720
| 43>    C       14.46840        -1.71636         4.75544
| 44>    C       14.86775        -1.04069         5.92197
| 45>    C       15.01243         0.30616         5.75461
| 46>    C       14.72570         0.77792         4.45173
| 47>    S       14.30396        -0.58759         3.42958
| 48>    C       14.86354         2.10376         4.08990
| 49>    C       14.62167         2.81813         2.90883
| 50>    S       15.49082         4.33510         2.76315
| 51>    C       14.86317         4.58112         1.18211
| 52>    C       14.02581         3.59796         0.76728
| 53>    C       13.34664         3.67022        -0.56093
| 54>    C       13.83779         2.57767         1.75918
| 55>    C       12.89940         1.51714         1.73800
| 56>    C       12.28911         0.93637         0.66206
| 57>    C       11.43904        -0.18636         0.72626
| 58>    C       11.10918        -0.89542         1.85389
| 59>    C       10.42868        -2.11201         1.84040
| 60>    C       10.27862        -2.91103         2.95279
| 61>    C        9.78692        -4.23397         2.99648
| 62>    C        9.92082        -4.84312         4.20833
| 63>    C       10.50288        -4.02023         5.19987
| 64>    S       10.82095        -2.42564         4.55273
| 65>    C       10.85295        -4.35536         6.48772
| 66>    C       10.71049        -5.61459         7.12696
| 67>    C       11.17847        -5.65447         8.39571
| 68>    C       11.72487        -4.41457         8.86456
| 69>    S       11.60023        -3.20273         7.57790
| 70>    C       12.25697        -4.15254        10.06710
| 71>    H       18.66165        -9.78565         1.92991
| 72>    H       17.03245       -10.63432         2.01066
| 73>    H       18.85163        -7.63086         0.38132
| 74>    H       17.40028        -6.21446        -1.20519
| 75>    H       15.64904        -5.23815        -2.47350
| 76>    H       13.41814        -4.69584        -3.63160
| 77>    H       11.14002        -5.58741        -3.97866
| 78>    H        7.22540        -8.84651        -4.13246
| 79>    H        7.07840       -10.29321        -2.06000
| 80>    H        7.53760        -9.38747        -0.61233
| 81>    H        8.63347       -10.60261        -1.27695
| 82>    H        9.95164        -8.96742        -0.10928
| 83>    H       11.01685        -6.13137        -0.52802
| 84>    H       11.20935        -8.13267         1.80170
| 85>    H       12.24634        -5.27404         1.37760
| 86>    H       12.40374        -7.20625         3.76636
| 87>    H       13.54069        -6.11127         5.84518
| 88>    H       14.49538        -3.84611         6.61792
| 89>    H       15.02356        -1.55339         6.85374
| 90>    H       15.30003         0.98307         6.54010
| 91>    H       15.32374         2.70724         4.86668
| 92>    H       15.14711         5.46398         0.64274
| 93>    H       13.53257         4.64063        -1.01631
| 94>    H       12.27222         3.53643        -0.44818
| 95>    H       13.72764         2.90161        -1.23254
| 96>    H       12.66291         1.12499         2.71504
| 97>    H       12.51370         1.29058        -0.33142
| 98>    H       11.06829        -0.56194        -0.22024
| 99>    H       11.45057        -0.55225         2.82035
|100>    H       10.06861        -2.50373         0.89745
|101>    H        9.38482        -4.71208         2.12035
|102>    H        9.62722        -5.85723         4.41062
|103>    H       10.26927        -6.45192         6.61531
|104>    H       11.16106        -6.52159         9.03213
|105>    H       12.31170        -4.91694        10.82182
|106>    H       12.63813        -3.17948        10.31651
|107> *
|108>
|109>                          ****END OF INPUT****

CARTESIAN COORDINATES (ANGSTROEM)
---------------------------------
  C     17.633550   -9.835270    1.617430
  C     17.132820   -8.928980    0.766920
  C     17.815390   -7.820370    0.163380
  C     17.051030   -7.078660   -0.668180
  C     15.708070   -7.530830   -0.792770
  S     15.452150   -8.949250    0.206600
  C     14.708320   -6.987120   -1.560780
  C     14.755290   -5.827240   -2.373630
  C     13.576210   -5.539430   -2.982190
  C     12.516300   -6.439130   -2.682790
  S     13.105350   -7.700160   -1.617550
  C     11.251550   -6.342920   -3.207560
  C     10.109740   -7.143280   -3.013820
  S      8.992970   -7.197040   -4.370240
  C      8.075620   -8.443180   -3.617710
  C      8.546450   -8.788160   -2.395810
  C      7.910390   -9.829840   -1.535660
  C      9.687560   -8.012710   -1.996640
  C     10.183950   -8.070390   -0.667410
  C     10.867950   -7.078650   -0.027010
  C     11.368660   -7.196370    1.282030
  C     12.070670   -6.201950    1.909380
  C     12.565540   -6.290560    3.212150
  C     13.222450   -5.270240    3.864420
  C     13.644900   -5.248470    5.210430
  C     14.151500   -4.047330    5.619460
  C     14.149900   -3.058590    4.617970
  S     13.569870   -3.724390    3.107200
  C     14.468400   -1.716360    4.755440
  C     14.867750   -1.040690    5.921970
  C     15.012430    0.306160    5.754610
  C     14.725700    0.777920    4.451730
  S     14.303960   -0.587590    3.429580
  C     14.863540    2.103760    4.089900
  C     14.621670    2.818130    2.908830
  S     15.490820    4.335100    2.763150
  C     14.863170    4.581120    1.182110
  C     14.025810    3.597960    0.767280
  C     13.346640    3.670220   -0.560930
  C     13.837790    2.577670    1.759180
  C     12.899400    1.517140    1.738000
  C     12.289110    0.936370    0.662060
  C     11.439040   -0.186360    0.726260
  C     11.109180   -0.895420    1.853890
  C     10.428680   -2.112010    1.840400
  C     10.278620   -2.911030    2.952790
  C      9.786920   -4.233970    2.996480
  C      9.920820   -4.843120    4.208330
  C     10.502880   -4.020230    5.199870
  S     10.820950   -2.425640    4.552730
  C     10.852950   -4.355360    6.487720
  C     10.710490   -5.614590    7.126960
  C     11.178470   -5.654470    8.395710
  C     11.724870   -4.414570    8.864560
  S     11.600230   -3.202730    7.577900
  C     12.256970   -4.152540   10.067100
  H     18.661650   -9.785650    1.929910
  H     17.032450  -10.634320    2.010660
  H     18.851630   -7.630860    0.381320
  H     17.400280   -6.214460   -1.205190
  H     15.649040   -5.238150   -2.473500
  H     13.418140   -4.695840   -3.631600
  H     11.140020   -5.587410   -3.978660
  H      7.225400   -8.846510   -4.132460
  H      7.078400  -10.293210   -2.060000
  H      7.537600   -9.387470   -0.612330
  H      8.633470  -10.602610   -1.276950
  H      9.951640   -8.967420   -0.109280
  H     11.016850   -6.131370   -0.528020
  H     11.209350   -8.132670    1.801700
  H     12.246340   -5.274040    1.377600
  H     12.403740   -7.206250    3.766360
  H     13.540690   -6.111270    5.845180
  H     14.495380   -3.846110    6.617920
  H     15.023560   -1.553390    6.853740
  H     15.300030    0.983070    6.540100
  H     15.323740    2.707240    4.866680
  H     15.147110    5.463980    0.642740
  H     13.532570    4.640630   -1.016310
  H     12.272220    3.536430   -0.448180
  H     13.727640    2.901610   -1.232540
  H     12.662910    1.124990    2.715040
  H     12.513700    1.290580   -0.331420
  H     11.068290   -0.561940   -0.220240
  H     11.450570   -0.552250    2.820350
  H     10.068610   -2.503730    0.897450
  H      9.384820   -4.712080    2.120350
  H      9.627220   -5.857230    4.410620
  H     10.269270   -6.451920    6.615310
  H     11.161060   -6.521590    9.032130
  H     12.311700   -4.916940   10.821820
  H     12.638130   -3.179480   10.316510

 Total Charge           Charge          ....    0
 Multiplicity           Mult            ....    1
 Number of Electrons    NEL             ....  452
 Basis Dimension        Dim             ....  996

ORBITAL ENERGIES
----------------

  NO   OCC          E(Eh)            E(eV)
   0   2.0000     -88.935346     -2420.0538
   1   2.0000     -88.934903     -2420.0417
   2   2.0000     -88.934797     -2420.0389
   3   2.0000     -88.934696     -2420.0361
   4   2.0000     -88.931060     -2419.9372
   5   2.0000     -88.930463     -2419.9209
   6   2.0000     -88.929577     -2419.8968
   7   2.0000     -88.929386     -2419.8916
   8   2.0000     -10.303034      -280.3598
   9   2.0000     -10.300132      -280.2808
  10   2.0000     -10.298557      -280.2380
  11   2.0000     -10.297719      -280.2152
  12   2.0000     -10.297692      -280.2144
  13   2.0000     -10.297076      -280.1977
  14   2.0000     -10.296574      -280.1840
  15   2.0000     -10.295796      -280.1628
  16   2.0000     -10.295712      -280.1606
  17   2.0000     -10.294274      -280.1214
  18   2.0000     -10.291280      -280.0400
  19   2.0000     -10.291096      -280.0349
  20   2.0000     -10.290947      -280.0309
  21   2.0000     -10.289441      -279.9899
  22   2.0000     -10.282510      -279.8013
  23   2.0000     -10.281457      -279.7727
  24   2.0000     -10.278315      -279.6872
  25   2.0000     -10.276558      -279.6393
  26   2.0000     -10.275907      -279.6217
  27   2.0000     -10.275613      -279.6136
  28   2.0000     -10.274538      -279.5844
  29   2.0000     -10.274446      -279.5819
  30   2.0000     -10.274407      -279.5808
  31   2.0000     -10.273985      -279.5694
  32   2.0000     -10.272424      -279.5269
  33   2.0000     -10.272152      -279.5195
  34   2.0000     -10.269975      -279.4602
  35   2.0000     -10.269813      -279.4558
  36   2.0000     -10.269510      -279.4476
  37   2.0000     -10.268705      -279.4257
  38   2.0000     -10.267451      -279.3915
  39   2.0000     -10.267225      -279.3854
  40   2.0000     -10.266806      -279.3740
  41   2.0000     -10.265311      -279.3333
  42   2.0000     -10.265243      -279.3315
  43   2.0000     -10.264457      -279.3101
  44   2.0000     -10.264084      -279.2999
  45   2.0000     -10.261485      -279.2292
  46   2.0000     -10.261456      -279.2284
  47   2.0000     -10.261420      -279.2274
  48   2.0000     -10.261128      -279.2195
  49   2.0000     -10.260351      -279.1983
  50   2.0000     -10.260166      -279.1933
  51   2.0000     -10.260075      -279.1908
  52   2.0000     -10.259247      -279.1683
  53   2.0000     -10.258863      -279.1578
  54   2.0000     -10.258713      -279.1538
  55   2.0000     -10.258550      -279.1493
  56   2.0000      -8.031732      -218.5545
  57   2.0000      -8.031172      -218.5393
  58   2.0000      -8.030180      -218.5123
  59   2.0000      -8.029993      -218.5072
  60   2.0000      -8.027771      -218.4468
  61   2.0000      -8.026378      -218.4088
  62   2.0000      -8.025012      -218.3717
  63   2.0000      -8.024727      -218.3639
  64   2.0000      -6.001087      -163.2979
  65   2.0000      -6.000556      -163.2834
  66   2.0000      -5.999959      -163.2672
  67   2.0000      -5.999720      -163.2607
  68   2.0000      -5.997619      -163.2035
  69   2.0000      -5.996950      -163.1853
  70   2.0000      -5.996387      -163.1700
  71   2.0000      -5.996215      -163.1653
  72   2.0000      -5.995805      -163.1541
  73   2.0000      -5.995508      -163.1461
  74   2.0000      -5.994749      -163.1254
  75   2.0000      -5.994520      -163.1192
  76   2.0000      -5.993677      -163.0962
  77   2.0000      -5.993632      -163.0950
  78   2.0000      -5.993068      -163.0797
  79   2.0000      -5.992325      -163.0595
  80   2.0000      -5.991222      -163.0294
  81   2.0000      -5.991122      -163.0267
  82   2.0000      -5.990744      -163.0164
  83   2.0000      -5.990558      -163.0114
  84   2.0000      -5.988264      -162.9489
  85   2.0000      -5.987011      -162.9148
  86   2.0000      -5.986043      -162.8885
  87   2.0000      -5.985653      -162.8779
  88   2.0000      -0.983729       -26.7686
  89   2.0000      -0.983418       -26.7602
  90   2.0000      -0.978815       -26.6349
  91   2.0000      -0.969738       -26.3879
  92   2.0000      -0.969336       -26.3770
  93   2.0000      -0.958406       -26.0796
  94   2.0000      -0.957858       -26.0646
  95   2.0000      -0.956164       -26.0185
  96   2.0000      -0.902853       -24.5679
  97   2.0000      -0.902117       -24.5478
  98   2.0000      -0.883202       -24.0332
  99   2.0000      -0.881407       -23.9843
 100   2.0000      -0.876616       -23.8539
 101   2.0000      -0.869102       -23.6495
 102   2.0000      -0.858793       -23.3689
 103   2.0000      -0.856321       -23.3017
 104   2.0000      -0.846548       -23.0357
 105   2.0000      -0.837556       -22.7911
 106   2.0000      -0.834666       -22.7124
 107   2.0000      -0.833810       -22.6891
 108   2.0000      -0.830952       -22.6113
 109   2.0000      -0.822940       -22.3933
 110   2.0000      -0.817826       -22.2542
 111   2.0000      -0.811048       -22.0697
 112   2.0000      -0.807570       -21.9751
 113   2.0000      -0.806126       -21.9358
 114   2.0000      -0.795979       -21.6597
 115   2.0000      -0.787980       -21.4420
 116   2.0000      -0.780039       -21.2259
 117   2.0000      -0.764977       -20.8161
 118   2.0000      -0.750304       -20.4168
 119   2.0000      -0.744874       -20.2691
 120   2.0000      -0.739423       -20.1207
 121   2.0000      -0.719042       -19.5661
 122   2.0000      -0.711786       -19.3687
 123   2.0000      -0.703879       -19.1535
 124   2.0000      -0.685688       -18.6585
 125   2.0000      -0.683061       -18.5870
 126   2.0000      -0.675164       -18.3722
 127   2.0000      -0.664981       -18.0951
 128   2.0000      -0.659635       -17.9496
 129   2.0000      -0.641938       -17.4680
 130   2.0000      -0.641247       -17.4492
 131   2.0000      -0.636374       -17.3166
 132   2.0000      -0.632599       -17.2139
 133   2.0000      -0.625147       -17.0111
 134   2.0000      -0.621442       -16.9103
 135   2.0000      -0.614799       -16.7295
 136   2.0000      -0.611515       -16.6402
 137   2.0000      -0.608436       -16.5564
 138   2.0000      -0.604977       -16.4623
 139   2.0000      -0.603893       -16.4328
 140   2.0000      -0.600608       -16.3434
 141   2.0000      -0.591910       -16.1067
 142   2.0000      -0.590401       -16.0656
 143   2.0000      -0.588328       -16.0092
 144   2.0000      -0.585591       -15.9347
 145   2.0000      -0.579900       -15.7799
 146   2.0000      -0.574862       -15.6428
 147   2.0000      -0.559270       -15.2185
 148   2.0000      -0.554584       -15.0910
 149   2.0000      -0.544679       -14.8215
 150   2.0000      -0.533345       -14.5130
 151   2.0000      -0.529031       -14.3957
 152   2.0000      -0.527950       -14.3662
 153   2.0000      -0.519772       -14.1437
 154   2.0000      -0.516923       -14.0662
 155   2.0000      -0.513117       -13.9626
 156   2.0000      -0.507633       -13.8134
 157   2.0000      -0.504396       -13.7253
 158   2.0000      -0.503019       -13.6878
 159   2.0000      -0.502114       -13.6632
 160   2.0000      -0.501375       -13.6431
 161   2.0000      -0.499392       -13.5891
 162   2.0000      -0.497708       -13.5433
 163   2.0000      -0.494351       -13.4520
 164   2.0000      -0.489831       -13.3290
 165   2.0000      -0.488191       -13.2844
 166   2.0000      -0.486857       -13.2480
 167   2.0000      -0.482952       -13.1418
 168   2.0000      -0.482196       -13.1212
 169   2.0000      -0.480453       -13.0738
 170   2.0000      -0.477615       -12.9966
 171   2.0000      -0.474472       -12.9111
 172   2.0000      -0.471675       -12.8349
 173   2.0000      -0.469154       -12.7663
 174   2.0000      -0.467451       -12.7200
 175   2.0000      -0.460885       -12.5413
 176   2.0000      -0.457960       -12.4617
 177   2.0000      -0.457466       -12.4483
 178   2.0000      -0.454611       -12.3706
 179   2.0000      -0.452419       -12.3109
 180   2.0000      -0.450293       -12.2531
 181   2.0000      -0.448785       -12.2121
 182   2.0000      -0.447133       -12.1671
 183   2.0000      -0.444479       -12.0949
 184   2.0000      -0.442853       -12.0506
 185   2.0000      -0.440226       -11.9792
 186   2.0000      -0.436352       -11.8737
 187   2.0000      -0.433300       -11.7907
 188   2.0000      -0.431370       -11.7382
 189   2.0000      -0.425595       -11.5810
 190   2.0000      -0.421839       -11.4788
 191   2.0000      -0.420240       -11.4353
 192   2.0000      -0.418754       -11.3949
 193   2.0000      -0.416475       -11.3329
 194   2.0000      -0.413417       -11.2497
 195   2.0000      -0.411860       -11.2073
 196   2.0000      -0.410434       -11.1685
 197   2.0000      -0.404597       -11.0097
 198   2.0000      -0.403914       -10.9911
 199   2.0000      -0.400292       -10.8925
 200   2.0000      -0.398981       -10.8568
 201   2.0000      -0.398307       -10.8385
 202   2.0000      -0.391231       -10.6459
 203   2.0000      -0.387135       -10.5345
 204   2.0000      -0.382699       -10.4138
 205   2.0000      -0.378738       -10.3060
 206   2.0000      -0.374994       -10.2041
 207   2.0000      -0.370235       -10.0746
 208   2.0000      -0.352838        -9.6012
 209   2.0000      -0.340264        -9.2590
 210   2.0000      -0.335062        -9.1175
 211   2.0000      -0.328647        -8.9430
 212   2.0000      -0.327743        -8.9183
 213   2.0000      -0.322662        -8.7801
 214   2.0000      -0.314919        -8.5694
 215   2.0000      -0.313152        -8.5213
 216   2.0000      -0.308532        -8.3956
 217   2.0000      -0.305514        -8.3135
 218   2.0000      -0.293127        -7.9764
 219   2.0000      -0.283057        -7.7024
 220   2.0000      -0.279253        -7.5989
 221   2.0000      -0.262244        -7.1360
 222   2.0000      -0.240329        -6.5397
 223   2.0000      -0.213693        -5.8149
 224   2.0000      -0.201974        -5.4960
 225   2.0000      -0.185571        -5.0496
 226   0.0000      -0.076705        -2.0873
 227   0.0000      -0.060241        -1.6393
 228   0.0000      -0.051894        -1.4121
 229   0.0000      -0.017743        -0.4828
 230   0.0000       0.004529         0.1232

MULLIKEN ATOMIC CHARGES
-----------------------
   0 C :   -0.029909
   1 C :   -0.061946
   2 C :    0.051669
   3 C :    0.032343
   4 C :   -0.060883
   5 S :    0.078212
   6 C :   -0.058362
   7 C :    0.026346
   8 C :    0.036658
   9 C :   -0.050626
  10 S :    0.107804
  11 C :    0.003107
  12 C :   -0.181668
  13 S :    0.088647
  14 C :   -0.121097
  15 C :   -0.088965
  16 C :    0.121488
  17 C :    0.153143
  18 C :   -0.076671
  19 C :    0.032228
  20 C :   -0.004988
  21 C :    0.024074
  22 C :   -0.003550
  23 C :   -0.035848
  24 C :    0.051448
  25 C :    0.035207
  26 C :   -0.054496
  27 S :    0.079511
  28 C :   -0.040961
  29 C :    0.036707
  30 C :    0.024753
  31 C :   -0.033987
  32 S :    0.073443
  33 C :   -0.007450
  34 C :   -0.149370
  35 S :    0.092729
  36 C :   -0.114391
  37 C :   -0.098628
  38 C :    0.120521
  39 C :    0.146055
  40 C :   -0.043502
  41 C :    0.004452
  42 C :    0.009584
  43 C :    0.013344
  44 C :    0.000928
  45 C :   -0.040278
  46 C :    0.051805
  47 C :    0.046467
  48 C :   -0.051613
  49 S :    0.067737
  50 C :   -0.056324
  51 C :    0.031979
  52 C :    0.037339
  53 C :   -0.061751
  54 S :    0.062161
  55 C :   -0.039156
  56 H :    0.018325
  57 H :    0.018799
  58 H :   -0.012012
  59 H :   -0.011187
  60 H :   -0.018646
  61 H :   -0.016824
  62 H :   -0.013287
  63 H :    0.010694
  64 H :    0.004954
  65 H :    0.025842
  66 H :    0.028098
  67 H :   -0.028805
  68 H :    0.006531
  69 H :   -0.024328
  70 H :   -0.003196
  71 H :   -0.026964
  72 H :   -0.020631
  73 H :   -0.016923
  74 H :   -0.020237
  75 H :   -0.017844
  76 H :   -0.013961
  77 H :    0.009262
  78 H :    0.000249
  79 H :    0.030267
  80 H :    0.034566
  81 H :   -0.003857
  82 H :   -0.034777
  83 H :   -0.024855
  84 H :    0.010900
  85 H :   -0.021683
  86 H :   -0.015458
  87 H :   -0.024307
  88 H :   -0.017256
  89 H :   -0.017601
  90 H :    0.015653
  91 H :    0.015031
Sum of atomic charges:   -0.0000000

LOEWDIN ATOMIC CHARGES
----------------------
   0 C :   -0.079254
   1 C :   -0.138338
   2 C :   -0.030192
   3 C :   -0.024865
   4 C :   -0.171767
   5 S :    0.349779
   6 C :   -0.182861
   7 C :   -0.044886
   8 C :   -0.032383
   9 C :   -0.157852
  10 S :    0.430230
  11 C :   -0.087258
  12 C :   -0.168734
  13 S :    0.406005
  14 C :   -0.193589
  15 C :   -0.057559
  16 C :   -0.045253
  17 C :   -0.066120
  18 C :   -0.050781
  19 C :   -0.033995
  20 C :   -0.030464
  21 C :   -0.028057
  22 C :   -0.056826
  23 C :   -0.143113
  24 C :   -0.038855
  25 C :   -0.035782
  26 C :   -0.180660
  27 S :    0.385088
  28 C :   -0.183243
  29 C :   -0.035680
  30 C :   -0.040275
  31 C :   -0.152591
  32 S :    0.407742
  33 C :   -0.087307
  34 C :   -0.159467
  35 S :    0.408678
  36 C :   -0.191288
  37 C :   -0.054987
  38 C :   -0.044863
  39 C :   -0.063044
  40 C :   -0.021924
  41 C :   -0.042628
  42 C :   -0.026367
  43 C :   -0.028062
  44 C :   -0.051216
  45 C :   -0.152836
  46 C :   -0.027941
  47 C :   -0.033538
  48 C :   -0.170490
  49 S :    0.382189
  50 C :   -0.184151
  51 C :   -0.025331
  52 C :   -0.045986
  53 C :   -0.139531
  54 S :    0.358262
  55 C :   -0.092655
  56 H :    0.027951
  57 H :    0.025045
  58 H :    0.033125
  59 H :    0.032858
  60 H :    0.029552
  61 H :    0.031410
  62 H :    0.031532
  63 H :    0.019341
  64 H :    0.031661
  65 H :    0.034264
  66 H :    0.033921
  67 H :    0.023213
  68 H :    0.027664
  69 H :    0.023000
  70 H :    0.022033
  71 H :    0.027795
  72 H :    0.029794
  73 H :    0.026997
  74 H :    0.030243
  75 H :    0.030556
  76 H :    0.032101
  77 H :    0.019234
  78 H :    0.030481
  79 H :    0.035194
  80 H :    0.032943
  81 H :    0.020064
  82 H :    0.024666
  83 H :    0.025191
  84 H :    0.013569
  85 H :    0.030403
  86 H :    0.032799
  87 H :    0.027543
  88 H :    0.030649
  89 H :    0.030703
  90 H :    0.026365
  91 H :    0.023011

  Mayer bond orders larger than 0.100000
B(  0-C ,  1-C ) :   1.8640 B(  0-C , 56-H ) :   0.9499 B(  0-C , 57-H ) :   0.9415
B(  1-C ,  2-C ) :   1.0809 B(  1-C ,  5-S ) :   1.0073 B(  2-C ,  3-C ) :   1.6603
B(  2-C , 58-H ) :   0.9926 B(  3-C ,  4-C ) :   1.1523 B(  3-C , 59-H ) :   0.9926
B(  4-C ,  5-S ) :   1.0447 B(  4-C ,  6-C ) :   1.5592 B(  6-C ,  7-C ) :   1.1626
B(  6-C , 10-S ) :   1.0317 B(  7-C ,  8-C ) :   1.6091 B(  7-C , 60-H ) :   0.9916
B(  8-C ,  9-C ) :   1.1302 B(  8-C , 61-H ) :   0.9979 B(  9-C , 10-S ) :   1.0626
B(  9-C , 11-C ) :   1.5934 B( 11-C , 12-C ) :   1.1745 B( 11-C , 62-H ) :   0.9400
B( 12-C , 13-S ) :   1.1151 B( 12-C , 17-C ) :   1.3845 B( 13-S , 14-C ) :   1.1210
B( 14-C , 15-C ) :   1.6208 B( 14-C , 63-H ) :   0.9655 B( 15-C , 16-C ) :   1.0984
B( 15-C , 17-C ) :   1.2042 B( 16-C , 64-H ) :   0.9503 B( 16-C , 65-H ) :   0.9413
B( 16-C , 66-H ) :   0.9426 B( 17-C , 18-C ) :   1.1449 B( 18-C , 19-C ) :   1.5841
B( 18-C , 67-H ) :   0.9635 B( 19-C , 20-C ) :   1.1569 B( 19-C , 68-H ) :   0.9800
B( 20-C , 21-C ) :   1.5768 B( 20-C , 69-H ) :   0.9935 B( 21-C , 22-C ) :   1.1826
B( 21-C , 70-H ) :   0.9633 B( 22-C , 23-C ) :   1.5245 B( 22-C , 71-H ) :   0.9837
B( 23-C , 24-C ) :   1.1716 B( 23-C , 27-S ) :   1.0446 B( 24-C , 25-C ) :   1.5435
B( 24-C , 72-H ) :   0.9958 B( 25-C , 26-C ) :   1.2247 B( 25-C , 73-H ) :   0.9880
B( 26-C , 27-S ) :   1.0525 B( 26-C , 28-C ) :   1.4445 B( 28-C , 29-C ) :   1.2283
B( 28-C , 32-S ) :   1.0445 B( 29-C , 30-C ) :   1.5389 B( 29-C , 74-H ) :   0.9929
B( 30-C , 31-C ) :   1.1777 B( 30-C , 75-H ) :   0.9981 B( 31-C , 32-S ) :   1.0345
B( 31-C , 33-C ) :   1.5528 B( 33-C , 34-C ) :   1.2161 B( 33-C , 76-H ) :   0.9364
B( 34-C , 35-S ) :   1.1191 B( 34-C , 39-C ) :   1.3407 B( 35-S , 36-C ) :   1.1178
B( 36-C , 37-C ) :   1.6221 B( 36-C , 77-H ) :   0.9646 B( 37-C , 38-C ) :   1.1004
B( 37-C , 39-C ) :   1.1987 B( 38-C , 78-H ) :   0.9447 B( 38-C , 79-H ) :   0.9413
B( 38-C , 80-H ) :   0.9395 B( 39-C , 40-C ) :   1.2069 B( 40-C , 41-C ) :   1.5818
B( 40-C , 81-H ) :   0.9400 B( 41-C , 42-C ) :   1.2010 B( 41-C , 82-H ) :   0.9734
B( 42-C , 43-C ) :   1.5700 B( 42-C , 83-H ) :   0.9772 B( 43-C , 44-C ) :   1.2243
B( 43-C , 84-H ) :   0.9573 B( 44-C , 45-C ) :   1.4952 B( 44-C , 85-H ) :   0.9853
B( 45-C , 46-C ) :   1.1683 B( 45-C , 49-S ) :   1.0329 B( 46-C , 47-C ) :   1.5715
B( 46-C , 86-H ) :   0.9919 B( 47-C , 48-C ) :   1.2001 B( 47-C , 87-H ) :   0.9853
B( 48-C , 49-S ) :   1.0573 B( 48-C , 50-C ) :   1.5305 B( 50-C , 51-C ) :   1.1626
B( 50-C , 54-S ) :   1.0396 B( 51-C , 52-C ) :   1.6375 B( 51-C , 88-H ) :   0.9929
B( 52-C , 53-C ) :   1.0847 B( 52-C , 89-H ) :   0.9938 B( 53-C , 54-S ) :   1.0091
B( 53-C , 55-C ) :   1.8540 B( 55-C , 90-H ) :   0.9499 B( 55-C , 91-H ) :   0.9414

-----------------------------------------------------------------------------
         ABSORPTION SPECTRUM VIA TRANSITION ELECTRIC DIPOLE MOMENTS
-----------------------------------------------------------------------------
State   Energy  Wavelength   fosc         T2         TX        TY        TZ
        (cm-1)    (nm)                  (au**2)     (au)      (au)      (au)
-----------------------------------------------------------------------------
   0    9368.1   1067.5   0.324705267  11.41076  -0.92862   2.49771   2.07602
   1   10555.1    947.4   0.034860100   1.08728  -0.33979   0.66559   0.72720
   2   13442.3    743.9   0.226141927   5.53838   0.27103   2.33320  -0.14528
   3   15134.0    660.8   0.195556717   4.25398  -0.19418  -2.05287   0.04491
   4   16114.0    620.6   0.103268380   2.10980   1.30011   0.07039   0.64386
   5   17911.0    558.3   1.099931925  20.21717  -2.17748  -3.47706   1.84005
   6   19239.6    519.8   0.012633771   0.21618  -0.06366  -0.32256   0.32875
   7   20150.0    496.3   0.012493516   0.20412   0.00990   0.28111  -0.35355
   8   20547.0    486.7   0.319384202   5.11730   2.07616   0.71906   0.53836
   9   21907.7    456.5   0.171638806   2.57925  -0.46958   1.53546  -0.03344
  10   23164.2    431.7   0.320293135   4.55205  -1.49269  -0.27183  -1.50001
  11   23586.2    424.0   1.777170388  24.80547   2.67651  -0.50845   4.16932
  12   24851.1    402.4   0.256950260   3.40392  -0.90729  -0.67856  -1.45612
  13   25592.5    390.7   0.083760602   1.07747   0.57062   0.77922   0.38035
  14   26232.7    381.2   0.039603291   0.49701  -0.43209   0.37308  -0.41366
  15   27913.3    358.3   0.100170171   1.18142   0.30075  -0.46237   0.93658
  16   28385.4    352.3   0.349663570   4.05538   0.28180  -1.54205   1.26414
  17   28604.8    349.6   0.016956263   0.19515   0.20665  -0.07552   0.38307
  18   29017.0    344.6   0.041908942   0.47548  -0.31951  -0.60001  -0.11564
  19   29281.8    341.5   0.079006292   0.88826   0.29036  -0.59467   0.67106
  20   30521.2    327.6   0.189116579   2.03987  -0.13022  -1.18235   0.79054
  21   30718.6    325.5   0.361923458   3.87875   1.14582   1.28361   0.95822
  22   31135.4    321.2   0.027615755   0.29200  -0.11092  -0.51367   0.12583
  23   31230.9    320.2   0.071595443   0.75470  -0.59239  -0.32724  -0.54470
  24   31764.7    314.8   0.026160166   0.27113  -0.43294  -0.21599  -0.19246
  25   32612.0    306.6   0.013368768   0.13496  -0.05570   0.35550  -0.07398
  26   32865.1    304.3   0.015546335   0.15573  -0.37460  -0.06806  -0.10379
  27   32992.1    303.1   0.010793085   0.10770  -0.17266  -0.02252  -0.27817
  28   33041.7    302.6   0.052550830   0.52359   0.28324  -0.26238   0.61198
  29   33493.0    298.6   0.031044587   0.30515   0.41416   0.33334   0.15002
  30   33650.5    297.2   0.010915209   0.10679  -0.11974   0.14364  -0.26799
  31   34056.6    293.6   0.009729436   0.09405  -0.06156  -0.01740   0.29993
  32   34406.7    290.6   0.071351987   0.68271   0.49210   0.63832  -0.18195
  33   34636.8    288.7   0.008079227   0.07679   0.24957   0.05809   0.10552
  34   34868.1    286.8   0.021520735   0.20319  -0.22789  -0.11364  -0.37194
  35   35040.3    285.4   0.037502743   0.35235  -0.32105  -0.46843   0.17278
  36   35119.5    284.7   0.006474078   0.06069  -0.18669  -0.08475   0.13657
  37   35573.0    281.1   0.017854332   0.16523   0.19933   0.34026  -0.09861
  38   35650.4    280.5   0.023329536   0.21544   0.16415   0.18652   0.39205
  39   35790.7    279.4   0.050714445   0.46648   0.66767   0.10931   0.09353
  40   36316.2    275.4   0.003883824   0.03521  -0.18542   0.02790  -0.00697
  41   36427.1    274.5   0.026353797   0.23817  -0.21506  -0.28854  -0.32964
  42   37011.7    270.2   0.008319176   0.07400  -0.18854  -0.18238   0.07202
  43   37058.9    269.8   0.024292133   0.21580   0.33154   0.28838   0.15073
  44   37299.9    268.1   0.025437100   0.22451   0.31440   0.11225   0.33625
  45   37452.3    267.0   0.052597474   0.46234   0.05271   0.55148  -0.39425
  46   37623.8    265.8   0.014348726   0.12555   0.33002   0.03370  -0.12452
  47   37929.9    263.6   0.011433154   0.09923  -0.04938  -0.29579  -0.09645
  48   38214.1    261.7   0.140150385   1.20739  -0.68388   0.13196  -0.84987
  49   38569.0    259.3   0.017204060   0.14685   0.36912   0.08118   0.06330
  50   38628.5    258.9   0.041989110   0.35785   0.38971  -0.24581   0.38151
  51   38846.9    257.4   0.050199906   0.42542   0.21418  -0.18720   0.58695
  52   38998.0    256.4   0.130515455   1.10178  -0.73064  -0.42648  -0.62134
  53   39113.3    255.7   0.047491146   0.39973  -0.39562  -0.24901  -0.42568
  54   39491.2    253.2   0.021036362   0.17537  -0.09334  -0.25008  -0.32267
  55   39729.0    251.7   0.037650655   0.31199   0.05439  -0.52662   0.17804
  56   39947.3    250.3   0.012890213   0.10623   0.19367   0.23481   0.11656
  57   40007.5    250.0   0.055280785   0.45489  -0.54405  -0.39662  -0.03994
  58   40255.2    248.4   0.021977638   0.17974  -0.02305   0.32949  -0.26578

FINAL SINGLE POINT ENERGY     -5032.711053569669

DIPOLE MOMENT
-------------
                                X             Y             Z
Electronic contribution:      7.81809       7.62743       1.83079
Nuclear contribution   :     -7.38591      -8.29562      -1.62633
                        -----------------------------------------
Total Dipole Moment    :      0.43218      -0.66819       0.20446
                        -----------------------------------------
Magnitude (a.u.)       :      0.82162
Magnitude (Debye)      :      2.08839

Rotational constants in cm-1:     0.001398     0.000781     0.000685
Rotational constants in MHz :    41.915795    23.420746    20.528359

                             ****ORCA TERMINATED NORMALLY****
TOTAL RUN TIME: 0 days 0 hours 19 minutes 27 seconds 144 msec
