                         Program Version 4.2.0 -  RELEASE  -
|  1> # ORCA input file
|  2> # SCF done       -161.418751306856          0.000364390388
|  3> ! CAM-B3LYP def2-SVP def2/J RIJCOSX Grid4 TightSCF
|  4> %maxcore 5000
|  5> %tddft
|  6>     Mode sTDDFT
|  7>     Ethresh 5.0
|  8>     maxcore 5000
|  9> end
| 10>
| 11> %pal
| 12>   nprocs 6
| 13>   end
| 14> * xyz 0 1
| 15>    C        6.30382       -16.56106        -3.45539
| 16>    C        6.46262       -15.86078        -2.32439
| 17>    C        6.82782       -16.35456        -1.02740
| 18>    C        6.90736       -15.40484        -0.06916
| 19>    C        6.61077       -14.08853        -0.52006
| 20>    S        6.23427       -14.10638        -2.23163
| 21>    C        6.60003       -12.92657         0.21445
| 22>    C        6.93132       -12.75009         1.58078
| 23>    C        6.85088       -11.45990         2.00222
| 24>    C        6.44588       -10.54332         0.99834
| 25>    S        6.15186       -11.39070        -0.50591
| 26>    C        6.32962        -9.18008         1.11685
| 27>    C        5.93290        -8.35738         0.05429
| 28>    O        5.52187        -8.92574        -1.11835
| 29>    C        5.90724        -6.97867        -0.10702
| 30>    C        6.18047        -5.70941         0.55840
| 31>    O        6.56770        -5.45734         1.67281
| 32>    N        5.89964        -4.75938        -0.42392
| 33>    C        5.49810        -5.28017        -1.65321
| 34>    O        5.25328        -4.61733        -2.63295
| 35>    C        5.49308        -6.72133        -1.43492
| 36>    C        5.25127        -7.95289        -2.03771
| 37>    C        4.83750        -8.33145        -3.32057
| 38>    C        4.68858        -7.43753        -4.35163
| 39>    C        4.33182        -7.79872        -5.64829
| 40>    C        4.36301        -6.91319        -6.71126
| 41>    C        3.96742        -7.13936        -8.04501
| 42>    C        4.14663        -6.06199        -8.87094
| 43>    C        4.71941        -4.95238        -8.22575
| 44>    S        4.98951        -5.29305        -6.53631
| 45>    C        5.08842        -3.71540        -8.74239
| 46>    C        4.84975        -3.15958       -10.01182
| 47>    C        5.33540        -1.88744       -10.15046
| 48>    C        5.99386        -1.39551        -9.00321
| 49>    S        5.97948        -2.60167        -7.73951
| 50>    C        6.56547        -0.15190        -8.81477
| 51>    C        7.21477         0.19602        -7.63051
| 52>    O        7.37839        -0.74256        -6.65056
| 53>    C        7.77267         1.38921        -7.17210
| 54>    C        8.02743         2.78513        -7.52300
| 55>    O        7.77783         3.41652        -8.51898
| 56>    N        8.67036         3.29295        -6.39350
| 57>    C        8.85774         2.37894        -5.35665
| 58>    O        9.39257         2.62600        -4.30556
| 59>    C        8.26691         1.14534        -5.87697
| 60>    C        8.01753        -0.19307        -5.57644
| 61>    C        8.32935        -0.96187        -4.44918
| 62>    C        8.12541        -2.31935        -4.36764
| 63>    C        8.44677        -3.06798        -3.23755
| 64>    C        8.36267        -4.44091        -3.13175
| 65>    C        8.64960        -5.19714        -1.97136
| 66>    C        8.50063        -6.54209        -2.12683
| 67>    C        8.10790        -6.92648        -3.43039
| 68>    S        7.91549        -5.51017        -4.44245
| 69>    C        7.87944        -8.20924        -3.88226
| 70>    C        7.94267        -9.40836        -3.11544
| 71>    C        7.62052       -10.52723        -3.79910
| 72>    C        7.29043       -10.29871        -5.17658
| 73>    S        7.45720        -8.57026        -5.53859
| 74>    C        6.90366       -11.20443        -6.08447
| 75>    H        6.45197       -17.62620        -3.46645
| 76>    H        6.02378       -16.08912        -4.37921
| 77>    H        7.01171       -17.40294        -0.87293
| 78>    H        7.16375       -15.59825         0.95734
| 79>    H        7.22762       -13.57284         2.20664
| 80>    H        7.07082       -11.12734         3.00120
| 81>    H        6.57647        -8.69623         2.04857
| 82>    H        5.99439        -3.76711        -0.26416
| 83>    H        4.68168        -9.38926        -3.48230
| 84>    H        4.89913        -6.39296        -4.15890
| 85>    H        4.02828        -8.81809        -5.84794
| 86>    H        3.55529        -8.08237        -8.35890
| 87>    H        3.90018        -6.05160        -9.91767
| 88>    H        4.31551        -3.68997       -10.77991
| 89>    H        5.23873        -1.29156       -11.04069
| 90>    H        6.50749         0.59520        -9.59002
| 91>    H        8.97825         4.25251        -6.33178
| 92>    H        8.78224        -0.42491        -3.62827
| 93>    H        7.70537        -2.83578        -5.22107
| 94>    H        8.80015        -2.53780        -2.36160
| 95>    H        8.94937        -4.72466        -1.05205
| 96>    H        8.67856        -7.26064        -1.34652
| 97>    H        8.21102        -9.39521        -2.07424
| 98>    H        7.58428       -11.51723        -3.38074
| 99>    H        6.81508       -12.24214        -5.81504
|100>    H        6.67429       -10.92889        -7.09749
|101> *
|102>
|103>                          ****END OF INPUT****

CARTESIAN COORDINATES (ANGSTROEM)
---------------------------------
  C      6.303820  -16.561060   -3.455390
  C      6.462620  -15.860780   -2.324390
  C      6.827820  -16.354560   -1.027400
  C      6.907360  -15.404840   -0.069160
  C      6.610770  -14.088530   -0.520060
  S      6.234270  -14.106380   -2.231630
  C      6.600030  -12.926570    0.214450
  C      6.931320  -12.750090    1.580780
  C      6.850880  -11.459900    2.002220
  C      6.445880  -10.543320    0.998340
  S      6.151860  -11.390700   -0.505910
  C      6.329620   -9.180080    1.116850
  C      5.932900   -8.357380    0.054290
  O      5.521870   -8.925740   -1.118350
  C      5.907240   -6.978670   -0.107020
  C      6.180470   -5.709410    0.558400
  O      6.567700   -5.457340    1.672810
  N      5.899640   -4.759380   -0.423920
  C      5.498100   -5.280170   -1.653210
  O      5.253280   -4.617330   -2.632950
  C      5.493080   -6.721330   -1.434920
  C      5.251270   -7.952890   -2.037710
  C      4.837500   -8.331450   -3.320570
  C      4.688580   -7.437530   -4.351630
  C      4.331820   -7.798720   -5.648290
  C      4.363010   -6.913190   -6.711260
  C      3.967420   -7.139360   -8.045010
  C      4.146630   -6.061990   -8.870940
  C      4.719410   -4.952380   -8.225750
  S      4.989510   -5.293050   -6.536310
  C      5.088420   -3.715400   -8.742390
  C      4.849750   -3.159580  -10.011820
  C      5.335400   -1.887440  -10.150460
  C      5.993860   -1.395510   -9.003210
  S      5.979480   -2.601670   -7.739510
  C      6.565470   -0.151900   -8.814770
  C      7.214770    0.196020   -7.630510
  O      7.378390   -0.742560   -6.650560
  C      7.772670    1.389210   -7.172100
  C      8.027430    2.785130   -7.523000
  O      7.777830    3.416520   -8.518980
  N      8.670360    3.292950   -6.393500
  C      8.857740    2.378940   -5.356650
  O      9.392570    2.626000   -4.305560
  C      8.266910    1.145340   -5.876970
  C      8.017530   -0.193070   -5.576440
  C      8.329350   -0.961870   -4.449180
  C      8.125410   -2.319350   -4.367640
  C      8.446770   -3.067980   -3.237550
  C      8.362670   -4.440910   -3.131750
  C      8.649600   -5.197140   -1.971360
  C      8.500630   -6.542090   -2.126830
  C      8.107900   -6.926480   -3.430390
  S      7.915490   -5.510170   -4.442450
  C      7.879440   -8.209240   -3.882260
  C      7.942670   -9.408360   -3.115440
  C      7.620520  -10.527230   -3.799100
  C      7.290430  -10.298710   -5.176580
  S      7.457200   -8.570260   -5.538590
  C      6.903660  -11.204430   -6.084470
  H      6.451970  -17.626200   -3.466450
  H      6.023780  -16.089120   -4.379210
  H      7.011710  -17.402940   -0.872930
  H      7.163750  -15.598250    0.957340
  H      7.227620  -13.572840    2.206640
  H      7.070820  -11.127340    3.001200
  H      6.576470   -8.696230    2.048570
  H      5.994390   -3.767110   -0.264160
  H      4.681680   -9.389260   -3.482300
  H      4.899130   -6.392960   -4.158900
  H      4.028280   -8.818090   -5.847940
  H      3.555290   -8.082370   -8.358900
  H      3.900180   -6.051600   -9.917670
  H      4.315510   -3.689970  -10.779910
  H      5.238730   -1.291560  -11.040690
  H      6.507490    0.595200   -9.590020
  H      8.978250    4.252510   -6.331780
  H      8.782240   -0.424910   -3.628270
  H      7.705370   -2.835780   -5.221070
  H      8.800150   -2.537800   -2.361600
  H      8.949370   -4.724660   -1.052050
  H      8.678560   -7.260640   -1.346520
  H      8.211020   -9.395210   -2.074240
  H      7.584280  -11.517230   -3.380740
  H      6.815080  -12.242140   -5.815040
  H      6.674290  -10.928890   -7.097490

 Total Charge           Charge          ....    0
 Multiplicity           Mult            ....    1
 Number of Electrons    NEL             ....  460
 Basis Dimension        Dim             ....  994

ORBITAL ENERGIES
----------------

  NO   OCC          E(Eh)            E(eV)
   0   2.0000     -88.949499     -2420.4389
   1   2.0000     -88.949132     -2420.4289
   2   2.0000     -88.944646     -2420.3069
   3   2.0000     -88.943109     -2420.2650
   4   2.0000     -88.940948     -2420.2062
   5   2.0000     -88.938465     -2420.1387
   6   2.0000     -19.298003      -525.1254
   7   2.0000     -19.292641      -524.9794
   8   2.0000     -19.198440      -522.4161
   9   2.0000     -19.197894      -522.4013
  10   2.0000     -19.195856      -522.3458
  11   2.0000     -19.195654      -522.3403
  12   2.0000     -14.441580      -392.9754
  13   2.0000     -14.438297      -392.8860
  14   2.0000     -10.386847      -282.6405
  15   2.0000     -10.385493      -282.6036
  16   2.0000     -10.384782      -282.5843
  17   2.0000     -10.384631      -282.5802
  18   2.0000     -10.349937      -281.6361
  19   2.0000     -10.348529      -281.5978
  20   2.0000     -10.346671      -281.5472
  21   2.0000     -10.345358      -281.5115
  22   2.0000     -10.319191      -280.7994
  23   2.0000     -10.317496      -280.7533
  24   2.0000     -10.315332      -280.6945
  25   2.0000     -10.311085      -280.5789
  26   2.0000     -10.309934      -280.5476
  27   2.0000     -10.309845      -280.5452
  28   2.0000     -10.309050      -280.5235
  29   2.0000     -10.305547      -280.4282
  30   2.0000     -10.305319      -280.4220
  31   2.0000     -10.305083      -280.4156
  32   2.0000     -10.305081      -280.4155
  33   2.0000     -10.304742      -280.4063
  34   2.0000     -10.297261      -280.2027
  35   2.0000     -10.294715      -280.1334
  36   2.0000     -10.293230      -280.0930
  37   2.0000     -10.289925      -280.0031
  38   2.0000     -10.287837      -279.9463
  39   2.0000     -10.287214      -279.9293
  40   2.0000     -10.286511      -279.9102
  41   2.0000     -10.285060      -279.8707
  42   2.0000     -10.284148      -279.8459
  43   2.0000     -10.284082      -279.8441
  44   2.0000     -10.283470      -279.8274
  45   2.0000     -10.283035      -279.8156
  46   2.0000     -10.279678      -279.7243
  47   2.0000     -10.278845      -279.7016
  48   2.0000     -10.278132      -279.6822
  49   2.0000     -10.277891      -279.6756
  50   2.0000     -10.277377      -279.6616
  51   2.0000     -10.277243      -279.6580
  52   2.0000     -10.277187      -279.6565
  53   2.0000     -10.276759      -279.6448
  54   2.0000     -10.276583      -279.6400
  55   2.0000     -10.275902      -279.6215
  56   2.0000     -10.275509      -279.6108
  57   2.0000     -10.274932      -279.5951
  58   2.0000     -10.273142      -279.5464
  59   2.0000     -10.270446      -279.4730
  60   2.0000      -8.045740      -218.9357
  61   2.0000      -8.044563      -218.9037
  62   2.0000      -8.039943      -218.7780
  63   2.0000      -8.039282      -218.7600
  64   2.0000      -8.036732      -218.6906
  65   2.0000      -8.034119      -218.6195
  66   2.0000      -6.015575      -163.6921
  67   2.0000      -6.014447      -163.6614
  68   2.0000      -6.011626      -163.5847
  69   2.0000      -6.010134      -163.5441
  70   2.0000      -6.009727      -163.5330
  71   2.0000      -6.008831      -163.5086
  72   2.0000      -6.006397      -163.4424
  73   2.0000      -6.006372      -163.4417
  74   2.0000      -6.005433      -163.4161
  75   2.0000      -6.005273      -163.4118
  76   2.0000      -6.004795      -163.3988
  77   2.0000      -6.003952      -163.3758
  78   2.0000      -6.002438      -163.3346
  79   2.0000      -6.001196      -163.3008
  80   2.0000      -6.000483      -163.2814
  81   2.0000      -6.000011      -163.2686
  82   2.0000      -5.997720      -163.2063
  83   2.0000      -5.994817      -163.1273
  84   2.0000      -1.213834       -33.0301
  85   2.0000      -1.209517       -32.9126
  86   2.0000      -1.141674       -31.0665
  87   2.0000      -1.139480       -31.0068
  88   2.0000      -1.120730       -30.4966
  89   2.0000      -1.118820       -30.4447
  90   2.0000      -1.029147       -28.0045
  91   2.0000      -1.026952       -27.9448
  92   2.0000      -0.999752       -27.2046
  93   2.0000      -0.995761       -27.0960
  94   2.0000      -0.989799       -26.9338
  95   2.0000      -0.977598       -26.6018
  96   2.0000      -0.973974       -26.5032
  97   2.0000      -0.966854       -26.3094
  98   2.0000      -0.923441       -25.1281
  99   2.0000      -0.918689       -24.9988
 100   2.0000      -0.911067       -24.7914
 101   2.0000      -0.908165       -24.7124
 102   2.0000      -0.901330       -24.5264
 103   2.0000      -0.893822       -24.3221
 104   2.0000      -0.879941       -23.9444
 105   2.0000      -0.872635       -23.7456
 106   2.0000      -0.861922       -23.4541
 107   2.0000      -0.852517       -23.1982
 108   2.0000      -0.848719       -23.0948
 109   2.0000      -0.844626       -22.9834
 110   2.0000      -0.840515       -22.8716
 111   2.0000      -0.828840       -22.5539
 112   2.0000      -0.823620       -22.4118
 113   2.0000      -0.820595       -22.3295
 114   2.0000      -0.816255       -22.2114
 115   2.0000      -0.809196       -22.0193
 116   2.0000      -0.795386       -21.6436
 117   2.0000      -0.779798       -21.2194
 118   2.0000      -0.766960       -20.8700
 119   2.0000      -0.759041       -20.6545
 120   2.0000      -0.753970       -20.5166
 121   2.0000      -0.750590       -20.4246
 122   2.0000      -0.746507       -20.3135
 123   2.0000      -0.736750       -20.0480
 124   2.0000      -0.724978       -19.7276
 125   2.0000      -0.712251       -19.3813
 126   2.0000      -0.695612       -18.9286
 127   2.0000      -0.689835       -18.7714
 128   2.0000      -0.688460       -18.7339
 129   2.0000      -0.681707       -18.5502
 130   2.0000      -0.680361       -18.5136
 131   2.0000      -0.661995       -18.0138
 132   2.0000      -0.659224       -17.9384
 133   2.0000      -0.648126       -17.6364
 134   2.0000      -0.639050       -17.3894
 135   2.0000      -0.631687       -17.1891
 136   2.0000      -0.629695       -17.1349
 137   2.0000      -0.622668       -16.9437
 138   2.0000      -0.618906       -16.8413
 139   2.0000      -0.616408       -16.7733
 140   2.0000      -0.614614       -16.7245
 141   2.0000      -0.612049       -16.6547
 142   2.0000      -0.608298       -16.5526
 143   2.0000      -0.605809       -16.4849
 144   2.0000      -0.596491       -16.2313
 145   2.0000      -0.586146       -15.9498
 146   2.0000      -0.584225       -15.8976
 147   2.0000      -0.581393       -15.8205
 148   2.0000      -0.577462       -15.7135
 149   2.0000      -0.575881       -15.6705
 150   2.0000      -0.573481       -15.6052
 151   2.0000      -0.569871       -15.5070
 152   2.0000      -0.568684       -15.4747
 153   2.0000      -0.557250       -15.1635
 154   2.0000      -0.552493       -15.0341
 155   2.0000      -0.547013       -14.8850
 156   2.0000      -0.545932       -14.8556
 157   2.0000      -0.540290       -14.7020
 158   2.0000      -0.534559       -14.5461
 159   2.0000      -0.532937       -14.5020
 160   2.0000      -0.531969       -14.4756
 161   2.0000      -0.529049       -14.3962
 162   2.0000      -0.526034       -14.3141
 163   2.0000      -0.520332       -14.1590
 164   2.0000      -0.516549       -14.0560
 165   2.0000      -0.512800       -13.9540
 166   2.0000      -0.508031       -13.8242
 167   2.0000      -0.506138       -13.7727
 168   2.0000      -0.504943       -13.7402
 169   2.0000      -0.501793       -13.6545
 170   2.0000      -0.501094       -13.6354
 171   2.0000      -0.498955       -13.5772
 172   2.0000      -0.497360       -13.5339
 173   2.0000      -0.495137       -13.4734
 174   2.0000      -0.493558       -13.4304
 175   2.0000      -0.493238       -13.4217
 176   2.0000      -0.492440       -13.4000
 177   2.0000      -0.490741       -13.3537
 178   2.0000      -0.488267       -13.2864
 179   2.0000      -0.481554       -13.1038
 180   2.0000      -0.476989       -12.9795
 181   2.0000      -0.473430       -12.8827
 182   2.0000      -0.472267       -12.8510
 183   2.0000      -0.468632       -12.7521
 184   2.0000      -0.467856       -12.7310
 185   2.0000      -0.466199       -12.6859
 186   2.0000      -0.463949       -12.6247
 187   2.0000      -0.462695       -12.5906
 188   2.0000      -0.460200       -12.5227
 189   2.0000      -0.455617       -12.3980
 190   2.0000      -0.453486       -12.3400
 191   2.0000      -0.451187       -12.2774
 192   2.0000      -0.447813       -12.1856
 193   2.0000      -0.445673       -12.1274
 194   2.0000      -0.436835       -11.8869
 195   2.0000      -0.431867       -11.7517
 196   2.0000      -0.427583       -11.6351
 197   2.0000      -0.424243       -11.5442
 198   2.0000      -0.420992       -11.4558
 199   2.0000      -0.416583       -11.3358
 200   2.0000      -0.414252       -11.2724
 201   2.0000      -0.412228       -11.2173
 202   2.0000      -0.403174       -10.9709
 203   2.0000      -0.397672       -10.8212
 204   2.0000      -0.395125       -10.7519
 205   2.0000      -0.386810       -10.5256
 206   2.0000      -0.382227       -10.4009
 207   2.0000      -0.376875       -10.2553
 208   2.0000      -0.369463       -10.0536
 209   2.0000      -0.365389        -9.9427
 210   2.0000      -0.357885        -9.7385
 211   2.0000      -0.355914        -9.6849
 212   2.0000      -0.354959        -9.6589
 213   2.0000      -0.349731        -9.5167
 214   2.0000      -0.346362        -9.4250
 215   2.0000      -0.344754        -9.3812
 216   2.0000      -0.336862        -9.1665
 217   2.0000      -0.334764        -9.1094
 218   2.0000      -0.333421        -9.0729
 219   2.0000      -0.330484        -8.9929
 220   2.0000      -0.328813        -8.9475
 221   2.0000      -0.322065        -8.7638
 222   2.0000      -0.320493        -8.7210
 223   2.0000      -0.317908        -8.6507
 224   2.0000      -0.302726        -8.2376
 225   2.0000      -0.292441        -7.9577
 226   2.0000      -0.264018        -7.1843
 227   2.0000      -0.230674        -6.2770
 228   2.0000      -0.216289        -5.8855
 229   2.0000      -0.196636        -5.3507
 230   0.0000      -0.094924        -2.5830
 231   0.0000      -0.076666        -2.0862
 232   0.0000      -0.073909        -2.0112
 233   0.0000      -0.031860        -0.8670
 234   0.0000      -0.016132        -0.4390

MULLIKEN ATOMIC CHARGES
-----------------------
   0 C :   -0.025095
   1 C :   -0.065818
   2 C :    0.053645
   3 C :    0.032649
   4 C :   -0.064400
   5 S :    0.077636
   6 C :   -0.052213
   7 C :    0.035494
   8 C :    0.032383
   9 C :   -0.014794
  10 S :    0.098677
  11 C :   -0.052530
  12 C :    0.075494
  13 O :   -0.247032
  14 C :   -0.035029
  15 C :    0.142800
  16 O :   -0.151719
  17 N :   -0.168154
  18 C :    0.176185
  19 O :   -0.154917
  20 C :   -0.049772
  21 C :    0.142859
  22 C :   -0.014025
  23 C :   -0.019438
  24 C :    0.017304
  25 C :   -0.025302
  26 C :    0.033832
  27 C :    0.024299
  28 C :   -0.041666
  29 S :    0.105560
  30 C :   -0.037139
  31 C :    0.027750
  32 C :    0.025943
  33 C :   -0.012296
  34 S :    0.107110
  35 C :   -0.043268
  36 C :    0.098884
  37 O :   -0.254126
  38 C :   -0.025094
  39 C :    0.152635
  40 O :   -0.148967
  41 N :   -0.168592
  42 C :    0.154003
  43 O :   -0.147677
  44 C :   -0.035132
  45 C :    0.124904
  46 C :   -0.062111
  47 C :    0.043661
  48 C :   -0.024705
  49 C :   -0.002061
  50 C :    0.016643
  51 C :    0.044465
  52 C :   -0.065189
  53 S :    0.105617
  54 C :   -0.094211
  55 C :    0.064258
  56 C :    0.048131
  57 C :   -0.067041
  58 S :    0.096421
  59 C :   -0.031576
  60 H :    0.024926
  61 H :    0.022563
  62 H :   -0.007124
  63 H :   -0.008667
  64 H :   -0.012102
  65 H :   -0.007762
  66 H :    0.005887
  67 H :    0.132038
  68 H :   -0.010013
  69 H :    0.045973
  70 H :   -0.016140
  71 H :   -0.014964
  72 H :   -0.013463
  73 H :   -0.014048
  74 H :   -0.008762
  75 H :    0.006029
  76 H :    0.133737
  77 H :    0.006130
  78 H :    0.011464
  79 H :   -0.015511
  80 H :   -0.009188
  81 H :   -0.007539
  82 H :   -0.013968
  83 H :   -0.025340
  84 H :    0.019553
  85 H :    0.018135
Sum of atomic charges:   -0.0000000

LOEWDIN ATOMIC CHARGES
----------------------
   0 C :   -0.069700
   1 C :   -0.140011
   2 C :   -0.027499
   3 C :   -0.026026
   4 C :   -0.171085
   5 S :    0.353308
   6 C :   -0.189596
   7 C :   -0.025164
   8 C :   -0.035857
   9 C :   -0.133547
  10 S :    0.396595
  11 C :   -0.082844
  12 C :    0.052898
  13 O :   -0.003179
  14 C :   -0.100283
  15 C :    0.078674
  16 O :   -0.173152
  17 N :   -0.002447
  18 C :    0.082781
  19 O :   -0.166362
  20 C :   -0.104526
  21 C :    0.070453
  22 C :   -0.052483
  23 C :   -0.005545
  24 C :   -0.056084
  25 C :   -0.143478
  26 C :   -0.036443
  27 C :   -0.033415
  28 C :   -0.173727
  29 S :    0.414808
  30 C :   -0.185322
  31 C :   -0.031613
  32 C :   -0.037702
  33 C :   -0.137763
  34 S :    0.418864
  35 C :   -0.075756
  36 C :    0.060782
  37 O :   -0.010010
  38 C :   -0.095125
  39 C :    0.082754
  40 O :   -0.167116
  41 N :   -0.011277
  42 C :    0.083613
  43 O :   -0.165383
  44 C :   -0.094741
  45 C :    0.068555
  46 C :   -0.051745
  47 C :   -0.001106
  48 C :   -0.058141
  49 C :   -0.134739
  50 C :   -0.044933
  51 C :   -0.026317
  52 C :   -0.185373
  53 S :    0.399466
  54 C :   -0.175464
  55 C :   -0.024021
  56 C :   -0.034228
  57 C :   -0.137863
  58 S :    0.387333
  59 C :   -0.080006
  60 H :    0.030788
  61 H :    0.026736
  62 H :    0.035160
  63 H :    0.033816
  64 H :    0.031957
  65 H :    0.035435
  66 H :    0.048738
  67 H :    0.090727
  68 H :    0.036316
  69 H :    0.024791
  70 H :    0.031178
  71 H :    0.032546
  72 H :    0.031971
  73 H :    0.031496
  74 H :    0.034423
  75 H :    0.048878
  76 H :    0.091773
  77 H :    0.043481
  78 H :    0.025161
  79 H :    0.032983
  80 H :    0.032915
  81 H :    0.032043
  82 H :    0.028570
  83 H :    0.022524
  84 H :    0.028447
  85 H :    0.024455

  Mayer bond orders larger than 0.100000
B(  0-C ,  1-C ) :   1.8649 B(  0-C , 60-H ) :   0.9506 B(  0-C , 61-H ) :   0.9420
B(  1-C ,  2-C ) :   1.0804 B(  1-C ,  5-S ) :   1.0055 B(  2-C ,  3-C ) :   1.6586
B(  2-C , 62-H ) :   0.9931 B(  3-C ,  4-C ) :   1.1547 B(  3-C , 63-H ) :   0.9916
B(  4-C ,  5-S ) :   1.0483 B(  4-C ,  6-C ) :   1.5542 B(  6-C ,  7-C ) :   1.1740
B(  6-C , 10-S ) :   1.0147 B(  7-C ,  8-C ) :   1.6002 B(  7-C , 64-H ) :   0.9934
B(  8-C ,  9-C ) :   1.1380 B(  8-C , 65-H ) :   1.0005 B(  9-C , 10-S ) :   1.0578
B(  9-C , 11-C ) :   1.5267 B( 11-C , 12-C ) :   1.2277 B( 11-C , 66-H ) :   0.9681
B( 12-C , 13-O ) :   1.1085 B( 12-C , 14-C ) :   1.3496 B( 13-O , 21-C ) :   1.0893
B( 14-C , 15-C ) :   0.8919 B( 14-C , 20-C ) :   1.2770 B( 15-C , 16-O ) :   2.2643
B( 15-C , 17-N ) :   1.0709 B( 17-N , 18-C ) :   1.0785 B( 17-N , 67-H ) :   0.9176
B( 18-C , 19-O ) :   2.1606 B( 18-C , 20-C ) :   0.9059 B( 20-C , 21-C ) :   1.3701
B( 21-C , 22-C ) :   1.2170 B( 22-C , 23-C ) :   1.5096 B( 22-C , 68-H ) :   0.9700
B( 23-C , 24-C ) :   1.2166 B( 23-C , 69-H ) :   0.9553 B( 24-C , 25-C ) :   1.4587
B( 24-C , 70-H ) :   0.9887 B( 25-C , 26-C ) :   1.1938 B( 25-C , 29-S ) :   1.0719
B( 26-C , 27-C ) :   1.5186 B( 26-C , 71-H ) :   1.0006 B( 27-C , 28-C ) :   1.2455
B( 27-C , 72-H ) :   0.9952 B( 28-C , 29-S ) :   1.0726 B( 28-C , 30-C ) :   1.4117
B( 30-C , 31-C ) :   1.2416 B( 30-C , 34-S ) :   1.0489 B( 31-C , 32-C ) :   1.5287
B( 31-C , 73-H ) :   0.9965 B( 32-C , 33-C ) :   1.1909 B( 32-C , 74-H ) :   1.0007
B( 33-C , 34-S ) :   1.0760 B( 33-C , 35-C ) :   1.4477 B( 35-C , 36-C ) :   1.2923
B( 35-C , 75-H ) :   0.9674 B( 36-C , 37-O ) :   1.1002 B( 36-C , 38-C ) :   1.3052
B( 37-O , 45-C ) :   1.1158 B( 38-C , 39-C ) :   0.8905 B( 38-C , 44-C ) :   1.3329
B( 39-C , 40-O ) :   2.2650 B( 39-C , 41-N ) :   1.0730 B( 41-N , 42-C ) :   1.0771
B( 41-N , 76-H ) :   0.9150 B( 42-C , 43-O ) :   2.2637 B( 42-C , 44-C ) :   0.8856
B( 44-C , 45-C ) :   1.3174 B( 45-C , 46-C ) :   1.2507 B( 46-C , 47-C ) :   1.4917
B( 46-C , 77-H ) :   0.9676 B( 47-C , 48-C ) :   1.2191 B( 47-C , 78-H ) :   0.9827
B( 48-C , 49-C ) :   1.4869 B( 48-C , 79-H ) :   0.9835 B( 49-C , 50-C ) :   1.1666
B( 49-C , 53-S ) :   1.0470 B( 50-C , 51-C ) :   1.5550 B( 50-C , 80-H ) :   1.0030
B( 51-C , 52-C ) :   1.1895 B( 51-C , 81-H ) :   0.9894 B( 52-C , 53-S ) :   1.0607
B( 52-C , 54-C ) :   1.5153 B( 54-C , 55-C ) :   1.1363 B( 54-C , 58-S ) :   1.0665
B( 55-C , 56-C ) :   1.6560 B( 55-C , 82-H ) :   0.9885 B( 56-C , 57-C ) :   1.0711
B( 56-C , 83-H ) :   0.9915 B( 57-C , 58-S ) :   1.0070 B( 57-C , 59-C ) :   1.8603
B( 59-C , 84-H ) :   0.9486 B( 59-C , 85-H ) :   0.9400

-----------------------------------------------------------------------------
         ABSORPTION SPECTRUM VIA TRANSITION ELECTRIC DIPOLE MOMENTS
-----------------------------------------------------------------------------
State   Energy  Wavelength   fosc         T2         TX        TY        TZ
        (cm-1)    (nm)                  (au**2)     (au)      (au)      (au)
-----------------------------------------------------------------------------
   0    8057.9   1241.0   0.228791130   9.34740   1.29571   2.50634  -1.17763
   1   10395.2    962.0   0.022569695   0.71477   0.41622   0.38180  -0.62910
   2   13432.2    744.5   0.685215546  16.79411   0.81137  -3.70889   1.54271
   3   13936.3    717.6   0.481851240  11.38259  -0.44639   2.65600  -2.03200
   4   15795.9    633.1   0.575352766  11.99129  -0.45343   3.20140  -1.23965
   5   17490.5    571.7   0.104120320   1.95979  -0.36682   1.31075   0.32736
   6   18186.0    549.9   0.487486710   8.82471   1.15208   2.66882  -0.61222
   7   19193.2    521.0   0.090969803   1.56037  -0.00341  -0.80065   0.95881
   8   20528.2    487.1   0.012711608   0.20386  -0.44192   0.09179  -0.01188
   9   21748.6    459.8   0.975971815  14.77346  -0.62429  -3.54457  -1.34898
  10   22564.0    443.2   0.350509003   5.11399  -0.42788  -1.33282  -1.77609
  11   24434.7    409.3   0.034716281   0.46774   0.43750   0.15401   0.50261
  12   24927.9    401.2   0.790047386  10.43383  -0.90002  -2.33087  -2.04716
  13   25701.8    389.1   0.045009792   0.57653  -0.12301  -0.16919   0.72991
  14   26105.1    383.1   0.064110064   0.80849  -0.08646  -0.40455   0.79835
  15   27630.9    361.9   0.086946821   1.03594   0.05407  -0.11122  -1.01027
  16   28150.1    355.2   0.170306347   1.99171   0.46898   0.26622   1.30418
  17   28672.0    348.8   0.039521818   0.45379  -0.21132  -0.53224  -0.35476
  18   29045.2    344.3   0.096602965   1.09494  -0.02836   0.02227  -1.04577
  19   29701.2    336.7   0.022139715   0.24540  -0.08681   0.29391  -0.38921
  20   30172.5    331.4   0.099119760   1.08150   0.25491   0.52283   0.86207
  21   30306.6    330.0   0.146798358   1.59463   0.23009   1.08157   0.60983
  22   30990.4    322.7   0.037611312   0.39955   0.38208   0.02903   0.50271
  23   31654.3    315.9   0.112632590   1.17140   0.20760  -0.12634   1.05468
  24   32129.8    311.2   0.026640166   0.27296   0.18074  -0.19177   0.45113
  25   32588.8    306.9   0.081828928   0.82664  -0.06285   0.19662  -0.88545
  26   32810.4    304.8   0.005054767   0.05072   0.02381   0.22391   0.00386
  27   32918.3    303.8   0.014985965   0.14987   0.01003  -0.27711   0.27015
  28   33142.6    301.7   0.060758386   0.60353   0.10980   0.61834  -0.45730
  29   33371.3    299.7   0.019133093   0.18875  -0.09214  -0.41251   0.10046
  30   33455.6    298.9   0.003239975   0.03188   0.05812  -0.16883   0.00068
  31   33698.0    296.8   0.036708720   0.35863   0.14520   0.55135   0.18317
  32   33835.8    295.5   0.003457609   0.03364  -0.00549  -0.18233  -0.01913
  33   33861.8    295.3   0.002042471   0.01986   0.07628  -0.10644  -0.05206
  34   34286.4    291.7   0.016048613   0.15410   0.07420  -0.06868   0.37931
  35   34492.8    289.9   0.051076267   0.48749   0.26160  -0.14336   0.63127
  36   34841.4    287.0   0.003144994   0.02972   0.00272  -0.02742  -0.17017
  37   35130.8    284.7   0.001497596   0.01403   0.07024  -0.05003  -0.08123
  38   35564.0    281.2   0.100547404   0.93076   0.07600   0.93853  -0.21009
  39   35612.8    280.8   0.027088993   0.25042  -0.01403   0.49632  -0.06233
  40   35751.9    279.7   0.004845602   0.04462   0.11030  -0.13980   0.11363
  41   35880.4    278.7   0.011182596   0.10260  -0.02824   0.27154   0.16755
  42   36332.3    275.2   0.002743125   0.02486   0.00130  -0.03759   0.15311
  43   36826.9    271.5   0.011801228   0.10550  -0.11411   0.09204   0.28983
  44   37030.5    270.0   0.018712182   0.16636   0.24164  -0.18409   0.27217
  45   37376.7    267.5   0.026905478   0.23698  -0.17911   0.40859  -0.19482
  46   37594.8    266.0   0.009512812   0.08330  -0.21788  -0.18295  -0.04858
  47   38047.5    262.8   0.030126879   0.26068   0.11923  -0.27780   0.41145
  48   38231.7    261.6   0.005563840   0.04791   0.00777   0.17120  -0.13617
  49   38378.7    260.6   0.020779273   0.17824   0.02808  -0.07803  -0.41396
  50   38584.4    259.2   0.043079215   0.36756   0.13898   0.56702   0.16352
  51   38686.9    258.5   0.001160023   0.00987   0.07196  -0.04384   0.05265
  52   38783.9    257.8   0.005457731   0.04633  -0.07857   0.00127   0.20038
  53   39075.9    255.9   0.032478229   0.27363   0.16099  -0.48065  -0.12918
  54   39348.6    254.1   0.000379296   0.00317   0.02226   0.04293   0.02889
  55   39715.6    251.8   0.116284229   0.96391  -0.18399  -0.35166  -0.89799
  56   39851.9    250.9   0.007453918   0.06158  -0.13448  -0.18848  -0.08926
  57   40298.9    248.1   0.016061507   0.13121   0.05548  -0.32169   0.15701

FINAL SINGLE POINT ENERGY     -4714.809587730033

DIPOLE MOMENT
-------------
                                X             Y             Z
Electronic contribution:      0.06491      32.90785      -2.20978
Nuclear contribution   :     -0.53035     -37.32220       2.13171
                        -----------------------------------------
Total Dipole Moment    :     -0.46544      -4.41435      -0.07807
                        -----------------------------------------
Magnitude (a.u.)       :      4.43951
Magnitude (Debye)      :     11.28433

Rotational constants in cm-1:     0.002536     0.000589     0.000512
Rotational constants in MHz :    76.030183    17.671239    15.361799

                             ****ORCA TERMINATED NORMALLY****
TOTAL RUN TIME: 0 days 0 hours 9 minutes 3 seconds 81 msec
