                         Program Version 4.2.0 -  RELEASE  -
|  1> # ORCA input file
|  2> # SCF done       -140.816471810882          0.000875796586
|  3> ! CAM-B3LYP def2-SVP def2/J RIJCOSX Grid4 TightSCF
|  4> %maxcore 5000
|  5> %tddft
|  6>     Mode sTDDFT
|  7>     Ethresh 5.0
|  8>     maxcore 5000
|  9> end
| 10>
| 11> %pal
| 12>   nprocs 6
| 13>   end
| 14> * xyz 0 1
| 15>    C        1.74002       -13.80956        -9.28830
| 16>    C        2.64624       -12.82298        -9.23995
| 17>    C        3.49082       -12.35205       -10.29919
| 18>    C        4.31133       -11.33540        -9.94993
| 19>    C        4.18747       -10.91880        -8.59691
| 20>    S        2.97297       -11.88061        -7.77633
| 21>    C        4.88225        -9.91916        -7.95607
| 22>    C        5.87976        -9.06425        -8.48200
| 23>    C        6.37154        -8.17428        -7.57832
| 24>    C        5.79683        -8.26806        -6.28563
| 25>    S        4.59655        -9.54490        -6.26576
| 26>    C        6.12180        -7.48530        -5.20302
| 27>    C        5.58070        -7.55652        -3.91485
| 28>    S        4.36321        -8.72480        -3.48223
| 29>    C        4.31637        -8.15074        -1.83292
| 30>    C        5.21692        -7.09649        -1.65299
| 31>    C        5.91055        -6.75809        -2.80989
| 32>    C        6.92011        -5.65345        -2.84930
| 33>    C        6.75629        -4.73099        -1.64413
| 34>    C        6.68573        -5.55187        -0.34671
| 35>    N        6.72233        -4.75991         0.86933
| 36>    C        5.40283        -6.38661        -0.35072
| 37>    C        3.45762        -8.73793        -0.88844
| 38>    C        2.61454        -9.76428        -1.20649
| 39>    C        1.74592       -10.42554        -0.31330
| 40>    C        0.88213       -11.48935        -0.70444
| 41>    N        0.10190       -12.17290         0.17652
| 42>    C        0.04335       -11.90749         1.43768
| 43>    C        0.81892       -10.84583         1.96272
| 44>    C        1.67966       -10.10343         1.07046
| 45>    N        2.28847        -9.18814         1.80159
| 46>    O        1.83861        -9.34745         3.05463
| 47>    N        0.95656       -10.33854         3.16880
| 48>    C        0.74494       -11.94249        -2.03689
| 49>    C       -0.06589       -12.99684        -2.37490
| 50>    C       -0.27136       -13.51727        -3.67643
| 51>    C       -1.11503       -14.58472        -3.72095
| 52>    C       -1.61121       -14.95905        -2.45238
| 53>    S       -0.98344       -13.89387        -1.19606
| 54>    C       -2.46009       -16.00534        -2.16256
| 55>    C       -3.08323       -16.91771        -3.04313
| 56>    C       -3.86058       -17.84682        -2.42589
| 57>    C       -3.91556       -17.73244        -1.01014
| 58>    S       -2.89598       -16.38396        -0.50771
| 59>    C       -4.59361       -18.59494        -0.19256
| 60>    C       -4.75483       -18.61681         1.21214
| 61>    S       -5.10097       -20.19124         1.92697
| 62>    C       -5.10887       -19.54886         3.50420
| 63>    C       -4.89249       -18.19613         3.51080
| 64>    C       -4.85339       -17.41042         4.67377
| 65>    N       -4.79725       -16.74039         5.60396
| 66>    C       -4.70975       -17.63767         2.20287
| 67>    N       -4.68412       -16.29082         2.01970
| 68>    H        1.57299       -14.35733       -10.19871
| 69>    H        1.15660       -14.08398        -8.42879
| 70>    H        3.44489       -12.79851       -11.27662
| 71>    H        5.00946       -10.86261       -10.61790
| 72>    H        6.20425        -9.12931        -9.50506
| 73>    H        7.13425        -7.44697        -7.79613
| 74>    H        6.88577        -6.73647        -5.36618
| 75>    H        6.81591        -5.07997        -3.77363
| 76>    H        7.92574        -6.08828        -2.84337
| 77>    H        5.83709        -4.14796        -1.74853
| 78>    H        7.59662        -4.03315        -1.60002
| 79>    H        7.55038        -6.22641        -0.31226
| 80>    H        5.95173        -4.09951         0.88431
| 81>    H        7.58589        -4.23211         0.92853
| 82>    H        4.54772        -5.72470        -0.17601
| 83>    H        5.43067        -7.09825         0.47508
| 84>    H        3.47629        -8.35516         0.12124
| 85>    H        2.62432       -10.10875        -2.23099
| 86>    H       -0.60147       -12.50898         2.06014
| 87>    H        1.28276       -11.45459        -2.83355
| 88>    H        0.21573       -13.08499        -4.53336
| 89>    H       -1.38101       -15.10873        -4.62219
| 90>    H       -2.94232       -16.85765        -4.10736
| 91>    H       -4.40962       -18.61661        -2.93925
| 92>    H       -5.02371       -19.45225        -0.69830
| 93>    H       -5.27102       -20.18428         4.35231
| 94>    H       -4.48528       -15.73137         2.83412
| 95>    H       -4.35890       -15.92444         1.13991
| 96> *
| 97>
| 98>                          ****END OF INPUT****

CARTESIAN COORDINATES (ANGSTROEM)
---------------------------------
  C      1.740020  -13.809560   -9.288300
  C      2.646240  -12.822980   -9.239950
  C      3.490820  -12.352050  -10.299190
  C      4.311330  -11.335400   -9.949930
  C      4.187470  -10.918800   -8.596910
  S      2.972970  -11.880610   -7.776330
  C      4.882250   -9.919160   -7.956070
  C      5.879760   -9.064250   -8.482000
  C      6.371540   -8.174280   -7.578320
  C      5.796830   -8.268060   -6.285630
  S      4.596550   -9.544900   -6.265760
  C      6.121800   -7.485300   -5.203020
  C      5.580700   -7.556520   -3.914850
  S      4.363210   -8.724800   -3.482230
  C      4.316370   -8.150740   -1.832920
  C      5.216920   -7.096490   -1.652990
  C      5.910550   -6.758090   -2.809890
  C      6.920110   -5.653450   -2.849300
  C      6.756290   -4.730990   -1.644130
  C      6.685730   -5.551870   -0.346710
  N      6.722330   -4.759910    0.869330
  C      5.402830   -6.386610   -0.350720
  C      3.457620   -8.737930   -0.888440
  C      2.614540   -9.764280   -1.206490
  C      1.745920  -10.425540   -0.313300
  C      0.882130  -11.489350   -0.704440
  N      0.101900  -12.172900    0.176520
  C      0.043350  -11.907490    1.437680
  C      0.818920  -10.845830    1.962720
  C      1.679660  -10.103430    1.070460
  N      2.288470   -9.188140    1.801590
  O      1.838610   -9.347450    3.054630
  N      0.956560  -10.338540    3.168800
  C      0.744940  -11.942490   -2.036890
  C     -0.065890  -12.996840   -2.374900
  C     -0.271360  -13.517270   -3.676430
  C     -1.115030  -14.584720   -3.720950
  C     -1.611210  -14.959050   -2.452380
  S     -0.983440  -13.893870   -1.196060
  C     -2.460090  -16.005340   -2.162560
  C     -3.083230  -16.917710   -3.043130
  C     -3.860580  -17.846820   -2.425890
  C     -3.915560  -17.732440   -1.010140
  S     -2.895980  -16.383960   -0.507710
  C     -4.593610  -18.594940   -0.192560
  C     -4.754830  -18.616810    1.212140
  S     -5.100970  -20.191240    1.926970
  C     -5.108870  -19.548860    3.504200
  C     -4.892490  -18.196130    3.510800
  C     -4.853390  -17.410420    4.673770
  N     -4.797250  -16.740390    5.603960
  C     -4.709750  -17.637670    2.202870
  N     -4.684120  -16.290820    2.019700
  H      1.572990  -14.357330  -10.198710
  H      1.156600  -14.083980   -8.428790
  H      3.444890  -12.798510  -11.276620
  H      5.009460  -10.862610  -10.617900
  H      6.204250   -9.129310   -9.505060
  H      7.134250   -7.446970   -7.796130
  H      6.885770   -6.736470   -5.366180
  H      6.815910   -5.079970   -3.773630
  H      7.925740   -6.088280   -2.843370
  H      5.837090   -4.147960   -1.748530
  H      7.596620   -4.033150   -1.600020
  H      7.550380   -6.226410   -0.312260
  H      5.951730   -4.099510    0.884310
  H      7.585890   -4.232110    0.928530
  H      4.547720   -5.724700   -0.176010
  H      5.430670   -7.098250    0.475080
  H      3.476290   -8.355160    0.121240
  H      2.624320  -10.108750   -2.230990
  H     -0.601470  -12.508980    2.060140
  H      1.282760  -11.454590   -2.833550
  H      0.215730  -13.084990   -4.533360
  H     -1.381010  -15.108730   -4.622190
  H     -2.942320  -16.857650   -4.107360
  H     -4.409620  -18.616610   -2.939250
  H     -5.023710  -19.452250   -0.698300
  H     -5.271020  -20.184280    4.352310
  H     -4.485280  -15.731370    2.834120
  H     -4.358900  -15.924440    1.139910

 Total Charge           Charge          ....    0
 Multiplicity           Mult            ....    1
 Number of Electrons    NEL             ....  414
 Basis Dimension        Dim             ....  906

ORBITAL ENERGIES
----------------

  NO   OCC          E(Eh)            E(eV)
   0   2.0000     -88.962162     -2420.7835
   1   2.0000     -88.946173     -2420.3484
   2   2.0000     -88.942469     -2420.2476
   3   2.0000     -88.942400     -2420.2457
   4   2.0000     -88.938093     -2420.1285
   5   2.0000     -88.933180     -2419.9949
   6   2.0000     -19.348474      -526.4987
   7   2.0000     -14.480626      -394.0379
   8   2.0000     -14.470228      -393.7549
   9   2.0000     -14.423163      -392.4742
  10   2.0000     -14.421466      -392.4280
  11   2.0000     -14.403395      -391.9363
  12   2.0000     -14.375543      -391.1784
  13   2.0000     -10.331775      -281.1419
  14   2.0000     -10.328218      -281.0451
  15   2.0000     -10.319529      -280.8087
  16   2.0000     -10.318299      -280.7752
  17   2.0000     -10.317280      -280.7475
  18   2.0000     -10.314304      -280.6665
  19   2.0000     -10.308956      -280.5210
  20   2.0000     -10.307938      -280.4932
  21   2.0000     -10.306752      -280.4610
  22   2.0000     -10.306318      -280.4492
  23   2.0000     -10.305773      -280.4343
  24   2.0000     -10.304948      -280.4119
  25   2.0000     -10.304247      -280.3928
  26   2.0000     -10.304229      -280.3923
  27   2.0000     -10.300456      -280.2897
  28   2.0000     -10.297206      -280.2012
  29   2.0000     -10.294301      -280.1222
  30   2.0000     -10.292070      -280.0615
  31   2.0000     -10.291062      -280.0340
  32   2.0000     -10.289901      -280.0024
  33   2.0000     -10.288962      -279.9769
  34   2.0000     -10.286743      -279.9165
  35   2.0000     -10.286251      -279.9031
  36   2.0000     -10.284309      -279.8503
  37   2.0000     -10.283995      -279.8417
  38   2.0000     -10.283790      -279.8361
  39   2.0000     -10.282318      -279.7961
  40   2.0000     -10.282298      -279.7955
  41   2.0000     -10.281201      -279.7657
  42   2.0000     -10.280740      -279.7532
  43   2.0000     -10.275516      -279.6110
  44   2.0000     -10.272194      -279.5206
  45   2.0000     -10.269964      -279.4599
  46   2.0000     -10.269605      -279.4502
  47   2.0000     -10.268635      -279.4238
  48   2.0000     -10.268500      -279.4201
  49   2.0000     -10.268492      -279.4199
  50   2.0000     -10.266034      -279.3530
  51   2.0000     -10.260036      -279.1898
  52   2.0000     -10.258433      -279.1462
  53   2.0000      -8.058091      -219.2718
  54   2.0000      -8.042221      -218.8400
  55   2.0000      -8.038371      -218.7352
  56   2.0000      -8.037474      -218.7108
  57   2.0000      -8.034828      -218.6388
  58   2.0000      -8.026857      -218.4219
  59   2.0000      -6.027428      -164.0146
  60   2.0000      -6.023252      -163.9010
  61   2.0000      -6.020092      -163.8150
  62   2.0000      -6.011932      -163.5930
  63   2.0000      -6.008193      -163.4912
  64   2.0000      -6.007880      -163.4827
  65   2.0000      -6.006648      -163.4492
  66   2.0000      -6.004646      -163.3947
  67   2.0000      -6.003995      -163.3770
  68   2.0000      -6.003250      -163.3567
  69   2.0000      -6.002830      -163.3453
  70   2.0000      -6.000760      -163.2890
  71   2.0000      -5.999540      -163.2558
  72   2.0000      -5.999262      -163.2482
  73   2.0000      -5.997027      -163.1874
  74   2.0000      -5.995339      -163.1415
  75   2.0000      -5.992281      -163.0583
  76   2.0000      -5.987875      -162.9384
  77   2.0000      -1.298720       -35.3400
  78   2.0000      -1.055091       -28.7105
  79   2.0000      -1.031007       -28.0551
  80   2.0000      -1.004438       -27.3321
  81   2.0000      -0.992331       -27.0027
  82   2.0000      -0.988496       -26.8983
  83   2.0000      -0.985046       -26.8045
  84   2.0000      -0.982919       -26.7466
  85   2.0000      -0.968664       -26.3587
  86   2.0000      -0.968605       -26.3571
  87   2.0000      -0.966597       -26.3025
  88   2.0000      -0.961991       -26.1771
  89   2.0000      -0.958300       -26.0767
  90   2.0000      -0.913724       -24.8637
  91   2.0000      -0.895885       -24.3783
  92   2.0000      -0.893056       -24.3013
  93   2.0000      -0.887641       -24.1539
  94   2.0000      -0.872576       -23.7440
  95   2.0000      -0.864065       -23.5124
  96   2.0000      -0.849747       -23.1228
  97   2.0000      -0.843881       -22.9632
  98   2.0000      -0.838541       -22.8178
  99   2.0000      -0.836800       -22.7705
 100   2.0000      -0.829867       -22.5818
 101   2.0000      -0.820405       -22.3244
 102   2.0000      -0.818918       -22.2839
 103   2.0000      -0.809322       -22.0228
 104   2.0000      -0.799528       -21.7563
 105   2.0000      -0.791063       -21.5259
 106   2.0000      -0.788117       -21.4458
 107   2.0000      -0.775253       -21.0957
 108   2.0000      -0.756576       -20.5875
 109   2.0000      -0.748790       -20.3756
 110   2.0000      -0.730144       -19.8682
 111   2.0000      -0.718678       -19.5562
 112   2.0000      -0.707894       -19.2628
 113   2.0000      -0.702868       -19.1260
 114   2.0000      -0.696725       -18.9588
 115   2.0000      -0.684445       -18.6247
 116   2.0000      -0.681437       -18.5428
 117   2.0000      -0.662930       -18.0392
 118   2.0000      -0.660570       -17.9750
 119   2.0000      -0.657703       -17.8970
 120   2.0000      -0.645838       -17.5741
 121   2.0000      -0.639259       -17.3951
 122   2.0000      -0.635067       -17.2810
 123   2.0000      -0.629618       -17.1328
 124   2.0000      -0.622403       -16.9365
 125   2.0000      -0.620976       -16.8976
 126   2.0000      -0.615510       -16.7489
 127   2.0000      -0.611984       -16.6529
 128   2.0000      -0.609484       -16.5849
 129   2.0000      -0.603236       -16.4149
 130   2.0000      -0.598812       -16.2945
 131   2.0000      -0.597053       -16.2466
 132   2.0000      -0.588596       -16.0165
 133   2.0000      -0.584484       -15.9046
 134   2.0000      -0.574559       -15.6345
 135   2.0000      -0.569861       -15.5067
 136   2.0000      -0.558726       -15.2037
 137   2.0000      -0.556978       -15.1561
 138   2.0000      -0.549797       -14.9607
 139   2.0000      -0.543385       -14.7862
 140   2.0000      -0.533755       -14.5242
 141   2.0000      -0.530821       -14.4444
 142   2.0000      -0.528376       -14.3778
 143   2.0000      -0.523157       -14.2358
 144   2.0000      -0.516798       -14.0628
 145   2.0000      -0.514320       -13.9954
 146   2.0000      -0.511127       -13.9085
 147   2.0000      -0.508558       -13.8386
 148   2.0000      -0.507944       -13.8219
 149   2.0000      -0.505857       -13.7651
 150   2.0000      -0.502632       -13.6773
 151   2.0000      -0.497526       -13.5384
 152   2.0000      -0.495914       -13.4945
 153   2.0000      -0.493440       -13.4272
 154   2.0000      -0.490731       -13.3535
 155   2.0000      -0.487628       -13.2690
 156   2.0000      -0.486338       -13.2339
 157   2.0000      -0.482937       -13.1414
 158   2.0000      -0.479741       -13.0544
 159   2.0000      -0.474998       -12.9254
 160   2.0000      -0.472470       -12.8565
 161   2.0000      -0.470018       -12.7898
 162   2.0000      -0.469438       -12.7741
 163   2.0000      -0.462749       -12.5920
 164   2.0000      -0.460227       -12.5234
 165   2.0000      -0.456946       -12.4341
 166   2.0000      -0.455727       -12.4010
 167   2.0000      -0.451710       -12.2917
 168   2.0000      -0.443406       -12.0657
 169   2.0000      -0.438066       -11.9204
 170   2.0000      -0.436802       -11.8860
 171   2.0000      -0.433640       -11.7999
 172   2.0000      -0.431110       -11.7311
 173   2.0000      -0.429038       -11.6747
 174   2.0000      -0.428303       -11.6547
 175   2.0000      -0.424704       -11.5568
 176   2.0000      -0.422930       -11.5085
 177   2.0000      -0.422593       -11.4993
 178   2.0000      -0.416183       -11.3249
 179   2.0000      -0.411742       -11.2041
 180   2.0000      -0.410596       -11.1729
 181   2.0000      -0.407502       -11.0887
 182   2.0000      -0.404651       -11.0111
 183   2.0000      -0.401377       -10.9220
 184   2.0000      -0.399349       -10.8668
 185   2.0000      -0.396659       -10.7936
 186   2.0000      -0.393579       -10.7098
 187   2.0000      -0.389703       -10.6044
 188   2.0000      -0.386935       -10.5290
 189   2.0000      -0.376666       -10.2496
 190   2.0000      -0.370143       -10.0721
 191   2.0000      -0.369112       -10.0441
 192   2.0000      -0.348831        -9.4922
 193   2.0000      -0.337255        -9.1772
 194   2.0000      -0.336535        -9.1576
 195   2.0000      -0.332042        -9.0353
 196   2.0000      -0.323466        -8.8020
 197   2.0000      -0.321747        -8.7552
 198   2.0000      -0.316554        -8.6139
 199   2.0000      -0.311003        -8.4628
 200   2.0000      -0.301287        -8.1984
 201   2.0000      -0.296572        -8.0701
 202   2.0000      -0.294994        -8.0272
 203   2.0000      -0.275821        -7.5055
 204   2.0000      -0.254406        -6.9227
 205   2.0000      -0.217527        -5.9192
 206   2.0000      -0.195509        -5.3201
 207   0.0000      -0.088586        -2.4106
 208   0.0000      -0.063790        -1.7358
 209   0.0000      -0.049826        -1.3558
 210   0.0000      -0.010245        -0.2788
 211   0.0000      -0.005801        -0.1579

MULLIKEN ATOMIC CHARGES
-----------------------
   0 C :   -0.031592
   1 C :   -0.060741
   2 C :    0.050567
   3 C :    0.028979
   4 C :   -0.066435
   5 S :    0.074298
   6 C :   -0.032099
   7 C :    0.029529
   8 C :    0.028419
   9 C :   -0.028841
  10 S :    0.062426
  11 C :   -0.037360
  12 C :   -0.067303
  13 S :    0.054491
  14 C :   -0.070032
  15 C :   -0.049380
  16 C :   -0.106757
  17 C :    0.140363
  18 C :    0.060328
  19 C :   -0.078520
  20 N :   -0.161764
  21 C :    0.178319
  22 C :   -0.008970
  23 C :   -0.077909
  24 C :    0.132833
  25 C :    0.034709
  26 N :   -0.108240
  27 C :    0.027404
  28 C :   -0.045199
  29 C :   -0.052223
  30 N :    0.020339
  31 O :   -0.098521
  32 N :    0.071372
  33 C :   -0.074176
  34 C :    0.011757
  35 C :    0.024540
  36 C :    0.032252
  37 C :   -0.037533
  38 S :    0.109838
  39 C :   -0.064377
  40 C :    0.031490
  41 C :    0.034222
  42 C :   -0.042619
  43 S :    0.054980
  44 C :    0.013586
  45 C :   -0.244425
  46 S :    0.134027
  47 C :   -0.044025
  48 C :   -0.119315
  49 C :   -0.215210
  50 N :    0.126447
  51 C :    0.107333
  52 N :   -0.007604
  53 H :    0.019846
  54 H :    0.018043
  55 H :   -0.012475
  56 H :   -0.011331
  57 H :   -0.017211
  58 H :   -0.014583
  59 H :   -0.016594
  60 H :    0.011335
  61 H :    0.011206
  62 H :   -0.007984
  63 H :   -0.014535
  64 H :   -0.002441
  65 H :    0.086223
  66 H :    0.086265
  67 H :    0.004663
  68 H :    0.030444
  69 H :    0.011010
  70 H :   -0.016051
  71 H :    0.004873
  72 H :   -0.023361
  73 H :   -0.013851
  74 H :   -0.020691
  75 H :   -0.014419
  76 H :   -0.011603
  77 H :   -0.009520
  78 H :    0.036338
  79 H :    0.131170
  80 H :    0.111557
Sum of atomic charges:   -0.0000000

LOEWDIN ATOMIC CHARGES
----------------------
   0 C :   -0.079375
   1 C :   -0.138638
   2 C :   -0.032494
   3 C :   -0.026156
   4 C :   -0.176335
   5 S :    0.347541
   6 C :   -0.180953
   7 C :   -0.038991
   8 C :   -0.033214
   9 C :   -0.153219
  10 S :    0.368886
  11 C :   -0.075074
  12 C :   -0.168103
  13 S :    0.421543
  14 C :   -0.173235
  15 C :   -0.045600
  16 C :   -0.058986
  17 C :   -0.026998
  18 C :   -0.042499
  19 C :    0.012095
  20 N :   -0.101373
  21 C :   -0.022878
  22 C :   -0.020575
  23 C :   -0.044800
  24 C :   -0.047993
  25 C :   -0.000186
  26 N :   -0.056295
  27 C :    0.042392
  28 C :   -0.086208
  29 C :   -0.037880
  30 N :   -0.036654
  31 O :    0.071795
  32 N :   -0.004453
  33 C :   -0.082007
  34 C :   -0.122202
  35 C :   -0.039151
  36 C :   -0.025459
  37 C :   -0.198619
  38 S :    0.405100
  39 C :   -0.168672
  40 C :   -0.043968
  41 C :   -0.025783
  42 C :   -0.165395
  43 S :    0.380843
  44 C :   -0.066938
  45 C :   -0.231865
  46 S :    0.449256
  47 C :   -0.136046
  48 C :   -0.135333
  49 C :   -0.037204
  50 N :   -0.061034
  51 C :    0.020395
  52 N :   -0.002959
  53 H :    0.028474
  54 H :    0.024421
  55 H :    0.033131
  56 H :    0.032638
  57 H :    0.030299
  58 H :    0.032474
  59 H :    0.036352
  60 H :    0.029052
  61 H :    0.031640
  62 H :    0.018627
  63 H :    0.017436
  64 H :    0.019749
  65 H :    0.050183
  66 H :    0.051799
  67 H :    0.031496
  68 H :    0.038601
  69 H :    0.033752
  70 H :    0.017617
  71 H :    0.029817
  72 H :    0.031407
  73 H :    0.032090
  74 H :    0.027781
  75 H :    0.031779
  76 H :    0.033210
  77 H :    0.034263
  78 H :    0.035163
  79 H :    0.082170
  80 H :    0.036536

  Mayer bond orders larger than 0.100000
B(  0-C ,  1-C ) :   1.8587 B(  0-C , 53-H ) :   0.9507 B(  0-C , 54-H ) :   0.9419
B(  1-C ,  2-C ) :   1.0845 B(  1-C ,  5-S ) :   1.0071 B(  2-C ,  3-C ) :   1.6535
B(  2-C , 55-H ) :   0.9929 B(  3-C ,  4-C ) :   1.1588 B(  3-C , 56-H ) :   0.9920
B(  4-C ,  5-S ) :   1.0446 B(  4-C ,  6-C ) :   1.5467 B(  6-C ,  7-C ) :   1.1757
B(  6-C , 10-S ) :   1.0328 B(  7-C ,  8-C ) :   1.5943 B(  7-C , 57-H ) :   0.9920
B(  8-C ,  9-C ) :   1.1477 B(  8-C , 58-H ) :   0.9998 B(  9-C , 10-S ) :   1.0400
B(  9-C , 11-C ) :   1.5406 B( 11-C , 12-C ) :   1.2190 B( 11-C , 59-H ) :   0.9640
B( 12-C , 13-S ) :   1.0959 B( 12-C , 16-C ) :   1.4097 B( 13-S , 14-C ) :   1.0918
B( 14-C , 15-C ) :   1.4082 B( 14-C , 22-C ) :   1.2060 B( 15-C , 16-C ) :   1.3896
B( 15-C , 21-C ) :   1.0290 B( 16-C , 17-C ) :   1.0511 B( 17-C , 18-C ) :   1.0784
B( 17-C , 60-H ) :   0.9108 B( 17-C , 61-H ) :   0.9034 B( 18-C , 19-C ) :   1.0259
B( 18-C , 62-H ) :   0.9297 B( 18-C , 63-H ) :   0.9291 B( 19-C , 20-N ) :   1.1071
B( 19-C , 21-C ) :   1.0479 B( 19-C , 64-H ) :   0.9272 B( 20-N , 65-H ) :   0.9689
B( 20-N , 66-H ) :   0.9697 B( 21-C , 67-H ) :   0.9001 B( 21-C , 68-H ) :   0.9094
B( 22-C , 23-C ) :   1.5654 B( 22-C , 69-H ) :   0.9550 B( 23-C , 24-C ) :   1.1992
B( 23-C , 70-H ) :   0.9543 B( 24-C , 25-C ) :   1.2899 B( 24-C , 29-C ) :   1.1270
B( 25-C , 26-N ) :   1.2720 B( 25-C , 33-C ) :   1.1914 B( 26-N , 27-C ) :   1.7253
B( 27-C , 28-C ) :   1.1075 B( 27-C , 71-H ) :   0.9874 B( 28-C , 29-C ) :   1.1573
B( 28-C , 32-N ) :   1.6121 B( 29-C , 30-N ) :   1.5836 B( 30-N , 31-O ) :   1.0334
B( 30-N , 32-N ) :   0.1774 B( 31-O , 32-N ) :   1.0874 B( 33-C , 34-C ) :   1.5463
B( 33-C , 72-H ) :   0.9705 B( 34-C , 35-C ) :   1.1455 B( 34-C , 38-S ) :   1.0663
B( 35-C , 36-C ) :   1.5783 B( 35-C , 73-H ) :   1.0002 B( 36-C , 37-C ) :   1.1874
B( 36-C , 74-H ) :   0.9949 B( 37-C , 38-S ) :   0.9793 B( 37-C , 39-C ) :   1.5312
B( 39-C , 40-C ) :   1.1791 B( 39-C , 43-S ) :   1.0361 B( 40-C , 41-C ) :   1.5970
B( 40-C , 75-H ) :   0.9914 B( 41-C , 42-C ) :   1.1362 B( 41-C , 76-H ) :   0.9973
B( 42-C , 43-S ) :   1.0017 B( 42-C , 44-C ) :   1.6531 B( 44-C , 45-C ) :   1.1367
B( 44-C , 77-H ) :   0.9351 B( 45-C , 46-S ) :   1.0924 B( 45-C , 51-C ) :   1.3896
B( 46-S , 47-C ) :   1.2023 B( 46-S , 48-C ) :   0.1222 B( 47-C , 48-C ) :   1.5251
B( 47-C , 78-H ) :   0.9768 B( 48-C , 49-C ) :   1.0998 B( 48-C , 51-C ) :   1.2271
B( 49-C , 50-N ) :   3.0290 B( 51-C , 52-N ) :   1.3593 B( 52-N , 79-H ) :   0.9252
B( 52-N , 80-H ) :   0.9140

-----------------------------------------------------------------------------
         ABSORPTION SPECTRUM VIA TRANSITION ELECTRIC DIPOLE MOMENTS
-----------------------------------------------------------------------------
State   Energy  Wavelength   fosc         T2         TX        TY        TZ
        (cm-1)    (nm)                  (au**2)     (au)      (au)      (au)
-----------------------------------------------------------------------------
   0    9837.1   1016.6   0.763466620  25.55039  -3.09034  -2.57761   3.05878
   1   14634.6    683.3   0.079270268   1.78322   0.28834   0.78625   1.04014
   2   16652.4    600.5   1.102963146  21.80514   2.22205   3.63428   1.91302
   3   17493.3    571.6   0.143116737   2.69336  -0.77925  -0.66402   1.28266
   4   21497.2    465.2   0.190590829   2.91874   0.08090   0.43502   1.65014
   5   22472.5    445.0   0.216102206   3.16580  -0.90017  -1.26236  -0.87289
   6   23606.7    423.6   0.329418392   4.59398  -1.40840  -1.51944   0.54928
   7   25595.9    390.7   0.032168796   0.41375   0.14678   0.46317   0.42152
   8   26720.5    374.2   0.412753692   5.08536   0.97865   1.33932   1.52768
   9   28268.4    353.8   0.019364935   0.22552  -0.19393  -0.37106  -0.22412
  10   28634.3    349.2   0.408318226   4.69448   1.21047   0.76455  -1.62625
  11   29486.6    339.1   0.002796828   0.03123  -0.09865  -0.14198   0.03657
  12   29987.3    333.5   0.144182952   1.58290  -0.74345  -1.01234  -0.07310
  13   30593.1    326.9   0.044289410   0.47660  -0.31917  -0.48123  -0.37834
  14   30804.5    324.6   0.013794908   0.14743  -0.02022  -0.37056   0.09853
  15   31211.1    320.4   0.069265506   0.73061  -0.49906  -0.40678   0.56220
  16   31434.5    318.1   0.000273571   0.00287   0.04286  -0.03200   0.00200
  17   32257.7    310.0   0.012571909   0.12830  -0.03240  -0.16015  -0.31876
  18   32715.7    305.7   0.013687699   0.13774  -0.21505  -0.14353   0.26625
  19   32879.1    304.1   0.230799516   2.31095  -0.72046  -0.46900   1.25377
  20   32985.4    303.2   0.015729965   0.15699  -0.03505   0.04506  -0.39209
  21   33755.8    296.2   0.077268648   0.75358  -0.52394  -0.59499   0.35363
  22   34124.3    293.0   0.012311219   0.11877   0.14976   0.24514   0.19039
  23   34550.0    289.4   0.241979712   2.30572   0.36303   0.64451   1.32610
  24   35293.6    283.3   0.004104218   0.03828  -0.03375   0.07186  -0.17883
  25   35614.5    280.8   0.015218219   0.14067   0.04377  -0.15472   0.33885
  26   35856.5    278.9   0.072535912   0.66598  -0.24382  -0.26236   0.73328
  27   36137.1    276.7   0.016518661   0.15049   0.15750   0.35448  -0.00533
  28   36523.7    273.8   0.014774787   0.13317   0.17985   0.29618  -0.11447
  29   36732.1    272.2   0.047029569   0.42150  -0.09364  -0.17510  -0.61812
  30   37564.1    266.2   0.011578767   0.10148   0.01467   0.30578  -0.08809
  31   37708.5    265.2   0.004916076   0.04292  -0.14146  -0.14880  -0.02769
  32   38136.4    262.2   0.004207103   0.03632  -0.03196  -0.17890  -0.05737
  33   38390.0    260.5   0.139628907   1.19738   0.62480   0.77568   0.45314
  34   38597.0    259.1   0.034923528   0.29788   0.32469   0.43486   0.05791
  35   38809.5    257.7   0.015107391   0.12815   0.22690   0.27335   0.04411
  36   39063.2    256.0   0.008699241   0.07331  -0.04809   0.04353   0.26288
  37   39284.0    254.6   0.000647750   0.00543  -0.00273   0.07097   0.01958
  38   40068.3    249.6   0.000674939   0.00555   0.00216   0.00835  -0.07397
  39   40188.6    248.8   0.005390710   0.04416  -0.07897  -0.19455   0.00867

FINAL SINGLE POINT ENERGY     -4330.599841449043

DIPOLE MOMENT
-------------
                                X             Y             Z
Electronic contribution:    -34.76024     -38.15702      19.29559
Nuclear contribution   :     35.70251      38.16138     -22.95061
                        -----------------------------------------
Total Dipole Moment    :      0.94227       0.00436      -3.65503
                        -----------------------------------------
Magnitude (a.u.)       :      3.77453
Magnitude (Debye)      :      9.59410

Rotational constants in cm-1:     0.001788     0.000563     0.000431
Rotational constants in MHz :    53.591845    16.891159    12.924442

                             ****ORCA TERMINATED NORMALLY****
TOTAL RUN TIME: 0 days 0 hours 6 minutes 5 seconds 403 msec
