                         Program Version 4.2.0 -  RELEASE  -
|  1> # ORCA input file
|  2> # SCF done       -164.588558288005          0.000268811884
|  3> ! CAM-B3LYP def2-SVP def2/J RIJCOSX Grid4 TightSCF
|  4> %maxcore 5000
|  5> %tddft
|  6>     Mode sTDDFT
|  7>     Ethresh 5.0
|  8>     maxcore 5000
|  9> end
| 10>
| 11> %pal
| 12>   nprocs 6
| 13>   end
| 14> * xyz 0 1
| 15>    C       20.98550       -16.28801         7.72956
| 16>    C       20.17741       -15.22788         7.86127
| 17>    C       20.23251       -14.19928         8.86134
| 18>    C       19.27933       -13.25034         8.74039
| 19>    C       18.39251       -13.44376         7.64299
| 20>    S       18.82799       -14.89685         6.76302
| 21>    C       17.33409       -12.65275         7.27228
| 22>    C       16.88103       -11.45774         7.88870
| 23>    C       15.80215       -10.90056         7.28375
| 24>    C       15.33244       -11.61734         6.14873
| 25>    S       16.32364       -13.04178         5.88930
| 26>    C       14.27649       -11.26081         5.35590
| 27>    C       13.82682       -12.00608         4.24220
| 28>    O       14.42530       -13.20953         3.98916
| 29>    C       13.83996       -13.78808         2.95772
| 30>    C       12.82577       -12.98258         2.47832
| 31>    N       11.98189       -13.27144         1.40140
| 32>    O       12.16766       -14.30269         0.78688
| 33>    O       11.09626       -12.46195         1.13758
| 34>    C       12.80753       -11.80123         3.29778
| 35>    N       11.94606       -10.78042         3.08167
| 36>    C       11.94539        -9.52915         3.64798
| 37>    C       10.98766        -8.61685         3.44268
| 38>    C        9.76731        -8.86908         2.60850
| 39>    C       11.09112        -7.25395         4.07967
| 40>    N       12.46103        -6.87121         4.31743
| 41>    C       12.86607        -6.01687         5.29712
| 42>    C       12.10709        -5.50116         6.28078
| 43>    C       12.60001        -4.65103         7.34009
| 44>    C       11.67144        -3.84290         8.06809
| 45>    C       12.05894        -3.06605         9.12370
| 46>    C       13.41167        -3.02376         9.51080
| 47>    C       14.35910        -3.79701         8.77873
| 48>    C       13.92876        -4.59932         7.71267
| 49>    N       15.66854        -3.77594         9.11599
| 50>    C       16.00936        -3.02218        10.12727
| 51>    C       15.07121        -2.25512        10.84537
| 52>    N       13.79809        -2.25374        10.54526
| 53>    N       10.30853        -3.85228         7.69752
| 54>    C        9.29363        -4.22180         8.54128
| 55>    O        9.43217        -4.62982         9.66994
| 56>    C        7.97245        -4.01837         7.79398
| 57>    C        8.42492        -3.54524         6.45084
| 58>    C        9.81666        -3.43598         6.46174
| 59>    C       10.51595        -2.96939         5.36770
| 60>    C        9.80100        -2.62625         4.22374
| 61>    C        8.41674        -2.75223         4.20906
| 62>    C        7.71757        -3.19995         5.32141
| 63>    C       10.52508        -2.09582         3.02335
| 64>    C        7.14501        -2.95996         8.55842
| 65>    C        8.07863        -1.81508         8.97171
| 66>    O        8.71951        -1.09363         8.24487
| 67>    N        8.08105        -1.77129        10.33321
| 68>    C        7.26038        -2.73913        10.89641
| 69>    C        6.64456        -3.46641         9.87457
| 70>    C        5.76870        -4.48046        10.18691
| 71>    C        5.51632        -4.75263        11.52516
| 72>    C        6.13134        -4.03453        12.54278
| 73>    C        5.87071        -4.37325        13.97913
| 74>    C        7.01729        -3.00642        12.22580
| 75>    H       21.79384       -16.45177         8.42006
| 76>    H       20.85497       -17.00341         6.93855
| 77>    H       20.98762       -14.22046         9.62709
| 78>    H       19.17331       -12.40885         9.40199
| 79>    H       17.36597       -11.04740         8.75618
| 80>    H       15.32013        -9.99478         7.60779
| 81>    H       13.73488       -10.36860         5.62285
| 82>    H       14.18402       -14.74878         2.63139
| 83>    H       11.26498       -10.96998         2.34820
| 84>    H       12.79399        -9.29520         4.26903
| 85>    H        9.43172        -9.90024         2.69081
| 86>    H        9.96915        -8.66311         1.55630
| 87>    H        8.95549        -8.21916         2.92612
| 88>    H       10.57017        -7.27342         5.04182
| 89>    H       10.57847        -6.51563         3.44409
| 90>    H       13.06703        -6.96454         3.51759
| 91>    H       13.91955        -5.77835         5.24571
| 92>    H       11.04702        -5.70024         6.29623
| 93>    H       11.34141        -2.47056         9.66481
| 94>    H       14.67216        -5.20118         7.21468
| 95>    H       17.05919        -3.01140        10.39077
| 96>    H       15.37456        -1.63325        11.67718
| 97>    H        7.40408        -4.95191         7.75892
| 98>    H       11.58943        -2.86436         5.39756
| 99>    H        7.87305        -2.48181         3.31585
|100>    H        6.64046        -3.27540         5.29659
|101>    H       11.53553        -2.49468         2.97135
|102>    H       10.59528        -1.00979         3.08653
|103>    H        9.99580        -2.34502         2.10647
|104>    H        6.34982        -2.59121         7.90519
|105>    H        8.66464        -1.14401        10.86421
|106>    H        5.28381        -5.05587         9.41199
|107>    H        4.83093        -5.54690        11.78176
|108>    H        4.93795        -4.92064        14.08812
|109>    H        5.82588        -3.47299        14.58810
|110>    H        6.67817        -4.99729        14.36269
|111>    H        7.50570        -2.44325        13.00670
|112> *
|113>
|114>                          ****END OF INPUT****

CARTESIAN COORDINATES (ANGSTROEM)
---------------------------------
  C     20.985500  -16.288010    7.729560
  C     20.177410  -15.227880    7.861270
  C     20.232510  -14.199280    8.861340
  C     19.279330  -13.250340    8.740390
  C     18.392510  -13.443760    7.642990
  S     18.827990  -14.896850    6.763020
  C     17.334090  -12.652750    7.272280
  C     16.881030  -11.457740    7.888700
  C     15.802150  -10.900560    7.283750
  C     15.332440  -11.617340    6.148730
  S     16.323640  -13.041780    5.889300
  C     14.276490  -11.260810    5.355900
  C     13.826820  -12.006080    4.242200
  O     14.425300  -13.209530    3.989160
  C     13.839960  -13.788080    2.957720
  C     12.825770  -12.982580    2.478320
  N     11.981890  -13.271440    1.401400
  O     12.167660  -14.302690    0.786880
  O     11.096260  -12.461950    1.137580
  C     12.807530  -11.801230    3.297780
  N     11.946060  -10.780420    3.081670
  C     11.945390   -9.529150    3.647980
  C     10.987660   -8.616850    3.442680
  C      9.767310   -8.869080    2.608500
  C     11.091120   -7.253950    4.079670
  N     12.461030   -6.871210    4.317430
  C     12.866070   -6.016870    5.297120
  C     12.107090   -5.501160    6.280780
  C     12.600010   -4.651030    7.340090
  C     11.671440   -3.842900    8.068090
  C     12.058940   -3.066050    9.123700
  C     13.411670   -3.023760    9.510800
  C     14.359100   -3.797010    8.778730
  C     13.928760   -4.599320    7.712670
  N     15.668540   -3.775940    9.115990
  C     16.009360   -3.022180   10.127270
  C     15.071210   -2.255120   10.845370
  N     13.798090   -2.253740   10.545260
  N     10.308530   -3.852280    7.697520
  C      9.293630   -4.221800    8.541280
  O      9.432170   -4.629820    9.669940
  C      7.972450   -4.018370    7.793980
  C      8.424920   -3.545240    6.450840
  C      9.816660   -3.435980    6.461740
  C     10.515950   -2.969390    5.367700
  C      9.801000   -2.626250    4.223740
  C      8.416740   -2.752230    4.209060
  C      7.717570   -3.199950    5.321410
  C     10.525080   -2.095820    3.023350
  C      7.145010   -2.959960    8.558420
  C      8.078630   -1.815080    8.971710
  O      8.719510   -1.093630    8.244870
  N      8.081050   -1.771290   10.333210
  C      7.260380   -2.739130   10.896410
  C      6.644560   -3.466410    9.874570
  C      5.768700   -4.480460   10.186910
  C      5.516320   -4.752630   11.525160
  C      6.131340   -4.034530   12.542780
  C      5.870710   -4.373250   13.979130
  C      7.017290   -3.006420   12.225800
  H     21.793840  -16.451770    8.420060
  H     20.854970  -17.003410    6.938550
  H     20.987620  -14.220460    9.627090
  H     19.173310  -12.408850    9.401990
  H     17.365970  -11.047400    8.756180
  H     15.320130   -9.994780    7.607790
  H     13.734880  -10.368600    5.622850
  H     14.184020  -14.748780    2.631390
  H     11.264980  -10.969980    2.348200
  H     12.793990   -9.295200    4.269030
  H      9.431720   -9.900240    2.690810
  H      9.969150   -8.663110    1.556300
  H      8.955490   -8.219160    2.926120
  H     10.570170   -7.273420    5.041820
  H     10.578470   -6.515630    3.444090
  H     13.067030   -6.964540    3.517590
  H     13.919550   -5.778350    5.245710
  H     11.047020   -5.700240    6.296230
  H     11.341410   -2.470560    9.664810
  H     14.672160   -5.201180    7.214680
  H     17.059190   -3.011400   10.390770
  H     15.374560   -1.633250   11.677180
  H      7.404080   -4.951910    7.758920
  H     11.589430   -2.864360    5.397560
  H      7.873050   -2.481810    3.315850
  H      6.640460   -3.275400    5.296590
  H     11.535530   -2.494680    2.971350
  H     10.595280   -1.009790    3.086530
  H      9.995800   -2.345020    2.106470
  H      6.349820   -2.591210    7.905190
  H      8.664640   -1.144010   10.864210
  H      5.283810   -5.055870    9.411990
  H      4.830930   -5.546900   11.781760
  H      4.937950   -4.920640   14.088120
  H      5.825880   -3.472990   14.588100
  H      6.678170   -4.997290   14.362690
  H      7.505700   -2.443250   13.006700

 Total Charge           Charge          ....    0
 Multiplicity           Mult            ....    1
 Number of Electrons    NEL             ....  434
 Basis Dimension        Dim             .... 1033

ORBITAL ENERGIES
----------------

  NO   OCC          E(Eh)            E(eV)
   0   2.0000     -88.935430     -2420.0561
   1   2.0000     -88.931712     -2419.9549
   2   2.0000     -19.316313      -525.6236
   3   2.0000     -19.250098      -523.8218
   4   2.0000     -19.248242      -523.7713
   5   2.0000     -19.182274      -521.9762
   6   2.0000     -19.179920      -521.9121
   7   2.0000     -14.659361      -398.9015
   8   2.0000     -14.447940      -393.1484
   9   2.0000     -14.446355      -393.1053
  10   2.0000     -14.439318      -392.9138
  11   2.0000     -14.431608      -392.7040
  12   2.0000     -14.407340      -392.0437
  13   2.0000     -14.406034      -392.0081
  14   2.0000     -10.366775      -282.0943
  15   2.0000     -10.366625      -282.0902
  16   2.0000     -10.361730      -281.9570
  17   2.0000     -10.340544      -281.3805
  18   2.0000     -10.338145      -281.3152
  19   2.0000     -10.329581      -281.0822
  20   2.0000     -10.310209      -280.5550
  21   2.0000     -10.308357      -280.5046
  22   2.0000     -10.308203      -280.5005
  23   2.0000     -10.303307      -280.3672
  24   2.0000     -10.303219      -280.3648
  25   2.0000     -10.302460      -280.3442
  26   2.0000     -10.301813      -280.3266
  27   2.0000     -10.301376      -280.3147
  28   2.0000     -10.300692      -280.2961
  29   2.0000     -10.300613      -280.2939
  30   2.0000     -10.299449      -280.2623
  31   2.0000     -10.299328      -280.2590
  32   2.0000     -10.298522      -280.2370
  33   2.0000     -10.297101      -280.1984
  34   2.0000     -10.287873      -279.9473
  35   2.0000     -10.287109      -279.9265
  36   2.0000     -10.285001      -279.8691
  37   2.0000     -10.283684      -279.8333
  38   2.0000     -10.283030      -279.8155
  39   2.0000     -10.280602      -279.7494
  40   2.0000     -10.278828      -279.7011
  41   2.0000     -10.278505      -279.6923
  42   2.0000     -10.270745      -279.4812
  43   2.0000     -10.270117      -279.4641
  44   2.0000     -10.267562      -279.3946
  45   2.0000     -10.267269      -279.3866
  46   2.0000     -10.266692      -279.3709
  47   2.0000     -10.264458      -279.3101
  48   2.0000     -10.263756      -279.2910
  49   2.0000     -10.263590      -279.2865
  50   2.0000     -10.261346      -279.2254
  51   2.0000     -10.260159      -279.1931
  52   2.0000     -10.259943      -279.1872
  53   2.0000     -10.257591      -279.1232
  54   2.0000     -10.256411      -279.0911
  55   2.0000     -10.256238      -279.0864
  56   2.0000     -10.254560      -279.0408
  57   2.0000     -10.252488      -278.9844
  58   2.0000     -10.250721      -278.9363
  59   2.0000     -10.248058      -278.8638
  60   2.0000      -8.031298      -218.5427
  61   2.0000      -8.028441      -218.4650
  62   2.0000      -6.001204      -163.3011
  63   2.0000      -5.998265      -163.2211
  64   2.0000      -5.996994      -163.1865
  65   2.0000      -5.994378      -163.1153
  66   2.0000      -5.992012      -163.0509
  67   2.0000      -5.988944      -162.9675
  68   2.0000      -1.326999       -36.1095
  69   2.0000      -1.236798       -33.6550
  70   2.0000      -1.145554       -31.1721
  71   2.0000      -1.129881       -30.7456
  72   2.0000      -1.118794       -30.4439
  73   2.0000      -1.061380       -28.8816
  74   2.0000      -1.055155       -28.7122
  75   2.0000      -1.053701       -28.6727
  76   2.0000      -1.039689       -28.2914
  77   2.0000      -1.029886       -28.0246
  78   2.0000      -0.985536       -26.8178
  79   2.0000      -0.984079       -26.7782
  80   2.0000      -0.963679       -26.2230
  81   2.0000      -0.955033       -25.9878
  82   2.0000      -0.948085       -25.7987
  83   2.0000      -0.933187       -25.3933
  84   2.0000      -0.929071       -25.2813
  85   2.0000      -0.908877       -24.7318
  86   2.0000      -0.907769       -24.7016
  87   2.0000      -0.893353       -24.3094
  88   2.0000      -0.869831       -23.6693
  89   2.0000      -0.867330       -23.6013
  90   2.0000      -0.863988       -23.5103
  91   2.0000      -0.840532       -22.8720
  92   2.0000      -0.839077       -22.8324
  93   2.0000      -0.838483       -22.8163
  94   2.0000      -0.833379       -22.6774
  95   2.0000      -0.818050       -22.2603
  96   2.0000      -0.815871       -22.2010
  97   2.0000      -0.814838       -22.1729
  98   2.0000      -0.812006       -22.0958
  99   2.0000      -0.810963       -22.0674
 100   2.0000      -0.798606       -21.7312
 101   2.0000      -0.788471       -21.4554
 102   2.0000      -0.779873       -21.2214
 103   2.0000      -0.771625       -20.9970
 104   2.0000      -0.751424       -20.4473
 105   2.0000      -0.745574       -20.2881
 106   2.0000      -0.733985       -19.9727
 107   2.0000      -0.726731       -19.7754
 108   2.0000      -0.724318       -19.7097
 109   2.0000      -0.703921       -19.1547
 110   2.0000      -0.703093       -19.1321
 111   2.0000      -0.694405       -18.8957
 112   2.0000      -0.688817       -18.7437
 113   2.0000      -0.686507       -18.6808
 114   2.0000      -0.683888       -18.6095
 115   2.0000      -0.676096       -18.3975
 116   2.0000      -0.662337       -18.0231
 117   2.0000      -0.656623       -17.8676
 118   2.0000      -0.652139       -17.7456
 119   2.0000      -0.646912       -17.6034
 120   2.0000      -0.641512       -17.4564
 121   2.0000      -0.639544       -17.4029
 122   2.0000      -0.635794       -17.3008
 123   2.0000      -0.633502       -17.2385
 124   2.0000      -0.620832       -16.8937
 125   2.0000      -0.619521       -16.8580
 126   2.0000      -0.610239       -16.6054
 127   2.0000      -0.605646       -16.4805
 128   2.0000      -0.602397       -16.3921
 129   2.0000      -0.597778       -16.2664
 130   2.0000      -0.596089       -16.2204
 131   2.0000      -0.591988       -16.1088
 132   2.0000      -0.590450       -16.0670
 133   2.0000      -0.588270       -16.0076
 134   2.0000      -0.580496       -15.7961
 135   2.0000      -0.574563       -15.6347
 136   2.0000      -0.573115       -15.5952
 137   2.0000      -0.564440       -15.3592
 138   2.0000      -0.562454       -15.3052
 139   2.0000      -0.552751       -15.0411
 140   2.0000      -0.551165       -14.9980
 141   2.0000      -0.548067       -14.9137
 142   2.0000      -0.545296       -14.8383
 143   2.0000      -0.536594       -14.6015
 144   2.0000      -0.535864       -14.5816
 145   2.0000      -0.531557       -14.4644
 146   2.0000      -0.529827       -14.4173
 147   2.0000      -0.525654       -14.3038
 148   2.0000      -0.520382       -14.1603
 149   2.0000      -0.514576       -14.0023
 150   2.0000      -0.512910       -13.9570
 151   2.0000      -0.510414       -13.8891
 152   2.0000      -0.508648       -13.8410
 153   2.0000      -0.506931       -13.7943
 154   2.0000      -0.506158       -13.7733
 155   2.0000      -0.505821       -13.7641
 156   2.0000      -0.504314       -13.7231
 157   2.0000      -0.502341       -13.6694
 158   2.0000      -0.499834       -13.6012
 159   2.0000      -0.491908       -13.3855
 160   2.0000      -0.490059       -13.3352
 161   2.0000      -0.488473       -13.2920
 162   2.0000      -0.488398       -13.2900
 163   2.0000      -0.487563       -13.2673
 164   2.0000      -0.484363       -13.1802
 165   2.0000      -0.477168       -12.9844
 166   2.0000      -0.474922       -12.9233
 167   2.0000      -0.473674       -12.8893
 168   2.0000      -0.470469       -12.8021
 169   2.0000      -0.467021       -12.7083
 170   2.0000      -0.461888       -12.5686
 171   2.0000      -0.458729       -12.4827
 172   2.0000      -0.457627       -12.4527
 173   2.0000      -0.455383       -12.3916
 174   2.0000      -0.451519       -12.2864
 175   2.0000      -0.450972       -12.2716
 176   2.0000      -0.449423       -12.2294
 177   2.0000      -0.447708       -12.1827
 178   2.0000      -0.441998       -12.0274
 179   2.0000      -0.439448       -11.9580
 180   2.0000      -0.436778       -11.8853
 181   2.0000      -0.433579       -11.7983
 182   2.0000      -0.431334       -11.7372
 183   2.0000      -0.428229       -11.6527
 184   2.0000      -0.427977       -11.6458
 185   2.0000      -0.423367       -11.5204
 186   2.0000      -0.422703       -11.5023
 187   2.0000      -0.412272       -11.2185
 188   2.0000      -0.411342       -11.1932
 189   2.0000      -0.407365       -11.0850
 190   2.0000      -0.403300       -10.9743
 191   2.0000      -0.398824       -10.8526
 192   2.0000      -0.395977       -10.7751
 193   2.0000      -0.394574       -10.7369
 194   2.0000      -0.388611       -10.5746
 195   2.0000      -0.387820       -10.5531
 196   2.0000      -0.377982       -10.2854
 197   2.0000      -0.376505       -10.2452
 198   2.0000      -0.371397       -10.1062
 199   2.0000      -0.370365       -10.0782
 200   2.0000      -0.364534        -9.9195
 201   2.0000      -0.350801        -9.5458
 202   2.0000      -0.333713        -9.0808
 203   2.0000      -0.331130        -9.0105
 204   2.0000      -0.329959        -8.9786
 205   2.0000      -0.322377        -8.7723
 206   2.0000      -0.318699        -8.6722
 207   2.0000      -0.306521        -8.3409
 208   2.0000      -0.305157        -8.3037
 209   2.0000      -0.303019        -8.2456
 210   2.0000      -0.301681        -8.2092
 211   2.0000      -0.298840        -8.1319
 212   2.0000      -0.267527        -7.2798
 213   2.0000      -0.264904        -7.2084
 214   2.0000      -0.264055        -7.1853
 215   2.0000      -0.247722        -6.7409
 216   2.0000      -0.207588        -5.6488
 217   0.0000      -0.060294        -1.6407
 218   0.0000      -0.049072        -1.3353
 219   0.0000      -0.029146        -0.7931
 220   0.0000       0.007653         0.2083
 221   0.0000       0.009094         0.2475

MULLIKEN ATOMIC CHARGES
-----------------------
   0 C :   -0.034692
   1 C :   -0.060365
   2 C :    0.047663
   3 C :    0.031531
   4 C :   -0.072612
   5 S :    0.072388
   6 C :   -0.048868
   7 C :    0.030830
   8 C :    0.026948
   9 C :   -0.021795
  10 S :    0.086655
  11 C :   -0.085202
  12 C :    0.013088
  13 O :   -0.177594
  14 C :    0.094439
  15 C :    0.094138
  16 N :    0.290938
  17 O :   -0.238281
  18 O :   -0.274807
  19 C :    0.064774
  20 N :   -0.015734
  21 C :    0.053996
  22 C :   -0.281360
  23 C :    0.075129
  24 C :    0.248566
  25 N :   -0.176976
  26 C :    0.072441
  27 C :   -0.094670
  28 C :    0.151076
  29 C :    0.131289
  30 C :   -0.000392
  31 C :   -0.030895
  32 C :    0.014979
  33 C :   -0.128025
  34 N :   -0.026403
  35 C :    0.019733
  36 C :    0.013904
  37 N :   -0.015181
  38 N :   -0.198594
  39 C :    0.096529
  40 O :   -0.183538
  41 C :    0.045091
  42 C :    0.015409
  43 C :    0.197183
  44 C :   -0.077879
  45 C :   -0.044739
  46 C :   -0.007584
  47 C :   -0.055380
  48 C :    0.090348
  49 C :    0.001825
  50 C :    0.086797
  51 O :   -0.184690
  52 N :   -0.068531
  53 C :    0.176305
  54 C :    0.017813
  55 C :   -0.041830
  56 C :   -0.012695
  57 C :   -0.038167
  58 C :    0.087036
  59 C :   -0.106854
  60 H :    0.018286
  61 H :    0.020048
  62 H :   -0.011806
  63 H :   -0.012359
  64 H :   -0.015252
  65 H :   -0.010999
  66 H :   -0.004281
  67 H :    0.028315
  68 H :    0.132177
  69 H :   -0.014344
  70 H :    0.026397
  71 H :    0.035896
  72 H :    0.016458
  73 H :    0.039536
  74 H :    0.013092
  75 H :    0.121091
  76 H :    0.002625
  77 H :   -0.008728
  78 H :   -0.043684
  79 H :   -0.048645
  80 H :    0.004096
  81 H :    0.003273
  82 H :    0.033103
  83 H :   -0.037275
  84 H :   -0.040865
  85 H :   -0.038873
  86 H :    0.008488
  87 H :    0.038045
  88 H :    0.010506
  89 H :    0.037863
  90 H :    0.124691
  91 H :   -0.039254
  92 H :   -0.038482
  93 H :    0.010087
  94 H :    0.015893
  95 H :    0.035356
  96 H :   -0.054974
Sum of atomic charges:   -0.0000000

LOEWDIN ATOMIC CHARGES
----------------------
   0 C :   -0.081565
   1 C :   -0.138811
   2 C :   -0.034357
   3 C :   -0.026304
   4 C :   -0.179283
   5 S :    0.345818
   6 C :   -0.184195
   7 C :   -0.033469
   8 C :   -0.035281
   9 C :   -0.147469
  10 S :    0.369876
  11 C :   -0.088873
  12 C :   -0.020194
  13 O :    0.041871
  14 C :    0.088168
  15 C :   -0.105824
  16 N :    0.297001
  17 O :   -0.200689
  18 O :   -0.225469
  19 C :    0.002050
  20 N :    0.031744
  21 C :   -0.002855
  22 C :   -0.095131
  23 C :   -0.051212
  24 C :    0.048090
  25 N :   -0.012188
  26 C :    0.044093
  27 C :   -0.128434
  28 C :   -0.004874
  29 C :    0.023123
  30 C :    0.007326
  31 C :   -0.022515
  32 C :   -0.011118
  33 C :   -0.033282
  34 N :   -0.050253
  35 C :   -0.003359
  36 C :   -0.011454
  37 N :   -0.040032
  38 N :    0.008567
  39 C :    0.077267
  40 O :   -0.183586
  41 C :   -0.021368
  42 C :   -0.047564
  43 C :    0.043554
  44 C :   -0.048275
  45 C :   -0.013745
  46 C :   -0.047968
  47 C :   -0.016872
  48 C :   -0.045194
  49 C :   -0.022998
  50 C :    0.068811
  51 O :   -0.192513
  52 N :    0.028274
  53 C :    0.040412
  54 C :   -0.048008
  55 C :   -0.012835
  56 C :   -0.048716
  57 C :   -0.008968
  58 C :   -0.044979
  59 C :   -0.058673
  60 H :    0.027761
  61 H :    0.025337
  62 H :    0.032791
  63 H :    0.031963
  64 H :    0.030763
  65 H :    0.033282
  66 H :    0.039202
  67 H :    0.038919
  68 H :    0.071634
  69 H :    0.017609
  70 H :    0.030826
  71 H :    0.037923
  72 H :    0.033601
  73 H :    0.037186
  74 H :    0.020743
  75 H :    0.075102
  76 H :    0.025915
  77 H :    0.021572
  78 H :    0.038004
  79 H :    0.026382
  80 H :    0.022590
  81 H :    0.022240
  82 H :    0.046718
  83 H :    0.029509
  84 H :    0.021385
  85 H :    0.024636
  86 H :    0.027814
  87 H :    0.039937
  88 H :    0.028362
  89 H :    0.047514
  90 H :    0.089586
  91 H :    0.024497
  92 H :    0.021875
  93 H :    0.028737
  94 H :    0.030251
  95 H :    0.038990
  96 H :    0.023556

  Mayer bond orders larger than 0.100000
B(  0-C ,  1-C ) :   1.8644 B(  0-C , 60-H ) :   0.9507 B(  0-C , 61-H ) :   0.9420
B(  1-C ,  2-C ) :   1.0790 B(  1-C ,  5-S ) :   1.0077 B(  2-C ,  3-C ) :   1.6637
B(  2-C , 62-H ) :   0.9929 B(  3-C ,  4-C ) :   1.1501 B(  3-C , 63-H ) :   0.9916
B(  4-C ,  5-S ) :   1.0403 B(  4-C ,  6-C ) :   1.5691 B(  6-C ,  7-C ) :   1.1648
B(  6-C , 10-S ) :   1.0168 B(  7-C ,  8-C ) :   1.6158 B(  7-C , 64-H ) :   0.9935
B(  8-C ,  9-C ) :   1.1267 B(  8-C , 65-H ) :   0.9993 B(  9-C , 10-S ) :   1.0368
B(  9-C , 11-C ) :   1.5953 B( 11-C , 12-C ) :   1.1671 B( 11-C , 66-H ) :   0.9647
B( 12-C , 13-O ) :   1.0701 B( 12-C , 19-C ) :   1.3362 B( 13-O , 14-C ) :   1.2209
B( 14-C , 15-C ) :   1.4072 B( 14-C , 67-H ) :   1.0158 B( 15-C , 16-N ) :   0.9653
B( 15-C , 19-C ) :   1.2403 B( 16-N , 17-O ) :   1.5519 B( 16-N , 18-O ) :   1.4605
B( 17-O , 18-O ) :   0.2526 B( 18-O , 68-H ) :   0.1094 B( 19-C , 20-N ) :   1.2656
B( 20-N , 21-C ) :   1.1038 B( 20-N , 68-H ) :   0.8564 B( 21-C , 22-C ) :   1.8160
B( 21-C , 69-H ) :   0.9390 B( 22-C , 23-C ) :   1.0783 B( 22-C , 24-C ) :   1.0229
B( 23-C , 70-H ) :   0.9521 B( 23-C , 71-H ) :   0.9506 B( 23-C , 72-H ) :   0.9492
B( 24-C , 25-N ) :   0.9958 B( 24-C , 73-H ) :   0.9151 B( 24-C , 74-H ) :   0.9390
B( 25-N , 26-C ) :   1.2122 B( 25-N , 75-H ) :   0.9321 B( 26-C , 27-C ) :   1.6810
B( 26-C , 76-H ) :   0.9590 B( 27-C , 28-C ) :   1.1014 B( 27-C , 77-H ) :   0.9454
B( 28-C , 29-C ) :   1.2539 B( 28-C , 33-C ) :   1.3706 B( 29-C , 30-C ) :   1.4702
B( 29-C , 38-N ) :   0.8981 B( 30-C , 31-C ) :   1.1839 B( 30-C , 33-C ) :   0.1137
B( 30-C , 78-H ) :   1.0196 B( 31-C , 32-C ) :   1.2391 B( 31-C , 37-N ) :   1.4428
B( 32-C , 33-C ) :   1.2279 B( 32-C , 34-N ) :   1.4329 B( 33-C , 79-H ) :   1.0102
B( 34-N , 35-C ) :   1.6706 B( 35-C , 36-C ) :   1.2334 B( 35-C , 80-H ) :   0.9737
B( 36-C , 37-N ) :   1.6605 B( 36-C , 81-H ) :   0.9743 B( 38-N , 39-C ) :   1.1079
B( 38-N , 43-C ) :   0.9972 B( 39-C , 40-O ) :   2.1694 B( 39-C , 41-C ) :   0.9103
B( 41-C , 42-C ) :   0.9637 B( 41-C , 49-C ) :   1.0366 B( 41-C , 82-H ) :   0.8786
B( 42-C , 43-C ) :   1.3832 B( 42-C , 47-C ) :   1.4162 B( 43-C , 44-C ) :   1.3812
B( 44-C , 45-C ) :   1.3309 B( 44-C , 83-H ) :   0.9984 B( 45-C , 46-C ) :   1.4152
B( 45-C , 48-C ) :   1.0524 B( 46-C , 47-C ) :   1.3445 B( 46-C , 84-H ) :   0.9893
B( 47-C , 85-H ) :   1.0017 B( 48-C , 86-H ) :   0.9598 B( 48-C , 87-H ) :   0.9537
B( 48-C , 88-H ) :   0.9605 B( 49-C , 50-C ) :   0.9025 B( 49-C , 54-C ) :   0.9670
B( 49-C , 89-H ) :   0.8808 B( 50-C , 51-O ) :   2.1874 B( 50-C , 52-N ) :   1.1483
B( 52-N , 53-C ) :   1.0617 B( 52-N , 90-H ) :   0.9248 B( 53-C , 54-C ) :   1.3641
B( 53-C , 59-C ) :   1.3628 B( 54-C , 55-C ) :   1.4301 B( 55-C , 56-C ) :   1.3414
B( 55-C , 91-H ) :   1.0016 B( 56-C , 57-C ) :   1.4259 B( 56-C , 92-H ) :   0.9887
B( 57-C , 58-C ) :   1.0508 B( 57-C , 59-C ) :   1.3340 B( 58-C , 93-H ) :   0.9613
B( 58-C , 94-H ) :   0.9596 B( 58-C , 95-H ) :   0.9544 B( 59-C , 96-H ) :   1.0090

-----------------------------------------------------------------------------
         ABSORPTION SPECTRUM VIA TRANSITION ELECTRIC DIPOLE MOMENTS
-----------------------------------------------------------------------------
State   Energy  Wavelength   fosc         T2         TX        TY        TZ
        (cm-1)    (nm)                  (au**2)     (au)      (au)      (au)
-----------------------------------------------------------------------------
   0   16681.5    599.5   0.193222705   3.81329  -1.46339   0.11306  -1.28802
   1   19247.4    519.6   1.238092930  21.17664  -3.57989   2.22880  -1.84214
   2   27409.1    364.8   0.046862985   0.56287   0.20216  -0.63307  -0.34818
   3   28225.4    354.3   0.025615837   0.29878  -0.33779  -0.20448  -0.37797
   4   28496.2    350.9   0.010619328   0.12268   0.06396   0.26388   0.22127
   5   29204.1    342.4   0.195346745   2.20210  -0.98655  -0.53839  -0.96900
   6   29338.9    340.8   0.033898113   0.38037  -0.44781  -0.15984  -0.39279
   7   30578.1    327.0   0.009800307   0.10551  -0.08590   0.16760  -0.26466
   8   31339.6    319.1   0.006338657   0.06659  -0.00518  -0.17804  -0.18671
   9   31879.7    313.7   0.037971752   0.39212   0.06881   0.33263   0.52606
  10   32576.6    307.0   0.027975773   0.28272   0.44960   0.05113   0.27921
  11   34388.7    290.8   0.037755759   0.36145  -0.07566   0.50894   0.31097
  12   34941.0    286.2   0.000866118   0.00816   0.05158   0.02471   0.06993
  13   35161.9    284.4   0.000021593   0.00020   0.01356  -0.00405   0.00134
  14   35406.3    282.4   0.000181216   0.00168  -0.00827   0.03789  -0.01346
  15   35887.0    278.7   0.043849009   0.40225   0.13655   0.35749   0.50577
  16   37215.6    268.7   0.514228347   4.54890   0.49090   1.25752   1.65123
  17   37415.1    267.3   0.000996456   0.00877  -0.04475  -0.03948  -0.07215
  18   37642.6    265.7   0.017431439   0.15245   0.16461   0.22112   0.27652
  19   37669.0    265.5   0.009985954   0.08727  -0.13992  -0.15856  -0.20629
  20   37776.2    264.7   0.003884292   0.03385  -0.11723   0.14180  -0.00158
  21   37977.3    263.3   0.257064964   2.22840  -0.60474  -0.70233  -1.17022
  22   39518.9    253.0   0.011604855   0.09667   0.16247  -0.00759   0.26499
  23   39788.3    251.3   0.003636533   0.03009   0.17183  -0.01099   0.02106
  24   39910.3    250.6   0.001776551   0.01465   0.05099   0.03592   0.10375
  25   40102.6    249.4   0.000031793   0.00026  -0.00026   0.00926   0.01323
  26   40156.7    249.0   0.116481390   0.95493  -0.47567   0.66956   0.52949

FINAL SINGLE POINT ENERGY     -3327.428088362442

DIPOLE MOMENT
-------------
                                X             Y             Z
Electronic contribution:     26.05241     -29.20607      -5.95722
Nuclear contribution   :    -25.86701      29.40394       6.18794
                        -----------------------------------------
Total Dipole Moment    :      0.18540       0.19787       0.23072
                        -----------------------------------------
Magnitude (a.u.)       :      0.35602
Magnitude (Debye)      :      0.90494

Rotational constants in cm-1:     0.001563     0.000529     0.000463
Rotational constants in MHz :    46.847581    15.871354    13.873724

                             ****ORCA TERMINATED NORMALLY****
TOTAL RUN TIME: 0 days 0 hours 9 minutes 20 seconds 41 msec
