                         Program Version 4.2.0 -  RELEASE  -
|  1> # ORCA input file
|  2> # SCF done       -141.337440390608          0.000365390615
|  3> ! CAM-B3LYP def2-SVP def2/J RIJCOSX Grid4 TightSCF
|  4> %maxcore 5000
|  5> %tddft
|  6>     Mode sTDDFT
|  7>     Ethresh 5.0
|  8>     maxcore 5000
|  9> end
| 10>
| 11> %pal
| 12>   nprocs 6
| 13>   end
| 14> * xyz 0 1
| 15>    C       12.26990         1.71955         2.34406
| 16>    C       12.39698         0.78279         1.39488
| 17>    C       13.58128         0.43649         0.66008
| 18>    C       13.40648        -0.55436        -0.23989
| 19>    C       12.07944        -1.07340        -0.29156
| 20>    S       11.05555        -0.24237         0.85560
| 21>    C       11.61087        -2.07632        -1.10661
| 22>    C       12.34169        -2.81578        -2.07228
| 23>    C       11.59362        -3.73475        -2.73084
| 24>    C       10.23037        -3.78565        -2.31871
| 25>    S        9.94252        -2.61863        -1.05361
| 26>    C        9.28269        -4.58649        -2.90173
| 27>    C        7.93008        -4.73504        -2.54439
| 28>    O        7.11097        -5.30662        -3.48143
| 29>    C        7.15987        -4.45512        -1.42183
| 30>    C        7.19122        -4.00697        -0.03507
| 31>    O        8.10028        -3.67558         0.68663
| 32>    N        5.85729        -4.08687         0.37520
| 33>    C        4.97965        -4.60510        -0.56619
| 34>    O        3.79866        -4.78638        -0.39261
| 35>    C        5.83089        -4.85787        -1.72733
| 36>    C        5.83957        -5.37911        -3.00442
| 37>    C        4.82410        -5.93387        -3.83207
| 38>    C        3.54221        -6.05969        -3.42888
| 39>    C        2.45620        -6.61252        -4.20096
| 40>    C        2.56213        -6.90538        -5.56622
| 41>    C        1.50645        -7.43987        -6.28735
| 42>    C        0.31511        -7.69653        -5.63470
| 43>    C        0.19219        -7.40606        -4.26061
| 44>    C        1.23475        -6.86509        -3.54828
| 45>    C       -1.17462        -7.77798        -3.80086
| 46>    O       -1.63728        -7.67375        -2.68993
| 47>    C       -1.84279        -8.30735        -5.02018
| 48>    C       -0.94781        -8.24759        -6.10701
| 49>    C       -1.35960        -8.66292        -7.35771
| 50>    C       -2.65012        -9.15442        -7.50896
| 51>    C       -3.53583        -9.24286        -6.43475
| 52>    C       -3.12163        -8.78772        -5.17301
| 53>    C       -4.89555        -9.75069        -6.57440
| 54>    C       -5.32224       -10.77109        -7.32325
| 55>    C       -4.44592       -11.65874        -8.15223
| 56>    C       -6.77684       -11.18423        -7.26702
| 57>    N       -7.00791       -12.20090        -6.25812
| 58>    C       -7.05922       -11.84542        -4.93009
| 59>    C       -6.71495       -12.64336        -3.90788
| 60>    C       -6.88835       -12.26697        -2.53265
| 61>    C       -6.54657       -13.00499        -1.46814
| 62>    C       -5.92754       -14.36780        -1.57329
| 63>    C       -6.72007       -12.46831        -0.06865
| 64>    N       -7.27333       -13.45689         0.83634
| 65>    C       -8.60788       -13.80178         0.77157
| 66>    C       -9.45142       -13.54229        -0.22067
| 67>    H       13.11184         2.32018         2.64048
| 68>    H       11.33253         1.90031         2.83713
| 69>    H       14.51014         0.94707         0.84319
| 70>    H       14.18340        -0.94098        -0.87518
| 71>    H       13.38848        -2.64658        -2.24998
| 72>    H       11.96593        -4.38930        -3.49918
| 73>    H        9.58156        -5.14642        -3.77809
| 74>    H        5.56891        -3.83889         1.31058
| 75>    H        5.15807        -6.25767        -4.80712
| 76>    H        3.28751        -5.73748        -2.42749
| 77>    H        3.48765        -6.69814        -6.08088
| 78>    H        1.61829        -7.64878        -7.34101
| 79>    H        1.12404        -6.64308        -2.49729
| 80>    H       -0.69870        -8.60401        -8.20983
| 81>    H       -2.98704        -9.44118        -8.49281
| 82>    H       -3.79384        -8.82800        -4.32855
| 83>    H       -5.62067        -9.24277        -5.94991
| 84>    H       -3.41346       -11.63001        -7.81308
| 85>    H       -4.47846       -11.35417        -9.19924
| 86>    H       -4.80244       -12.68708        -8.10299
| 87>    H       -7.09084       -11.59001        -8.23367
| 88>    H       -7.41009       -10.32740        -7.02576
| 89>    H       -6.50462       -13.06334        -6.42433
| 90>    H       -7.47922       -10.86508        -4.74926
| 91>    H       -6.29461       -13.61688        -4.11590
| 92>    H       -7.32618       -11.28880        -2.37114
| 93>    H       -6.55257       -15.03054        -2.16943
| 94>    H       -5.81676       -14.80287        -0.58411
| 95>    H       -4.94592       -14.31095        -2.04461
| 96>    H       -7.33988       -11.55964        -0.09706
| 97>    H       -5.73269       -12.19247         0.31977
| 98>    H       -6.89995       -13.42054         1.77202
| 99>    H       -8.93328       -14.38466         1.62508
|100>    H       -9.16760       -12.98260        -1.09192
|101>    H      -10.46010       -13.91097        -0.18608
|102> *
|103>
|104>                          ****END OF INPUT****

CARTESIAN COORDINATES (ANGSTROEM)
---------------------------------
  C     12.269900    1.719550    2.344060
  C     12.396980    0.782790    1.394880
  C     13.581280    0.436490    0.660080
  C     13.406480   -0.554360   -0.239890
  C     12.079440   -1.073400   -0.291560
  S     11.055550   -0.242370    0.855600
  C     11.610870   -2.076320   -1.106610
  C     12.341690   -2.815780   -2.072280
  C     11.593620   -3.734750   -2.730840
  C     10.230370   -3.785650   -2.318710
  S      9.942520   -2.618630   -1.053610
  C      9.282690   -4.586490   -2.901730
  C      7.930080   -4.735040   -2.544390
  O      7.110970   -5.306620   -3.481430
  C      7.159870   -4.455120   -1.421830
  C      7.191220   -4.006970   -0.035070
  O      8.100280   -3.675580    0.686630
  N      5.857290   -4.086870    0.375200
  C      4.979650   -4.605100   -0.566190
  O      3.798660   -4.786380   -0.392610
  C      5.830890   -4.857870   -1.727330
  C      5.839570   -5.379110   -3.004420
  C      4.824100   -5.933870   -3.832070
  C      3.542210   -6.059690   -3.428880
  C      2.456200   -6.612520   -4.200960
  C      2.562130   -6.905380   -5.566220
  C      1.506450   -7.439870   -6.287350
  C      0.315110   -7.696530   -5.634700
  C      0.192190   -7.406060   -4.260610
  C      1.234750   -6.865090   -3.548280
  C     -1.174620   -7.777980   -3.800860
  O     -1.637280   -7.673750   -2.689930
  C     -1.842790   -8.307350   -5.020180
  C     -0.947810   -8.247590   -6.107010
  C     -1.359600   -8.662920   -7.357710
  C     -2.650120   -9.154420   -7.508960
  C     -3.535830   -9.242860   -6.434750
  C     -3.121630   -8.787720   -5.173010
  C     -4.895550   -9.750690   -6.574400
  C     -5.322240  -10.771090   -7.323250
  C     -4.445920  -11.658740   -8.152230
  C     -6.776840  -11.184230   -7.267020
  N     -7.007910  -12.200900   -6.258120
  C     -7.059220  -11.845420   -4.930090
  C     -6.714950  -12.643360   -3.907880
  C     -6.888350  -12.266970   -2.532650
  C     -6.546570  -13.004990   -1.468140
  C     -5.927540  -14.367800   -1.573290
  C     -6.720070  -12.468310   -0.068650
  N     -7.273330  -13.456890    0.836340
  C     -8.607880  -13.801780    0.771570
  C     -9.451420  -13.542290   -0.220670
  H     13.111840    2.320180    2.640480
  H     11.332530    1.900310    2.837130
  H     14.510140    0.947070    0.843190
  H     14.183400   -0.940980   -0.875180
  H     13.388480   -2.646580   -2.249980
  H     11.965930   -4.389300   -3.499180
  H      9.581560   -5.146420   -3.778090
  H      5.568910   -3.838890    1.310580
  H      5.158070   -6.257670   -4.807120
  H      3.287510   -5.737480   -2.427490
  H      3.487650   -6.698140   -6.080880
  H      1.618290   -7.648780   -7.341010
  H      1.124040   -6.643080   -2.497290
  H     -0.698700   -8.604010   -8.209830
  H     -2.987040   -9.441180   -8.492810
  H     -3.793840   -8.828000   -4.328550
  H     -5.620670   -9.242770   -5.949910
  H     -3.413460  -11.630010   -7.813080
  H     -4.478460  -11.354170   -9.199240
  H     -4.802440  -12.687080   -8.102990
  H     -7.090840  -11.590010   -8.233670
  H     -7.410090  -10.327400   -7.025760
  H     -6.504620  -13.063340   -6.424330
  H     -7.479220  -10.865080   -4.749260
  H     -6.294610  -13.616880   -4.115900
  H     -7.326180  -11.288800   -2.371140
  H     -6.552570  -15.030540   -2.169430
  H     -5.816760  -14.802870   -0.584110
  H     -4.945920  -14.310950   -2.044610
  H     -7.339880  -11.559640   -0.097060
  H     -5.732690  -12.192470    0.319770
  H     -6.899950  -13.420540    1.772020
  H     -8.933280  -14.384660    1.625080
  H     -9.167600  -12.982600   -1.091920
  H    -10.460100  -13.910970   -0.186080

 Total Charge           Charge          ....    0
 Multiplicity           Mult            ....    1
 Number of Electrons    NEL             ....  378
 Basis Dimension        Dim             ....  911

ORBITAL ENERGIES
----------------

  NO   OCC          E(Eh)            E(eV)
   0   2.0000     -88.939590     -2420.1693
   1   2.0000     -88.939008     -2420.1534
   2   2.0000     -19.293494      -525.0027
   3   2.0000     -19.205135      -522.5983
   4   2.0000     -19.197709      -522.3962
   5   2.0000     -19.192768      -522.2618
   6   2.0000     -14.439383      -392.9156
   7   2.0000     -14.408644      -392.0791
   8   2.0000     -14.393893      -391.6777
   9   2.0000     -10.385177      -282.5950
  10   2.0000     -10.383265      -282.5430
  11   2.0000     -10.351159      -281.6694
  12   2.0000     -10.349034      -281.6115
  13   2.0000     -10.347088      -281.5586
  14   2.0000     -10.314056      -280.6597
  15   2.0000     -10.312752      -280.6242
  16   2.0000     -10.307866      -280.4913
  17   2.0000     -10.304832      -280.4087
  18   2.0000     -10.298360      -280.2326
  19   2.0000     -10.291232      -280.0387
  20   2.0000     -10.288265      -279.9579
  21   2.0000     -10.288059      -279.9523
  22   2.0000     -10.285153      -279.8732
  23   2.0000     -10.283923      -279.8398
  24   2.0000     -10.282412      -279.7986
  25   2.0000     -10.281921      -279.7853
  26   2.0000     -10.281260      -279.7673
  27   2.0000     -10.280841      -279.7559
  28   2.0000     -10.280584      -279.7489
  29   2.0000     -10.280191      -279.7382
  30   2.0000     -10.279012      -279.7061
  31   2.0000     -10.278600      -279.6949
  32   2.0000     -10.278554      -279.6937
  33   2.0000     -10.278414      -279.6899
  34   2.0000     -10.277818      -279.6736
  35   2.0000     -10.277456      -279.6638
  36   2.0000     -10.277322      -279.6602
  37   2.0000     -10.276022      -279.6248
  38   2.0000     -10.275033      -279.5979
  39   2.0000     -10.273564      -279.5579
  40   2.0000     -10.273456      -279.5550
  41   2.0000     -10.273370      -279.5526
  42   2.0000     -10.272114      -279.5184
  43   2.0000     -10.268825      -279.4289
  44   2.0000     -10.268094      -279.4090
  45   2.0000     -10.266984      -279.3788
  46   2.0000     -10.262690      -279.2620
  47   2.0000     -10.239081      -278.6196
  48   2.0000     -10.234862      -278.5048
  49   2.0000     -10.232389      -278.4375
  50   2.0000     -10.232357      -278.4366
  51   2.0000     -10.211110      -277.8584
  52   2.0000      -8.036344      -218.6800
  53   2.0000      -8.034930      -218.6416
  54   2.0000      -6.006152      -163.4357
  55   2.0000      -6.004663      -163.3952
  56   2.0000      -6.002201      -163.3282
  57   2.0000      -6.000522      -163.2825
  58   2.0000      -5.996882      -163.1834
  59   2.0000      -5.995745      -163.1525
  60   2.0000      -1.208912       -32.8962
  61   2.0000      -1.140226       -31.0271
  62   2.0000      -1.119084       -30.4518
  63   2.0000      -1.116884       -30.3920
  64   2.0000      -1.027243       -27.9527
  65   2.0000      -1.011613       -27.5274
  66   2.0000      -0.992508       -27.0075
  67   2.0000      -0.992328       -27.0026
  68   2.0000      -0.984011       -26.7763
  69   2.0000      -0.970168       -26.3996
  70   2.0000      -0.951655       -25.8959
  71   2.0000      -0.921664       -25.0798
  72   2.0000      -0.908399       -24.7188
  73   2.0000      -0.906897       -24.6779
  74   2.0000      -0.890802       -24.2399
  75   2.0000      -0.880735       -23.9660
  76   2.0000      -0.874806       -23.8047
  77   2.0000      -0.863163       -23.4879
  78   2.0000      -0.853514       -23.2253
  79   2.0000      -0.845411       -23.0048
  80   2.0000      -0.840140       -22.8614
  81   2.0000      -0.833541       -22.6818
  82   2.0000      -0.825425       -22.4610
  83   2.0000      -0.818855       -22.2822
  84   2.0000      -0.806697       -21.9513
  85   2.0000      -0.797314       -21.6960
  86   2.0000      -0.781822       -21.2745
  87   2.0000      -0.773231       -21.0407
  88   2.0000      -0.761489       -20.7212
  89   2.0000      -0.753489       -20.5035
  90   2.0000      -0.751919       -20.4608
  91   2.0000      -0.749219       -20.3873
  92   2.0000      -0.747103       -20.3297
  93   2.0000      -0.731515       -19.9055
  94   2.0000      -0.716590       -19.4994
  95   2.0000      -0.705662       -19.2020
  96   2.0000      -0.693383       -18.8679
  97   2.0000      -0.684262       -18.6197
  98   2.0000      -0.681483       -18.5441
  99   2.0000      -0.669250       -18.2112
 100   2.0000      -0.664087       -18.0707
 101   2.0000      -0.661495       -18.0002
 102   2.0000      -0.645798       -17.5730
 103   2.0000      -0.632906       -17.2223
 104   2.0000      -0.623546       -16.9676
 105   2.0000      -0.618977       -16.8432
 106   2.0000      -0.607543       -16.5321
 107   2.0000      -0.604635       -16.4530
 108   2.0000      -0.600788       -16.3483
 109   2.0000      -0.592494       -16.1226
 110   2.0000      -0.590423       -16.0662
 111   2.0000      -0.588049       -16.0016
 112   2.0000      -0.584685       -15.9101
 113   2.0000      -0.582834       -15.8597
 114   2.0000      -0.580796       -15.8043
 115   2.0000      -0.574008       -15.6196
 116   2.0000      -0.568752       -15.4765
 117   2.0000      -0.568230       -15.4623
 118   2.0000      -0.561559       -15.2808
 119   2.0000      -0.552182       -15.0256
 120   2.0000      -0.547553       -14.8997
 121   2.0000      -0.541326       -14.7302
 122   2.0000      -0.538179       -14.6446
 123   2.0000      -0.531966       -14.4755
 124   2.0000      -0.531293       -14.4572
 125   2.0000      -0.528579       -14.3834
 126   2.0000      -0.522114       -14.2074
 127   2.0000      -0.521085       -14.1794
 128   2.0000      -0.518013       -14.0959
 129   2.0000      -0.517567       -14.0837
 130   2.0000      -0.512753       -13.9527
 131   2.0000      -0.510207       -13.8834
 132   2.0000      -0.506947       -13.7947
 133   2.0000      -0.506573       -13.7846
 134   2.0000      -0.503048       -13.6886
 135   2.0000      -0.501470       -13.6457
 136   2.0000      -0.499676       -13.5969
 137   2.0000      -0.494573       -13.4580
 138   2.0000      -0.494195       -13.4477
 139   2.0000      -0.489609       -13.3229
 140   2.0000      -0.484994       -13.1974
 141   2.0000      -0.482288       -13.1237
 142   2.0000      -0.480163       -13.0659
 143   2.0000      -0.478040       -13.0081
 144   2.0000      -0.470791       -12.8109
 145   2.0000      -0.469991       -12.7891
 146   2.0000      -0.466259       -12.6875
 147   2.0000      -0.460273       -12.5247
 148   2.0000      -0.458949       -12.4886
 149   2.0000      -0.456579       -12.4241
 150   2.0000      -0.453782       -12.3480
 151   2.0000      -0.453423       -12.3383
 152   2.0000      -0.449038       -12.2189
 153   2.0000      -0.447731       -12.1834
 154   2.0000      -0.447067       -12.1653
 155   2.0000      -0.440624       -11.9900
 156   2.0000      -0.438525       -11.9329
 157   2.0000      -0.436145       -11.8681
 158   2.0000      -0.429246       -11.6804
 159   2.0000      -0.429115       -11.6768
 160   2.0000      -0.420157       -11.4331
 161   2.0000      -0.418605       -11.3908
 162   2.0000      -0.418409       -11.3855
 163   2.0000      -0.415303       -11.3010
 164   2.0000      -0.409610       -11.1461
 165   2.0000      -0.407713       -11.0944
 166   2.0000      -0.396461       -10.7882
 167   2.0000      -0.396300       -10.7839
 168   2.0000      -0.391780       -10.6609
 169   2.0000      -0.389506       -10.5990
 170   2.0000      -0.368411       -10.0250
 171   2.0000      -0.367036        -9.9875
 172   2.0000      -0.361117        -9.8265
 173   2.0000      -0.355280        -9.6677
 174   2.0000      -0.347322        -9.4511
 175   2.0000      -0.341639        -9.2965
 176   2.0000      -0.338837        -9.2202
 177   2.0000      -0.332452        -9.0465
 178   2.0000      -0.330179        -8.9846
 179   2.0000      -0.325153        -8.8479
 180   2.0000      -0.324825        -8.8389
 181   2.0000      -0.321781        -8.7561
 182   2.0000      -0.316312        -8.6073
 183   2.0000      -0.307735        -8.3739
 184   2.0000      -0.285307        -7.7636
 185   2.0000      -0.258662        -7.0385
 186   2.0000      -0.248785        -6.7698
 187   2.0000      -0.224829        -6.1179
 188   2.0000      -0.217321        -5.9136
 189   0.0000      -0.072683        -1.9778
 190   0.0000      -0.056832        -1.5465
 191   0.0000      -0.032087        -0.8731
 192   0.0000      -0.006328        -0.1722
 193   0.0000       0.000781         0.0212

MULLIKEN ATOMIC CHARGES
-----------------------
   0 C :   -0.025112
   1 C :   -0.066260
   2 C :    0.056646
   3 C :    0.030877
   4 C :   -0.064881
   5 S :    0.100694
   6 C :   -0.059198
   7 C :    0.038148
   8 C :    0.024542
   9 C :   -0.011897
  10 S :    0.147448
  11 C :   -0.072612
  12 C :    0.124705
  13 O :   -0.214865
  14 C :   -0.059456
  15 C :    0.152737
  16 O :   -0.155752
  17 N :   -0.155192
  18 C :    0.184617
  19 O :   -0.166467
  20 C :   -0.094867
  21 C :    0.124716
  22 C :    0.019463
  23 C :   -0.012419
  24 C :    0.111191
  25 C :   -0.002055
  26 C :   -0.044631
  27 C :    0.114034
  28 C :   -0.030296
  29 C :   -0.084734
  30 C :    0.163716
  31 O :   -0.119455
  32 C :   -0.029305
  33 C :    0.112070
  34 C :   -0.055462
  35 C :   -0.003500
  36 C :    0.086290
  37 C :   -0.078922
  38 C :   -0.003361
  39 C :   -0.181828
  40 C :    0.085985
  41 C :    0.179547
  42 N :   -0.158458
  43 C :    0.050490
  44 C :   -0.019168
  45 C :    0.025289
  46 C :   -0.226959
  47 C :    0.106650
  48 C :    0.186546
  49 N :   -0.179693
  50 C :    0.032363
  51 C :   -0.083467
  52 H :    0.022829
  53 H :    0.026163
  54 H :   -0.009319
  55 H :   -0.010750
  56 H :   -0.012826
  57 H :   -0.012638
  58 H :   -0.009738
  59 H :    0.133678
  60 H :   -0.020852
  61 H :    0.007499
  62 H :   -0.021928
  63 H :   -0.032995
  64 H :   -0.001820
  65 H :   -0.032859
  66 H :   -0.022455
  67 H :   -0.013911
  68 H :   -0.017370
  69 H :    0.033032
  70 H :    0.031856
  71 H :    0.000821
  72 H :    0.003454
  73 H :    0.011714
  74 H :    0.104691
  75 H :   -0.017292
  76 H :   -0.039984
  77 H :   -0.045197
  78 H :    0.020640
  79 H :    0.001956
  80 H :    0.013383
  81 H :   -0.004974
  82 H :    0.006982
  83 H :    0.110788
  84 H :   -0.008821
  85 H :    0.007666
  86 H :    0.000087
Sum of atomic charges:   -0.0000000

LOEWDIN ATOMIC CHARGES
----------------------
   0 C :   -0.066771
   1 C :   -0.140603
   2 C :   -0.024239
   3 C :   -0.027483
   4 C :   -0.165039
   5 S :    0.367463
   6 C :   -0.188449
   7 C :   -0.023610
   8 C :   -0.039600
   9 C :   -0.126026
  10 S :    0.431723
  11 C :   -0.101762
  12 C :    0.067292
  13 O :    0.005642
  14 C :   -0.117921
  15 C :    0.076128
  16 O :   -0.171774
  17 N :   -0.003508
  18 C :    0.084512
  19 O :   -0.172870
  20 C :   -0.104992
  21 C :    0.068490
  22 C :   -0.049714
  23 C :    0.018420
  24 C :   -0.031645
  25 C :    0.008343
  26 C :   -0.021416
  27 C :    0.001398
  28 C :   -0.060578
  29 C :    0.028574
  30 C :    0.089205
  31 O :   -0.124081
  32 C :   -0.058351
  33 C :   -0.008850
  34 C :   -0.020932
  35 C :   -0.004283
  36 C :   -0.022620
  37 C :    0.021873
  38 C :   -0.043972
  39 C :   -0.036938
  40 C :   -0.052322
  41 C :    0.040341
  42 N :   -0.032659
  43 C :    0.025619
  44 C :   -0.107183
  45 C :   -0.047205
  46 C :   -0.056897
  47 C :   -0.055114
  48 C :    0.037881
  49 N :   -0.044057
  50 C :    0.014686
  51 C :   -0.155837
  52 H :    0.029900
  53 H :    0.028299
  54 H :    0.034471
  55 H :    0.032644
  56 H :    0.031429
  57 H :    0.032619
  58 H :    0.040417
  59 H :    0.092494
  60 H :    0.031547
  61 H :    0.035937
  62 H :    0.028085
  63 H :    0.028470
  64 H :    0.041053
  65 H :    0.027717
  66 H :    0.029368
  67 H :    0.036606
  68 H :    0.026384
  69 H :    0.034100
  70 H :    0.036544
  71 H :    0.024126
  72 H :    0.022652
  73 H :    0.028518
  74 H :    0.067477
  75 H :    0.019206
  76 H :    0.017035
  77 H :    0.017301
  78 H :    0.031988
  79 H :    0.022748
  80 H :    0.028336
  81 H :    0.013045
  82 H :    0.027279
  83 H :    0.068459
  84 H :    0.019115
  85 H :    0.017993
  86 H :    0.018349

  Mayer bond orders larger than 0.100000
B(  0-C ,  1-C ) :   1.8650 B(  0-C , 52-H ) :   0.9513 B(  0-C , 53-H ) :   0.9419
B(  1-C ,  2-C ) :   1.0780 B(  1-C ,  5-S ) :   1.0059 B(  2-C ,  3-C ) :   1.6649
B(  2-C , 54-H ) :   0.9929 B(  3-C ,  4-C ) :   1.1480 B(  3-C , 55-H ) :   0.9913
B(  4-C ,  5-S ) :   1.0586 B(  4-C ,  6-C ) :   1.5531 B(  6-C ,  7-C ) :   1.1626
B(  6-C , 10-S ) :   1.0472 B(  7-C ,  8-C ) :   1.6144 B(  7-C , 56-H ) :   0.9913
B(  8-C ,  9-C ) :   1.1264 B(  8-C , 57-H ) :   1.0002 B(  9-C , 10-S ) :   1.0826
B(  9-C , 11-C ) :   1.5541 B( 11-C , 12-C ) :   1.1865 B( 11-C , 58-H ) :   0.9519
B( 12-C , 13-O ) :   1.1149 B( 12-C , 14-C ) :   1.3900 B( 13-O , 21-C ) :   1.1453
B( 14-C , 15-C ) :   0.8987 B( 14-C , 20-C ) :   1.2547 B( 15-C , 16-O ) :   2.2053
B( 15-C , 17-N ) :   1.0724 B( 17-N , 18-C ) :   1.1069 B( 17-N , 59-H ) :   0.9168
B( 18-C , 19-O ) :   2.1573 B( 18-C , 20-C ) :   0.8932 B( 20-C , 21-C ) :   1.4389
B( 21-C , 22-C ) :   1.1525 B( 22-C , 23-C ) :   1.6452 B( 22-C , 60-H ) :   0.9566
B( 23-C , 24-C ) :   1.0764 B( 23-C , 61-H ) :   0.9680 B( 24-C , 25-C ) :   1.3571
B( 24-C , 29-C ) :   1.2614 B( 25-C , 26-C ) :   1.3738 B( 25-C , 62-H ) :   0.9830
B( 26-C , 27-C ) :   1.3789 B( 26-C , 63-H ) :   0.9943 B( 27-C , 28-C ) :   1.3377
B( 27-C , 33-C ) :   0.9701 B( 28-C , 29-C ) :   1.3800 B( 28-C , 30-C ) :   0.8999
B( 29-C , 64-H ) :   1.0199 B( 30-C , 31-O ) :   2.3224 B( 30-C , 32-C ) :   0.9041
B( 32-C , 33-C ) :   1.3293 B( 32-C , 37-C ) :   1.3887 B( 33-C , 34-C ) :   1.3974
B( 34-C , 35-C ) :   1.3408 B( 34-C , 65-H ) :   0.9966 B( 35-C , 36-C ) :   1.3874
B( 35-C , 66-H ) :   0.9876 B( 36-C , 37-C ) :   1.2812 B( 36-C , 38-C ) :   1.0067
B( 37-C , 67-H ) :   1.0153 B( 38-C , 39-C ) :   1.8670 B( 38-C , 68-H ) :   0.9571
B( 39-C , 40-C ) :   1.0781 B( 39-C , 41-C ) :   1.0213 B( 40-C , 69-H ) :   0.9506
B( 40-C , 70-H ) :   0.9429 B( 40-C , 71-H ) :   0.9462 B( 41-C , 42-N ) :   1.0472
B( 41-C , 72-H ) :   0.9425 B( 41-C , 73-H ) :   0.9396 B( 42-N , 43-C ) :   1.1515
B( 42-N , 74-H ) :   0.9426 B( 43-C , 44-C ) :   1.7099 B( 43-C , 75-H ) :   0.9659
B( 44-C , 45-C ) :   1.1123 B( 44-C , 76-H ) :   0.9580 B( 45-C , 46-C ) :   1.7953
B( 45-C , 77-H ) :   0.9652 B( 46-C , 47-C ) :   1.0780 B( 46-C , 48-C ) :   1.0327
B( 47-C , 78-H ) :   0.9465 B( 47-C , 79-H ) :   0.9436 B( 47-C , 80-H ) :   0.9492
B( 48-C , 49-N ) :   1.0420 B( 48-C , 81-H ) :   0.9350 B( 48-C , 82-H ) :   0.9314
B( 49-N , 50-C ) :   1.1492 B( 49-N , 83-H ) :   0.9420 B( 50-C , 51-C ) :   1.9098
B( 50-C , 84-H ) :   0.9632 B( 51-C , 85-H ) :   0.9504 B( 51-C , 86-H ) :   0.9526

-----------------------------------------------------------------------------
         ABSORPTION SPECTRUM VIA TRANSITION ELECTRIC DIPOLE MOMENTS
-----------------------------------------------------------------------------
State   Energy  Wavelength   fosc         T2         TX        TY        TZ
        (cm-1)    (nm)                  (au**2)     (au)      (au)      (au)
-----------------------------------------------------------------------------
   0   17468.5    572.5   1.580509256  29.78642   3.88073   3.24889   2.04233
   1   21965.4    455.3   0.171034644   2.56342  -1.25689  -0.43440  -0.89160
   2   23497.1    425.6   0.016108397   0.22569  -0.22001  -0.17667   0.38220
   3   25777.0    387.9   0.018941241   0.24191  -0.35317   0.15378   0.30582
   4   26822.0    372.8   0.089201620   1.09486   1.04619  -0.01539   0.00978
   5   27929.3    358.0   0.001600298   0.01886   0.11296   0.06501   0.04332
   6   29058.9    344.1   0.303662450   3.44023  -1.30267  -0.91008  -0.95659
   7   29195.2    342.5   0.078086811   0.88053  -0.69816  -0.43948  -0.44717
   8   30242.3    330.7   0.223289105   2.43068  -1.39980   0.22283   0.64931
   9   30519.2    327.7   0.011149344   0.12027  -0.08638  -0.33515  -0.02190
  10   30998.8    322.6   0.124288083   1.31996   0.85424  -0.50825  -0.57612
  11   31850.9    314.0   0.000584976   0.00605  -0.05053  -0.02170  -0.05497
  12   32242.3    310.2   0.437637021   4.46851  -1.37794  -0.92026  -1.31259
  13   34035.1    293.8   0.000270373   0.00262   0.03640   0.01406  -0.03305
  14   34649.3    288.6   0.082605680   0.78486  -0.41400  -0.46055   0.63352
  15   34789.7    287.4   0.029179121   0.27612  -0.33731   0.30920   0.25833
  16   35314.3    283.2   0.054376669   0.50692  -0.57904   0.10754   0.40008
  17   36035.7    277.5   0.041508955   0.37921  -0.55933  -0.17077   0.19287
  18   36182.1    276.4   0.034392820   0.31293   0.52318   0.19451  -0.03711
  19   37140.9    269.2   0.103448294   0.91695  -0.86113   0.07200   0.41258
  20   37871.3    264.1   0.055377776   0.48139   0.57929   0.25575   0.28357
  21   38484.3    259.8   0.127149905   1.08770   0.13578   0.69324   0.76725
  22   38624.9    258.9   0.001782311   0.01519   0.02935   0.07540   0.09298
  23   38928.0    256.9   0.008557704   0.07237  -0.15095   0.18937   0.11717
  24   39637.1    252.3   0.006487366   0.05388   0.01652   0.16418   0.16326

FINAL SINGLE POINT ENERGY     -2918.175241528975

DIPOLE MOMENT
-------------
                                X             Y             Z
Electronic contribution:    107.48375      71.26662      15.93646
Nuclear contribution   :   -104.93874     -70.84366     -18.08942
                        -----------------------------------------
Total Dipole Moment    :      2.54501       0.42297      -2.15296
                        -----------------------------------------
Magnitude (a.u.)       :      3.36024
Magnitude (Debye)      :      8.54106

Rotational constants in cm-1:     0.003522     0.000327     0.000306
Rotational constants in MHz :   105.580074     9.796914     9.173697

                             ****ORCA TERMINATED NORMALLY****
TOTAL RUN TIME: 0 days 0 hours 5 minutes 9 seconds 640 msec
