                         Program Version 4.2.0 -  RELEASE  -
|  1> # ORCA input file
|  2> # SCF done       -170.081218977710          0.000359458148
|  3> ! CAM-B3LYP def2-SVP def2/J RIJCOSX Grid4 TightSCF
|  4> %maxcore 5000
|  5> %tddft
|  6>     Mode sTDDFT
|  7>     Ethresh 5.0
|  8>     maxcore 5000
|  9> end
| 10>
| 11> %pal
| 12>   nprocs 6
| 13>   end
| 14> * xyz 0 1
| 15>    C      -10.32095       -18.06077         6.31662
| 16>    C      -10.67720       -17.74879         5.06378
| 17>    C      -11.82721       -18.21423         4.33914
| 18>    C      -11.92846       -17.72771         3.08483
| 19>    C      -10.87609       -16.84087         2.70835
| 20>    S       -9.74415       -16.65196         4.03154
| 21>    C      -10.70754       -16.19709         1.51006
| 22>    C      -11.55164       -16.27097         0.36936
| 23>    C      -11.11849       -15.51965        -0.67095
| 24>    C       -9.90899       -14.80973        -0.41374
| 25>    S       -9.33264       -15.12807         1.20397
| 26>    C       -9.24089       -13.98083        -1.26271
| 27>    C       -8.03636       -13.34197        -0.84089
| 28>    N       -7.63213       -13.61819         0.40825
| 29>    C       -6.52636       -13.04357         0.83626
| 30>    C       -5.79733       -12.17706         0.04365
| 31>    C       -6.28306       -11.93847        -1.25566
| 32>    N       -7.39781       -12.52913        -1.68064
| 33>    C       -5.64132       -11.07200        -2.21713
| 34>    C       -4.54869       -10.32081        -1.98135
| 35>    C       -3.93230        -9.45712        -2.92778
| 36>    S       -4.73798        -9.05052        -4.40984
| 37>    C       -3.51967        -7.96729        -4.87418
| 38>    C       -2.49972        -7.90546        -3.94945
| 39>    C       -2.71087        -8.78158        -2.83390
| 40>    C       -1.70576        -8.86191        -1.83177
| 41>    C       -0.62797        -8.01102        -1.90755
| 42>    C       -0.44432        -7.12524        -2.97968
| 43>    C       -1.34476        -7.07684        -4.01143
| 44>    O       -1.20787        -6.27838        -5.09134
| 45>    C       -1.77486        -9.81494        -0.72001
| 46>    C       -1.66599       -11.19292        -0.81495
| 47>    C       -1.39974       -12.12599        -1.87315
| 48>    O       -1.56235       -13.32049        -1.76236
| 49>    C       -0.77330       -11.60065        -3.19659
| 50>    F        0.16514       -10.66273        -2.98592
| 51>    F       -0.17629       -12.59725        -3.84798
| 52>    F       -1.67721       -11.07502        -4.03476
| 53>    S       -1.89607       -11.96681         0.74130
| 54>    C       -2.06265       -10.46025         1.49721
| 55>    C       -1.98373        -9.38761         0.62805
| 56>    C       -2.12866        -8.00687         0.98781
| 57>    C       -2.28031        -7.53778         2.24833
| 58>    C       -2.40738        -6.15057         2.50694
| 59>    C       -2.57851        -5.60146         3.74430
| 60>    C       -2.70615        -4.18967         4.06012
| 61>    C       -2.56226        -3.13567         3.19395
| 62>    C       -2.24785        -3.23639         1.82291
| 63>    N       -1.98262        -3.22983         0.70519
| 64>    C       -2.68846        -1.78124         3.56787
| 65>    N       -2.78115        -0.66224         3.80687
| 66>    C       -2.98372        -4.07866         5.48695
| 67>    C       -2.98079        -5.37584         6.05703
| 68>    C       -2.71285        -6.37447         5.00536
| 69>    O       -2.63029        -7.57533         5.15832
| 70>    C       -3.20807        -5.59999         7.39319
| 71>    C       -3.45488        -4.49090         8.20853
| 72>    C       -3.46006        -3.19838         7.63063
| 73>    C       -3.22716        -2.97180         6.28011
| 74>    S       -3.79069        -1.97074         8.81462
| 75>    C       -3.91573        -3.19277        10.05254
| 76>    C       -3.71981        -4.45587         9.60459
| 77>   Br       -4.29297        -2.68578        11.81792
| 78>    H      -10.91870       -18.73203         6.90784
| 79>    H       -9.43488       -17.65510         6.76916
| 80>    H      -12.52448       -18.89423         4.79597
| 81>    H      -12.72374       -17.96992         2.40224
| 82>    H      -12.44502       -16.87056         0.35079
| 83>    H      -11.61544       -15.44024        -1.62207
| 84>    H       -9.60026       -13.78796        -2.25997
| 85>    H       -6.22268       -13.28989         1.84597
| 86>    H       -4.89640       -11.71753         0.41341
| 87>    H       -6.10994       -11.06009        -3.19150
| 88>    H       -4.09772       -10.33014        -1.00037
| 89>    H       -3.59335        -7.41330        -5.78789
| 90>    H        0.13455        -8.06036        -1.14473
| 91>    H        0.43590        -6.49883        -2.99679
| 92>    H       -0.39227        -5.76537        -5.02452
| 93>    H       -2.22555       -10.41387         2.55649
| 94>    H       -2.10601        -7.30466         0.16337
| 95>    H       -2.30133        -8.20694         3.09390
| 96>    H       -2.36804        -5.49785         1.64446
| 97>    H       -3.19761        -6.60057         7.79622
| 98>    H       -3.24388        -1.96829         5.88939
| 99>    H       -3.76074        -5.32783        10.23146
|100> *
|101>
|102>                          ****END OF INPUT****

CARTESIAN COORDINATES (ANGSTROEM)
---------------------------------
  C    -10.320950  -18.060770    6.316620
  C    -10.677200  -17.748790    5.063780
  C    -11.827210  -18.214230    4.339140
  C    -11.928460  -17.727710    3.084830
  C    -10.876090  -16.840870    2.708350
  S     -9.744150  -16.651960    4.031540
  C    -10.707540  -16.197090    1.510060
  C    -11.551640  -16.270970    0.369360
  C    -11.118490  -15.519650   -0.670950
  C     -9.908990  -14.809730   -0.413740
  S     -9.332640  -15.128070    1.203970
  C     -9.240890  -13.980830   -1.262710
  C     -8.036360  -13.341970   -0.840890
  N     -7.632130  -13.618190    0.408250
  C     -6.526360  -13.043570    0.836260
  C     -5.797330  -12.177060    0.043650
  C     -6.283060  -11.938470   -1.255660
  N     -7.397810  -12.529130   -1.680640
  C     -5.641320  -11.072000   -2.217130
  C     -4.548690  -10.320810   -1.981350
  C     -3.932300   -9.457120   -2.927780
  S     -4.737980   -9.050520   -4.409840
  C     -3.519670   -7.967290   -4.874180
  C     -2.499720   -7.905460   -3.949450
  C     -2.710870   -8.781580   -2.833900
  C     -1.705760   -8.861910   -1.831770
  C     -0.627970   -8.011020   -1.907550
  C     -0.444320   -7.125240   -2.979680
  C     -1.344760   -7.076840   -4.011430
  O     -1.207870   -6.278380   -5.091340
  C     -1.774860   -9.814940   -0.720010
  C     -1.665990  -11.192920   -0.814950
  C     -1.399740  -12.125990   -1.873150
  O     -1.562350  -13.320490   -1.762360
  C     -0.773300  -11.600650   -3.196590
  F      0.165140  -10.662730   -2.985920
  F     -0.176290  -12.597250   -3.847980
  F     -1.677210  -11.075020   -4.034760
  S     -1.896070  -11.966810    0.741300
  C     -2.062650  -10.460250    1.497210
  C     -1.983730   -9.387610    0.628050
  C     -2.128660   -8.006870    0.987810
  C     -2.280310   -7.537780    2.248330
  C     -2.407380   -6.150570    2.506940
  C     -2.578510   -5.601460    3.744300
  C     -2.706150   -4.189670    4.060120
  C     -2.562260   -3.135670    3.193950
  C     -2.247850   -3.236390    1.822910
  N     -1.982620   -3.229830    0.705190
  C     -2.688460   -1.781240    3.567870
  N     -2.781150   -0.662240    3.806870
  C     -2.983720   -4.078660    5.486950
  C     -2.980790   -5.375840    6.057030
  C     -2.712850   -6.374470    5.005360
  O     -2.630290   -7.575330    5.158320
  C     -3.208070   -5.599990    7.393190
  C     -3.454880   -4.490900    8.208530
  C     -3.460060   -3.198380    7.630630
  C     -3.227160   -2.971800    6.280110
  S     -3.790690   -1.970740    8.814620
  C     -3.915730   -3.192770   10.052540
  C     -3.719810   -4.455870    9.604590
  Br    -4.292970   -2.685780   11.817920
  H    -10.918700  -18.732030    6.907840
  H     -9.434880  -17.655100    6.769160
  H    -12.524480  -18.894230    4.795970
  H    -12.723740  -17.969920    2.402240
  H    -12.445020  -16.870560    0.350790
  H    -11.615440  -15.440240   -1.622070
  H     -9.600260  -13.787960   -2.259970
  H     -6.222680  -13.289890    1.845970
  H     -4.896400  -11.717530    0.413410
  H     -6.109940  -11.060090   -3.191500
  H     -4.097720  -10.330140   -1.000370
  H     -3.593350   -7.413300   -5.787890
  H      0.134550   -8.060360   -1.144730
  H      0.435900   -6.498830   -2.996790
  H     -0.392270   -5.765370   -5.024520
  H     -2.225550  -10.413870    2.556490
  H     -2.106010   -7.304660    0.163370
  H     -2.301330   -8.206940    3.093900
  H     -2.368040   -5.497850    1.644460
  H     -3.197610   -6.600570    7.796220
  H     -3.243880   -1.968290    5.889390
  H     -3.760740   -5.327830   10.231460

 Total Charge           Charge          ....    0
 Multiplicity           Mult            ....    1
 Number of Electrons    NEL             ....  498
 Basis Dimension        Dim             .... 1030

ORBITAL ENERGIES
----------------

  NO   OCC          E(Eh)            E(eV)
   0   2.0000    -482.888261    -13140.0576
   1   2.0000     -88.989599     -2421.5301
   2   2.0000     -88.978641     -2421.2319
   3   2.0000     -88.970413     -2421.0080
   4   2.0000     -88.929094     -2419.8837
   5   2.0000     -88.924949     -2419.7709
   6   2.0000     -62.565966     -1702.5065
   7   2.0000     -56.399919     -1534.7198
   8   2.0000     -56.397195     -1534.6457
   9   2.0000     -56.397166     -1534.6449
  10   2.0000     -24.806171      -675.0102
  11   2.0000     -24.805898      -675.0028
  12   2.0000     -24.799619      -674.8319
  13   2.0000     -19.262661      -524.1637
  14   2.0000     -19.237698      -523.4844
  15   2.0000     -19.221768      -523.0509
  16   2.0000     -14.420065      -392.3899
  17   2.0000     -14.417706      -392.3257
  18   2.0000     -14.394146      -391.6846
  19   2.0000     -14.389788      -391.5660
  20   2.0000     -10.519450      -286.2488
  21   2.0000     -10.393746      -282.8282
  22   2.0000     -10.372175      -282.2412
  23   2.0000     -10.362187      -281.9694
  24   2.0000     -10.350671      -281.6561
  25   2.0000     -10.345377      -281.5120
  26   2.0000     -10.344706      -281.4938
  27   2.0000     -10.330709      -281.1129
  28   2.0000     -10.328882      -281.0632
  29   2.0000     -10.324512      -280.9443
  30   2.0000     -10.323046      -280.9044
  31   2.0000     -10.322981      -280.9026
  32   2.0000     -10.322223      -280.8820
  33   2.0000     -10.320667      -280.8396
  34   2.0000     -10.318401      -280.7780
  35   2.0000     -10.315433      -280.6972
  36   2.0000     -10.311604      -280.5930
  37   2.0000     -10.311075      -280.5786
  38   2.0000     -10.310345      -280.5588
  39   2.0000     -10.309219      -280.5281
  40   2.0000     -10.308788      -280.5164
  41   2.0000     -10.308591      -280.5110
  42   2.0000     -10.304454      -280.3984
  43   2.0000     -10.303219      -280.3648
  44   2.0000     -10.302826      -280.3541
  45   2.0000     -10.301265      -280.3117
  46   2.0000     -10.300586      -280.2932
  47   2.0000     -10.299608      -280.2666
  48   2.0000     -10.299295      -280.2581
  49   2.0000     -10.295660      -280.1592
  50   2.0000     -10.294527      -280.1283
  51   2.0000     -10.292685      -280.0782
  52   2.0000     -10.289530      -279.9923
  53   2.0000     -10.289214      -279.9838
  54   2.0000     -10.288618      -279.9675
  55   2.0000     -10.287750      -279.9439
  56   2.0000     -10.286019      -279.8968
  57   2.0000     -10.282220      -279.7934
  58   2.0000     -10.281658      -279.7781
  59   2.0000     -10.278750      -279.6990
  60   2.0000     -10.276206      -279.6298
  61   2.0000     -10.273884      -279.5666
  62   2.0000     -10.270197      -279.4663
  63   2.0000     -10.269352      -279.4433
  64   2.0000     -10.268257      -279.4135
  65   2.0000     -10.264001      -279.2977
  66   2.0000     -10.251652      -278.9616
  67   2.0000      -8.795400      -239.3350
  68   2.0000      -8.084335      -219.9859
  69   2.0000      -8.074586      -219.7207
  70   2.0000      -8.065776      -219.4809
  71   2.0000      -8.025758      -218.3920
  72   2.0000      -8.018267      -218.1881
  73   2.0000      -6.631699      -180.4577
  74   2.0000      -6.617137      -180.0615
  75   2.0000      -6.616925      -180.0557
  76   2.0000      -6.053473      -164.7234
  77   2.0000      -6.048964      -164.6007
  78   2.0000      -6.047133      -164.5508
  79   2.0000      -6.044274      -164.4731
  80   2.0000      -6.040002      -164.3568
  81   2.0000      -6.035822      -164.2431
  82   2.0000      -6.034589      -164.2095
  83   2.0000      -6.030323      -164.0934
  84   2.0000      -6.029031      -164.0583
  85   2.0000      -5.995578      -163.1480
  86   2.0000      -5.991626      -163.0404
  87   2.0000      -5.988488      -162.9550
  88   2.0000      -5.986333      -162.8964
  89   2.0000      -5.983697      -162.8247
  90   2.0000      -5.979208      -162.7025
  91   2.0000      -2.747601       -74.7660
  92   2.0000      -2.743469       -74.6536
  93   2.0000      -2.743321       -74.6495
  94   2.0000      -2.731738       -74.3344
  95   2.0000      -2.731731       -74.3342
  96   2.0000      -1.394971       -37.9591
  97   2.0000      -1.298234       -35.3267
  98   2.0000      -1.295072       -35.2407
  99   2.0000      -1.158508       -31.5246
 100   2.0000      -1.155758       -31.4498
 101   2.0000      -1.136173       -30.9168
 102   2.0000      -1.067456       -29.0469
 103   2.0000      -1.026086       -27.9212
 104   2.0000      -1.017561       -27.6893
 105   2.0000      -1.016736       -27.6668
 106   2.0000      -0.998725       -27.1767
 107   2.0000      -0.997545       -27.1446
 108   2.0000      -0.992675       -27.0121
 109   2.0000      -0.979446       -26.6521
 110   2.0000      -0.969029       -26.3686
 111   2.0000      -0.954441       -25.9716
 112   2.0000      -0.948004       -25.7965
 113   2.0000      -0.940947       -25.6045
 114   2.0000      -0.929174       -25.2841
 115   2.0000      -0.911543       -24.8044
 116   2.0000      -0.907244       -24.6874
 117   2.0000      -0.895875       -24.3780
 118   2.0000      -0.892029       -24.2733
 119   2.0000      -0.889126       -24.1943
 120   2.0000      -0.877161       -23.8688
 121   2.0000      -0.869970       -23.6731
 122   2.0000      -0.862305       -23.4645
 123   2.0000      -0.845836       -23.0164
 124   2.0000      -0.838283       -22.8108
 125   2.0000      -0.834951       -22.7202
 126   2.0000      -0.833057       -22.6686
 127   2.0000      -0.830306       -22.5938
 128   2.0000      -0.821796       -22.3622
 129   2.0000      -0.810590       -22.0573
 130   2.0000      -0.804601       -21.8943
 131   2.0000      -0.792318       -21.5601
 132   2.0000      -0.777187       -21.1483
 133   2.0000      -0.774730       -21.0815
 134   2.0000      -0.761956       -20.7339
 135   2.0000      -0.747295       -20.3349
 136   2.0000      -0.738856       -20.1053
 137   2.0000      -0.729902       -19.8616
 138   2.0000      -0.726019       -19.7560
 139   2.0000      -0.722044       -19.6478
 140   2.0000      -0.702935       -19.1278
 141   2.0000      -0.698018       -18.9940
 142   2.0000      -0.695516       -18.9259
 143   2.0000      -0.693269       -18.8648
 144   2.0000      -0.687768       -18.7151
 145   2.0000      -0.683281       -18.5930
 146   2.0000      -0.678624       -18.4663
 147   2.0000      -0.672641       -18.3035
 148   2.0000      -0.669391       -18.2151
 149   2.0000      -0.667244       -18.1566
 150   2.0000      -0.659678       -17.9508
 151   2.0000      -0.649923       -17.6853
 152   2.0000      -0.641498       -17.4561
 153   2.0000      -0.631774       -17.1914
 154   2.0000      -0.627185       -17.0666
 155   2.0000      -0.623788       -16.9741
 156   2.0000      -0.617723       -16.8091
 157   2.0000      -0.612323       -16.6622
 158   2.0000      -0.608743       -16.5648
 159   2.0000      -0.599977       -16.3262
 160   2.0000      -0.594565       -16.1789
 161   2.0000      -0.589784       -16.0488
 162   2.0000      -0.588473       -16.0132
 163   2.0000      -0.585558       -15.9339
 164   2.0000      -0.578616       -15.7449
 165   2.0000      -0.567048       -15.4302
 166   2.0000      -0.565529       -15.3888
 167   2.0000      -0.559368       -15.2212
 168   2.0000      -0.556471       -15.1423
 169   2.0000      -0.553855       -15.0712
 170   2.0000      -0.550574       -14.9819
 171   2.0000      -0.544963       -14.8292
 172   2.0000      -0.543786       -14.7972
 173   2.0000      -0.543234       -14.7822
 174   2.0000      -0.540524       -14.7084
 175   2.0000      -0.534663       -14.5489
 176   2.0000      -0.531409       -14.4604
 177   2.0000      -0.528783       -14.3889
 178   2.0000      -0.528005       -14.3678
 179   2.0000      -0.523938       -14.2571
 180   2.0000      -0.520902       -14.1745
 181   2.0000      -0.517984       -14.0951
 182   2.0000      -0.514723       -14.0063
 183   2.0000      -0.512492       -13.9456
 184   2.0000      -0.512110       -13.9352
 185   2.0000      -0.510671       -13.8961
 186   2.0000      -0.509654       -13.8684
 187   2.0000      -0.504159       -13.7189
 188   2.0000      -0.503947       -13.7131
 189   2.0000      -0.502685       -13.6788
 190   2.0000      -0.498014       -13.5517
 191   2.0000      -0.496033       -13.4977
 192   2.0000      -0.494529       -13.4568
 193   2.0000      -0.492562       -13.4033
 194   2.0000      -0.490310       -13.3420
 195   2.0000      -0.486369       -13.2348
 196   2.0000      -0.483194       -13.1484
 197   2.0000      -0.480532       -13.0759
 198   2.0000      -0.479531       -13.0487
 199   2.0000      -0.477667       -12.9980
 200   2.0000      -0.474790       -12.9197
 201   2.0000      -0.472928       -12.8690
 202   2.0000      -0.472532       -12.8583
 203   2.0000      -0.469597       -12.7784
 204   2.0000      -0.465463       -12.6659
 205   2.0000      -0.461224       -12.5505
 206   2.0000      -0.454954       -12.3799
 207   2.0000      -0.452809       -12.3216
 208   2.0000      -0.451710       -12.2917
 209   2.0000      -0.451208       -12.2780
 210   2.0000      -0.448151       -12.1948
 211   2.0000      -0.446755       -12.1568
 212   2.0000      -0.443244       -12.0613
 213   2.0000      -0.441985       -12.0270
 214   2.0000      -0.440259       -11.9801
 215   2.0000      -0.437884       -11.9154
 216   2.0000      -0.435213       -11.8428
 217   2.0000      -0.429886       -11.6978
 218   2.0000      -0.426954       -11.6180
 219   2.0000      -0.420716       -11.4483
 220   2.0000      -0.417993       -11.3742
 221   2.0000      -0.415967       -11.3190
 222   2.0000      -0.413774       -11.2594
 223   2.0000      -0.411139       -11.1877
 224   2.0000      -0.409053       -11.1309
 225   2.0000      -0.406836       -11.0706
 226   2.0000      -0.398002       -10.8302
 227   2.0000      -0.390590       -10.6285
 228   2.0000      -0.383300       -10.4301
 229   2.0000      -0.377457       -10.2711
 230   2.0000      -0.375553       -10.2193
 231   2.0000      -0.369166       -10.0455
 232   2.0000      -0.363134        -9.8814
 233   2.0000      -0.351415        -9.5625
 234   2.0000      -0.350059        -9.5256
 235   2.0000      -0.345061        -9.3896
 236   2.0000      -0.341489        -9.2924
 237   2.0000      -0.339988        -9.2515
 238   2.0000      -0.327248        -8.9049
 239   2.0000      -0.323462        -8.8018
 240   2.0000      -0.318873        -8.6770
 241   2.0000      -0.315422        -8.5831
 242   2.0000      -0.302472        -8.2307
 243   2.0000      -0.298177        -8.1138
 244   2.0000      -0.296833        -8.0772
 245   2.0000      -0.291683        -7.9371
 246   2.0000      -0.287365        -7.8196
 247   2.0000      -0.246155        -6.6982
 248   2.0000      -0.217513        -5.9188
 249   0.0000      -0.097617        -2.6563
 250   0.0000      -0.066101        -1.7987
 251   0.0000      -0.061752        -1.6804
 252   0.0000      -0.059790        -1.6270
 253   0.0000      -0.049883        -1.3574

MULLIKEN ATOMIC CHARGES
-----------------------
   0 C :   -0.032645
   1 C :   -0.062634
   2 C :    0.052850
   3 C :    0.031998
   4 C :   -0.073875
   5 S :    0.081973
   6 C :   -0.042697
   7 C :    0.030978
   8 C :    0.037276
   9 C :    0.022210
  10 S :    0.118570
  11 C :   -0.036277
  12 C :    0.011441
  13 N :   -0.161977
  14 C :    0.104656
  15 C :   -0.067754
  16 C :    0.050063
  17 N :   -0.056519
  18 C :    0.007677
  19 C :    0.034565
  20 C :   -0.194266
  21 S :    0.176155
  22 C :   -0.118223
  23 C :    0.033827
  24 C :    0.213619
  25 C :   -0.093640
  26 C :    0.011932
  27 C :   -0.099047
  28 C :    0.179980
  29 O :   -0.170978
  30 C :    0.085678
  31 C :   -0.237934
  32 C :    0.025549
  33 O :   -0.147944
  34 C :    0.498320
  35 F :   -0.158124
  36 F :   -0.138164
  37 F :   -0.150871
  38 S :    0.217045
  39 C :   -0.112479
  40 C :    0.098687
  41 C :    0.015095
  42 C :    0.003142
  43 C :   -0.042487
  44 C :   -0.062806
  45 C :    0.326760
  46 C :   -0.348214
  47 C :   -0.191327
  48 N :    0.146818
  49 C :   -0.185320
  50 N :    0.148630
  51 C :    0.014400
  52 C :   -0.011364
  53 C :    0.147030
  54 O :   -0.156941
  55 C :   -0.070665
  56 C :    0.118461
  57 C :   -0.089640
  58 C :   -0.021747
  59 S :    0.188805
  60 C :   -0.123417
  61 C :    0.038675
  62 Br:    0.026916
  63 H :    0.018082
  64 H :    0.019890
  65 H :   -0.012906
  66 H :   -0.012866
  67 H :   -0.020655
  68 H :   -0.017153
  69 H :   -0.026127
  70 H :   -0.004651
  71 H :   -0.030937
  72 H :   -0.012113
  73 H :    0.000623
  74 H :    0.030299
  75 H :   -0.015539
  76 H :   -0.036094
  77 H :    0.190228
  78 H :    0.051954
  79 H :    0.028063
  80 H :    0.017598
  81 H :    0.010849
  82 H :   -0.010634
  83 H :   -0.005512
  84 H :   -0.002205
Sum of atomic charges:   -0.0000000

LOEWDIN ATOMIC CHARGES
----------------------
   0 C :   -0.078382
   1 C :   -0.139877
   2 C :   -0.029925
   3 C :   -0.026292
   4 C :   -0.167124
   5 S :    0.352626
   6 C :   -0.199730
   7 C :   -0.022492
   8 C :   -0.039680
   9 C :   -0.114294
  10 S :    0.412781
  11 C :   -0.091897
  12 C :    0.028834
  13 N :   -0.117368
  14 C :    0.054472
  15 C :   -0.082564
  16 C :    0.036514
  17 N :   -0.097098
  18 C :   -0.040086
  19 C :   -0.023720
  20 C :   -0.196773
  21 S :    0.513531
  22 C :   -0.169091
  23 C :   -0.072216
  24 C :   -0.032752
  25 C :   -0.072070
  26 C :    0.006887
  27 C :   -0.103244
  28 C :    0.077790
  29 O :   -0.037148
  30 C :    0.001184
  31 C :   -0.230767
  32 C :    0.011834
  33 O :   -0.113300
  34 C :    0.143940
  35 F :   -0.053960
  36 F :   -0.038410
  37 F :   -0.043973
  38 S :    0.529366
  39 C :   -0.140698
  40 C :   -0.078612
  41 C :    0.035765
  42 C :   -0.031074
  43 C :    0.072313
  44 C :   -0.095844
  45 C :    0.076556
  46 C :   -0.140416
  47 C :   -0.019808
  48 N :   -0.054191
  49 C :   -0.018209
  50 N :   -0.053071
  51 C :   -0.020931
  52 C :   -0.050977
  53 C :    0.086616
  54 O :   -0.148882
  55 C :    0.022656
  56 C :   -0.031637
  57 C :   -0.143373
  58 C :   -0.008864
  59 S :    0.434400
  60 C :   -0.270486
  61 C :   -0.070354
  62 Br:    0.139198
  63 H :    0.027561
  64 H :    0.025432
  65 H :    0.032647
  66 H :    0.031876
  67 H :    0.026973
  68 H :    0.031445
  69 H :    0.032779
  70 H :    0.024322
  71 H :    0.017395
  72 H :    0.026474
  73 H :    0.032807
  74 H :    0.031010
  75 H :    0.032972
  76 H :    0.027739
  77 H :    0.102365
  78 H :    0.035067
  79 H :    0.041326
  80 H :    0.029789
  81 H :    0.042827
  82 H :    0.040984
  83 H :    0.041367
  84 H :    0.039236

  Mayer bond orders larger than 0.100000
B(  0-C ,  1-C ) :   1.8665 B(  0-C , 63-H ) :   0.9511 B(  0-C , 64-H ) :   0.9417
B(  1-C ,  2-C ) :   1.0756 B(  1-C ,  5-S ) :   1.0071 B(  2-C ,  3-C ) :   1.6683
B(  2-C , 65-H ) :   0.9930 B(  3-C ,  4-C ) :   1.1416 B(  3-C , 66-H ) :   0.9913
B(  4-C ,  5-S ) :   1.0458 B(  4-C ,  6-C ) :   1.5907 B(  6-C ,  7-C ) :   1.1553
B(  6-C , 10-S ) :   0.9621 B(  7-C ,  8-C ) :   1.6248 B(  7-C , 67-H ) :   0.9935
B(  8-C ,  9-C ) :   1.1156 B(  8-C , 68-H ) :   1.0006 B(  9-C , 10-S ) :   1.0704
B(  9-C , 11-C ) :   1.5636 B( 10-S , 13-N ) :   0.1152 B( 11-C , 12-C ) :   1.1033
B( 11-C , 69-H ) :   0.9827 B( 12-C , 13-N ) :   1.4099 B( 12-C , 17-N ) :   1.4967
B( 13-N , 14-C ) :   1.5095 B( 14-C , 15-C ) :   1.4110 B( 14-C , 70-H ) :   0.9758
B( 15-C , 16-C ) :   1.3169 B( 15-C , 71-H ) :   0.9631 B( 16-C , 17-N ) :   1.5240
B( 16-C , 18-C ) :   1.0699 B( 18-C , 19-C ) :   1.6596 B( 18-C , 72-H ) :   0.9803
B( 19-C , 20-C ) :   1.1515 B( 19-C , 73-H ) :   0.9545 B( 20-C , 21-S ) :   1.1521
B( 20-C , 22-C ) :   0.1057 B( 20-C , 24-C ) :   1.3564 B( 21-S , 22-C ) :   1.2281
B( 22-C , 23-C ) :   1.4172 B( 22-C , 74-H ) :   0.9703 B( 23-C , 24-C ) :   1.2106
B( 23-C , 28-C ) :   1.1541 B( 24-C , 25-C ) :   1.2120 B( 25-C , 26-C ) :   1.5313
B( 25-C , 30-C ) :   0.9745 B( 26-C , 27-C ) :   1.1913 B( 26-C , 75-H ) :   0.9908
B( 27-C , 28-C ) :   1.4541 B( 27-C , 76-H ) :   0.9896 B( 28-C , 29-O ) :   1.2805
B( 29-O , 77-H ) :   0.9556 B( 30-C , 31-C ) :   1.4901 B( 30-C , 40-C ) :   1.2758
B( 31-C , 32-C ) :   0.9985 B( 31-C , 38-S ) :   1.1311 B( 32-C , 33-O ) :   2.2040
B( 32-C , 34-C ) :   0.8957 B( 34-C , 35-F ) :   1.1409 B( 34-C , 36-F ) :   1.1904
B( 34-C , 37-F ) :   1.1411 B( 38-S , 39-C ) :   1.2468 B( 39-C , 40-C ) :   1.4480
B( 39-C , 78-H ) :   0.9574 B( 40-C , 41-C ) :   1.0652 B( 41-C , 42-C ) :   1.6047
B( 41-C , 79-H ) :   0.9768 B( 42-C , 43-C ) :   1.1459 B( 42-C , 80-H ) :   0.9788
B( 43-C , 44-C ) :   1.5429 B( 43-C , 81-H ) :   0.9674 B( 44-C , 45-C ) :   1.0610
B( 44-C , 53-C ) :   0.9450 B( 45-C , 46-C ) :   1.6303 B( 45-C , 51-C ) :   1.0047
B( 46-C , 47-C ) :   1.1471 B( 46-C , 49-C ) :   1.1407 B( 47-C , 48-N ) :   2.9648
B( 49-C , 50-N ) :   2.9683 B( 51-C , 52-C ) :   1.2747 B( 51-C , 58-C ) :   1.4055
B( 52-C , 53-C ) :   0.9468 B( 52-C , 55-C ) :   1.4205 B( 53-C , 54-O ) :   2.1906
B( 55-C , 56-C ) :   1.2466 B( 55-C , 82-H ) :   1.0174 B( 56-C , 57-C ) :   1.3037
B( 56-C , 61-C ) :   1.1613 B( 57-C , 58-C ) :   1.3325 B( 57-C , 59-S ) :   1.0864
B( 58-C , 83-H ) :   0.9801 B( 59-S , 60-C ) :   1.0868 B( 60-C , 61-C ) :   1.6174
B( 60-C , 62-Br) :   1.0214 B( 61-C , 84-H ) :   1.0010

-----------------------------------------------------------------------------
         ABSORPTION SPECTRUM VIA TRANSITION ELECTRIC DIPOLE MOMENTS
-----------------------------------------------------------------------------
State   Energy  Wavelength   fosc         T2         TX        TY        TZ
        (cm-1)    (nm)                  (au**2)     (au)      (au)      (au)
-----------------------------------------------------------------------------
   0   17365.2    575.9   0.010988393   0.20832  -0.20972  -0.40494   0.01886
   1   17714.6    564.5   0.031320967   0.58208  -0.13680  -0.62331  -0.41815
   2   20172.8    495.7   0.235561031   3.84427   1.09246   1.33165  -0.93675
   3   20330.8    491.9   1.007769710  16.31854  -1.54585  -2.54948   2.72563
   4   22452.6    445.4   0.004212050   0.06176  -0.11571  -0.16228   0.14845
   5   23433.6    426.7   0.341586688   4.79885  -0.61744  -1.33763   1.62122
   6   24880.5    401.9   0.879867117  11.64214   0.74196  -2.57162  -2.11623
   7   25134.6    397.9   0.001034677   0.01355  -0.00944  -0.11457   0.01835
   8   25650.6    389.9   0.498493209   6.39790   1.30856   2.16453  -0.01969
   9   27115.1    368.8   0.168090622   2.04084   0.31262  -0.19062  -1.38086
  10   27583.3    362.5   0.167293187   1.99668  -0.24977   0.25894   1.36647
  11   28718.3    348.2   0.002502125   0.02868  -0.02940   0.00399   0.16674
  12   29290.7    341.4   0.011475708   0.12898  -0.18680  -0.30622   0.01773
  13   29458.3    339.5   0.004371288   0.04885  -0.19160  -0.10651   0.02823
  14   29546.2    338.5   0.075539366   0.84168  -0.12643   0.52453   0.74200
  15   30330.0    329.7   0.005047449   0.05479  -0.01400  -0.09832   0.21195
  16   30978.8    322.8   0.596374878   6.33768  -0.35018   0.72434   2.38545
  17   31415.9    318.3   0.006006050   0.06294  -0.19463  -0.14627  -0.06052
  18   32212.3    310.4   0.033815442   0.34560  -0.06746  -0.31946   0.48887
  19   32429.2    308.4   0.000116044   0.00118  -0.01437   0.02412   0.01974
  20   32720.6    305.6   0.002765592   0.02783  -0.03964  -0.08652   0.13700
  21   32836.1    304.5   0.058172133   0.58323   0.50957   0.04699   0.56689
  22   33195.3    301.2   0.517162530   5.12892  -0.35437  -0.68095   2.13064
  23   33286.8    300.4   0.004240901   0.04194   0.11479  -0.10398  -0.13399
  24   33468.9    298.8   0.048656986   0.47861   0.18498   0.66650   0.01271
  25   33678.5    296.9   0.020510670   0.20049   0.07226   0.37079   0.24039
  26   34055.5    293.6   0.003989185   0.03856   0.04122  -0.04380  -0.18694
  27   34509.0    289.8   0.058879122   0.56170  -0.53965   0.13085  -0.50334
  28   34654.7    288.6   0.015336096   0.14569  -0.12315  -0.01853  -0.36080
  29   35114.9    284.8   0.001597419   0.01498   0.01578  -0.09088   0.08042
  30   35226.4    283.9   0.024237896   0.22652  -0.29994  -0.25519   0.26727
  31   36102.1    277.0   0.000119898   0.00109   0.02546   0.02096   0.00249
  32   36350.7    275.1   0.087534757   0.79276  -0.61290  -0.44033   0.47246
  33   36624.1    273.0   0.336118323   3.02134   1.49721   0.86127   0.19471
  34   36926.1    270.8   0.049133717   0.43805   0.56402   0.31777  -0.13766
  35   37572.0    266.2   0.025999748   0.22781  -0.06270   0.06165   0.46913
  36   37650.2    265.6   0.012508241   0.10937  -0.16773   0.06830  -0.27672
  37   37965.6    263.4   0.064547024   0.55971  -0.05317  -0.52938   0.52597
  38   38438.5    260.2   0.158646000   1.35875  -0.15947   0.98476   0.60297
  39   38522.3    259.6   0.016635713   0.14217  -0.06630   0.35665  -0.10284
  40   39124.8    255.6   0.010009438   0.08422   0.10053  -0.02812   0.27079
  41   39487.5    253.2   0.000033619   0.00028   0.00299  -0.00909  -0.01374
  42   39860.6    250.9   0.000854341   0.00706  -0.05612   0.06048  -0.01577
  43   40214.8    248.7   0.202140599   1.65479   0.76903   0.01037   1.03115

FINAL SINGLE POINT ENERGY     -7109.532699439629

DIPOLE MOMENT
-------------
                                X             Y             Z
Electronic contribution:     35.30147      88.12602      88.72657
Nuclear contribution   :    -35.14449     -88.17019     -87.35545
                        -----------------------------------------
Total Dipole Moment    :      0.15698      -0.04416       1.37111
                        -----------------------------------------
Magnitude (a.u.)       :      1.38078
Magnitude (Debye)      :      3.50966

Rotational constants in cm-1:     0.000764     0.000443     0.000305
Rotational constants in MHz :    22.899963    13.270615     9.131398

                             ****ORCA TERMINATED NORMALLY****
TOTAL RUN TIME: 0 days 0 hours 7 minutes 38 seconds 978 msec
