                         Program Version 4.2.0 -  RELEASE  -
|  1> # ORCA input file
|  2> # SCF done       -122.686049704173          0.000163325746
|  3> ! CAM-B3LYP def2-SVP def2/J RIJCOSX Grid4 TightSCF
|  4> %maxcore 5000
|  5> %tddft
|  6>     Mode sTDDFT
|  7>     Ethresh 5.0
|  8>     maxcore 5000
|  9> end
| 10>
| 11> %pal
| 12>   nprocs 6
| 13>   end
| 14> * xyz 0 1
| 15>    C        4.97923         1.17056        -6.22236
| 16>    C        5.04701         1.01118        -4.89232
| 17>    C        5.59186         1.91740        -3.92484
| 18>    C        5.51269         1.48106        -2.64601
| 19>    C        4.90374         0.20667        -2.49923
| 20>    S        4.43524        -0.42833        -4.06093
| 21>    C        4.67318        -0.48034        -1.32487
| 22>    C        4.98013        -0.07821        -0.00739
| 23>    C        4.59776        -0.97795         0.94371
| 24>    C        3.97110        -2.13493         0.43214
| 25>    S        3.89371        -2.05240        -1.31351
| 26>    C        3.46474        -3.17570         1.18773
| 27>    C        2.83097        -4.32054         0.72993
| 28>    C        2.26486        -5.34907         1.52278
| 29>    C        1.65089        -6.38846         0.76067
| 30>    N        1.07952        -7.45260         1.33866
| 31>    C        1.08597        -7.52579         2.64524
| 32>    C        1.65156        -6.55688         3.48482
| 33>    C        2.24688        -5.45560         2.91843
| 34>    C        1.75319        -6.18577        -0.63863
| 35>    S        2.60687        -4.69244        -0.95647
| 36>    C        1.36031        -6.94936        -1.74253
| 37>    C        0.48636        -8.04804        -1.89574
| 38>    C        0.37533        -8.50096        -3.24957
| 39>    N       -0.40187        -9.53570        -3.59533
| 40>    C       -1.09631       -10.13179        -2.66132
| 41>    C       -1.08244        -9.75004        -1.31299
| 42>    C       -0.28515        -8.70251        -0.92336
| 43>    C        1.17282        -7.76900        -4.16160
| 44>    S        2.01423        -6.50810        -3.30025
| 45>    C        1.43616        -7.90827        -5.53178
| 46>    C        0.85824        -8.68404        -6.55798
| 47>    C        1.50332        -8.51309        -7.82693
| 48>    N        1.07972        -9.13283        -8.93937
| 49>    C        0.03920        -9.91686        -8.85107
| 50>    C       -0.66479       -10.15451        -7.66024
| 51>    C       -0.25583        -9.53765        -6.50518
| 52>    C        2.58176        -7.60523        -7.79723
| 53>    S        2.74639        -6.96168        -6.19152
| 54>    C        3.47097        -7.15416        -8.79562
| 55>    C        3.80883        -7.65221       -10.06338
| 56>    C        4.82783        -6.86127       -10.70634
| 57>    N        5.33181        -7.14503       -11.92702
| 58>    C        4.87166        -8.20360       -12.52553
| 59>    C        3.89117        -9.06227       -11.98224
| 60>    C        3.35284        -8.79097       -10.75274
| 61>    C        5.24250        -5.79174        -9.93879
| 62>    S        4.42623        -5.73317        -8.44741
| 63>    H        5.36112         2.06177        -6.68820
| 64>    H        4.54601         0.42191        -6.85964
| 65>    H        6.01782         2.85671        -4.22973
| 66>    H        5.87066         2.03249        -1.79468
| 67>    H        5.46547         0.85677         0.20692
| 68>    H        4.74461        -0.84156         2.00100
| 69>    H        3.56477        -3.07273         2.26041
| 70>    H        0.61429        -8.40622         3.06248
| 71>    H        1.61712        -6.68401         4.55517
| 72>    H        2.69653        -4.68986         3.53331
| 73>    H       -1.70613       -10.96193        -2.99522
| 74>    H       -1.69119       -10.27975        -0.59734
| 75>    H       -0.21907        -8.38325         0.10402
| 76>    H       -0.26599       -10.38954        -9.77635
| 77>    H       -1.51849       -10.81384        -7.66395
| 78>    H       -0.75275        -9.69395        -5.56139
| 79>    H        5.29220        -8.41058       -13.50188
| 80>    H        3.57298        -9.92599       -12.54529
| 81>    H        2.58607        -9.40698       -10.31173
| 82>    H        5.98178        -5.05910       -10.18979
| 83> *
| 84>
| 85>                          ****END OF INPUT****

CARTESIAN COORDINATES (ANGSTROEM)
---------------------------------
  C      4.979230    1.170560   -6.222360
  C      5.047010    1.011180   -4.892320
  C      5.591860    1.917400   -3.924840
  C      5.512690    1.481060   -2.646010
  C      4.903740    0.206670   -2.499230
  S      4.435240   -0.428330   -4.060930
  C      4.673180   -0.480340   -1.324870
  C      4.980130   -0.078210   -0.007390
  C      4.597760   -0.977950    0.943710
  C      3.971100   -2.134930    0.432140
  S      3.893710   -2.052400   -1.313510
  C      3.464740   -3.175700    1.187730
  C      2.830970   -4.320540    0.729930
  C      2.264860   -5.349070    1.522780
  C      1.650890   -6.388460    0.760670
  N      1.079520   -7.452600    1.338660
  C      1.085970   -7.525790    2.645240
  C      1.651560   -6.556880    3.484820
  C      2.246880   -5.455600    2.918430
  C      1.753190   -6.185770   -0.638630
  S      2.606870   -4.692440   -0.956470
  C      1.360310   -6.949360   -1.742530
  C      0.486360   -8.048040   -1.895740
  C      0.375330   -8.500960   -3.249570
  N     -0.401870   -9.535700   -3.595330
  C     -1.096310  -10.131790   -2.661320
  C     -1.082440   -9.750040   -1.312990
  C     -0.285150   -8.702510   -0.923360
  C      1.172820   -7.769000   -4.161600
  S      2.014230   -6.508100   -3.300250
  C      1.436160   -7.908270   -5.531780
  C      0.858240   -8.684040   -6.557980
  C      1.503320   -8.513090   -7.826930
  N      1.079720   -9.132830   -8.939370
  C      0.039200   -9.916860   -8.851070
  C     -0.664790  -10.154510   -7.660240
  C     -0.255830   -9.537650   -6.505180
  C      2.581760   -7.605230   -7.797230
  S      2.746390   -6.961680   -6.191520
  C      3.470970   -7.154160   -8.795620
  C      3.808830   -7.652210  -10.063380
  C      4.827830   -6.861270  -10.706340
  N      5.331810   -7.145030  -11.927020
  C      4.871660   -8.203600  -12.525530
  C      3.891170   -9.062270  -11.982240
  C      3.352840   -8.790970  -10.752740
  C      5.242500   -5.791740   -9.938790
  S      4.426230   -5.733170   -8.447410
  H      5.361120    2.061770   -6.688200
  H      4.546010    0.421910   -6.859640
  H      6.017820    2.856710   -4.229730
  H      5.870660    2.032490   -1.794680
  H      5.465470    0.856770    0.206920
  H      4.744610   -0.841560    2.001000
  H      3.564770   -3.072730    2.260410
  H      0.614290   -8.406220    3.062480
  H      1.617120   -6.684010    4.555170
  H      2.696530   -4.689860    3.533310
  H     -1.706130  -10.961930   -2.995220
  H     -1.691190  -10.279750   -0.597340
  H     -0.219070   -8.383250    0.104020
  H     -0.265990  -10.389540   -9.776350
  H     -1.518490  -10.813840   -7.663950
  H     -0.752750   -9.693950   -5.561390
  H      5.292200   -8.410580  -13.501880
  H      3.572980   -9.925990  -12.545290
  H      2.586070   -9.406980  -10.311730
  H      5.981780   -5.059100  -10.189790

 Total Charge           Charge          ....    0
 Multiplicity           Mult            ....    1
 Number of Electrons    NEL             ....  372
 Basis Dimension        Dim             ....  796

ORBITAL ENERGIES
----------------

  NO   OCC          E(Eh)            E(eV)
   0   2.0000     -88.964468     -2420.8462
   1   2.0000     -88.958177     -2420.6750
   2   2.0000     -88.955682     -2420.6072
   3   2.0000     -88.953887     -2420.5583
   4   2.0000     -88.948629     -2420.4153
   5   2.0000     -88.941075     -2420.2097
   6   2.0000     -14.407217      -392.0403
   7   2.0000     -14.397109      -391.7652
   8   2.0000     -14.391546      -391.6139
   9   2.0000     -14.378979      -391.2719
  10   2.0000     -10.313515      -280.6450
  11   2.0000     -10.311698      -280.5956
  12   2.0000     -10.310174      -280.5541
  13   2.0000     -10.309729      -280.5420
  14   2.0000     -10.309570      -280.5376
  15   2.0000     -10.308713      -280.5144
  16   2.0000     -10.308693      -280.5138
  17   2.0000     -10.308032      -280.4958
  18   2.0000     -10.307657      -280.4856
  19   2.0000     -10.305543      -280.4281
  20   2.0000     -10.304668      -280.4043
  21   2.0000     -10.303899      -280.3834
  22   2.0000     -10.300957      -280.3033
  23   2.0000     -10.300821      -280.2996
  24   2.0000     -10.298609      -280.2394
  25   2.0000     -10.297765      -280.2164
  26   2.0000     -10.296879      -280.1923
  27   2.0000     -10.295805      -280.1631
  28   2.0000     -10.290809      -280.0271
  29   2.0000     -10.287519      -279.9376
  30   2.0000     -10.287496      -279.9370
  31   2.0000     -10.287051      -279.9249
  32   2.0000     -10.286232      -279.9026
  33   2.0000     -10.284790      -279.8634
  34   2.0000     -10.284199      -279.8473
  35   2.0000     -10.284047      -279.8431
  36   2.0000     -10.281282      -279.7679
  37   2.0000     -10.280062      -279.7347
  38   2.0000     -10.276401      -279.6351
  39   2.0000     -10.275814      -279.6191
  40   2.0000     -10.272928      -279.5406
  41   2.0000     -10.271402      -279.4991
  42   2.0000     -10.266558      -279.3672
  43   2.0000     -10.266424      -279.3636
  44   2.0000     -10.265448      -279.3370
  45   2.0000     -10.261455      -279.2284
  46   2.0000     -10.258481      -279.1475
  47   2.0000     -10.253164      -279.0028
  48   2.0000      -8.059268      -219.3038
  49   2.0000      -8.053604      -219.1497
  50   2.0000      -8.051210      -219.0846
  51   2.0000      -8.049358      -219.0342
  52   2.0000      -8.044600      -218.9047
  53   2.0000      -8.037710      -218.7172
  54   2.0000      -6.028495      -164.0437
  55   2.0000      -6.024320      -163.9301
  56   2.0000      -6.022941      -163.8926
  57   2.0000      -6.021581      -163.8555
  58   2.0000      -6.020464      -163.8251
  59   2.0000      -6.018705      -163.7773
  60   2.0000      -6.018364      -163.7680
  61   2.0000      -6.016251      -163.7105
  62   2.0000      -6.015703      -163.6956
  63   2.0000      -6.014333      -163.6583
  64   2.0000      -6.014056      -163.6508
  65   2.0000      -6.013427      -163.6337
  66   2.0000      -6.012282      -163.6025
  67   2.0000      -6.010171      -163.5451
  68   2.0000      -6.007513      -163.4727
  69   2.0000      -6.005647      -163.4220
  70   2.0000      -6.003549      -163.3649
  71   2.0000      -5.998335      -163.2230
  72   2.0000      -1.046823       -28.4855
  73   2.0000      -1.037620       -28.2351
  74   2.0000      -1.031717       -28.0745
  75   2.0000      -1.018494       -27.7146
  76   2.0000      -0.995737       -27.0954
  77   2.0000      -0.984865       -26.7995
  78   2.0000      -0.976386       -26.5688
  79   2.0000      -0.969816       -26.3900
  80   2.0000      -0.960206       -26.1285
  81   2.0000      -0.946344       -25.7513
  82   2.0000      -0.907635       -24.6980
  83   2.0000      -0.891834       -24.2680
  84   2.0000      -0.890055       -24.2196
  85   2.0000      -0.881474       -23.9861
  86   2.0000      -0.870609       -23.6905
  87   2.0000      -0.864911       -23.5354
  88   2.0000      -0.850928       -23.1549
  89   2.0000      -0.846862       -23.0443
  90   2.0000      -0.843202       -22.9447
  91   2.0000      -0.834002       -22.6943
  92   2.0000      -0.827563       -22.5191
  93   2.0000      -0.823661       -22.4129
  94   2.0000      -0.815645       -22.1948
  95   2.0000      -0.813110       -22.1258
  96   2.0000      -0.799622       -21.7588
  97   2.0000      -0.777136       -21.1469
  98   2.0000      -0.755688       -20.5633
  99   2.0000      -0.730800       -19.8861
 100   2.0000      -0.728801       -19.8317
 101   2.0000      -0.718608       -19.5543
 102   2.0000      -0.713431       -19.4134
 103   2.0000      -0.708881       -19.2896
 104   2.0000      -0.704707       -19.1760
 105   2.0000      -0.698620       -19.0104
 106   2.0000      -0.692177       -18.8351
 107   2.0000      -0.687078       -18.6963
 108   2.0000      -0.663757       -18.0617
 109   2.0000      -0.658994       -17.9321
 110   2.0000      -0.646426       -17.5902
 111   2.0000      -0.636101       -17.3092
 112   2.0000      -0.630162       -17.1476
 113   2.0000      -0.622025       -16.9261
 114   2.0000      -0.613575       -16.6962
 115   2.0000      -0.611242       -16.6327
 116   2.0000      -0.601966       -16.3803
 117   2.0000      -0.598111       -16.2754
 118   2.0000      -0.587176       -15.9779
 119   2.0000      -0.579998       -15.7825
 120   2.0000      -0.576522       -15.6880
 121   2.0000      -0.572005       -15.5650
 122   2.0000      -0.566122       -15.4050
 123   2.0000      -0.564880       -15.3712
 124   2.0000      -0.560370       -15.2484
 125   2.0000      -0.550766       -14.9871
 126   2.0000      -0.546970       -14.8838
 127   2.0000      -0.535303       -14.5663
 128   2.0000      -0.528800       -14.3894
 129   2.0000      -0.523564       -14.2469
 130   2.0000      -0.521149       -14.1812
 131   2.0000      -0.516226       -14.0472
 132   2.0000      -0.512168       -13.9368
 133   2.0000      -0.507015       -13.7966
 134   2.0000      -0.503386       -13.6978
 135   2.0000      -0.502239       -13.6666
 136   2.0000      -0.499145       -13.5824
 137   2.0000      -0.495722       -13.4893
 138   2.0000      -0.493028       -13.4160
 139   2.0000      -0.489501       -13.3200
 140   2.0000      -0.487107       -13.2548
 141   2.0000      -0.485699       -13.2165
 142   2.0000      -0.483901       -13.1676
 143   2.0000      -0.481879       -13.1126
 144   2.0000      -0.478787       -13.0285
 145   2.0000      -0.469550       -12.7771
 146   2.0000      -0.466759       -12.7011
 147   2.0000      -0.465720       -12.6729
 148   2.0000      -0.461353       -12.5541
 149   2.0000      -0.456744       -12.4286
 150   2.0000      -0.454516       -12.3680
 151   2.0000      -0.449580       -12.2337
 152   2.0000      -0.444461       -12.0944
 153   2.0000      -0.440897       -11.9974
 154   2.0000      -0.437521       -11.9056
 155   2.0000      -0.434868       -11.8334
 156   2.0000      -0.433916       -11.8074
 157   2.0000      -0.430654       -11.7187
 158   2.0000      -0.427492       -11.6327
 159   2.0000      -0.423936       -11.5359
 160   2.0000      -0.421965       -11.4822
 161   2.0000      -0.416867       -11.3435
 162   2.0000      -0.409117       -11.1326
 163   2.0000      -0.395787       -10.7699
 164   2.0000      -0.392496       -10.6803
 165   2.0000      -0.383843       -10.4449
 166   2.0000      -0.383168       -10.4265
 167   2.0000      -0.376927       -10.2567
 168   2.0000      -0.364018        -9.9054
 169   2.0000      -0.353172        -9.6103
 170   2.0000      -0.341463        -9.2917
 171   2.0000      -0.339700        -9.2437
 172   2.0000      -0.334955        -9.1146
 173   2.0000      -0.329539        -8.9672
 174   2.0000      -0.324087        -8.8188
 175   2.0000      -0.320066        -8.7094
 176   2.0000      -0.316119        -8.6020
 177   2.0000      -0.314663        -8.5624
 178   2.0000      -0.311845        -8.4857
 179   2.0000      -0.309026        -8.4090
 180   2.0000      -0.304037        -8.2733
 181   2.0000      -0.299976        -8.1628
 182   2.0000      -0.289373        -7.8742
 183   2.0000      -0.260287        -7.0828
 184   2.0000      -0.225826        -6.1450
 185   2.0000      -0.185847        -5.0571
 186   0.0000      -0.095296        -2.5931
 187   0.0000      -0.057772        -1.5721
 188   0.0000      -0.031394        -0.8543
 189   0.0000      -0.017044        -0.4638
 190   0.0000       0.000051         0.0014

MULLIKEN ATOMIC CHARGES
-----------------------
   0 C :   -0.023354
   1 C :   -0.067610
   2 C :    0.053888
   3 C :    0.029052
   4 C :   -0.066310
   5 S :    0.092057
   6 C :   -0.037082
   7 C :    0.030058
   8 C :    0.023774
   9 C :   -0.037797
  10 S :    0.073405
  11 C :   -0.029628
  12 C :   -0.070702
  13 C :    0.082524
  14 C :    0.036947
  15 N :   -0.059422
  16 C :    0.041598
  17 C :   -0.000568
  18 C :    0.014379
  19 C :   -0.095051
  20 S :    0.116641
  21 C :   -0.114829
  22 C :    0.072590
  23 C :    0.013343
  24 N :   -0.065654
  25 C :    0.043938
  26 C :   -0.005426
  27 C :    0.035191
  28 C :   -0.084746
  29 S :    0.122035
  30 C :   -0.118963
  31 C :    0.074784
  32 C :    0.012423
  33 N :   -0.066043
  34 C :    0.041252
  35 C :   -0.008704
  36 C :    0.038001
  37 C :   -0.091834
  38 S :    0.127129
  39 C :   -0.155878
  40 C :    0.097581
  41 C :    0.017763
  42 N :   -0.048982
  43 C :    0.017789
  44 C :   -0.012214
  45 C :    0.048760
  46 C :   -0.111874
  47 S :    0.138957
  48 H :    0.022957
  49 H :    0.027225
  50 H :   -0.010166
  51 H :   -0.010904
  52 H :   -0.016695
  53 H :   -0.014630
  54 H :   -0.021742
  55 H :    0.000183
  56 H :   -0.004416
  57 H :   -0.012151
  58 H :   -0.004236
  59 H :   -0.012155
  60 H :   -0.010158
  61 H :   -0.004760
  62 H :   -0.012639
  63 H :   -0.012603
  64 H :   -0.006594
  65 H :   -0.016835
  66 H :   -0.012378
  67 H :    0.009507
Sum of atomic charges:   -0.0000000

LOEWDIN ATOMIC CHARGES
----------------------
   0 C :   -0.067331
   1 C :   -0.140813
   2 C :   -0.027513
   3 C :   -0.028270
   4 C :   -0.171047
   5 S :    0.361853
   6 C :   -0.184357
   7 C :   -0.037663
   8 C :   -0.038600
   9 C :   -0.155289
  10 S :    0.377659
  11 C :   -0.080365
  12 C :   -0.173494
  13 C :   -0.061242
  14 C :   -0.026029
  15 N :   -0.058650
  16 C :    0.026691
  17 C :   -0.055796
  18 C :    0.022057
  19 C :   -0.201061
  20 S :    0.453272
  21 C :   -0.182260
  22 C :   -0.058413
  23 C :   -0.027501
  24 N :   -0.064644
  25 C :    0.028313
  26 C :   -0.062211
  27 C :    0.032712
  28 C :   -0.193917
  29 S :    0.440915
  30 C :   -0.185304
  31 C :   -0.056639
  32 C :   -0.031449
  33 N :   -0.066535
  34 C :    0.027336
  35 C :   -0.063388
  36 C :    0.031825
  37 C :   -0.190931
  38 S :    0.446452
  39 C :   -0.192709
  40 C :   -0.058399
  41 C :   -0.039679
  42 N :   -0.079428
  43 C :    0.020751
  44 C :   -0.065451
  45 C :    0.025555
  46 C :   -0.197034
  47 S :    0.468609
  48 H :    0.029993
  49 H :    0.028534
  50 H :    0.034089
  51 H :    0.032759
  52 H :    0.030803
  53 H :    0.032328
  54 H :    0.036575
  55 H :    0.021093
  56 H :    0.032865
  57 H :    0.031638
  58 H :    0.018820
  59 H :    0.029930
  60 H :    0.027169
  61 H :    0.018444
  62 H :    0.029422
  63 H :    0.026567
  64 H :    0.017255
  65 H :    0.027495
  66 H :    0.027127
  67 H :    0.026505

  Mayer bond orders larger than 0.100000
B(  0-C ,  1-C ) :   1.8537 B(  0-C , 48-H ) :   0.9513 B(  0-C , 49-H ) :   0.9417
B(  1-C ,  2-C ) :   1.0868 B(  1-C ,  5-S ) :   1.0078 B(  2-C ,  3-C ) :   1.6464
B(  2-C , 50-H ) :   0.9929 B(  3-C ,  4-C ) :   1.1650 B(  3-C , 51-H ) :   0.9923
B(  4-C ,  5-S ) :   1.0574 B(  4-C ,  6-C ) :   1.5186 B(  6-C ,  7-C ) :   1.1961
B(  6-C , 10-S ) :   1.0372 B(  7-C ,  8-C ) :   1.5650 B(  7-C , 52-H ) :   0.9920
B(  8-C ,  9-C ) :   1.1760 B(  8-C , 53-H ) :   0.9999 B(  9-C , 10-S ) :   1.0512
B(  9-C , 11-C ) :   1.4885 B( 11-C , 12-C ) :   1.2946 B( 11-C , 54-H ) :   0.9619
B( 12-C , 13-C ) :   1.2441 B( 12-C , 19-C ) :   0.1068 B( 12-C , 20-S ) :   1.0986
B( 13-C , 14-C ) :   1.2240 B( 13-C , 18-C ) :   1.2794 B( 14-C , 15-N ) :   1.4209
B( 14-C , 19-C ) :   1.2904 B( 15-N , 16-C ) :   1.6226 B( 15-N , 60-H ) :   0.1041
B( 16-C , 17-C ) :   1.2450 B( 16-C , 55-H ) :   0.9754 B( 17-C , 18-C ) :   1.5249
B( 17-C , 56-H ) :   0.9728 B( 18-C , 57-H ) :   0.9777 B( 19-C , 20-S ) :   1.1308
B( 19-C , 21-C ) :   1.2697 B( 21-C , 22-C ) :   1.3065 B( 21-C , 28-C ) :   0.1194
B( 21-C , 29-S ) :   1.1200 B( 22-C , 23-C ) :   1.1996 B( 22-C , 27-C ) :   1.2849
B( 23-C , 24-N ) :   1.4213 B( 23-C , 28-C ) :   1.3162 B( 24-N , 25-C ) :   1.6216
B( 24-N , 63-H ) :   0.1138 B( 25-C , 26-C ) :   1.2347 B( 25-C , 58-H ) :   0.9743
B( 26-C , 27-C ) :   1.5140 B( 26-C , 59-H ) :   0.9737 B( 27-C , 60-H ) :   0.9510
B( 28-C , 29-S ) :   1.1304 B( 28-C , 30-C ) :   1.2454 B( 30-C , 31-C ) :   1.3227
B( 30-C , 37-C ) :   0.1268 B( 30-C , 38-S ) :   1.1245 B( 31-C , 32-C ) :   1.1892
B( 31-C , 36-C ) :   1.2801 B( 32-C , 33-N ) :   1.4063 B( 32-C , 37-C ) :   1.3468
B( 33-N , 34-C ) :   1.6419 B( 34-C , 35-C ) :   1.2208 B( 34-C , 61-H ) :   0.9749
B( 35-C , 36-C ) :   1.5199 B( 35-C , 62-H ) :   0.9735 B( 36-C , 63-H ) :   0.9489
B( 37-C , 38-S ) :   1.1472 B( 37-C , 39-C ) :   1.1906 B( 39-C , 40-C ) :   1.3432
B( 39-C , 46-C ) :   0.1173 B( 39-C , 47-S ) :   1.1683 B( 40-C , 41-C ) :   1.1753
B( 40-C , 45-C ) :   1.2671 B( 41-C , 42-N ) :   1.3453 B( 41-C , 46-C ) :   1.4151
B( 42-N , 43-C ) :   1.7248 B( 43-C , 44-C ) :   1.1919 B( 43-C , 64-H ) :   0.9761
B( 44-C , 45-C ) :   1.5549 B( 44-C , 65-H ) :   0.9708 B( 45-C , 66-H ) :   0.9576
B( 46-C , 47-S ) :   1.1816 B( 46-C , 67-H ) :   0.9714

-----------------------------------------------------------------------------
         ABSORPTION SPECTRUM VIA TRANSITION ELECTRIC DIPOLE MOMENTS
-----------------------------------------------------------------------------
State   Energy  Wavelength   fosc         T2         TX        TY        TZ
        (cm-1)    (nm)                  (au**2)     (au)      (au)      (au)
-----------------------------------------------------------------------------
   0    6874.7   1454.6   0.423134090  20.26280   0.84207   3.48692   2.71940
   1   13349.7    749.1   0.018219395   0.44930   0.34125   0.25315  -0.51842
   2   16341.8    611.9   1.565306683  31.53370  -2.39944  -2.72061   4.28657
   3   18963.6    527.3   0.061711497   1.07133   0.04595   0.66928  -0.78821
   4   21037.5    475.3   0.142423689   2.22876  -0.75510  -0.91466   0.90663
   5   22357.3    447.3   0.110607790   1.62870  -0.51994   0.22879  -1.14281
   6   23576.7    424.1   0.262062320   3.65929   0.51553   0.06475   1.84101
   7   24567.9    407.0   0.061483963   0.82389   0.66069   0.26918   0.56118
   8   25865.9    386.6   0.005701430   0.07257   0.21686   0.13272  -0.08900
   9   27509.4    363.5   0.031421892   0.37603  -0.38516  -0.35201   0.32214
  10   28522.7    350.6   0.007818625   0.09024  -0.00095   0.07900   0.28983
  11   29129.2    343.3   0.004077283   0.04608  -0.10995  -0.05733  -0.17523
  12   29591.6    337.9   0.079688186   0.88655  -0.17013  -0.21244  -0.90137
  13   30098.8    332.2   0.006605088   0.07224   0.06139   0.03468  -0.25937
  14   30258.3    330.5   0.020446665   0.22246  -0.04753   0.02815   0.46841
  15   30352.1    329.5   0.076928578   0.83440  -0.01565  -0.15714  -0.89970
  16   30452.9    328.4   0.011757205   0.12710   0.14657  -0.15186  -0.28733
  17   30953.6    323.1   0.016894671   0.17969  -0.03575  -0.33612  -0.25579
  18   31501.9    317.4   0.002106502   0.02201  -0.14206   0.00550   0.04245
  19   31671.2    315.7   0.003600761   0.03743   0.03791  -0.06371   0.17870
  20   31763.9    314.8   0.108044221   1.11981   0.21386   0.19229  -1.01838
  21   31993.9    312.6   0.002821603   0.02903   0.06618   0.12446   0.09572
  22   33189.0    301.3   0.221383177   2.19597  -0.74744  -0.81557  -0.98597
  23   33363.9    299.7   0.002793851   0.02757   0.07270  -0.13741  -0.05832
  24   33650.9    297.2   0.024984070   0.24442   0.09551  -0.21224  -0.43618
  25   34467.3    290.1   0.099748652   0.95274  -0.66840  -0.66932   0.24082
  26   35046.6    285.3   0.032295066   0.30336  -0.37729  -0.31862   0.24393
  27   35285.9    283.4   0.021688036   0.20235   0.26263   0.11914  -0.34522
  28   35717.5    280.0   0.108109458   0.99646  -0.43279  -0.64517   0.62682
  29   36141.9    276.7   0.020286719   0.18479  -0.34461  -0.08351  -0.24302
  30   36376.3    274.9   0.033477178   0.30297   0.08747  -0.15884   0.51971
  31   36509.8    273.9   0.040005725   0.36074  -0.36519  -0.29698   0.37306
  32   36928.8    270.8   0.020434158   0.18217  -0.31891  -0.27464  -0.07094
  33   37100.8    269.5   0.010146698   0.09004   0.03553   0.07541   0.28825
  34   37612.6    265.9   0.042752027   0.37420   0.17635   0.35867  -0.46309
  35   37697.6    265.3   0.003151193   0.02752  -0.15887  -0.00347   0.04762
  36   38596.3    259.1   0.004792756   0.04088   0.05399  -0.15096   0.12319
  37   38846.0    257.4   0.022769256   0.19297  -0.35032   0.03797   0.26229
  38   38855.9    257.4   0.021086386   0.17866   0.38132   0.15717  -0.09245
  39   39014.2    256.3   0.015868863   0.13391  -0.03690   0.33564   0.14103
  40   39564.4    252.8   0.038524892   0.32056  -0.24125  -0.17145   0.48266

FINAL SINGLE POINT ENERGY     -4065.295356045529

DIPOLE MOMENT
-------------
                                X             Y             Z
Electronic contribution:      2.12649      -1.06641      -1.57631
Nuclear contribution   :     -2.35973       2.38841       4.56305
                        -----------------------------------------
Total Dipole Moment    :     -0.23324       1.32200       2.98674
                        -----------------------------------------
Magnitude (a.u.)       :      3.27456
Magnitude (Debye)      :      8.32326

Rotational constants in cm-1:     0.001815     0.001114     0.000714
Rotational constants in MHz :    54.418379    33.384217    21.416805

                             ****ORCA TERMINATED NORMALLY****
TOTAL RUN TIME: 0 days 0 hours 4 minutes 39 seconds 844 msec
