                         Program Version 4.2.0 -  RELEASE  -
|  1> # ORCA input file
|  2> # SCF done       -136.236667107383          0.000812205449
|  3> ! CAM-B3LYP def2-SVP def2/J RIJCOSX Grid4 TightSCF
|  4> %maxcore 5000
|  5> %tddft
|  6>     Mode sTDDFT
|  7>     Ethresh 5.0
|  8>     maxcore 5000
|  9> end
| 10>
| 11> %pal
| 12>   nprocs 6
| 13>   end
| 14> * xyz 0 1
| 15>    C        8.11217         5.39254         9.77768
| 16>    C        7.99614         4.11245        10.15402
| 17>    C        8.18748         3.56351        11.46617
| 18>    C        7.98346         2.23200        11.54852
| 19>    C        7.61499         1.61404        10.31877
| 20>    S        7.56665         2.80970         9.03490
| 21>    C        7.25133         0.30779        10.12171
| 22>    C        7.06170        -0.69027        11.11616
| 23>    C        6.47003        -1.81950        10.66004
| 24>    C        6.17236        -1.80787         9.26519
| 25>    S        6.78398        -0.31419         8.54687
| 26>    C        5.40384        -2.71430         8.60177
| 27>    C        5.10667        -2.69111         7.20622
| 28>    S        3.45234        -2.88166         6.70194
| 29>    C        3.90484        -2.65919         5.05774
| 30>    C        5.24007        -2.50048         4.87761
| 31>    C        5.82709        -2.27396         3.52332
| 32>    C        5.96429        -2.54874         6.11558
| 33>    C        7.37495        -2.69261         6.31211
| 34>    C        8.34257        -2.94255         5.39885
| 35>    C        9.64707        -3.33608         5.80125
| 36>    C       10.59338        -3.79773         4.94694
| 37>    C       11.83638        -4.36554         5.32651
| 38>    S       12.90647        -4.98020         4.07621
| 39>    C       14.06386        -5.55565         5.22947
| 40>    C       13.66238        -5.29004         6.49120
| 41>    C       12.40441        -4.61248         6.56442
| 42>    C       12.10623        -4.38189         7.94110
| 43>    C       13.11478        -4.86508         8.72031
| 44>    C       14.17907        -5.52551         7.87217
| 45>    C       13.20604        -4.78607        10.13909
| 46>    S       14.03980        -6.02025        11.03535
| 47>    C       13.63539        -5.24825        12.51769
| 48>    C       12.91198        -4.11040        12.36002
| 49>    C       12.49610        -3.26677        13.51895
| 50>    C       12.66172        -3.81577        10.98028
| 51>    C       12.10309        -2.61753        10.42648
| 52>    C       11.28262        -1.70352        10.99349
| 53>    C       10.89876        -0.49680        10.33606
| 54>    C       10.91062        -0.29745         8.98921
| 55>    C       10.72199         0.92669         8.31283
| 56>    C       10.84281         2.19528         8.81226
| 57>    C       10.73183         3.38918         8.04810
| 58>    C       10.96393         4.53213         8.74098
| 59>    C       11.25653         4.32287        10.11270
| 60>    S       11.25737         2.60659        10.47065
| 61>    C       11.46322         5.26666        11.08630
| 62>    C       11.45345         6.68118        10.93975
| 63>    C       11.66782         7.36454        12.08591
| 64>    C       11.86792         6.53850        13.24233
| 65>    S       11.75694         4.83621        12.76366
| 66>    C       12.10506         6.93220        14.50127
| 67>    H        8.37693         6.15183        10.49243
| 68>    H        7.94211         5.70060         8.76249
| 69>    H        8.47468         4.19498        12.28812
| 70>    H        8.08709         1.65981        12.45324
| 71>    H        7.32809        -0.51927        12.14382
| 72>    H        6.20986        -2.66543        11.27211
| 73>    H        4.89096        -3.45891         9.19851
| 74>    H        3.13956        -2.65651         4.30615
| 75>    H        5.04026        -2.00820         2.82069
| 76>    H        6.31346        -3.17817         3.15765
| 77>    H        6.55747        -1.46850         3.55432
| 78>    H        7.67310        -2.73170         7.35263
| 79>    H        8.14322        -2.93949         4.33953
| 80>    H        9.84378        -3.33150         6.86265
| 81>    H       10.38938        -3.78866         3.88301
| 82>    H       14.95018        -6.04557         4.87858
| 83>    H       11.20387        -3.93895         8.31778
| 84>    H       14.26568        -6.58954         8.10540
| 85>    H       15.15904        -5.07266         8.03751
| 86>    H       13.96942        -5.68758        13.43748
| 87>    H       12.98433        -3.61512        14.42638
| 88>    H       11.41823        -3.32257        13.66863
| 89>    H       12.76965        -2.22706        13.34790
| 90>    H       12.43668        -2.41740         9.41567
| 91>    H       10.91861        -1.83588        12.00049
| 92>    H       10.55345         0.30237        10.97808
| 93>    H       11.06832        -1.15137         8.34225
| 94>    H       10.52987         0.86405         7.24879
| 95>    H       10.48290         3.35163         7.00211
| 96>    H       10.93421         5.51788         8.31303
| 97>    H       11.28638         7.14052         9.98136
| 98>    H       11.69483         8.43684        12.16842
| 99>    H       12.16616         7.97766        14.74684
|100>    H       12.24320         6.22540        15.29873
|101> *
|102>
|103>                          ****END OF INPUT****

CARTESIAN COORDINATES (ANGSTROEM)
---------------------------------
  C      8.112170    5.392540    9.777680
  C      7.996140    4.112450   10.154020
  C      8.187480    3.563510   11.466170
  C      7.983460    2.232000   11.548520
  C      7.614990    1.614040   10.318770
  S      7.566650    2.809700    9.034900
  C      7.251330    0.307790   10.121710
  C      7.061700   -0.690270   11.116160
  C      6.470030   -1.819500   10.660040
  C      6.172360   -1.807870    9.265190
  S      6.783980   -0.314190    8.546870
  C      5.403840   -2.714300    8.601770
  C      5.106670   -2.691110    7.206220
  S      3.452340   -2.881660    6.701940
  C      3.904840   -2.659190    5.057740
  C      5.240070   -2.500480    4.877610
  C      5.827090   -2.273960    3.523320
  C      5.964290   -2.548740    6.115580
  C      7.374950   -2.692610    6.312110
  C      8.342570   -2.942550    5.398850
  C      9.647070   -3.336080    5.801250
  C     10.593380   -3.797730    4.946940
  C     11.836380   -4.365540    5.326510
  S     12.906470   -4.980200    4.076210
  C     14.063860   -5.555650    5.229470
  C     13.662380   -5.290040    6.491200
  C     12.404410   -4.612480    6.564420
  C     12.106230   -4.381890    7.941100
  C     13.114780   -4.865080    8.720310
  C     14.179070   -5.525510    7.872170
  C     13.206040   -4.786070   10.139090
  S     14.039800   -6.020250   11.035350
  C     13.635390   -5.248250   12.517690
  C     12.911980   -4.110400   12.360020
  C     12.496100   -3.266770   13.518950
  C     12.661720   -3.815770   10.980280
  C     12.103090   -2.617530   10.426480
  C     11.282620   -1.703520   10.993490
  C     10.898760   -0.496800   10.336060
  C     10.910620   -0.297450    8.989210
  C     10.721990    0.926690    8.312830
  C     10.842810    2.195280    8.812260
  C     10.731830    3.389180    8.048100
  C     10.963930    4.532130    8.740980
  C     11.256530    4.322870   10.112700
  S     11.257370    2.606590   10.470650
  C     11.463220    5.266660   11.086300
  C     11.453450    6.681180   10.939750
  C     11.667820    7.364540   12.085910
  C     11.867920    6.538500   13.242330
  S     11.756940    4.836210   12.763660
  C     12.105060    6.932200   14.501270
  H      8.376930    6.151830   10.492430
  H      7.942110    5.700600    8.762490
  H      8.474680    4.194980   12.288120
  H      8.087090    1.659810   12.453240
  H      7.328090   -0.519270   12.143820
  H      6.209860   -2.665430   11.272110
  H      4.890960   -3.458910    9.198510
  H      3.139560   -2.656510    4.306150
  H      5.040260   -2.008200    2.820690
  H      6.313460   -3.178170    3.157650
  H      6.557470   -1.468500    3.554320
  H      7.673100   -2.731700    7.352630
  H      8.143220   -2.939490    4.339530
  H      9.843780   -3.331500    6.862650
  H     10.389380   -3.788660    3.883010
  H     14.950180   -6.045570    4.878580
  H     11.203870   -3.938950    8.317780
  H     14.265680   -6.589540    8.105400
  H     15.159040   -5.072660    8.037510
  H     13.969420   -5.687580   13.437480
  H     12.984330   -3.615120   14.426380
  H     11.418230   -3.322570   13.668630
  H     12.769650   -2.227060   13.347900
  H     12.436680   -2.417400    9.415670
  H     10.918610   -1.835880   12.000490
  H     10.553450    0.302370   10.978080
  H     11.068320   -1.151370    8.342250
  H     10.529870    0.864050    7.248790
  H     10.482900    3.351630    7.002110
  H     10.934210    5.517880    8.313030
  H     11.286380    7.140520    9.981360
  H     11.694830    8.436840   12.168420
  H     12.166160    7.977660   14.746840
  H     12.243200    6.225400   15.298730

 Total Charge           Charge          ....    0
 Multiplicity           Mult            ....    1
 Number of Electrons    NEL             ....  416
 Basis Dimension        Dim             ....  926

ORBITAL ENERGIES
----------------

  NO   OCC          E(Eh)            E(eV)
   0   2.0000     -88.942630     -2420.2520
   1   2.0000     -88.938204     -2420.1316
   2   2.0000     -88.936120     -2420.0749
   3   2.0000     -88.932234     -2419.9691
   4   2.0000     -88.931284     -2419.9433
   5   2.0000     -88.931220     -2419.9415
   6   2.0000     -88.928202     -2419.8594
   7   2.0000     -10.299758      -280.2707
   8   2.0000     -10.299537      -280.2646
   9   2.0000     -10.298770      -280.2438
  10   2.0000     -10.298291      -280.2307
  11   2.0000     -10.297496      -280.2091
  12   2.0000     -10.297434      -280.2074
  13   2.0000     -10.294801      -280.1358
  14   2.0000     -10.291347      -280.0418
  15   2.0000     -10.288137      -279.9544
  16   2.0000     -10.287864      -279.9470
  17   2.0000     -10.285291      -279.8770
  18   2.0000     -10.282720      -279.8070
  19   2.0000     -10.279987      -279.7327
  20   2.0000     -10.278701      -279.6977
  21   2.0000     -10.278143      -279.6825
  22   2.0000     -10.277264      -279.6586
  23   2.0000     -10.276900      -279.6487
  24   2.0000     -10.275882      -279.6210
  25   2.0000     -10.275454      -279.6093
  26   2.0000     -10.275219      -279.6029
  27   2.0000     -10.273257      -279.5495
  28   2.0000     -10.272891      -279.5396
  29   2.0000     -10.272799      -279.5371
  30   2.0000     -10.271396      -279.4989
  31   2.0000     -10.271140      -279.4919
  32   2.0000     -10.269447      -279.4459
  33   2.0000     -10.268477      -279.4195
  34   2.0000     -10.267061      -279.3809
  35   2.0000     -10.266748      -279.3724
  36   2.0000     -10.266414      -279.3633
  37   2.0000     -10.265656      -279.3427
  38   2.0000     -10.262104      -279.2461
  39   2.0000     -10.261668      -279.2342
  40   2.0000     -10.261573      -279.2316
  41   2.0000     -10.260977      -279.2154
  42   2.0000     -10.260737      -279.2089
  43   2.0000     -10.260380      -279.1991
  44   2.0000     -10.260180      -279.1937
  45   2.0000     -10.259398      -279.1724
  46   2.0000     -10.259354      -279.1712
  47   2.0000     -10.259079      -279.1637
  48   2.0000     -10.258484      -279.1475
  49   2.0000     -10.258143      -279.1383
  50   2.0000     -10.257966      -279.1335
  51   2.0000     -10.257472      -279.1200
  52   2.0000      -8.038560      -218.7403
  53   2.0000      -8.034523      -218.6305
  54   2.0000      -8.031858      -218.5580
  55   2.0000      -8.027721      -218.4454
  56   2.0000      -8.027557      -218.4409
  57   2.0000      -8.026998      -218.4257
  58   2.0000      -8.024073      -218.3461
  59   2.0000      -6.007832      -163.4814
  60   2.0000      -6.003813      -163.3721
  61   2.0000      -6.003598      -163.3662
  62   2.0000      -6.001323      -163.3043
  63   2.0000      -6.000829      -163.2909
  64   2.0000      -5.999589      -163.2571
  65   2.0000      -5.997542      -163.2014
  66   2.0000      -5.997366      -163.1966
  67   2.0000      -5.997015      -163.1871
  68   2.0000      -5.996872      -163.1832
  69   2.0000      -5.996656      -163.1773
  70   2.0000      -5.993949      -163.1037
  71   2.0000      -5.993825      -163.1003
  72   2.0000      -5.993661      -163.0958
  73   2.0000      -5.993237      -163.0843
  74   2.0000      -5.992861      -163.0740
  75   2.0000      -5.990064      -162.9979
  76   2.0000      -5.988546      -162.9566
  77   2.0000      -5.988257      -162.9488
  78   2.0000      -5.987650      -162.9322
  79   2.0000      -5.984628      -162.8500
  80   2.0000      -0.983546       -26.7636
  81   2.0000      -0.983199       -26.7542
  82   2.0000      -0.980441       -26.6792
  83   2.0000      -0.970454       -26.4074
  84   2.0000      -0.969646       -26.3854
  85   2.0000      -0.959117       -26.0989
  86   2.0000      -0.954733       -25.9796
  87   2.0000      -0.919013       -25.0076
  88   2.0000      -0.900946       -24.5160
  89   2.0000      -0.895196       -24.3595
  90   2.0000      -0.882427       -24.0121
  91   2.0000      -0.876032       -23.8380
  92   2.0000      -0.860075       -23.4038
  93   2.0000      -0.857207       -23.3258
  94   2.0000      -0.855965       -23.2920
  95   2.0000      -0.849285       -23.1102
  96   2.0000      -0.836752       -22.7692
  97   2.0000      -0.833460       -22.6796
  98   2.0000      -0.832073       -22.6418
  99   2.0000      -0.826711       -22.4959
 100   2.0000      -0.816014       -22.2049
 101   2.0000      -0.809557       -22.0292
 102   2.0000      -0.807250       -21.9664
 103   2.0000      -0.797535       -21.7020
 104   2.0000      -0.790719       -21.5166
 105   2.0000      -0.782932       -21.3047
 106   2.0000      -0.775116       -21.0920
 107   2.0000      -0.753455       -20.5025
 108   2.0000      -0.746438       -20.3116
 109   2.0000      -0.744549       -20.2602
 110   2.0000      -0.743206       -20.2237
 111   2.0000      -0.718680       -19.5563
 112   2.0000      -0.706319       -19.2199
 113   2.0000      -0.689233       -18.7550
 114   2.0000      -0.685275       -18.6473
 115   2.0000      -0.673638       -18.3306
 116   2.0000      -0.671958       -18.2849
 117   2.0000      -0.663300       -18.0493
 118   2.0000      -0.648121       -17.6363
 119   2.0000      -0.640044       -17.4165
 120   2.0000      -0.638439       -17.3728
 121   2.0000      -0.636671       -17.3247
 122   2.0000      -0.621374       -16.9084
 123   2.0000      -0.615858       -16.7583
 124   2.0000      -0.611610       -16.6428
 125   2.0000      -0.606122       -16.4934
 126   2.0000      -0.605019       -16.4634
 127   2.0000      -0.602807       -16.4032
 128   2.0000      -0.596305       -16.2263
 129   2.0000      -0.593870       -16.1600
 130   2.0000      -0.589724       -16.0472
 131   2.0000      -0.587458       -15.9856
 132   2.0000      -0.582039       -15.8381
 133   2.0000      -0.566977       -15.4282
 134   2.0000      -0.560675       -15.2567
 135   2.0000      -0.554486       -15.0883
 136   2.0000      -0.544943       -14.8287
 137   2.0000      -0.539661       -14.6849
 138   2.0000      -0.533381       -14.5140
 139   2.0000      -0.530183       -14.4270
 140   2.0000      -0.527045       -14.3416
 141   2.0000      -0.521267       -14.1844
 142   2.0000      -0.514987       -14.0135
 143   2.0000      -0.514114       -13.9897
 144   2.0000      -0.506509       -13.7828
 145   2.0000      -0.505197       -13.7471
 146   2.0000      -0.501761       -13.6536
 147   2.0000      -0.499895       -13.6028
 148   2.0000      -0.499329       -13.5874
 149   2.0000      -0.496116       -13.5000
 150   2.0000      -0.492881       -13.4120
 151   2.0000      -0.489490       -13.3197
 152   2.0000      -0.486582       -13.2406
 153   2.0000      -0.483705       -13.1623
 154   2.0000      -0.481297       -13.0967
 155   2.0000      -0.480709       -13.0808
 156   2.0000      -0.476175       -12.9574
 157   2.0000      -0.474346       -12.9076
 158   2.0000      -0.471107       -12.8195
 159   2.0000      -0.469941       -12.7877
 160   2.0000      -0.464848       -12.6491
 161   2.0000      -0.459807       -12.5120
 162   2.0000      -0.458929       -12.4881
 163   2.0000      -0.457318       -12.4443
 164   2.0000      -0.454383       -12.3644
 165   2.0000      -0.452176       -12.3043
 166   2.0000      -0.448721       -12.2103
 167   2.0000      -0.446325       -12.1451
 168   2.0000      -0.444898       -12.1063
 169   2.0000      -0.441055       -12.0017
 170   2.0000      -0.440007       -11.9732
 171   2.0000      -0.435060       -11.8386
 172   2.0000      -0.430915       -11.7258
 173   2.0000      -0.427077       -11.6213
 174   2.0000      -0.425702       -11.5839
 175   2.0000      -0.418715       -11.3938
 176   2.0000      -0.417140       -11.3510
 177   2.0000      -0.415046       -11.2940
 178   2.0000      -0.411337       -11.1931
 179   2.0000      -0.409520       -11.1436
 180   2.0000      -0.408668       -11.1204
 181   2.0000      -0.405917       -11.0456
 182   2.0000      -0.402366       -10.9489
 183   2.0000      -0.400956       -10.9106
 184   2.0000      -0.398977       -10.8567
 185   2.0000      -0.398222       -10.8362
 186   2.0000      -0.388481       -10.5711
 187   2.0000      -0.387059       -10.5324
 188   2.0000      -0.382871       -10.4185
 189   2.0000      -0.376988       -10.2584
 190   2.0000      -0.370555       -10.0833
 191   2.0000      -0.367126        -9.9900
 192   2.0000      -0.346894        -9.4395
 193   2.0000      -0.343289        -9.3414
 194   2.0000      -0.338916        -9.2224
 195   2.0000      -0.327992        -8.9251
 196   2.0000      -0.323506        -8.8030
 197   2.0000      -0.310112        -8.4386
 198   2.0000      -0.308803        -8.4030
 199   2.0000      -0.305546        -8.3143
 200   2.0000      -0.296001        -8.0546
 201   2.0000      -0.295550        -8.0423
 202   2.0000      -0.281902        -7.6709
 203   2.0000      -0.266866        -7.2618
 204   2.0000      -0.252866        -6.8808
 205   2.0000      -0.225007        -6.1228
 206   2.0000      -0.210984        -5.7412
 207   2.0000      -0.202537        -5.5113
 208   0.0000      -0.060424        -1.6442
 209   0.0000      -0.054696        -1.4884
 210   0.0000      -0.032572        -0.8863
 211   0.0000      -0.002893        -0.0787
 212   0.0000       0.008956         0.2437

MULLIKEN ATOMIC CHARGES
-----------------------
   0 C :   -0.012215
   1 C :   -0.080756
   2 C :    0.067500
   3 C :    0.044186
   4 C :   -0.077683
   5 S :    0.075089
   6 C :   -0.051364
   7 C :    0.036999
   8 C :    0.032903
   9 C :   -0.029430
  10 S :    0.097114
  11 C :   -0.042837
  12 C :   -0.168495
  13 S :    0.112163
  14 C :   -0.120560
  15 C :   -0.106899
  16 C :    0.120815
  17 C :    0.146224
  18 C :   -0.017213
  19 C :    0.000380
  20 C :    0.000349
  21 C :    0.048048
  22 C :   -0.136903
  23 S :    0.091190
  24 C :   -0.163388
  25 C :   -0.057250
  26 C :    0.101446
  27 C :   -0.083155
  28 C :   -0.113044
  29 C :    0.275356
  30 C :   -0.135872
  31 S :    0.104514
  32 C :   -0.122334
  33 C :   -0.086773
  34 C :    0.115844
  35 C :    0.139708
  36 C :   -0.062728
  37 C :    0.002716
  38 C :   -0.001288
  39 C :    0.003153
  40 C :   -0.003530
  41 C :   -0.018136
  42 C :    0.044827
  43 C :    0.047777
  44 C :   -0.046784
  45 S :    0.061528
  46 C :   -0.078306
  47 C :    0.036481
  48 C :    0.038170
  49 C :   -0.058917
  50 S :    0.065256
  51 C :   -0.036779
  52 H :    0.020386
  53 H :    0.008862
  54 H :   -0.014052
  55 H :   -0.018535
  56 H :   -0.016835
  57 H :   -0.013585
  58 H :    0.000725
  59 H :    0.009086
  60 H :    0.003368
  61 H :    0.036225
  62 H :    0.030085
  63 H :   -0.005562
  64 H :   -0.036202
  65 H :   -0.030588
  66 H :   -0.030090
  67 H :    0.007277
  68 H :    0.003143
  69 H :    0.034206
  70 H :    0.030561
  71 H :    0.008724
  72 H :    0.001894
  73 H :    0.033003
  74 H :    0.031484
  75 H :    0.015533
  76 H :   -0.035123
  77 H :   -0.004212
  78 H :   -0.015137
  79 H :   -0.014111
  80 H :   -0.018003
  81 H :   -0.024367
  82 H :   -0.014981
  83 H :   -0.014301
  84 H :    0.016561
  85 H :    0.017466
Sum of atomic charges:   -0.0000000

LOEWDIN ATOMIC CHARGES
----------------------
   0 C :   -0.077333
   1 C :   -0.137270
   2 C :   -0.029261
   3 C :   -0.032522
   4 C :   -0.174572
   5 S :    0.363954
   6 C :   -0.177366
   7 C :   -0.027365
   8 C :   -0.036318
   9 C :   -0.137628
  10 S :    0.372189
  11 C :   -0.088831
  12 C :   -0.174480
  13 S :    0.422990
  14 C :   -0.194083
  15 C :   -0.054074
  16 C :   -0.045494
  17 C :   -0.066828
  18 C :   -0.021962
  19 C :   -0.032429
  20 C :   -0.023369
  21 C :   -0.049818
  22 C :   -0.176720
  23 S :    0.409608
  24 C :   -0.192240
  25 C :   -0.050741
  26 C :   -0.060076
  27 C :   -0.020954
  28 C :   -0.032998
  29 C :   -0.014823
  30 C :   -0.170701
  31 S :    0.421829
  32 C :   -0.195444
  33 C :   -0.053000
  34 C :   -0.044644
  35 C :   -0.056245
  36 C :   -0.014392
  37 C :   -0.042150
  38 C :   -0.036330
  39 C :   -0.034502
  40 C :   -0.056774
  41 C :   -0.144670
  42 C :   -0.030719
  43 C :   -0.038162
  44 C :   -0.173582
  45 S :    0.391703
  46 C :   -0.187272
  47 C :   -0.026222
  48 C :   -0.039833
  49 C :   -0.139529
  50 S :    0.340633
  51 C :   -0.087358
  52 H :    0.026931
  53 H :    0.021315
  54 H :    0.030365
  55 H :    0.028993
  56 H :    0.029965
  57 H :    0.032216
  58 H :    0.032722
  59 H :    0.019054
  60 H :    0.031922
  61 H :    0.034169
  62 H :    0.034339
  63 H :    0.027576
  64 H :    0.023097
  65 H :    0.024988
  66 H :    0.024342
  67 H :    0.020562
  68 H :    0.025429
  69 H :    0.045223
  70 H :    0.045775
  71 H :    0.019209
  72 H :    0.030605
  73 H :    0.032873
  74 H :    0.036073
  75 H :    0.032824
  76 H :    0.021770
  77 H :    0.011858
  78 H :    0.027175
  79 H :    0.034002
  80 H :    0.031387
  81 H :    0.026990
  82 H :    0.031210
  83 H :    0.031996
  84 H :    0.026959
  85 H :    0.024258

  Mayer bond orders larger than 0.100000
B(  0-C ,  1-C ) :   1.8693 B(  0-C , 52-H ) :   0.9437 B(  0-C , 53-H ) :   0.9334
B(  1-C ,  2-C ) :   1.0767 B(  1-C ,  5-S ) :   1.0173 B(  2-C ,  3-C ) :   1.6594
B(  2-C , 54-H ) :   0.9930 B(  3-C ,  4-C ) :   1.1431 B(  3-C , 55-H ) :   0.9909
B(  4-C ,  5-S ) :   1.0473 B(  4-C ,  6-C ) :   1.5816 B(  6-C ,  7-C ) :   1.1486
B(  6-C , 10-S ) :   1.0299 B(  7-C ,  8-C ) :   1.6360 B(  7-C , 56-H ) :   0.9932
B(  8-C ,  9-C ) :   1.1071 B(  8-C , 57-H ) :   0.9973 B(  9-C , 10-S ) :   1.0329
B(  9-C , 11-C ) :   1.6869 B( 11-C , 12-C ) :   1.0625 B( 11-C , 58-H ) :   0.9556
B( 12-C , 13-S ) :   1.1400 B( 12-C , 17-C ) :   1.4545 B( 13-S , 14-C ) :   1.1288
B( 14-C , 15-C ) :   1.6231 B( 14-C , 59-H ) :   0.9658 B( 15-C , 16-C ) :   1.0958
B( 15-C , 17-C ) :   1.1986 B( 16-C , 60-H ) :   0.9441 B( 16-C , 61-H ) :   0.9370
B( 16-C , 62-H ) :   0.9472 B( 17-C , 18-C ) :   1.1030 B( 18-C , 19-C ) :   1.6578
B( 18-C , 63-H ) :   0.9619 B( 19-C , 20-C ) :   1.1390 B( 19-C , 64-H ) :   0.9851
B( 20-C , 21-C ) :   1.6421 B( 20-C , 65-H ) :   0.9871 B( 21-C , 22-C ) :   1.1209
B( 21-C , 66-H ) :   0.9621 B( 22-C , 23-S ) :   1.1107 B( 22-C , 26-C ) :   1.4185
B( 23-S , 24-C ) :   1.1229 B( 24-C , 25-C ) :   1.5930 B( 24-C , 67-H ) :   0.9762
B( 25-C , 26-C ) :   1.2764 B( 25-C , 29-C ) :   1.0045 B( 26-C , 27-C ) :   1.0565
B( 27-C , 28-C ) :   1.6717 B( 27-C , 68-H ) :   1.0013 B( 28-C , 29-C ) :   1.0449
B( 28-C , 30-C ) :   1.0949 B( 29-C , 69-H ) :   0.8753 B( 29-C , 70-H ) :   0.8844
B( 30-C , 31-S ) :   1.1347 B( 30-C , 35-C ) :   1.4483 B( 31-S , 32-C ) :   1.1257
B( 32-C , 33-C ) :   1.6078 B( 32-C , 71-H ) :   0.9669 B( 33-C , 34-C ) :   1.0980
B( 33-C , 35-C ) :   1.2153 B( 34-C , 72-H ) :   0.9458 B( 34-C , 73-H ) :   0.9419
B( 34-C , 74-H ) :   0.9426 B( 35-C , 36-C ) :   1.1211 B( 36-C , 37-C ) :   1.7024
B( 36-C , 75-H ) :   0.9455 B( 37-C , 38-C ) :   1.1305 B( 37-C , 76-H ) :   0.9679
B( 38-C , 39-C ) :   1.6582 B( 38-C , 77-H ) :   0.9472 B( 39-C , 40-C ) :   1.1891
B( 39-C , 78-H ) :   0.9570 B( 40-C , 41-C ) :   1.6034 B( 40-C , 79-H ) :   0.9605
B( 41-C , 42-C ) :   1.1208 B( 41-C , 45-S ) :   1.0348 B( 42-C , 43-C ) :   1.6148
B( 42-C , 80-H ) :   1.0017 B( 43-C , 44-C ) :   1.1520 B( 43-C , 81-H ) :   0.9909
B( 44-C , 45-S ) :   1.0403 B( 44-C , 46-C ) :   1.5710 B( 46-C , 47-C ) :   1.1517
B( 46-C , 50-S ) :   1.0323 B( 47-C , 48-C ) :   1.6512 B( 47-C , 82-H ) :   0.9929
B( 48-C , 49-C ) :   1.0800 B( 48-C , 83-H ) :   0.9945 B( 49-C , 50-S ) :   1.0051
B( 49-C , 51-C ) :   1.8627 B( 51-C , 84-H ) :   0.9506 B( 51-C , 85-H ) :   0.9415

-----------------------------------------------------------------------------
         ABSORPTION SPECTRUM VIA TRANSITION ELECTRIC DIPOLE MOMENTS
-----------------------------------------------------------------------------
State   Energy  Wavelength   fosc         T2         TX        TY        TZ
        (cm-1)    (nm)                  (au**2)     (au)      (au)      (au)
-----------------------------------------------------------------------------
   0   16144.7    619.4   0.318785831   6.50046  -0.52525  -2.22968  -1.11941
   1   16334.2    612.2   0.063253933   1.27487  -0.53047  -0.84792  -0.52393
   2   16882.6    592.3   0.034910003   0.68075  -0.25814   0.74540   0.24186
   3   19146.6    522.3   1.557976944  26.78835   0.50071  -4.71255  -2.08075
   4   21449.9    466.2   0.028449159   0.43664  -0.28544  -0.58574  -0.10987
   5   22310.1    448.2   0.200560189   2.95950   1.60074   0.06654   0.62666
   6   22713.0    440.3   0.020501624   0.29716  -0.08278   0.42520  -0.33093
   7   25113.3    398.2   0.547397770   7.17586  -1.81092  -1.81588  -0.77395
   8   26622.8    375.6   0.008831113   0.10920   0.23735  -0.18186   0.14071
   9   27269.3    366.7   0.328269512   3.96307   1.67788  -0.46179   0.96671
  10   28339.0    352.9   0.100205585   1.16408   0.40215  -0.63059   0.77763
  11   29132.2    343.3   0.177192853   2.00239  -1.27487   0.56783  -0.23382
  12   29623.4    337.6   0.204916518   2.27729   1.39916   0.42752   0.36993
  13   30067.8    332.6   0.124653331   1.36483  -0.84373   0.80533  -0.06620
  14   30476.9    328.1   0.059408587   0.64173  -0.12102   0.48292  -0.62760
  15   31481.0    317.7   0.387094709   4.04803   0.65587  -0.54967   1.82091
  16   31928.7    313.2   0.022691949   0.23397   0.16718   0.05255  -0.45085
  17   32264.3    309.9   0.028329385   0.28906   0.15654  -0.47044   0.20794
  18   32598.7    306.8   0.215816649   2.17952   0.31545   0.64743  -1.28874
  19   34010.6    294.0   0.433166021   4.19291   1.59151  -1.02254  -0.78384
  20   34258.2    291.9   0.195867920   1.88224   0.32426   0.04070  -1.33246
  21   34457.2    290.2   0.093592515   0.89420   0.48173  -0.10432  -0.80700
  22   34694.7    288.2   0.105385085   0.99998  -0.46846  -0.02903   0.88299
  23   34875.6    286.7   0.021410913   0.20211   0.01627  -0.44797  -0.03416
  24   35106.8    284.8   0.021376860   0.20046   0.19484  -0.27789   0.29202
  25   35536.1    281.4   0.003434582   0.03182  -0.15213  -0.07149  -0.05969
  26   35990.9    277.8   0.078933835   0.72201   0.04789  -0.48216   0.69803
  27   36285.1    275.6   0.135190865   1.22657   0.04765   0.54664  -0.96202
  28   36512.9    273.9   0.091895224   0.82856  -0.49802   0.03682  -0.76103
  29   36956.3    270.6   0.051995959   0.46319  -0.42060   0.03293   0.53404
  30   37183.3    268.9   0.171440606   1.51789   0.16826   0.76957  -0.94728
  31   37632.7    265.7   0.063980821   0.55971   0.43502  -0.34992  -0.49802
  32   37966.6    263.4   0.041047477   0.35593   0.40415   0.03367   0.43756
  33   38431.7    260.2   0.016041946   0.13742   0.15574   0.08572   0.32529
  34   38699.7    258.4   0.098326116   0.83644  -0.65174   0.27854  -0.57801
  35   38906.9    257.0   0.014950185   0.12650   0.23389   0.10376  -0.24705
  36   39418.9    253.7   0.020224877   0.16891   0.00614  -0.35304  -0.21033
  37   39818.5    251.1   0.043068769   0.35608  -0.24501   0.02795  -0.54339
  38   39991.7    250.1   0.009036917   0.07439   0.23409  -0.06766  -0.12253
  39   40326.9    248.0   0.016526534   0.13492   0.36485   0.03256  -0.02715

FINAL SINGLE POINT ENERGY     -4519.298382608587

DIPOLE MOMENT
-------------
                                X             Y             Z
Electronic contribution:     -2.92602      -6.20810      -5.15113
Nuclear contribution   :      2.98028       6.69607       5.66991
                        -----------------------------------------
Total Dipole Moment    :      0.05426       0.48797       0.51878
                        -----------------------------------------
Magnitude (a.u.)       :      0.71428
Magnitude (Debye)      :      1.81555

Rotational constants in cm-1:     0.001520     0.000991     0.000738
Rotational constants in MHz :    45.574438    29.702928    22.131186

                             ****ORCA TERMINATED NORMALLY****
TOTAL RUN TIME: 0 days 0 hours 7 minutes 19 seconds 533 msec
