                         Program Version 4.2.0 -  RELEASE  -
|  1> # ORCA input file
|  2> # SCF done       -165.740778518592          0.000488906787
|  3> ! CAM-B3LYP def2-SVP def2/J RIJCOSX Grid4 TightSCF
|  4> %maxcore 5000
|  5> %tddft
|  6>     Mode sTDDFT
|  7>     Ethresh 5.0
|  8>     maxcore 5000
|  9> end
| 10>
| 11> %pal
| 12>   nprocs 6
| 13>   end
| 14> * xyz 0 1
| 15>    C       -0.51422        -0.08997        -5.77441
| 16>    C       -0.15267        -0.17562        -4.48683
| 17>    C       -0.21137         0.85408        -3.48935
| 18>    C        0.13297         0.44614        -2.24784
| 19>    C        0.50482        -0.92426        -2.16352
| 20>    S        0.44023        -1.67005        -3.74577
| 21>    C        0.81648        -1.63442        -1.02834
| 22>    C        0.64021        -1.22707         0.31850
| 23>    C        0.87727        -2.21255         1.22055
| 24>    C        1.32859        -3.43532         0.65217
| 25>    S        1.39350        -3.28732        -1.09123
| 26>    C        1.56126        -4.59447         1.34270
| 27>    C        2.20106        -5.76193         0.87288
| 28>    S        1.67573        -7.32219         1.43387
| 29>    C        2.95589        -8.14239         0.59493
| 30>    C        3.75937        -7.22076        -0.07259
| 31>    C        3.32271        -5.89861         0.05344
| 32>    S        4.19182        -4.47787        -0.50772
| 33>    C        5.71391        -4.99802        -1.23803
| 34>    O        6.53354        -4.14638        -1.45550
| 35>    C        5.97579        -6.41762        -1.68682
| 36>    O        6.85723        -6.63525        -2.47512
| 37>    S        5.07915        -7.80412        -1.07027
| 38>    C        3.06206        -9.55010         0.54131
| 39>    C        1.97927       -10.36765         0.63705
| 40>    C        1.97960       -11.75047         0.36326
| 41>    C        0.90544       -12.34514        -0.24985
| 42>    C        0.79630       -13.64574        -0.80138
| 43>    C       -0.22116       -13.78886        -1.70022
| 44>    C       -0.95957       -12.60313        -1.91176
| 45>    S       -0.45729       -11.36610        -0.78246
| 46>    C       -1.75629       -12.23274        -2.98037
| 47>    C       -2.06584       -12.91543        -4.17403
| 48>    C       -2.49658       -12.09445        -5.17825
| 49>    C       -2.52769       -10.72140        -4.83533
| 50>    S       -2.20459       -10.54436        -3.12633
| 51>    C       -2.75678        -9.65530        -5.67811
| 52>    C       -2.54873        -8.29718        -5.39868
| 53>    S       -3.46246        -7.10910        -6.30315
| 54>    C       -2.83620        -5.77232        -5.36518
| 55>    C       -1.92001        -6.25112        -4.42309
| 56>    C       -1.71531        -7.63686        -4.48122
| 57>    S       -0.26930        -8.43491        -3.86508
| 58>    C        0.43428        -7.43757        -2.60603
| 59>    O        1.48822        -7.77852        -2.12488
| 60>    C       -0.23875        -6.19110        -2.11925
| 61>    O       -0.01185        -5.76105        -1.01724
| 62>    S       -1.21139        -5.19399        -3.20683
| 63>    C       -3.28465        -4.48019        -5.68426
| 64>    C       -3.12101        -3.34232        -4.94056
| 65>    C       -3.55919        -2.07939        -5.34562
| 66>    C       -3.51519        -0.96864        -4.53429
| 67>    C       -3.86464         0.36017        -4.86996
| 68>    C       -3.73018         1.25080        -3.84916
| 69>    C       -3.27928         0.67083        -2.64003
| 70>    S       -3.02660        -1.04935        -2.85149
| 71>    C       -3.04150         1.29097        -1.43509
| 72>    C       -3.16048         2.67270        -1.12781
| 73>    C       -2.81234         2.99533         0.13882
| 74>    C       -2.39297         1.88145         0.93917
| 75>    S       -2.48884         0.40018        -0.03080
| 76>    C       -1.97672         1.89466         2.21366
| 77>    H       -0.88423         0.83503        -6.18007
| 78>    H       -0.44781        -0.93335        -6.43656
| 79>    H       -0.51933         1.85201        -3.74761
| 80>    H        0.14696         1.08242        -1.38095
| 81>    H        0.30167        -0.23946         0.57356
| 82>    H        0.76762        -2.10626         2.28550
| 83>    H        1.16531        -4.64836         2.34925
| 84>    H        4.02701        -9.95439         0.26501
| 85>    H        1.01036        -9.89906         0.76958
| 86>    H        2.88624       -12.32487         0.49303
| 87>    H        1.50889       -14.41627        -0.56439
| 88>    H       -0.41826       -14.68768        -2.25714
| 89>    H       -1.91552       -13.97503        -4.27975
| 90>    H       -2.72292       -12.42596        -6.17629
| 91>    H       -3.18648        -9.87906        -6.64616
| 92>    H       -3.84714        -4.40944        -6.60720
| 93>    H       -2.65027        -3.39965        -3.97029
| 94>    H       -3.95133        -1.95511        -6.34637
| 95>    H       -4.19714         0.61609        -5.86078
| 96>    H       -3.94559         2.30137        -3.92954
| 97>    H       -3.49608         3.38218        -1.86339
| 98>    H       -2.83179         3.98929         0.54906
| 99>    H       -1.93235         2.81583         2.76715
|100>    H       -1.68262         0.99451         2.72162
|101> *
|102>
|103>                          ****END OF INPUT****

CARTESIAN COORDINATES (ANGSTROEM)
---------------------------------
  C     -0.514220   -0.089970   -5.774410
  C     -0.152670   -0.175620   -4.486830
  C     -0.211370    0.854080   -3.489350
  C      0.132970    0.446140   -2.247840
  C      0.504820   -0.924260   -2.163520
  S      0.440230   -1.670050   -3.745770
  C      0.816480   -1.634420   -1.028340
  C      0.640210   -1.227070    0.318500
  C      0.877270   -2.212550    1.220550
  C      1.328590   -3.435320    0.652170
  S      1.393500   -3.287320   -1.091230
  C      1.561260   -4.594470    1.342700
  C      2.201060   -5.761930    0.872880
  S      1.675730   -7.322190    1.433870
  C      2.955890   -8.142390    0.594930
  C      3.759370   -7.220760   -0.072590
  C      3.322710   -5.898610    0.053440
  S      4.191820   -4.477870   -0.507720
  C      5.713910   -4.998020   -1.238030
  O      6.533540   -4.146380   -1.455500
  C      5.975790   -6.417620   -1.686820
  O      6.857230   -6.635250   -2.475120
  S      5.079150   -7.804120   -1.070270
  C      3.062060   -9.550100    0.541310
  C      1.979270  -10.367650    0.637050
  C      1.979600  -11.750470    0.363260
  C      0.905440  -12.345140   -0.249850
  C      0.796300  -13.645740   -0.801380
  C     -0.221160  -13.788860   -1.700220
  C     -0.959570  -12.603130   -1.911760
  S     -0.457290  -11.366100   -0.782460
  C     -1.756290  -12.232740   -2.980370
  C     -2.065840  -12.915430   -4.174030
  C     -2.496580  -12.094450   -5.178250
  C     -2.527690  -10.721400   -4.835330
  S     -2.204590  -10.544360   -3.126330
  C     -2.756780   -9.655300   -5.678110
  C     -2.548730   -8.297180   -5.398680
  S     -3.462460   -7.109100   -6.303150
  C     -2.836200   -5.772320   -5.365180
  C     -1.920010   -6.251120   -4.423090
  C     -1.715310   -7.636860   -4.481220
  S     -0.269300   -8.434910   -3.865080
  C      0.434280   -7.437570   -2.606030
  O      1.488220   -7.778520   -2.124880
  C     -0.238750   -6.191100   -2.119250
  O     -0.011850   -5.761050   -1.017240
  S     -1.211390   -5.193990   -3.206830
  C     -3.284650   -4.480190   -5.684260
  C     -3.121010   -3.342320   -4.940560
  C     -3.559190   -2.079390   -5.345620
  C     -3.515190   -0.968640   -4.534290
  C     -3.864640    0.360170   -4.869960
  C     -3.730180    1.250800   -3.849160
  C     -3.279280    0.670830   -2.640030
  S     -3.026600   -1.049350   -2.851490
  C     -3.041500    1.290970   -1.435090
  C     -3.160480    2.672700   -1.127810
  C     -2.812340    2.995330    0.138820
  C     -2.392970    1.881450    0.939170
  S     -2.488840    0.400180   -0.030800
  C     -1.976720    1.894660    2.213660
  H     -0.884230    0.835030   -6.180070
  H     -0.447810   -0.933350   -6.436560
  H     -0.519330    1.852010   -3.747610
  H      0.146960    1.082420   -1.380950
  H      0.301670   -0.239460    0.573560
  H      0.767620   -2.106260    2.285500
  H      1.165310   -4.648360    2.349250
  H      4.027010   -9.954390    0.265010
  H      1.010360   -9.899060    0.769580
  H      2.886240  -12.324870    0.493030
  H      1.508890  -14.416270   -0.564390
  H     -0.418260  -14.687680   -2.257140
  H     -1.915520  -13.975030   -4.279750
  H     -2.722920  -12.425960   -6.176290
  H     -3.186480   -9.879060   -6.646160
  H     -3.847140   -4.409440   -6.607200
  H     -2.650270   -3.399650   -3.970290
  H     -3.951330   -1.955110   -6.346370
  H     -4.197140    0.616090   -5.860780
  H     -3.945590    2.301370   -3.929540
  H     -3.496080    3.382180   -1.863390
  H     -2.831790    3.989290    0.549060
  H     -1.932350    2.815830    2.767150
  H     -1.682620    0.994510    2.721620

 Total Charge           Charge          ....    0
 Multiplicity           Mult            ....    1
 Number of Electrons    NEL             ....  524
 Basis Dimension        Dim             .... 1036

ORBITAL ENERGIES
----------------

  NO   OCC          E(Eh)            E(eV)
   0   2.0000     -88.959280     -2420.7051
   1   2.0000     -88.957891     -2420.6673
   2   2.0000     -88.957015     -2420.6434
   3   2.0000     -88.949569     -2420.4408
   4   2.0000     -88.949154     -2420.4295
   5   2.0000     -88.945215     -2420.3224
   6   2.0000     -88.942093     -2420.2374
   7   2.0000     -88.941745     -2420.2279
   8   2.0000     -88.940880     -2420.2044
   9   2.0000     -88.940617     -2420.1972
  10   2.0000     -88.933343     -2419.9993
  11   2.0000     -88.930733     -2419.9283
  12   2.0000     -19.233243      -523.3631
  13   2.0000     -19.225039      -523.1399
  14   2.0000     -19.218840      -522.9712
  15   2.0000     -19.217932      -522.9465
  16   2.0000     -10.392920      -282.8057
  17   2.0000     -10.389985      -282.7259
  18   2.0000     -10.383947      -282.5616
  19   2.0000     -10.381999      -282.5085
  20   2.0000     -10.318885      -280.7911
  21   2.0000     -10.316753      -280.7331
  22   2.0000     -10.316352      -280.7222
  23   2.0000     -10.314458      -280.6707
  24   2.0000     -10.312383      -280.6142
  25   2.0000     -10.309724      -280.5419
  26   2.0000     -10.309565      -280.5375
  27   2.0000     -10.309543      -280.5369
  28   2.0000     -10.309019      -280.5227
  29   2.0000     -10.306468      -280.4532
  30   2.0000     -10.305646      -280.4309
  31   2.0000     -10.305445      -280.4254
  32   2.0000     -10.305411      -280.4245
  33   2.0000     -10.304632      -280.4033
  34   2.0000     -10.303118      -280.3621
  35   2.0000     -10.301358      -280.3142
  36   2.0000     -10.300385      -280.2877
  37   2.0000     -10.299698      -280.2690
  38   2.0000     -10.298478      -280.2358
  39   2.0000     -10.296872      -280.1921
  40   2.0000     -10.291980      -280.0590
  41   2.0000     -10.289672      -279.9962
  42   2.0000     -10.289164      -279.9824
  43   2.0000     -10.288484      -279.9639
  44   2.0000     -10.287553      -279.9385
  45   2.0000     -10.285923      -279.8942
  46   2.0000     -10.285421      -279.8805
  47   2.0000     -10.284527      -279.8562
  48   2.0000     -10.284276      -279.8494
  49   2.0000     -10.284003      -279.8419
  50   2.0000     -10.283710      -279.8340
  51   2.0000     -10.282172      -279.7921
  52   2.0000     -10.278045      -279.6798
  53   2.0000     -10.277171      -279.6560
  54   2.0000     -10.277129      -279.6549
  55   2.0000     -10.276745      -279.6445
  56   2.0000     -10.276153      -279.6283
  57   2.0000     -10.275542      -279.6117
  58   2.0000     -10.273038      -279.5436
  59   2.0000     -10.272866      -279.5389
  60   2.0000     -10.272170      -279.5199
  61   2.0000     -10.263752      -279.2909
  62   2.0000      -8.055296      -219.1957
  63   2.0000      -8.053782      -219.1546
  64   2.0000      -8.053255      -219.1402
  65   2.0000      -8.045952      -218.9415
  66   2.0000      -8.045112      -218.9186
  67   2.0000      -8.041510      -218.8206
  68   2.0000      -8.038051      -218.7265
  69   2.0000      -8.037541      -218.7126
  70   2.0000      -8.037235      -218.7043
  71   2.0000      -8.037036      -218.6989
  72   2.0000      -8.029036      -218.4812
  73   2.0000      -8.027104      -218.4286
  74   2.0000      -6.025078      -163.9507
  75   2.0000      -6.023151      -163.8983
  76   2.0000      -6.023000      -163.8942
  77   2.0000      -6.020573      -163.8281
  78   2.0000      -6.019317      -163.7939
  79   2.0000      -6.018368      -163.7681
  80   2.0000      -6.016288      -163.7115
  81   2.0000      -6.015701      -163.6955
  82   2.0000      -6.015333      -163.6855
  83   2.0000      -6.014458      -163.6617
  84   2.0000      -6.014327      -163.6582
  85   2.0000      -6.011325      -163.5765
  86   2.0000      -6.011197      -163.5730
  87   2.0000      -6.010478      -163.5534
  88   2.0000      -6.007897      -163.4832
  89   2.0000      -6.007335      -163.4679
  90   2.0000      -6.007035      -163.4597
  91   2.0000      -6.006930      -163.4569
  92   2.0000      -6.006917      -163.4565
  93   2.0000      -6.006772      -163.4526
  94   2.0000      -6.006689      -163.4503
  95   2.0000      -6.003920      -163.3750
  96   2.0000      -6.003272      -163.3573
  97   2.0000      -6.002981      -163.3494
  98   2.0000      -6.002598      -163.3390
  99   2.0000      -6.002451      -163.3350
 100   2.0000      -5.998747      -163.2342
 101   2.0000      -5.998695      -163.2328
 102   2.0000      -5.998225      -163.2200
 103   2.0000      -5.998133      -163.2175
 104   2.0000      -5.997900      -163.2112
 105   2.0000      -5.996900      -163.1840
 106   2.0000      -5.994759      -163.1257
 107   2.0000      -5.992996      -163.0777
 108   2.0000      -5.989923      -162.9941
 109   2.0000      -5.987709      -162.9339
 110   2.0000      -1.164346       -31.6835
 111   2.0000      -1.155706       -31.4483
 112   2.0000      -1.131613       -30.7928
 113   2.0000      -1.123559       -30.5736
 114   2.0000      -1.005567       -27.3629
 115   2.0000      -0.996936       -27.1280
 116   2.0000      -0.995180       -27.0802
 117   2.0000      -0.993612       -27.0376
 118   2.0000      -0.981973       -26.7208
 119   2.0000      -0.972468       -26.4622
 120   2.0000      -0.970638       -26.4124
 121   2.0000      -0.959753       -26.1162
 122   2.0000      -0.924866       -25.1669
 123   2.0000      -0.920600       -25.0508
 124   2.0000      -0.916950       -24.9515
 125   2.0000      -0.910408       -24.7735
 126   2.0000      -0.898000       -24.4358
 127   2.0000      -0.892132       -24.2761
 128   2.0000      -0.874618       -23.7996
 129   2.0000      -0.873150       -23.7596
 130   2.0000      -0.871639       -23.7185
 131   2.0000      -0.854525       -23.2528
 132   2.0000      -0.848245       -23.0819
 133   2.0000      -0.846362       -23.0307
 134   2.0000      -0.844016       -22.9668
 135   2.0000      -0.840452       -22.8699
 136   2.0000      -0.834558       -22.7095
 137   2.0000      -0.824082       -22.4244
 138   2.0000      -0.820417       -22.3247
 139   2.0000      -0.816488       -22.2178
 140   2.0000      -0.814030       -22.1509
 141   2.0000      -0.810103       -22.0440
 142   2.0000      -0.807370       -21.9697
 143   2.0000      -0.795714       -21.6525
 144   2.0000      -0.782538       -21.2939
 145   2.0000      -0.768620       -20.9152
 146   2.0000      -0.752567       -20.4784
 147   2.0000      -0.740323       -20.1452
 148   2.0000      -0.735409       -20.0115
 149   2.0000      -0.728066       -19.8117
 150   2.0000      -0.723274       -19.6813
 151   2.0000      -0.711522       -19.3615
 152   2.0000      -0.694431       -18.8964
 153   2.0000      -0.692364       -18.8402
 154   2.0000      -0.676817       -18.4171
 155   2.0000      -0.674038       -18.3415
 156   2.0000      -0.663847       -18.0642
 157   2.0000      -0.658902       -17.9296
 158   2.0000      -0.651769       -17.7355
 159   2.0000      -0.640599       -17.4316
 160   2.0000      -0.636021       -17.3070
 161   2.0000      -0.630796       -17.1648
 162   2.0000      -0.628367       -17.0987
 163   2.0000      -0.622253       -16.9324
 164   2.0000      -0.619028       -16.8446
 165   2.0000      -0.616725       -16.7819
 166   2.0000      -0.613868       -16.7042
 167   2.0000      -0.612520       -16.6675
 168   2.0000      -0.609263       -16.5789
 169   2.0000      -0.601916       -16.3790
 170   2.0000      -0.599373       -16.3098
 171   2.0000      -0.597713       -16.2646
 172   2.0000      -0.595252       -16.1976
 173   2.0000      -0.592538       -16.1238
 174   2.0000      -0.588701       -16.0194
 175   2.0000      -0.567876       -15.4527
 176   2.0000      -0.563290       -15.3279
 177   2.0000      -0.559664       -15.2292
 178   2.0000      -0.552682       -15.0392
 179   2.0000      -0.551974       -15.0200
 180   2.0000      -0.546774       -14.8785
 181   2.0000      -0.541441       -14.7334
 182   2.0000      -0.534710       -14.5502
 183   2.0000      -0.532706       -14.4957
 184   2.0000      -0.529524       -14.4091
 185   2.0000      -0.526380       -14.3235
 186   2.0000      -0.525395       -14.2967
 187   2.0000      -0.523194       -14.2368
 188   2.0000      -0.522267       -14.2116
 189   2.0000      -0.514505       -14.0004
 190   2.0000      -0.512891       -13.9565
 191   2.0000      -0.507851       -13.8193
 192   2.0000      -0.505243       -13.7484
 193   2.0000      -0.503797       -13.7090
 194   2.0000      -0.502495       -13.6736
 195   2.0000      -0.500557       -13.6208
 196   2.0000      -0.498321       -13.5600
 197   2.0000      -0.496569       -13.5123
 198   2.0000      -0.491446       -13.3729
 199   2.0000      -0.488415       -13.2904
 200   2.0000      -0.487699       -13.2710
 201   2.0000      -0.485385       -13.2080
 202   2.0000      -0.485151       -13.2016
 203   2.0000      -0.482967       -13.1422
 204   2.0000      -0.479339       -13.0435
 205   2.0000      -0.476692       -12.9715
 206   2.0000      -0.473785       -12.8923
 207   2.0000      -0.471777       -12.8377
 208   2.0000      -0.469042       -12.7633
 209   2.0000      -0.466772       -12.7015
 210   2.0000      -0.463394       -12.6096
 211   2.0000      -0.462163       -12.5761
 212   2.0000      -0.458733       -12.4828
 213   2.0000      -0.456292       -12.4163
 214   2.0000      -0.455016       -12.3816
 215   2.0000      -0.451346       -12.2818
 216   2.0000      -0.448158       -12.1950
 217   2.0000      -0.445703       -12.1282
 218   2.0000      -0.442370       -12.0375
 219   2.0000      -0.436427       -11.8758
 220   2.0000      -0.433108       -11.7855
 221   2.0000      -0.431711       -11.7474
 222   2.0000      -0.428958       -11.6725
 223   2.0000      -0.426520       -11.6062
 224   2.0000      -0.422697       -11.5022
 225   2.0000      -0.420994       -11.4558
 226   2.0000      -0.418813       -11.3965
 227   2.0000      -0.416823       -11.3423
 228   2.0000      -0.412943       -11.2367
 229   2.0000      -0.409885       -11.1535
 230   2.0000      -0.408556       -11.1174
 231   2.0000      -0.403848       -10.9893
 232   2.0000      -0.397852       -10.8261
 233   2.0000      -0.395541       -10.7632
 234   2.0000      -0.394818       -10.7435
 235   2.0000      -0.390901       -10.6370
 236   2.0000      -0.386248       -10.5103
 237   2.0000      -0.383123       -10.4253
 238   2.0000      -0.377085       -10.2610
 239   2.0000      -0.373993       -10.1769
 240   2.0000      -0.368032       -10.0147
 241   2.0000      -0.364129        -9.9084
 242   2.0000      -0.359381        -9.7792
 243   2.0000      -0.352000        -9.5784
 244   2.0000      -0.342073        -9.3083
 245   2.0000      -0.339362        -9.2345
 246   2.0000      -0.333157        -9.0657
 247   2.0000      -0.328808        -8.9473
 248   2.0000      -0.328294        -8.9333
 249   2.0000      -0.319859        -8.7038
 250   2.0000      -0.318735        -8.6732
 251   2.0000      -0.311356        -8.4724
 252   2.0000      -0.308764        -8.4019
 253   2.0000      -0.303652        -8.2628
 254   2.0000      -0.301191        -8.1958
 255   2.0000      -0.283673        -7.7191
 256   2.0000      -0.278154        -7.5690
 257   2.0000      -0.275046        -7.4844
 258   2.0000      -0.260422        -7.0864
 259   2.0000      -0.227965        -6.2032
 260   2.0000      -0.208846        -5.6830
 261   2.0000      -0.199380        -5.4254
 262   0.0000      -0.088110        -2.3976
 263   0.0000      -0.071990        -1.9589
 264   0.0000      -0.053164        -1.4467
 265   0.0000      -0.045987        -1.2514
 266   0.0000      -0.034451        -0.9375

MULLIKEN ATOMIC CHARGES
-----------------------
   0 C :   -0.008051
   1 C :   -0.086745
   2 C :    0.078424
   3 C :    0.028141
   4 C :   -0.062580
   5 S :    0.079565
   6 C :   -0.067885
   7 C :    0.053074
   8 C :    0.025521
   9 C :   -0.023801
  10 S :    0.112116
  11 C :   -0.030015
  12 C :   -0.106357
  13 S :    0.145979
  14 C :   -0.109571
  15 C :   -0.000842
  16 C :   -0.034608
  17 S :    0.100530
  18 C :    0.067795
  19 O :   -0.143799
  20 C :    0.078204
  21 O :   -0.147564
  22 S :    0.079021
  23 C :    0.012212
  24 C :   -0.017365
  25 C :    0.004582
  26 C :   -0.041312
  27 C :    0.041687
  28 C :    0.030408
  29 C :   -0.038273
  30 S :    0.067797
  31 C :   -0.064986
  32 C :    0.035351
  33 C :    0.040086
  34 C :   -0.065295
  35 S :    0.097064
  36 C :    0.018439
  37 C :   -0.130107
  38 S :    0.130215
  39 C :   -0.112688
  40 C :   -0.017243
  41 C :   -0.084378
  42 S :    0.127308
  43 C :    0.081935
  44 O :   -0.162532
  45 C :    0.094506
  46 O :   -0.142476
  47 S :    0.079148
  48 C :    0.032064
  49 C :   -0.028514
  50 C :   -0.011355
  51 C :   -0.009382
  52 C :    0.045657
  53 C :    0.012838
  54 C :   -0.023719
  55 S :    0.076329
  56 C :   -0.083763
  57 C :    0.033638
  58 C :    0.046272
  59 C :   -0.065999
  60 S :    0.074993
  61 C :   -0.035581
  62 H :    0.012133
  63 H :    0.019595
  64 H :   -0.020075
  65 H :   -0.010019
  66 H :   -0.018894
  67 H :   -0.016390
  68 H :   -0.001758
  69 H :    0.008660
  70 H :    0.019991
  71 H :   -0.002740
  72 H :   -0.004780
  73 H :   -0.008343
  74 H :   -0.010994
  75 H :   -0.012850
  76 H :   -0.009707
  77 H :   -0.018129
  78 H :    0.036434
  79 H :   -0.020473
  80 H :   -0.016126
  81 H :   -0.017405
  82 H :   -0.013290
  83 H :   -0.011978
  84 H :    0.021498
  85 H :    0.021524
Sum of atomic charges:   -0.0000000

LOEWDIN ATOMIC CHARGES
----------------------
   0 C :   -0.073829
   1 C :   -0.142566
   2 C :   -0.032250
   3 C :   -0.028663
   4 C :   -0.172319
   5 S :    0.355556
   6 C :   -0.183771
   7 C :   -0.027110
   8 C :   -0.039001
   9 C :   -0.139177
  10 S :    0.395509
  11 C :   -0.097056
  12 C :   -0.176475
  13 S :    0.457142
  14 C :   -0.186967
  15 C :   -0.207830
  16 C :   -0.226520
  17 S :    0.395492
  18 C :   -0.116944
  19 O :   -0.114812
  20 C :   -0.114354
  21 O :   -0.116830
  22 S :    0.389839
  23 C :   -0.028611
  24 C :   -0.041560
  25 C :   -0.037147
  26 C :   -0.147649
  27 C :   -0.023546
  28 C :   -0.035890
  29 C :   -0.162061
  30 S :    0.374043
  31 C :   -0.190721
  32 C :   -0.029885
  33 C :   -0.041489
  34 C :   -0.145563
  35 S :    0.388468
  36 C :   -0.107216
  37 C :   -0.182160
  38 S :    0.433859
  39 C :   -0.184344
  40 C :   -0.213077
  41 C :   -0.243301
  42 S :    0.417460
  43 C :   -0.119561
  44 O :   -0.130070
  45 C :   -0.110068
  46 O :   -0.109706
  47 S :    0.408626
  48 C :   -0.054911
  49 C :   -0.036233
  50 C :   -0.056089
  51 C :   -0.136748
  52 C :   -0.031134
  53 C :   -0.036520
  54 C :   -0.174016
  55 S :    0.392661
  56 C :   -0.183328
  57 C :   -0.027161
  58 C :   -0.037163
  59 C :   -0.141110
  60 S :    0.370604
  61 C :   -0.083074
  62 H :    0.025061
  63 H :    0.025122
  64 H :    0.029512
  65 H :    0.030066
  66 H :    0.024890
  67 H :    0.031293
  68 H :    0.034181
  69 H :    0.030787
  70 H :    0.017633
  71 H :    0.035583
  72 H :    0.035026
  73 H :    0.032819
  74 H :    0.032307
  75 H :    0.032259
  76 H :    0.032835
  77 H :    0.028348
  78 H :    0.007978
  79 H :    0.030777
  80 H :    0.032210
  81 H :    0.029749
  82 H :    0.032175
  83 H :    0.033315
  84 H :    0.029238
  85 H :    0.025161

  Mayer bond orders larger than 0.100000
B(  0-C ,  1-C ) :   1.8658 B(  0-C , 62-H ) :   0.9457 B(  0-C , 63-H ) :   0.9368
B(  1-C ,  2-C ) :   1.0842 B(  1-C ,  5-S ) :   1.0068 B(  2-C ,  3-C ) :   1.6510
B(  2-C , 64-H ) :   0.9892 B(  3-C ,  4-C ) :   1.1542 B(  3-C , 65-H ) :   0.9910
B(  4-C ,  5-S ) :   1.0447 B(  4-C ,  6-C ) :   1.5516 B(  6-C ,  7-C ) :   1.1622
B(  6-C , 10-S ) :   1.0486 B(  7-C ,  8-C ) :   1.6123 B(  7-C , 66-H ) :   0.9878
B(  8-C ,  9-C ) :   1.1279 B(  8-C , 67-H ) :   0.9986 B(  9-C , 10-S ) :   1.0525
B(  9-C , 11-C ) :   1.6243 B( 11-C , 12-C ) :   1.1215 B( 11-C , 68-H ) :   0.9524
B( 12-C , 13-S ) :   1.1208 B( 12-C , 16-C ) :   1.5236 B( 13-S , 14-C ) :   1.1137
B( 14-C , 15-C ) :   1.5238 B( 14-C , 23-C ) :   1.1642 B( 15-C , 16-C ) :   1.3108
B( 15-C , 22-S ) :   0.9675 B( 16-C , 17-S ) :   0.9757 B( 17-S , 18-C ) :   1.0661
B( 17-S , 19-O ) :   0.1376 B( 18-C , 19-O ) :   2.1455 B( 18-C , 20-C ) :   0.7719
B( 20-C , 21-O ) :   2.1414 B( 20-C , 22-S ) :   1.0595 B( 21-O , 22-S ) :   0.1392
B( 23-C , 24-C ) :   1.6578 B( 23-C , 69-H ) :   0.9633 B( 24-C , 25-C ) :   1.1506
B( 24-C , 70-H ) :   0.9568 B( 25-C , 26-C ) :   1.5966 B( 25-C , 71-H ) :   0.9835
B( 26-C , 27-C ) :   1.1428 B( 26-C , 30-S ) :   1.0272 B( 27-C , 28-C ) :   1.6020
B( 27-C , 72-H ) :   0.9964 B( 28-C , 29-C ) :   1.1847 B( 28-C , 73-H ) :   0.9945
B( 29-C , 30-S ) :   1.0698 B( 29-C , 31-C ) :   1.4854 B( 31-C , 32-C ) :   1.1932
B( 31-C , 35-S ) :   1.0471 B( 32-C , 33-C ) :   1.5880 B( 32-C , 74-H ) :   0.9926
B( 33-C , 34-C ) :   1.1524 B( 33-C , 75-H ) :   0.9963 B( 34-C , 35-S ) :   1.0665
B( 34-C , 36-C ) :   1.5635 B( 36-C , 37-C ) :   1.1879 B( 36-C , 76-H ) :   0.9481
B( 37-C , 38-S ) :   1.1099 B( 37-C , 41-C ) :   1.4715 B( 38-S , 39-C ) :   1.1001
B( 39-C , 40-C ) :   1.5114 B( 39-C , 48-C ) :   1.1674 B( 40-C , 41-C ) :   1.2829
B( 40-C , 47-S ) :   0.9799 B( 41-C , 42-S ) :   0.9908 B( 42-S , 43-C ) :   1.0827
B( 42-S , 44-O ) :   0.1432 B( 43-C , 44-O ) :   2.0884 B( 43-C , 45-C ) :   0.7849
B( 45-C , 46-O ) :   2.0921 B( 45-C , 47-S ) :   1.0562 B( 46-O , 47-S ) :   0.1293
B( 48-C , 49-C ) :   1.6008 B( 48-C , 77-H ) :   0.9573 B( 49-C , 50-C ) :   1.1905
B( 49-C , 78-H ) :   0.9568 B( 50-C , 51-C ) :   1.5366 B( 50-C , 79-H ) :   0.9863
B( 51-C , 52-C ) :   1.1382 B( 51-C , 55-S ) :   1.0427 B( 52-C , 53-C ) :   1.5892
B( 52-C , 80-H ) :   0.9999 B( 53-C , 54-C ) :   1.1751 B( 53-C , 81-H ) :   0.9947
B( 54-C , 55-S ) :   1.0477 B( 54-C , 56-C ) :   1.5374 B( 56-C , 57-C ) :   1.1592
B( 56-C , 60-S ) :   1.0403 B( 57-C , 58-C ) :   1.6483 B( 57-C , 82-H ) :   0.9917
B( 58-C , 59-C ) :   1.0802 B( 58-C , 83-H ) :   0.9938 B( 59-C , 60-S ) :   1.0048
B( 59-C , 61-C ) :   1.8543 B( 61-C , 84-H ) :   0.9510 B( 61-C , 85-H ) :   0.9417

-----------------------------------------------------------------------------
         ABSORPTION SPECTRUM VIA TRANSITION ELECTRIC DIPOLE MOMENTS
-----------------------------------------------------------------------------
State   Energy  Wavelength   fosc         T2         TX        TY        TZ
        (cm-1)    (nm)                  (au**2)     (au)      (au)      (au)
-----------------------------------------------------------------------------
   0   10308.9    970.0   0.192750500   6.15544  -1.86961   1.56776  -0.44957
   1   12239.3    817.0   0.049072111   1.31994  -0.20234   1.12431   0.12212
   2   14764.6    677.3   0.456646485  10.18201   0.19532   3.05916   0.88621
   3   15124.9    661.2   0.588531198  12.81006   0.19816  -3.56823  -0.19623
   4   16240.5    615.7   0.718158798  14.55782  -0.20268   3.77075   0.54610
   5   17945.6    557.2   0.021967340   0.40299  -0.39300  -0.25488  -0.42846
   6   18212.6    549.1   0.551035735   9.96054   1.41537   0.08691   2.81953
   7   18650.9    536.2   0.272352985   4.80738   0.70672   0.67792   1.96172
   8   19388.1    515.8   0.567837360   9.64196   1.13709  -1.89431   2.18188
   9   21159.2    472.6   0.094631115   1.47234  -0.27704   0.91053  -0.75268
  10   21748.0    459.8   0.076689203   1.16089   0.90137  -0.32670   0.49162
  11   23040.6    434.0   0.024598836   0.35148  -0.18141  -0.53993  -0.16445
  12   23905.4    418.3   0.053478102   0.73647  -0.37867   0.34149  -0.69026
  13   24641.5    405.8   0.048433661   0.64708   0.17223   0.61776   0.48558
  14   25122.7    398.0   0.227456828   2.98063   0.59059   1.55143  -0.47422
  15   25314.1    395.0   0.032447871   0.42199   0.53879   0.16526   0.32309
  16   25534.2    391.6   0.068578018   0.88417   0.22415  -0.27892   0.86956
  17   26264.8    380.7   0.011164694   0.13994  -0.27738  -0.22692  -0.10729
  18   27039.0    369.8   0.107844521   1.31305   0.28319   1.10656   0.09155
  19   27264.3    366.8   0.229475577   2.77088   0.32129   1.59701  -0.34235
  20   27504.9    363.6   0.085678149   1.02550  -0.75733   0.19747   0.64261
  21   28259.7    353.9   0.075949597   0.88478  -0.24401   0.39280  -0.81911
  22   28607.0    349.6   0.008923790   0.10270  -0.01267  -0.00841  -0.32010
  23   29173.9    342.8   0.014235283   0.16064   0.16156  -0.36302   0.05248
  24   29274.1    341.6   0.075716439   0.85149   0.55519   0.55822   0.48130
  25   29486.6    339.1   0.039154896   0.43716   0.55745   0.34138   0.09930
  26   29681.6    336.9   0.013645734   0.15135   0.33567  -0.00251  -0.19664
  27   29853.7    335.0   0.096400258   1.06305  -0.68180  -0.26600  -0.72626
  28   30179.5    331.4   0.055210603   0.60226  -0.54952  -0.45793  -0.30097
  29   30412.5    328.8   0.211035019   2.28443  -0.45489   0.59627  -1.31224
  30   30647.8    326.3   0.020854524   0.22401  -0.17325  -0.01817   0.44008
  31   31167.7    320.8   0.023251308   0.24559   0.13514   0.46759   0.09321
  32   31396.5    318.5   0.021828461   0.22888  -0.40176  -0.22836  -0.12379
  33   31701.7    315.4   0.031913372   0.33141  -0.12275  -0.41081  -0.38416
  34   31805.3    314.4   0.081671969   0.84537  -0.87464   0.28066   0.04019
  35   32359.1    309.0   0.054496372   0.55443  -0.45032   0.30112   0.51085
  36   32564.0    307.1   0.002147515   0.02171  -0.02162  -0.14569   0.00432
  37   32637.1    306.4   0.034400706   0.34700  -0.36210  -0.09445  -0.45493
  38   32792.6    304.9   0.031804736   0.31929  -0.34320  -0.37263   0.25031
  39   32949.6    303.5   0.067322612   0.67265  -0.28702   0.14122  -0.75519
  40   33160.6    301.6   0.026356214   0.26166   0.35853   0.11708   0.34555
  41   33360.1    299.8   0.098136633   0.96845  -0.79756  -0.53142   0.22349
  42   33377.6    299.6   0.045894505   0.45267  -0.28138   0.24062  -0.56178
  43   33524.5    298.3   0.012975724   0.12742  -0.22333  -0.11105  -0.25537
  44   33811.2    295.8   0.031663402   0.30830  -0.53725  -0.04322  -0.13341
  45   33962.1    294.4   0.022056296   0.21380   0.28639  -0.09730  -0.34973
  46   34044.6    293.7   0.067820001   0.65582  -0.06100   0.28282   0.75638
  47   34371.0    290.9   0.029829131   0.28571  -0.45131  -0.10784  -0.26533
  48   34428.0    290.5   0.051572459   0.49315  -0.40671  -0.21533   0.53044
  49   34786.9    287.5   0.017604688   0.16661  -0.31155   0.24148  -0.10598
  50   35099.0    284.9   0.023764363   0.22290  -0.18133  -0.12558  -0.41743
  51   35310.8    283.2   0.083849305   0.78175  -0.54486  -0.09285  -0.69012
  52   35428.3    282.3   0.085529272   0.79477   0.42316   0.40623   0.67133
  53   35728.6    279.9   0.030604787   0.28200   0.10324  -0.39254   0.34242
  54   35752.6    279.7   0.015315200   0.14102  -0.18704  -0.07434  -0.31704
  55   36159.8    276.6   0.038837783   0.35359   0.35675  -0.37195   0.29662
  56   36278.3    275.6   0.004629370   0.04201   0.03214   0.03307  -0.19971
  57   36376.0    274.9   0.030232458   0.27361  -0.39103  -0.23633  -0.25467
  58   36705.4    272.4   0.007143136   0.06407  -0.07192  -0.15449   0.18716
  59   36853.5    271.3   0.009541503   0.08523  -0.12590  -0.08032  -0.25086
  60   36866.3    271.3   0.034693832   0.30981   0.17425  -0.07517   0.52326
  61   37134.2    269.3   0.055270196   0.49000   0.12299  -0.58460   0.36485
  62   37297.6    268.1   0.026205426   0.23131  -0.19339  -0.35227  -0.26421
  63   37608.0    265.9   0.021997021   0.19256   0.43174  -0.05492  -0.05602
  64   37796.9    264.6   0.062119381   0.54106   0.10092   0.45969  -0.56530
  65   38070.0    262.7   0.026518269   0.22932  -0.01427   0.25446  -0.40542
  66   38220.0    261.6   0.046476191   0.40033  -0.28323  -0.12817   0.55107
  67   38376.5    260.6   0.019687402   0.16889   0.11850  -0.03430  -0.39201
  68   38558.7    259.3   0.033828561   0.28883   0.23691  -0.47224   0.09842
  69   38632.0    258.9   0.019259173   0.16412  -0.07304  -0.18193  -0.35452
  70   38685.9    258.5   0.029627050   0.25212  -0.01456   0.24132  -0.44009
  71   38714.5    258.3   0.057429642   0.48836  -0.02944   0.68919   0.11182
  72   39373.6    254.0   0.012364672   0.10338   0.05514   0.31331  -0.04671
  73   39578.2    252.7   0.001538728   0.01280   0.08323   0.02214  -0.07336
  74   39673.7    252.1   0.059795456   0.49618  -0.22147  -0.21304  -0.63383
  75   39937.1    250.4   0.008209013   0.06767  -0.22781   0.03876  -0.11946
  76   40235.5    248.5   0.064517027   0.52789  -0.03266   0.16916  -0.70584
  77   40283.5    248.2   0.012585115   0.10285   0.24055   0.20882   0.03716

FINAL SINGLE POINT ENERGY     -6842.235879112082

DIPOLE MOMENT
-------------
                                X             Y             Z
Electronic contribution:     20.47794     -28.15904       2.30115
Nuclear contribution   :    -23.60814      28.50874      -2.76625
                        -----------------------------------------
Total Dipole Moment    :     -3.13020       0.34970      -0.46511
                        -----------------------------------------
Magnitude (a.u.)       :      3.18383
Magnitude (Debye)      :      8.09265

Rotational constants in cm-1:     0.001367     0.000714     0.000554
Rotational constants in MHz :    40.973711    21.419709    16.609712

                             ****ORCA TERMINATED NORMALLY****
TOTAL RUN TIME: 0 days 0 hours 9 minutes 50 seconds 586 msec
