                         Program Version 4.2.0 -  RELEASE  -
|  1> # ORCA input file
|  2> # SCF done       -149.126949205330          0.000728383404
|  3> ! CAM-B3LYP def2-SVP def2/J RIJCOSX Grid4 TightSCF
|  4> %maxcore 5000
|  5> %tddft
|  6>     Mode sTDDFT
|  7>     Ethresh 5.0
|  8>     maxcore 5000
|  9> end
| 10>
| 11> %pal
| 12>   nprocs 6
| 13>   end
| 14> * xyz 0 1
| 15>    C       10.49797        -6.37986         8.74735
| 16>    C       10.72885        -6.38207         7.42681
| 17>    C       11.99451        -6.35182         6.75400
| 18>    C       11.91180        -6.36975         5.40390
| 19>    C       10.58541        -6.41370         4.89791
| 20>    S        9.43316        -6.42951         6.22032
| 21>    C       10.19448        -6.45118         3.57914
| 22>    C       11.00552        -6.44635         2.42170
| 23>    C       10.30609        -6.51322         1.25562
| 24>    C        8.89910        -6.55993         1.40715
| 25>    S        8.50377        -6.54056         3.11842
| 26>    C        8.00439        -6.67436         0.36955
| 27>    C        6.60770        -6.67773         0.36950
| 28>    S        5.80076        -7.23763        -1.10872
| 29>    C        5.62477        -6.32285         1.28761
| 30>    N        5.54671        -5.68944         2.50858
| 31>    C        4.14221        -5.69820         2.89151
| 32>    O        3.39976        -6.13918         1.76636
| 33>    C        4.31480        -6.51355         0.82669
| 34>    C        4.18416        -7.01850        -0.45308
| 35>    C        3.03754        -7.35709        -1.18347
| 36>    C        3.00496        -7.92196        -2.45675
| 37>    C        1.66942        -8.13573        -2.82462
| 38>    C        0.87310        -7.65393        -1.69846
| 39>    C        1.67048        -7.19316        -0.71578
| 40>    F       -0.46977        -7.68359        -1.67461
| 41>    C        1.18485        -8.72435        -3.99843
| 42>    C       -0.13009        -8.98192        -4.37915
| 43>    C       -0.13864        -9.64844        -5.62638
| 44>    C        1.24997        -9.79453        -6.04685
| 45>    C        2.01263        -9.24580        -5.08767
| 46>    F        3.35079        -9.17727        -5.10773
| 47>    C       -1.28051       -10.07779        -6.27494
| 48>    C       -1.39271       -10.80855        -7.45882
| 49>    C       -2.59422       -11.21471        -8.05401
| 50>    C       -2.43856       -11.96037        -9.20200
| 51>    C       -1.10359       -12.16911        -9.55033
| 52>    S       -0.04679       -11.39412        -8.40545
| 53>    C       -0.57491       -12.89480       -10.62882
| 54>    C       -1.24776       -13.59868       -11.62629
| 55>    C       -0.40606       -14.22326       -12.52451
| 56>    C        0.95064       -14.02909       -12.26231
| 57>    S        1.14982       -13.02612       -10.84516
| 58>    C        2.04367       -14.53506       -12.97532
| 59>    C        3.35103       -14.29105       -12.64222
| 60>    C        4.46910       -14.78537       -13.31512
| 61>    C        5.80865       -14.54203       -12.98549
| 62>    C        6.71306       -15.15765       -13.81309
| 63>    C        6.11714       -15.91593       -14.83446
| 64>    S        4.37278       -15.82476       -14.71729
| 65>    C        6.75019       -16.65517       -15.82267
| 66>    C        8.14458       -16.80636       -16.01494
| 67>    C        8.48221       -17.59501       -17.06611
| 68>    C        7.36519       -18.12660       -17.78451
| 69>    S        5.86686       -17.55577       -17.03245
| 70>    C        7.38096       -18.93199       -18.85915
| 71>    H       11.31525        -6.35200         9.44601
| 72>    H        9.50148        -6.40620         9.14807
| 73>    H       12.91212        -6.31895         7.31400
| 74>    H       12.76128        -6.35361         4.74418
| 75>    H       12.07757        -6.39455         2.48146
| 76>    H       10.75674        -6.52315         0.27876
| 77>    H        8.45147        -6.82460        -0.60588
| 78>    H        6.24010        -5.84198         3.22361
| 79>    H        3.81200        -4.68301         3.15670
| 80>    H        3.94114        -6.37139         3.74340
| 81>    H        3.87139        -8.15802        -3.04280
| 82>    H        1.39115        -6.77933         0.23242
| 83>    H       -1.00649        -8.73415        -3.81270
| 84>    H        1.59782       -10.24464        -6.95447
| 85>    H       -2.22371        -9.83535        -5.79864
| 86>    H       -3.54953       -10.95759        -7.63089
| 87>    H       -3.25560       -12.35278        -9.78027
| 88>    H       -2.32084       -13.64416       -11.67626
| 89>    H       -0.74564       -14.81326       -13.35755
| 90>    H        1.82476       -15.15646       -13.83433
| 91>    H        3.55386       -13.66434       -11.78204
| 92>    H        6.07967       -13.92106       -12.14980
| 93>    H        7.77939       -15.07733       -13.70460
| 94>    H        8.85638       -16.32650       -15.36707
| 95>    H        9.48957       -17.82428       -17.36433
| 96>    H        8.31325       -19.25677       -19.28600
| 97>    H        6.47441       -19.27417       -19.32309
| 98> *
| 99>
|100>                          ****END OF INPUT****

CARTESIAN COORDINATES (ANGSTROEM)
---------------------------------
  C     10.497970   -6.379860    8.747350
  C     10.728850   -6.382070    7.426810
  C     11.994510   -6.351820    6.754000
  C     11.911800   -6.369750    5.403900
  C     10.585410   -6.413700    4.897910
  S      9.433160   -6.429510    6.220320
  C     10.194480   -6.451180    3.579140
  C     11.005520   -6.446350    2.421700
  C     10.306090   -6.513220    1.255620
  C      8.899100   -6.559930    1.407150
  S      8.503770   -6.540560    3.118420
  C      8.004390   -6.674360    0.369550
  C      6.607700   -6.677730    0.369500
  S      5.800760   -7.237630   -1.108720
  C      5.624770   -6.322850    1.287610
  N      5.546710   -5.689440    2.508580
  C      4.142210   -5.698200    2.891510
  O      3.399760   -6.139180    1.766360
  C      4.314800   -6.513550    0.826690
  C      4.184160   -7.018500   -0.453080
  C      3.037540   -7.357090   -1.183470
  C      3.004960   -7.921960   -2.456750
  C      1.669420   -8.135730   -2.824620
  C      0.873100   -7.653930   -1.698460
  C      1.670480   -7.193160   -0.715780
  F     -0.469770   -7.683590   -1.674610
  C      1.184850   -8.724350   -3.998430
  C     -0.130090   -8.981920   -4.379150
  C     -0.138640   -9.648440   -5.626380
  C      1.249970   -9.794530   -6.046850
  C      2.012630   -9.245800   -5.087670
  F      3.350790   -9.177270   -5.107730
  C     -1.280510  -10.077790   -6.274940
  C     -1.392710  -10.808550   -7.458820
  C     -2.594220  -11.214710   -8.054010
  C     -2.438560  -11.960370   -9.202000
  C     -1.103590  -12.169110   -9.550330
  S     -0.046790  -11.394120   -8.405450
  C     -0.574910  -12.894800  -10.628820
  C     -1.247760  -13.598680  -11.626290
  C     -0.406060  -14.223260  -12.524510
  C      0.950640  -14.029090  -12.262310
  S      1.149820  -13.026120  -10.845160
  C      2.043670  -14.535060  -12.975320
  C      3.351030  -14.291050  -12.642220
  C      4.469100  -14.785370  -13.315120
  C      5.808650  -14.542030  -12.985490
  C      6.713060  -15.157650  -13.813090
  C      6.117140  -15.915930  -14.834460
  S      4.372780  -15.824760  -14.717290
  C      6.750190  -16.655170  -15.822670
  C      8.144580  -16.806360  -16.014940
  C      8.482210  -17.595010  -17.066110
  C      7.365190  -18.126600  -17.784510
  S      5.866860  -17.555770  -17.032450
  C      7.380960  -18.931990  -18.859150
  H     11.315250   -6.352000    9.446010
  H      9.501480   -6.406200    9.148070
  H     12.912120   -6.318950    7.314000
  H     12.761280   -6.353610    4.744180
  H     12.077570   -6.394550    2.481460
  H     10.756740   -6.523150    0.278760
  H      8.451470   -6.824600   -0.605880
  H      6.240100   -5.841980    3.223610
  H      3.812000   -4.683010    3.156700
  H      3.941140   -6.371390    3.743400
  H      3.871390   -8.158020   -3.042800
  H      1.391150   -6.779330    0.232420
  H     -1.006490   -8.734150   -3.812700
  H      1.597820  -10.244640   -6.954470
  H     -2.223710   -9.835350   -5.798640
  H     -3.549530  -10.957590   -7.630890
  H     -3.255600  -12.352780   -9.780270
  H     -2.320840  -13.644160  -11.676260
  H     -0.745640  -14.813260  -13.357550
  H      1.824760  -15.156460  -13.834330
  H      3.553860  -13.664340  -11.782040
  H      6.079670  -13.921060  -12.149800
  H      7.779390  -15.077330  -13.704600
  H      8.856380  -16.326500  -15.367070
  H      9.489570  -17.824280  -17.364330
  H      8.313250  -19.256770  -19.286000
  H      6.474410  -19.274170  -19.323090

 Total Charge           Charge          ....    0
 Multiplicity           Mult            ....    1
 Number of Electrons    NEL             ....  442
 Basis Dimension        Dim             ....  947

ORBITAL ENERGIES
----------------

  NO   OCC          E(Eh)            E(eV)
   0   2.0000     -88.948470     -2420.4109
   1   2.0000     -88.947130     -2420.3745
   2   2.0000     -88.945520     -2420.3306
   3   2.0000     -88.944092     -2420.2918
   4   2.0000     -88.943488     -2420.2753
   5   2.0000     -88.933651     -2420.0077
   6   2.0000     -88.933272     -2419.9974
   7   2.0000     -24.769275      -674.0062
   8   2.0000     -24.762826      -673.8308
   9   2.0000     -19.256051      -523.9838
  10   2.0000     -14.427044      -392.5798
  11   2.0000     -10.362176      -281.9692
  12   2.0000     -10.334313      -281.2110
  13   2.0000     -10.326666      -281.0029
  14   2.0000     -10.325890      -280.9817
  15   2.0000     -10.315201      -280.6909
  16   2.0000     -10.311555      -280.5917
  17   2.0000     -10.311447      -280.5887
  18   2.0000     -10.310866      -280.5729
  19   2.0000     -10.310134      -280.5530
  20   2.0000     -10.308851      -280.5181
  21   2.0000     -10.306311      -280.4490
  22   2.0000     -10.305835      -280.4360
  23   2.0000     -10.304210      -280.3918
  24   2.0000     -10.303468      -280.3716
  25   2.0000     -10.302199      -280.3371
  26   2.0000     -10.301015      -280.3049
  27   2.0000     -10.300519      -280.2914
  28   2.0000     -10.295175      -280.1460
  29   2.0000     -10.293663      -280.1048
  30   2.0000     -10.291870      -280.0560
  31   2.0000     -10.287764      -279.9443
  32   2.0000     -10.287738      -279.9436
  33   2.0000     -10.283876      -279.8385
  34   2.0000     -10.283768      -279.8356
  35   2.0000     -10.283741      -279.8348
  36   2.0000     -10.283302      -279.8229
  37   2.0000     -10.282899      -279.8119
  38   2.0000     -10.282201      -279.7929
  39   2.0000     -10.282151      -279.7915
  40   2.0000     -10.280212      -279.7388
  41   2.0000     -10.279677      -279.7242
  42   2.0000     -10.278924      -279.7037
  43   2.0000     -10.278031      -279.6794
  44   2.0000     -10.277502      -279.6650
  45   2.0000     -10.275150      -279.6010
  46   2.0000     -10.274425      -279.5813
  47   2.0000     -10.273404      -279.5535
  48   2.0000     -10.270935      -279.4863
  49   2.0000     -10.269645      -279.4513
  50   2.0000     -10.268324      -279.4153
  51   2.0000     -10.263098      -279.2731
  52   2.0000     -10.248115      -278.8654
  53   2.0000     -10.243861      -278.7496
  54   2.0000     -10.238669      -278.6083
  55   2.0000     -10.233017      -278.4545
  56   2.0000      -8.044684      -218.9070
  57   2.0000      -8.043414      -218.8724
  58   2.0000      -8.041477      -218.8197
  59   2.0000      -8.040749      -218.7999
  60   2.0000      -8.039731      -218.7722
  61   2.0000      -8.029895      -218.5046
  62   2.0000      -8.028786      -218.4744
  63   2.0000      -6.014288      -163.6571
  64   2.0000      -6.012939      -163.6204
  65   2.0000      -6.011051      -163.5690
  66   2.0000      -6.010472      -163.5533
  67   2.0000      -6.010338      -163.5496
  68   2.0000      -6.009473      -163.5261
  69   2.0000      -6.008923      -163.5111
  70   2.0000      -6.006931      -163.4569
  71   2.0000      -6.006596      -163.4478
  72   2.0000      -6.005826      -163.4268
  73   2.0000      -6.005633      -163.4216
  74   2.0000      -6.004759      -163.3978
  75   2.0000      -6.002840      -163.3456
  76   2.0000      -6.001454      -163.3079
  77   2.0000      -6.000526      -163.2826
  78   2.0000      -5.999721      -163.2607
  79   2.0000      -5.998674      -163.2322
  80   2.0000      -5.995855      -163.1555
  81   2.0000      -5.994723      -163.1247
  82   2.0000      -5.990440      -163.0082
  83   2.0000      -5.989521      -162.9832
  84   2.0000      -1.281099       -34.8605
  85   2.0000      -1.273323       -34.6489
  86   2.0000      -1.179366       -32.0922
  87   2.0000      -1.016166       -27.6513
  88   2.0000      -0.996588       -27.1185
  89   2.0000      -0.994547       -27.0630
  90   2.0000      -0.987106       -26.8605
  91   2.0000      -0.975006       -26.5313
  92   2.0000      -0.971875       -26.4461
  93   2.0000      -0.969581       -26.3836
  94   2.0000      -0.963257       -26.2115
  95   2.0000      -0.956952       -26.0400
  96   2.0000      -0.939678       -25.5699
  97   2.0000      -0.905615       -24.6430
  98   2.0000      -0.886703       -24.1284
  99   2.0000      -0.881220       -23.9792
 100   2.0000      -0.869337       -23.6559
 101   2.0000      -0.858778       -23.3685
 102   2.0000      -0.847900       -23.0725
 103   2.0000      -0.846364       -23.0307
 104   2.0000      -0.839169       -22.8350
 105   2.0000      -0.837929       -22.8012
 106   2.0000      -0.833484       -22.6803
 107   2.0000      -0.827864       -22.5273
 108   2.0000      -0.821421       -22.3520
 109   2.0000      -0.819085       -22.2884
 110   2.0000      -0.815870       -22.2009
 111   2.0000      -0.808771       -22.0078
 112   2.0000      -0.802278       -21.8311
 113   2.0000      -0.781515       -21.2661
 114   2.0000      -0.777637       -21.1606
 115   2.0000      -0.767100       -20.8739
 116   2.0000      -0.752443       -20.4750
 117   2.0000      -0.743543       -20.2328
 118   2.0000      -0.739162       -20.1136
 119   2.0000      -0.724277       -19.7086
 120   2.0000      -0.713166       -19.4062
 121   2.0000      -0.699761       -19.0415
 122   2.0000      -0.690108       -18.7788
 123   2.0000      -0.682423       -18.5697
 124   2.0000      -0.674674       -18.3588
 125   2.0000      -0.669732       -18.2243
 126   2.0000      -0.665355       -18.1052
 127   2.0000      -0.650507       -17.7012
 128   2.0000      -0.645498       -17.5649
 129   2.0000      -0.643578       -17.5126
 130   2.0000      -0.638596       -17.3771
 131   2.0000      -0.633514       -17.2388
 132   2.0000      -0.627069       -17.0634
 133   2.0000      -0.623985       -16.9795
 134   2.0000      -0.620397       -16.8819
 135   2.0000      -0.614999       -16.7350
 136   2.0000      -0.613180       -16.6855
 137   2.0000      -0.607642       -16.5348
 138   2.0000      -0.600539       -16.3415
 139   2.0000      -0.598059       -16.2740
 140   2.0000      -0.595275       -16.1983
 141   2.0000      -0.594438       -16.1755
 142   2.0000      -0.591296       -16.0900
 143   2.0000      -0.587483       -15.9862
 144   2.0000      -0.587176       -15.9779
 145   2.0000      -0.565254       -15.3813
 146   2.0000      -0.559206       -15.2168
 147   2.0000      -0.550801       -14.9880
 148   2.0000      -0.547693       -14.9035
 149   2.0000      -0.545171       -14.8349
 150   2.0000      -0.537472       -14.6254
 151   2.0000      -0.537038       -14.6136
 152   2.0000      -0.528377       -14.3779
 153   2.0000      -0.528016       -14.3680
 154   2.0000      -0.523327       -14.2405
 155   2.0000      -0.521760       -14.1978
 156   2.0000      -0.519896       -14.1471
 157   2.0000      -0.516085       -14.0434
 158   2.0000      -0.511023       -13.9056
 159   2.0000      -0.507237       -13.8026
 160   2.0000      -0.505478       -13.7548
 161   2.0000      -0.499077       -13.5806
 162   2.0000      -0.498828       -13.5738
 163   2.0000      -0.497612       -13.5407
 164   2.0000      -0.494933       -13.4678
 165   2.0000      -0.493771       -13.4362
 166   2.0000      -0.491690       -13.3796
 167   2.0000      -0.489719       -13.3259
 168   2.0000      -0.486562       -13.2400
 169   2.0000      -0.485241       -13.2041
 170   2.0000      -0.482797       -13.1376
 171   2.0000      -0.481146       -13.0926
 172   2.0000      -0.476561       -12.9679
 173   2.0000      -0.470353       -12.7990
 174   2.0000      -0.467601       -12.7241
 175   2.0000      -0.466538       -12.6952
 176   2.0000      -0.464009       -12.6263
 177   2.0000      -0.461283       -12.5522
 178   2.0000      -0.458415       -12.4741
 179   2.0000      -0.457804       -12.4575
 180   2.0000      -0.455115       -12.3843
 181   2.0000      -0.449286       -12.2257
 182   2.0000      -0.445249       -12.1159
 183   2.0000      -0.443238       -12.0611
 184   2.0000      -0.440902       -11.9975
 185   2.0000      -0.435198       -11.8423
 186   2.0000      -0.434438       -11.8216
 187   2.0000      -0.430462       -11.7135
 188   2.0000      -0.427394       -11.6300
 189   2.0000      -0.425617       -11.5816
 190   2.0000      -0.423167       -11.5150
 191   2.0000      -0.420969       -11.4552
 192   2.0000      -0.419439       -11.4135
 193   2.0000      -0.418439       -11.3863
 194   2.0000      -0.417327       -11.3561
 195   2.0000      -0.406455       -11.0602
 196   2.0000      -0.404927       -11.0186
 197   2.0000      -0.401713       -10.9312
 198   2.0000      -0.395319       -10.7572
 199   2.0000      -0.394407       -10.7324
 200   2.0000      -0.387705       -10.5500
 201   2.0000      -0.385868       -10.5000
 202   2.0000      -0.380645       -10.3579
 203   2.0000      -0.369526       -10.0553
 204   2.0000      -0.352264        -9.5856
 205   2.0000      -0.340361        -9.2617
 206   2.0000      -0.338798        -9.2192
 207   2.0000      -0.333059        -9.0630
 208   2.0000      -0.332556        -9.0493
 209   2.0000      -0.327350        -8.9076
 210   2.0000      -0.320764        -8.7284
 211   2.0000      -0.319607        -8.6969
 212   2.0000      -0.311868        -8.4864
 213   2.0000      -0.297187        -8.0869
 214   2.0000      -0.280778        -7.6403
 215   2.0000      -0.271085        -7.3766
 216   2.0000      -0.256214        -6.9719
 217   2.0000      -0.248729        -6.7682
 218   2.0000      -0.232232        -6.3194
 219   2.0000      -0.206004        -5.6056
 220   2.0000      -0.175097        -4.7646
 221   0.0000      -0.114217        -3.1080
 222   0.0000      -0.072707        -1.9785
 223   0.0000      -0.051539        -1.4024
 224   0.0000      -0.029647        -0.8067
 225   0.0000       0.005972         0.1625

MULLIKEN ATOMIC CHARGES
-----------------------
   0 C :   -0.034594
   1 C :   -0.061005
   2 C :    0.048339
   3 C :    0.030129
   4 C :   -0.069698
   5 S :    0.061963
   6 C :   -0.032340
   7 C :    0.018444
   8 C :    0.033744
   9 C :   -0.038929
  10 S :    0.030626
  11 C :    0.039775
  12 C :   -0.233985
  13 S :    0.101955
  14 C :    0.144005
  15 N :   -0.193262
  16 C :    0.343308
  17 O :   -0.307622
  18 C :    0.146999
  19 C :   -0.146902
  20 C :    0.107947
  21 C :   -0.137707
  22 C :    0.035554
  23 C :    0.252877
  24 C :   -0.105333
  25 F :   -0.187486
  26 C :    0.023529
  27 C :   -0.106658
  28 C :    0.102436
  29 C :   -0.092537
  30 C :    0.243028
  31 F :   -0.178414
  32 C :   -0.023331
  33 C :   -0.025461
  34 C :    0.023492
  35 C :    0.024406
  36 C :   -0.030490
  37 S :    0.073021
  38 C :   -0.034036
  39 C :    0.010040
  40 C :    0.026744
  41 C :   -0.033827
  42 S :    0.086119
  43 C :    0.006319
  44 C :   -0.012799
  45 C :   -0.024782
  46 C :    0.026119
  47 C :    0.018312
  48 C :   -0.044933
  49 S :    0.089100
  50 C :   -0.063833
  51 C :    0.026530
  52 C :    0.053455
  53 C :   -0.067275
  54 S :    0.089226
  55 C :   -0.023842
  56 H :    0.017808
  57 H :    0.018324
  58 H :   -0.014492
  59 H :   -0.013277
  60 H :   -0.014744
  61 H :   -0.012789
  62 H :   -0.014835
  63 H :    0.129812
  64 H :    0.029935
  65 H :    0.025512
  66 H :   -0.019116
  67 H :   -0.021608
  68 H :   -0.026655
  69 H :   -0.011878
  70 H :   -0.018705
  71 H :   -0.012658
  72 H :   -0.015602
  73 H :   -0.013695
  74 H :   -0.012593
  75 H :   -0.006393
  76 H :   -0.002928
  77 H :   -0.009566
  78 H :   -0.012744
  79 H :   -0.009986
  80 H :   -0.010098
  81 H :    0.022354
  82 H :    0.024155
Sum of atomic charges:   -0.0000000

LOEWDIN ATOMIC CHARGES
----------------------
   0 C :   -0.084323
   1 C :   -0.137978
   2 C :   -0.037508
   3 C :   -0.025843
   4 C :   -0.186166
   5 S :    0.338903
   6 C :   -0.174703
   7 C :   -0.046096
   8 C :   -0.027888
   9 C :   -0.162430
  10 S :    0.369596
  11 C :   -0.064068
  12 C :   -0.201845
  13 S :    0.398924
  14 C :   -0.022639
  15 N :   -0.051932
  16 C :    0.165909
  17 O :   -0.099072
  18 C :    0.014656
  19 C :   -0.178523
  20 C :   -0.022365
  21 C :   -0.083933
  22 C :   -0.016458
  23 C :    0.078958
  24 C :   -0.069545
  25 F :   -0.062620
  26 C :   -0.018360
  27 C :   -0.065721
  28 C :   -0.010000
  29 C :   -0.086863
  30 C :    0.091555
  31 F :   -0.054044
  32 C :   -0.039678
  33 C :   -0.146806
  34 C :   -0.039424
  35 C :   -0.037048
  36 C :   -0.185320
  37 S :    0.413470
  38 C :   -0.172242
  39 C :   -0.043406
  40 C :   -0.036651
  41 C :   -0.155005
  42 S :    0.395673
  43 C :   -0.047665
  44 C :   -0.065335
  45 C :   -0.143392
  46 C :   -0.038819
  47 C :   -0.033980
  48 C :   -0.181915
  49 S :    0.384065
  50 C :   -0.172849
  51 C :   -0.028001
  52 C :   -0.030333
  53 C :   -0.140684
  54 S :    0.362490
  55 C :   -0.068846
  56 H :    0.027509
  57 H :    0.024654
  58 H :    0.032183
  59 H :    0.031824
  60 H :    0.031052
  61 H :    0.033567
  62 H :    0.036449
  63 H :    0.047360
  64 H :    0.016511
  65 H :    0.010914
  66 H :    0.015148
  67 H :    0.027347
  68 H :    0.019690
  69 H :    0.013689
  70 H :    0.038025
  71 H :    0.033043
  72 H :    0.031354
  73 H :    0.031635
  74 H :    0.033416
  75 H :    0.029830
  76 H :    0.028454
  77 H :    0.034856
  78 H :    0.031559
  79 H :    0.033212
  80 H :    0.033930
  81 H :    0.029749
  82 H :    0.027165

  Mayer bond orders larger than 0.100000
B(  0-C ,  1-C ) :   1.8584 B(  0-C , 56-H ) :   0.9509 B(  0-C , 57-H ) :   0.9421
B(  1-C ,  2-C ) :   1.0840 B(  1-C ,  5-S ) :   1.0091 B(  2-C ,  3-C ) :   1.6521
B(  2-C , 58-H ) :   0.9934 B(  3-C ,  4-C ) :   1.1613 B(  3-C , 59-H ) :   0.9921
B(  4-C ,  5-S ) :   1.0348 B(  4-C ,  6-C ) :   1.5428 B(  6-C ,  7-C ) :   1.1823
B(  6-C , 10-S ) :   1.0418 B(  7-C ,  8-C ) :   1.5861 B(  7-C , 60-H ) :   0.9920
B(  8-C ,  9-C ) :   1.1571 B(  8-C , 61-H ) :   0.9989 B(  9-C , 10-S ) :   1.0103
B(  9-C , 11-C ) :   1.5917 B( 11-C , 12-C ) :   1.2116 B( 11-C , 62-H ) :   0.9334
B( 12-C , 13-S ) :   1.0394 B( 12-C , 14-C ) :   1.4237 B( 13-S , 19-C ) :   1.0678
B( 14-C , 15-N ) :   1.1542 B( 14-C , 18-C ) :   1.2523 B( 15-N , 16-C ) :   1.0028
B( 15-N , 63-H ) :   0.9030 B( 16-C , 17-O ) :   0.9764 B( 16-C , 64-H ) :   0.9568
B( 16-C , 65-H ) :   0.9557 B( 17-O , 18-C ) :   1.1088 B( 18-C , 19-C ) :   1.4784
B( 19-C , 20-C ) :   1.1891 B( 20-C , 21-C ) :   1.4178 B( 20-C , 24-C ) :   1.0630
B( 21-C , 22-C ) :   1.2295 B( 21-C , 66-H ) :   1.0122 B( 22-C , 23-C ) :   1.0475
B( 22-C , 26-C ) :   1.2898 B( 23-C , 24-C ) :   1.6091 B( 23-C , 25-F ) :   1.1125
B( 24-C , 67-H ) :   1.0219 B( 26-C , 27-C ) :   1.2718 B( 26-C , 30-C ) :   1.0287
B( 27-C , 28-C ) :   1.3138 B( 27-C , 68-H ) :   1.0237 B( 28-C , 29-C ) :   1.0194
B( 28-C , 32-C ) :   1.3024 B( 29-C , 30-C ) :   1.6774 B( 29-C , 69-H ) :   0.9937
B( 30-C , 31-F ) :   1.1243 B( 32-C , 33-C ) :   1.3808 B( 32-C , 70-H ) :   0.9717
B( 33-C , 34-C ) :   1.2456 B( 33-C , 37-S ) :   1.0632 B( 34-C , 35-C ) :   1.4670
B( 34-C , 71-H ) :   1.0008 B( 35-C , 36-C ) :   1.2955 B( 35-C , 72-H ) :   0.9952
B( 36-C , 37-S ) :   1.0736 B( 36-C , 38-C ) :   1.3403 B( 38-C , 39-C ) :   1.3022
B( 38-C , 42-S ) :   1.0789 B( 39-C , 40-C ) :   1.4571 B( 39-C , 73-H ) :   0.9961
B( 40-C , 41-C ) :   1.2578 B( 40-C , 74-H ) :   1.0004 B( 41-C , 42-S ) :   1.0599
B( 41-C , 43-C ) :   1.4130 B( 43-C , 44-C ) :   1.3049 B( 43-C , 75-H ) :   0.9751
B( 44-C , 45-C ) :   1.4366 B( 44-C , 76-H ) :   0.9695 B( 45-C , 46-C ) :   1.2221
B( 45-C , 49-S ) :   1.0595 B( 46-C , 47-C ) :   1.5135 B( 46-C , 77-H ) :   1.0008
B( 47-C , 48-C ) :   1.2330 B( 47-C , 78-H ) :   0.9944 B( 48-C , 49-S ) :   1.0498
B( 48-C , 50-C ) :   1.4721 B( 50-C , 51-C ) :   1.1847 B( 50-C , 54-S ) :   1.0603
B( 51-C , 52-C ) :   1.6293 B( 51-C , 79-H ) :   0.9926 B( 52-C , 53-C ) :   1.0919
B( 52-C , 80-H ) :   0.9940 B( 53-C , 54-S ) :   1.0099 B( 53-C , 55-C ) :   1.8417
B( 55-C , 81-H ) :   0.9517 B( 55-C , 82-H ) :   0.9429

-----------------------------------------------------------------------------
         ABSORPTION SPECTRUM VIA TRANSITION ELECTRIC DIPOLE MOMENTS
-----------------------------------------------------------------------------
State   Energy  Wavelength   fosc         T2         TX        TY        TZ
        (cm-1)    (nm)                  (au**2)     (au)      (au)      (au)
-----------------------------------------------------------------------------
   0    2014.3   4964.5   0.201104241  32.86808  -0.09365   2.81693   4.99242
   1    9232.0   1083.2   0.063664786   2.27028  -1.14797  -0.19150  -0.95696
   2   11709.8    854.0   0.837961704  23.55865  -4.73537   0.54627  -0.91458
   3   14212.2    703.6   0.269447371   6.24147   2.33613  -0.64714  -0.60432
   4   15260.5    655.3   0.131276577   2.83200  -1.60572   0.19872  -0.46280
   5   16977.8    589.0   0.625642017  12.13162   1.78602   0.51760   2.94514
   6   18838.9    530.8   0.174563531   3.05053   1.05262   0.44085   1.32219
   7   19195.1    521.0   0.034162714   0.58592  -0.61592   0.27798  -0.35956
   8   19573.4    510.9   0.051833511   0.87181  -0.46079   0.19542  -0.78822
   9   21411.1    467.0   0.177507614   2.72932   1.63828  -0.06619  -0.20241
  10   22363.5    447.2   0.101331804   1.49170   0.26816   0.00395   1.19154
  11   23567.7    424.3   0.036131044   0.50471   0.34292   0.47919   0.39685
  12   25044.6    399.3   0.082943371   1.09029   0.69982   0.67785   0.37559
  13   25995.1    384.7   0.026142739   0.33108   0.14192   0.28114   0.48156
  14   26324.7    379.9   0.005065098   0.06334   0.08935  -0.21114  -0.10382
  15   26993.1    370.5   0.111488821   1.35973  -0.11782  -0.33636  -1.11028
  16   28447.0    351.5   0.019112541   0.22119   0.20342   0.33892   0.25483
  17   28948.5    345.4   0.023122131   0.26295   0.04393   0.02540   0.51027
  18   29138.2    343.2   0.052316369   0.59109   0.52284   0.04298  -0.56203
  19   29462.6    339.4   0.065670906   0.73380  -0.46072  -0.29223  -0.66041
  20   29773.0    335.9   0.131892188   1.45839  -1.17339  -0.27740   0.06778
  21   30255.8    330.5   0.228872426   2.49035  -0.84910  -0.69429  -1.13461
  22   30832.3    324.3   0.135407239   1.44581   0.28626  -0.25430  -1.13982
  23   30964.0    323.0   0.006267896   0.06664  -0.00971  -0.07964  -0.24537
  24   31248.8    320.0   0.016451721   0.17332   0.01103  -0.08845  -0.40666
  25   32144.4    311.1   0.028196164   0.28878  -0.51643  -0.12590  -0.07890
  26   32201.9    310.5   0.000594710   0.00608  -0.00635  -0.01909   0.07533
  27   32437.6    308.3   0.012873083   0.13065  -0.32358  -0.01780  -0.16008
  28   32802.4    304.9   0.002759789   0.02770   0.08690   0.07327   0.12156
  29   33050.4    302.6   0.000755708   0.00753   0.01054  -0.04680  -0.07229
  30   33255.8    300.7   0.004930274   0.04881   0.19977   0.06594   0.06745
  31   33414.4    299.3   0.041652048   0.41037  -0.56115  -0.22115  -0.21581
  32   33678.5    296.9   0.030963515   0.30267   0.52673   0.15488  -0.03520
  33   33863.3    295.3   0.066061627   0.64224   0.27645   0.32966   0.67612
  34   34676.1    288.4   0.011160442   0.10596   0.32395   0.01877   0.02568
  35   35245.8    283.7   0.087182886   0.81433  -0.19531   0.48309   0.73676
  36   36280.4    275.6   0.043647873   0.39607   0.55968   0.05602  -0.28229
  37   36706.4    272.4   0.065957635   0.59156  -0.69732  -0.01301   0.32425
  38   37035.2    270.0   0.008581204   0.07628   0.15211  -0.17900  -0.14527
  39   37694.3    265.3   0.014713692   0.12851   0.26912  -0.16015  -0.17445
  40   37971.8    263.4   0.010001252   0.08671  -0.21065   0.20510  -0.01648
  41   38229.1    261.6   0.034688296   0.29872  -0.18802  -0.03659   0.51189
  42   38408.1    260.4   0.068650171   0.58843  -0.40679  -0.22999  -0.60832
  43   38756.4    258.0   0.105382538   0.89516  -0.04052  -0.26503  -0.90735
  44   38965.2    256.6   0.012603372   0.10648   0.17455  -0.07027  -0.26661
  45   39379.5    253.9   0.004105208   0.03432   0.16087   0.08004   0.04508
  46   39920.9    250.5   0.003042950   0.02509   0.07499   0.01763   0.13842

FINAL SINGLE POINT ENERGY     -4844.367446596242

DIPOLE MOMENT
-------------
                                X             Y             Z
Electronic contribution:    -19.72406       9.40141       3.04886
Nuclear contribution   :     21.43368     -10.61871      -4.35769
                        -----------------------------------------
Total Dipole Moment    :      1.70962      -1.21730      -1.30882
                        -----------------------------------------
Magnitude (a.u.)       :      2.47338
Magnitude (Debye)      :      6.28684

Rotational constants in cm-1:     0.001380     0.000254     0.000216
Rotational constants in MHz :    41.360112     7.609791     6.484225

                             ****ORCA TERMINATED NORMALLY****
TOTAL RUN TIME: 0 days 0 hours 7 minutes 35 seconds 40 msec
