                         Program Version 4.2.0 -  RELEASE  -
|  1> # ORCA input file
|  2> # SCF done       -175.596674434874          0.000552044522
|  3> ! CAM-B3LYP def2-SVP def2/J RIJCOSX Grid4 TightSCF
|  4> %maxcore 5000
|  5> %tddft
|  6>     Mode sTDDFT
|  7>     Ethresh 5.0
|  8>     maxcore 5000
|  9> end
| 10>
| 11> %pal
| 12>   nprocs 6
| 13>   end
| 14> * xyz 0 1
| 15>    C       -2.49012        -8.93173         5.84339
| 16>    C       -1.52341        -8.01814         5.99640
| 17>    C       -1.36146        -7.08160         7.07306
| 18>    C       -0.28126        -6.28046         6.96056
| 19>    C        0.50232        -6.50977         5.79222
| 20>    S       -0.20439        -7.79870         4.83448
| 21>    C        1.65043        -5.86170         5.41797
| 22>    C        2.32060        -4.80973         6.09987
| 23>    C        3.44492        -4.37897         5.48246
| 24>    C        3.75036        -5.05355         4.26041
| 25>    S        2.51656        -6.27345         3.94786
| 26>    C        4.86032        -4.85578         3.50439
| 27>    C        5.19725        -5.48804         2.26357
| 28>    C        4.37146        -5.78665         1.19794
| 29>    C        2.94349        -5.47976         0.93394
| 30>    N        5.14345        -6.36839         0.23349
| 31>    C        6.43500        -6.47944         0.62481
| 32>    C        7.45874        -7.05647        -0.28333
| 33>    C        6.52964        -5.92907         1.90150
| 34>    C        7.64986        -5.84480         2.76778
| 35>    C        8.84466        -6.48196         2.63080
| 36>    C        9.90746        -6.35930         3.54731
| 37>    S       11.27063        -7.44482         3.48831
| 38>    C       12.03115        -6.80522         4.94054
| 39>    C       11.27166        -5.71539         5.39459
| 40>    C       10.10444        -5.48375         4.61901
| 41>    N        9.51502        -4.38103         5.14253
| 42>    N       10.23097        -3.88622         6.16142
| 43>    C       11.27318        -4.65871         6.34036
| 44>    C       13.22110        -7.38588         5.37216
| 45>    C       13.85213        -7.28466         6.59260
| 46>    C       13.34069        -6.92457         7.84891
| 47>    C       14.26218        -6.65782         8.91404
| 48>    C       13.82756        -6.20359        10.20735
| 49>    N       14.73355        -5.89378        11.15035
| 50>    C       16.00836        -6.03502        10.87881
| 51>    C       16.44061        -6.51037         9.60263
| 52>    N       15.56552        -6.80095         8.66267
| 53>    C       17.81915        -6.68417         9.33290
| 54>    N       18.94149        -6.81273         9.13987
| 55>    C       16.96947        -5.71440        11.87147
| 56>    N       17.77986        -5.45877        12.63924
| 57>    C       12.45988        -6.00140        10.50316
| 58>    C       11.54407        -6.45877         9.52640
| 59>    C       11.97098        -6.91277         8.22614
| 60>    N       10.94759        -7.35922         7.50258
| 61>    S        9.59747        -7.23475         8.36723
| 62>    N       10.23464        -6.61008         9.70170
| 63>    C       12.04777        -5.42522        11.72994
| 64>    C       10.93207        -4.64264        11.85840
| 65>    C       10.30785        -4.20406        13.08347
| 66>    C       10.52181        -4.73291        14.33165
| 67>    C        9.85725        -4.30018        15.49571
| 68>    N        9.34554        -3.98196        16.47342
| 69>    C       11.39612        -5.80678        14.59953
| 70>    N       12.06121        -6.69717        14.88755
| 71>    C        9.32439        -3.18029        12.74427
| 72>    C        9.31130        -3.01592        11.33822
| 73>    C       10.31633        -3.91045        10.72716
| 74>    O       10.63707        -3.92891         9.55708
| 75>    C        8.48382        -2.12316        10.70353
| 76>    C        7.61911        -1.35991        11.49564
| 77>    C        7.64120        -1.52800        12.89965
| 78>    C        8.48407        -2.42745        13.54222
| 79>    S        6.49876        -0.48012        13.68686
| 80>    C        6.01161         0.15653        12.13859
| 81>    C        6.66945        -0.38337        11.08610
| 82>   Br        4.67660         1.47263        12.05499
| 83>    H       -3.27151        -9.03137         6.57588
| 84>    H       -2.51864        -9.58940         4.99410
| 85>    H       -2.06651        -7.05494         7.88487
| 86>    H       -0.00885        -5.52546         7.67657
| 87>    H        1.94771        -4.41140         7.02637
| 88>    H        4.08037        -3.59372         5.85346
| 89>    H        5.59365        -4.16825         3.90872
| 90>    H        2.62537        -4.63101         1.53279
| 91>    H        2.30375        -6.32681         1.18473
| 92>    H        2.79949        -5.24096        -0.11897
| 93>    H        4.79184        -6.66859        -0.66251
| 94>    H        7.07263        -7.10414        -1.30004
| 95>    H        7.72986        -8.06768         0.02315
| 96>    H        8.35986        -6.44620        -0.28191
| 97>    H        7.49641        -5.24985         3.65740
| 98>    H        9.00478        -7.17216         1.81865
| 99>    H        8.70491        -3.87943         4.81951
|100>    H       11.97439        -4.43444         7.11685
|101>    H       13.73331        -7.97901         4.62243
|102>    H       14.89871        -7.56397         6.61597
|103>    H       12.70487        -5.58315        12.57560
|104>    H        8.50365        -2.01873         9.62990
|105>    H        8.47081        -2.51332        14.61601
|106>    H        6.49636        -0.10448        10.06269
|107> *
|108>
|109>                          ****END OF INPUT****

CARTESIAN COORDINATES (ANGSTROEM)
---------------------------------
  C     -2.490120   -8.931730    5.843390
  C     -1.523410   -8.018140    5.996400
  C     -1.361460   -7.081600    7.073060
  C     -0.281260   -6.280460    6.960560
  C      0.502320   -6.509770    5.792220
  S     -0.204390   -7.798700    4.834480
  C      1.650430   -5.861700    5.417970
  C      2.320600   -4.809730    6.099870
  C      3.444920   -4.378970    5.482460
  C      3.750360   -5.053550    4.260410
  S      2.516560   -6.273450    3.947860
  C      4.860320   -4.855780    3.504390
  C      5.197250   -5.488040    2.263570
  C      4.371460   -5.786650    1.197940
  C      2.943490   -5.479760    0.933940
  N      5.143450   -6.368390    0.233490
  C      6.435000   -6.479440    0.624810
  C      7.458740   -7.056470   -0.283330
  C      6.529640   -5.929070    1.901500
  C      7.649860   -5.844800    2.767780
  C      8.844660   -6.481960    2.630800
  C      9.907460   -6.359300    3.547310
  S     11.270630   -7.444820    3.488310
  C     12.031150   -6.805220    4.940540
  C     11.271660   -5.715390    5.394590
  C     10.104440   -5.483750    4.619010
  N      9.515020   -4.381030    5.142530
  N     10.230970   -3.886220    6.161420
  C     11.273180   -4.658710    6.340360
  C     13.221100   -7.385880    5.372160
  C     13.852130   -7.284660    6.592600
  C     13.340690   -6.924570    7.848910
  C     14.262180   -6.657820    8.914040
  C     13.827560   -6.203590   10.207350
  N     14.733550   -5.893780   11.150350
  C     16.008360   -6.035020   10.878810
  C     16.440610   -6.510370    9.602630
  N     15.565520   -6.800950    8.662670
  C     17.819150   -6.684170    9.332900
  N     18.941490   -6.812730    9.139870
  C     16.969470   -5.714400   11.871470
  N     17.779860   -5.458770   12.639240
  C     12.459880   -6.001400   10.503160
  C     11.544070   -6.458770    9.526400
  C     11.970980   -6.912770    8.226140
  N     10.947590   -7.359220    7.502580
  S      9.597470   -7.234750    8.367230
  N     10.234640   -6.610080    9.701700
  C     12.047770   -5.425220   11.729940
  C     10.932070   -4.642640   11.858400
  C     10.307850   -4.204060   13.083470
  C     10.521810   -4.732910   14.331650
  C      9.857250   -4.300180   15.495710
  N      9.345540   -3.981960   16.473420
  C     11.396120   -5.806780   14.599530
  N     12.061210   -6.697170   14.887550
  C      9.324390   -3.180290   12.744270
  C      9.311300   -3.015920   11.338220
  C     10.316330   -3.910450   10.727160
  O     10.637070   -3.928910    9.557080
  C      8.483820   -2.123160   10.703530
  C      7.619110   -1.359910   11.495640
  C      7.641200   -1.528000   12.899650
  C      8.484070   -2.427450   13.542220
  S      6.498760   -0.480120   13.686860
  C      6.011610    0.156530   12.138590
  C      6.669450   -0.383370   11.086100
  Br     4.676600    1.472630   12.054990
  H     -3.271510   -9.031370    6.575880
  H     -2.518640   -9.589400    4.994100
  H     -2.066510   -7.054940    7.884870
  H     -0.008850   -5.525460    7.676570
  H      1.947710   -4.411400    7.026370
  H      4.080370   -3.593720    5.853460
  H      5.593650   -4.168250    3.908720
  H      2.625370   -4.631010    1.532790
  H      2.303750   -6.326810    1.184730
  H      2.799490   -5.240960   -0.118970
  H      4.791840   -6.668590   -0.662510
  H      7.072630   -7.104140   -1.300040
  H      7.729860   -8.067680    0.023150
  H      8.359860   -6.446200   -0.281910
  H      7.496410   -5.249850    3.657400
  H      9.004780   -7.172160    1.818650
  H      8.704910   -3.879430    4.819510
  H     11.974390   -4.434440    7.116850
  H     13.733310   -7.979010    4.622430
  H     14.898710   -7.563970    6.615970
  H     12.704870   -5.583150   12.575600
  H      8.503650   -2.018730    9.629900
  H      8.470810   -2.513320   14.616010
  H      6.496360   -0.104480   10.062690

 Total Charge           Charge          ....    0
 Multiplicity           Mult            ....    1
 Number of Electrons    NEL             ....  524
 Basis Dimension        Dim             .... 1110

ORBITAL ENERGIES
----------------

  NO   OCC          E(Eh)            E(eV)
   0   2.0000    -482.882866    -13139.9108
   1   2.0000     -89.030133     -2422.6331
   2   2.0000     -88.977718     -2421.2068
   3   2.0000     -88.970159     -2421.0011
   4   2.0000     -88.946409     -2420.3548
   5   2.0000     -88.941757     -2420.2283
   6   2.0000     -62.560552     -1702.3592
   7   2.0000     -56.394489     -1534.5721
   8   2.0000     -56.391800     -1534.4989
   9   2.0000     -56.391762     -1534.4979
  10   2.0000     -19.204351      -522.5770
  11   2.0000     -14.500462      -394.5776
  12   2.0000     -14.479422      -394.0051
  13   2.0000     -14.453407      -393.2972
  14   2.0000     -14.449850      -393.2004
  15   2.0000     -14.448604      -393.1665
  16   2.0000     -14.442593      -393.0029
  17   2.0000     -14.434880      -392.7930
  18   2.0000     -14.419797      -392.3826
  19   2.0000     -14.416476      -392.2922
  20   2.0000     -14.404061      -391.9544
  21   2.0000     -14.400435      -391.8558
  22   2.0000     -10.373124      -282.2671
  23   2.0000     -10.365886      -282.0701
  24   2.0000     -10.354905      -281.7713
  25   2.0000     -10.354140      -281.7505
  26   2.0000     -10.342331      -281.4291
  27   2.0000     -10.339477      -281.3515
  28   2.0000     -10.337958      -281.3101
  29   2.0000     -10.329983      -281.0931
  30   2.0000     -10.329419      -281.0778
  31   2.0000     -10.329046      -281.0676
  32   2.0000     -10.328979      -281.0658
  33   2.0000     -10.327402      -281.0229
  34   2.0000     -10.323914      -280.9280
  35   2.0000     -10.320025      -280.8222
  36   2.0000     -10.318748      -280.7874
  37   2.0000     -10.318618      -280.7839
  38   2.0000     -10.313312      -280.6395
  39   2.0000     -10.313205      -280.6366
  40   2.0000     -10.312755      -280.6243
  41   2.0000     -10.312250      -280.6106
  42   2.0000     -10.312080      -280.6060
  43   2.0000     -10.311113      -280.5796
  44   2.0000     -10.310104      -280.5522
  45   2.0000     -10.308878      -280.5188
  46   2.0000     -10.307499      -280.4813
  47   2.0000     -10.307210      -280.4734
  48   2.0000     -10.303286      -280.3667
  49   2.0000     -10.303003      -280.3590
  50   2.0000     -10.302047      -280.3329
  51   2.0000     -10.300631      -280.2944
  52   2.0000     -10.298845      -280.2458
  53   2.0000     -10.298536      -280.2374
  54   2.0000     -10.298036      -280.2238
  55   2.0000     -10.297115      -280.1987
  56   2.0000     -10.294335      -280.1231
  57   2.0000     -10.293161      -280.0911
  58   2.0000     -10.292827      -280.0821
  59   2.0000     -10.292755      -280.0801
  60   2.0000     -10.292444      -280.0717
  61   2.0000     -10.290722      -280.0248
  62   2.0000     -10.289473      -279.9908
  63   2.0000     -10.288341      -279.9600
  64   2.0000     -10.287246      -279.9302
  65   2.0000     -10.285139      -279.8729
  66   2.0000     -10.283015      -279.8151
  67   2.0000     -10.282753      -279.8079
  68   2.0000     -10.282160      -279.7918
  69   2.0000     -10.278170      -279.6832
  70   2.0000     -10.276266      -279.6314
  71   2.0000     -10.273428      -279.5542
  72   2.0000      -8.789965      -239.1871
  73   2.0000      -8.121380      -220.9940
  74   2.0000      -8.072835      -219.6730
  75   2.0000      -8.066085      -219.4893
  76   2.0000      -8.042351      -218.8435
  77   2.0000      -8.038495      -218.7386
  78   2.0000      -6.626174      -180.3074
  79   2.0000      -6.611730      -179.9143
  80   2.0000      -6.611560      -179.9097
  81   2.0000      -6.092516      -165.7858
  82   2.0000      -6.084731      -165.5739
  83   2.0000      -6.084096      -165.5567
  84   2.0000      -6.042149      -164.4152
  85   2.0000      -6.037991      -164.3021
  86   2.0000      -6.035760      -164.2414
  87   2.0000      -6.034996      -164.2206
  88   2.0000      -6.031528      -164.1262
  89   2.0000      -6.027329      -164.0120
  90   2.0000      -6.012222      -163.6009
  91   2.0000      -6.008317      -163.4946
  92   2.0000      -6.008221      -163.4920
  93   2.0000      -6.004479      -163.3902
  94   2.0000      -6.002997      -163.3498
  95   2.0000      -5.998956      -163.2399
  96   2.0000      -2.742109       -74.6166
  97   2.0000      -2.737976       -74.5041
  98   2.0000      -2.737865       -74.5011
  99   2.0000      -2.726366       -74.1882
 100   2.0000      -2.726365       -74.1882
 101   2.0000      -1.158609       -31.5274
 102   2.0000      -1.129242       -30.7282
 103   2.0000      -1.118175       -30.4271
 104   2.0000      -1.109947       -30.2032
 105   2.0000      -1.097355       -29.8605
 106   2.0000      -1.036227       -28.1972
 107   2.0000      -1.014555       -27.6075
 108   2.0000      -1.003244       -27.2997
 109   2.0000      -1.002145       -27.2697
 110   2.0000      -1.000781       -27.2326
 111   2.0000      -0.995508       -27.0891
 112   2.0000      -0.992609       -27.0103
 113   2.0000      -0.983489       -26.7621
 114   2.0000      -0.980999       -26.6943
 115   2.0000      -0.978629       -26.6298
 116   2.0000      -0.972627       -26.4665
 117   2.0000      -0.968024       -26.3413
 118   2.0000      -0.940783       -25.6000
 119   2.0000      -0.934361       -25.4253
 120   2.0000      -0.924587       -25.1593
 121   2.0000      -0.912139       -24.8206
 122   2.0000      -0.907234       -24.6871
 123   2.0000      -0.900638       -24.5076
 124   2.0000      -0.897928       -24.4339
 125   2.0000      -0.889001       -24.1910
 126   2.0000      -0.882511       -24.0144
 127   2.0000      -0.878559       -23.9068
 128   2.0000      -0.876514       -23.8512
 129   2.0000      -0.868638       -23.6369
 130   2.0000      -0.858311       -23.3558
 131   2.0000      -0.849150       -23.1066
 132   2.0000      -0.847333       -23.0571
 133   2.0000      -0.836232       -22.7550
 134   2.0000      -0.832932       -22.6652
 135   2.0000      -0.822744       -22.3880
 136   2.0000      -0.822378       -22.3780
 137   2.0000      -0.819428       -22.2978
 138   2.0000      -0.807509       -21.9734
 139   2.0000      -0.789759       -21.4904
 140   2.0000      -0.784280       -21.3414
 141   2.0000      -0.770578       -20.9685
 142   2.0000      -0.752374       -20.4731
 143   2.0000      -0.747346       -20.3363
 144   2.0000      -0.741722       -20.1833
 145   2.0000      -0.731476       -19.9045
 146   2.0000      -0.722994       -19.6737
 147   2.0000      -0.721949       -19.6452
 148   2.0000      -0.714743       -19.4491
 149   2.0000      -0.705838       -19.2068
 150   2.0000      -0.702082       -19.1046
 151   2.0000      -0.690644       -18.7934
 152   2.0000      -0.688983       -18.7482
 153   2.0000      -0.684990       -18.6395
 154   2.0000      -0.680871       -18.5274
 155   2.0000      -0.669807       -18.2264
 156   2.0000      -0.666957       -18.1488
 157   2.0000      -0.659230       -17.9386
 158   2.0000      -0.654191       -17.8015
 159   2.0000      -0.648991       -17.6599
 160   2.0000      -0.641089       -17.4449
 161   2.0000      -0.634886       -17.2761
 162   2.0000      -0.628543       -17.1035
 163   2.0000      -0.621944       -16.9240
 164   2.0000      -0.617696       -16.8084
 165   2.0000      -0.614732       -16.7277
 166   2.0000      -0.611529       -16.6405
 167   2.0000      -0.603371       -16.4186
 168   2.0000      -0.601768       -16.3749
 169   2.0000      -0.601036       -16.3550
 170   2.0000      -0.588700       -16.0194
 171   2.0000      -0.587471       -15.9859
 172   2.0000      -0.581944       -15.8355
 173   2.0000      -0.573521       -15.6063
 174   2.0000      -0.566574       -15.4173
 175   2.0000      -0.564188       -15.3523
 176   2.0000      -0.561039       -15.2667
 177   2.0000      -0.558822       -15.2063
 178   2.0000      -0.557479       -15.1698
 179   2.0000      -0.554319       -15.0838
 180   2.0000      -0.550658       -14.9842
 181   2.0000      -0.543728       -14.7956
 182   2.0000      -0.540815       -14.7163
 183   2.0000      -0.536517       -14.5994
 184   2.0000      -0.533095       -14.5062
 185   2.0000      -0.528944       -14.3933
 186   2.0000      -0.526610       -14.3298
 187   2.0000      -0.522306       -14.2127
 188   2.0000      -0.518724       -14.1152
 189   2.0000      -0.518025       -14.0962
 190   2.0000      -0.515924       -14.0390
 191   2.0000      -0.513981       -13.9861
 192   2.0000      -0.511497       -13.9185
 193   2.0000      -0.506353       -13.7786
 194   2.0000      -0.503747       -13.7076
 195   2.0000      -0.499138       -13.5822
 196   2.0000      -0.498665       -13.5694
 197   2.0000      -0.497639       -13.5415
 198   2.0000      -0.494659       -13.4603
 199   2.0000      -0.490968       -13.3599
 200   2.0000      -0.485971       -13.2239
 201   2.0000      -0.485145       -13.2015
 202   2.0000      -0.481910       -13.1134
 203   2.0000      -0.480982       -13.0882
 204   2.0000      -0.480394       -13.0722
 205   2.0000      -0.478376       -13.0173
 206   2.0000      -0.474700       -12.9172
 207   2.0000      -0.471820       -12.8389
 208   2.0000      -0.469667       -12.7803
 209   2.0000      -0.468642       -12.7524
 210   2.0000      -0.466782       -12.7018
 211   2.0000      -0.465140       -12.6571
 212   2.0000      -0.463040       -12.6000
 213   2.0000      -0.457777       -12.4568
 214   2.0000      -0.452279       -12.3071
 215   2.0000      -0.451975       -12.2989
 216   2.0000      -0.448591       -12.2068
 217   2.0000      -0.445685       -12.1277
 218   2.0000      -0.445000       -12.1091
 219   2.0000      -0.442479       -12.0405
 220   2.0000      -0.441128       -12.0037
 221   2.0000      -0.437481       -11.9045
 222   2.0000      -0.436972       -11.8906
 223   2.0000      -0.433407       -11.7936
 224   2.0000      -0.433209       -11.7882
 225   2.0000      -0.431971       -11.7545
 226   2.0000      -0.429887       -11.6978
 227   2.0000      -0.429154       -11.6779
 228   2.0000      -0.426143       -11.5959
 229   2.0000      -0.424101       -11.5404
 230   2.0000      -0.415234       -11.2991
 231   2.0000      -0.413644       -11.2558
 232   2.0000      -0.409254       -11.1364
 233   2.0000      -0.405953       -11.0465
 234   2.0000      -0.403329       -10.9751
 235   2.0000      -0.401195       -10.9171
 236   2.0000      -0.399080       -10.8595
 237   2.0000      -0.397926       -10.8281
 238   2.0000      -0.396726       -10.7955
 239   2.0000      -0.395512       -10.7624
 240   2.0000      -0.386427       -10.5152
 241   2.0000      -0.380808       -10.3623
 242   2.0000      -0.374816       -10.1993
 243   2.0000      -0.372313       -10.1312
 244   2.0000      -0.367320        -9.9953
 245   2.0000      -0.362772        -9.8715
 246   2.0000      -0.353034        -9.6065
 247   2.0000      -0.349537        -9.5114
 248   2.0000      -0.348232        -9.4759
 249   2.0000      -0.341674        -9.2974
 250   2.0000      -0.340790        -9.2734
 251   2.0000      -0.331528        -9.0213
 252   2.0000      -0.326775        -8.8920
 253   2.0000      -0.325719        -8.8633
 254   2.0000      -0.320859        -8.7310
 255   2.0000      -0.310790        -8.4570
 256   2.0000      -0.307455        -8.3663
 257   2.0000      -0.292932        -7.9711
 258   2.0000      -0.286931        -7.8078
 259   2.0000      -0.274072        -7.4579
 260   2.0000      -0.231961        -6.3120
 261   2.0000      -0.225771        -6.1435
 262   0.0000      -0.125716        -3.4209
 263   0.0000      -0.071526        -1.9463
 264   0.0000      -0.065180        -1.7736
 265   0.0000      -0.058046        -1.5795
 266   0.0000      -0.047689        -1.2977

MULLIKEN ATOMIC CHARGES
-----------------------
   0 C :   -0.030732
   1 C :   -0.063227
   2 C :    0.052595
   3 C :    0.029259
   4 C :   -0.065639
   5 S :    0.070137
   6 C :   -0.061305
   7 C :    0.037718
   8 C :    0.027556
   9 C :   -0.015263
  10 S :    0.065628
  11 C :   -0.098148
  12 C :    0.055879
  13 C :   -0.172951
  14 C :    0.131314
  15 N :   -0.024328
  16 C :   -0.165832
  17 C :    0.126881
  18 C :    0.059640
  19 C :   -0.012382
  20 C :    0.045598
  21 C :   -0.145981
  22 S :    0.150164
  23 C :   -0.121107
  24 C :    0.073731
  25 C :    0.091132
  26 N :   -0.039656
  27 N :   -0.043644
  28 C :   -0.001356
  29 C :    0.086741
  30 C :   -0.106173
  31 C :    0.116532
  32 C :   -0.073809
  33 C :   -0.026063
  34 N :    0.049863
  35 C :   -0.127002
  36 C :   -0.147406
  37 N :    0.053159
  38 C :   -0.210663
  39 N :    0.226989
  40 C :   -0.200714
  41 N :    0.234618
  42 C :    0.039986
  43 C :    0.047748
  44 C :   -0.036059
  45 N :   -0.271055
  46 S :    0.525873
  47 N :   -0.276786
  48 C :   -0.055364
  49 C :   -0.076278
  50 C :    0.294684
  51 C :   -0.337555
  52 C :   -0.188297
  53 N :    0.147550
  54 C :   -0.205400
  55 N :    0.162677
  56 C :    0.019983
  57 C :   -0.017833
  58 C :    0.156230
  59 O :   -0.160744
  60 C :   -0.078769
  61 C :    0.118343
  62 C :   -0.091543
  63 C :   -0.025479
  64 S :    0.181863
  65 C :   -0.123663
  66 C :    0.037735
  67 Br:    0.014853
  68 H :    0.021919
  69 H :    0.021755
  70 H :   -0.008703
  71 H :   -0.010789
  72 H :   -0.013467
  73 H :   -0.016923
  74 H :   -0.019607
  75 H :    0.035448
  76 H :    0.044574
  77 H :    0.006676
  78 H :    0.118216
  79 H :    0.005000
  80 H :    0.047761
  81 H :    0.042630
  82 H :   -0.055112
  83 H :   -0.044426
  84 H :    0.139920
  85 H :    0.012699
  86 H :    0.005229
  87 H :    0.018279
  88 H :    0.042731
  89 H :   -0.012850
  90 H :   -0.005783
  91 H :   -0.009633
Sum of atomic charges:   -0.0000000

LOEWDIN ATOMIC CHARGES
----------------------
   0 C :   -0.076529
   1 C :   -0.138968
   2 C :   -0.030026
   3 C :   -0.026591
   4 C :   -0.177794
   5 S :    0.343599
   6 C :   -0.182981
   7 C :   -0.030500
   8 C :   -0.036526
   9 C :   -0.145251
  10 S :    0.372190
  11 C :   -0.066025
  12 C :   -0.077578
  13 C :   -0.016870
  14 C :   -0.062917
  15 N :    0.102516
  16 C :    0.006654
  17 C :   -0.054356
  18 C :   -0.085753
  19 C :    0.014318
  20 C :   -0.073099
  21 C :   -0.156035
  22 S :    0.461949
  23 C :   -0.168992
  24 C :   -0.072299
  25 C :   -0.034331
  26 N :    0.097996
  27 N :   -0.037360
  28 C :   -0.028927
  29 C :    0.001681
  30 C :   -0.040959
  31 C :    0.001105
  32 C :   -0.013894
  33 C :    0.017650
  34 N :   -0.010656
  35 C :   -0.017192
  36 C :   -0.045127
  37 N :    0.003771
  38 C :   -0.037944
  39 N :   -0.016771
  40 C :   -0.032834
  41 N :   -0.003073
  42 C :   -0.072946
  43 C :   -0.020081
  44 C :   -0.059518
  45 N :   -0.260388
  46 S :    0.662117
  47 N :   -0.278067
  48 C :    0.084840
  49 C :   -0.090851
  50 C :    0.073872
  51 C :   -0.140312
  52 C :   -0.018023
  53 N :   -0.059653
  54 C :   -0.023907
  55 N :   -0.050620
  56 C :   -0.017480
  57 C :   -0.046018
  58 C :    0.085449
  59 O :   -0.152175
  60 C :    0.017002
  61 C :   -0.035900
  62 C :   -0.145021
  63 C :   -0.012191
  64 S :    0.428938
  65 C :   -0.274601
  66 C :   -0.072604
  67 Br:    0.129891
  68 H :    0.029392
  69 H :    0.026263
  70 H :    0.034314
  71 H :    0.032542
  72 H :    0.031911
  73 H :    0.030838
  74 H :    0.024838
  75 H :    0.042208
  76 H :    0.032213
  77 H :    0.029611
  78 H :    0.089951
  79 H :    0.033310
  80 H :    0.040956
  81 H :    0.043467
  82 H :    0.020572
  83 H :    0.027358
  84 H :    0.083514
  85 H :    0.027467
  86 H :    0.038119
  87 H :    0.040962
  88 H :    0.046766
  89 H :    0.039476
  90 H :    0.040796
  91 H :    0.036129

  Mayer bond orders larger than 0.100000
B(  0-C ,  1-C ) :   1.8697 B(  0-C , 68-H ) :   0.9504 B(  0-C , 69-H ) :   0.9421
B(  1-C ,  2-C ) :   1.0775 B(  1-C ,  5-S ) :   1.0057 B(  2-C ,  3-C ) :   1.6708
B(  2-C , 70-H ) :   0.9927 B(  3-C ,  4-C ) :   1.1426 B(  3-C , 71-H ) :   0.9919
B(  4-C ,  5-S ) :   1.0388 B(  4-C ,  6-C ) :   1.5847 B(  6-C ,  7-C ) :   1.1501
B(  6-C , 10-S ) :   1.0319 B(  7-C ,  8-C ) :   1.6424 B(  7-C , 72-H ) :   0.9923
B(  8-C ,  9-C ) :   1.0958 B(  8-C , 73-H ) :   0.9974 B(  9-C , 10-S ) :   1.0222
B(  9-C , 11-C ) :   1.7022 B( 11-C , 12-C ) :   1.0354 B( 11-C , 74-H ) :   0.9491
B( 12-C , 13-C ) :   1.4898 B( 12-C , 18-C ) :   1.2017 B( 13-C , 14-C ) :   1.1118
B( 13-C , 15-N ) :   1.1984 B( 14-C , 75-H ) :   0.9408 B( 14-C , 76-H ) :   0.9320
B( 14-C , 77-H ) :   0.9384 B( 15-N , 16-C ) :   1.2682 B( 15-N , 78-H ) :   0.9322
B( 16-C , 17-C ) :   1.1122 B( 16-C , 18-C ) :   1.3901 B( 17-C , 79-H ) :   0.9336
B( 17-C , 80-H ) :   0.9337 B( 17-C , 81-H ) :   0.9406 B( 18-C , 19-C ) :   1.1765
B( 19-C , 20-C ) :   1.5993 B( 19-C , 82-H ) :   0.9468 B( 20-C , 21-C ) :   1.1791
B( 20-C , 83-H ) :   0.9464 B( 21-C , 22-S ) :   1.1462 B( 21-C , 25-C ) :   1.3059
B( 22-S , 23-C ) :   1.0906 B( 23-C , 24-C ) :   1.2409 B( 23-C , 29-C ) :   1.3148
B( 24-C , 25-C ) :   1.2969 B( 24-C , 28-C ) :   1.1770 B( 25-C , 26-N ) :   1.1457
B( 26-N , 27-N ) :   1.1458 B( 26-N , 84-H ) :   0.9451 B( 27-N , 28-C ) :   1.6991
B( 28-C , 85-H ) :   0.9928 B( 29-C , 30-C ) :   1.4808 B( 29-C , 86-H ) :   0.9396
B( 30-C , 31-C ) :   1.3497 B( 30-C , 87-H ) :   0.9291 B( 31-C , 32-C ) :   1.1626
B( 31-C , 42-C ) :   0.1017 B( 31-C , 44-C ) :   1.1415 B( 32-C , 33-C ) :   1.1250
B( 32-C , 37-N ) :   1.5149 B( 33-C , 34-N ) :   1.4634 B( 33-C , 42-C ) :   1.2358
B( 34-N , 35-C ) :   1.7251 B( 35-C , 36-C ) :   1.2365 B( 35-C , 40-C ) :   1.1485
B( 36-C , 37-N ) :   1.6841 B( 36-C , 38-C ) :   1.1573 B( 38-C , 39-N ) :   3.0466
B( 40-C , 41-N ) :   3.0480 B( 42-C , 43-C ) :   1.1743 B( 42-C , 48-C ) :   1.2146
B( 43-C , 44-C ) :   1.1152 B( 43-C , 47-N ) :   1.5299 B( 44-C , 45-N ) :   1.5213
B( 45-N , 46-S ) :   1.2843 B( 45-N , 47-N ) :   0.1439 B( 46-S , 47-N ) :   1.2652
B( 48-C , 49-C ) :   1.5383 B( 48-C , 88-H ) :   0.9336 B( 49-C , 50-C ) :   1.0838
B( 49-C , 58-C ) :   0.9621 B( 50-C , 51-C ) :   1.6353 B( 50-C , 56-C ) :   0.9982
B( 51-C , 52-C ) :   1.1421 B( 51-C , 54-C ) :   1.1452 B( 52-C , 53-N ) :   2.9706
B( 54-C , 55-N ) :   2.9947 B( 56-C , 57-C ) :   1.2790 B( 56-C , 63-C ) :   1.4165
B( 57-C , 58-C ) :   0.9479 B( 57-C , 60-C ) :   1.4349 B( 58-C , 59-O ) :   2.1760
B( 60-C , 61-C ) :   1.2386 B( 60-C , 89-H ) :   1.0160 B( 61-C , 62-C ) :   1.3143
B( 61-C , 66-C ) :   1.1611 B( 62-C , 63-C ) :   1.3254 B( 62-C , 64-S ) :   1.0816
B( 63-C , 90-H ) :   0.9795 B( 64-S , 65-C ) :   1.0865 B( 65-C , 66-C ) :   1.6188
B( 65-C , 67-Br) :   1.0143 B( 66-C , 91-H ) :   1.0001

-----------------------------------------------------------------------------
         ABSORPTION SPECTRUM VIA TRANSITION ELECTRIC DIPOLE MOMENTS
-----------------------------------------------------------------------------
State   Energy  Wavelength   fosc         T2         TX        TY        TZ
        (cm-1)    (nm)                  (au**2)     (au)      (au)      (au)
-----------------------------------------------------------------------------
   0    7356.0   1359.4   0.427628762  19.13819  -1.87055  -0.48813  -3.92440
   1   11454.8    873.0   0.043516446   1.25066   0.89134  -0.04465  -0.67393
   2   17297.9    578.1   0.176806237   3.36497  -1.75301   0.53463  -0.07807
   3   19155.0    522.1   0.295866394   5.08498   0.90373  -1.11273  -1.74071
   4   20918.0    478.1   0.959671300  15.10350  -3.87842  -0.10596   0.22391
   5   21950.7    455.6   0.124445759   1.86641  -1.36563  -0.02445   0.02960
   6   22534.2    443.8   0.358550094   5.23820   1.67159   0.90194  -1.27691
   7   22823.7    438.1   0.286815243   4.13707   1.18102   1.03732  -1.29082
   8   23082.6    433.2   0.053843181   0.76793   0.31485   0.31969   0.75272
   9   23798.3    420.2   0.100774006   1.39405   0.77049  -0.88413  -0.13683
  10   24356.9    410.6   0.041174282   0.55652  -0.49187  -0.40011   0.39305
  11   24910.4    401.4   0.091171969   1.20491   0.31164  -0.77599   0.71107
  12   25290.6    395.4   0.092197896   1.20016  -1.08903  -0.07987   0.08826
  13   25462.7    392.7   0.003784987   0.04894   0.05047  -0.21527  -0.00684
  14   25780.9    387.9   0.004708934   0.06013  -0.18534  -0.02273   0.15894
  15   26420.7    378.5   0.171793791   2.14061   1.30070  -0.33027   0.58286
  16   26794.3    373.2   0.040325656   0.49547   0.67927  -0.01992   0.18349
  17   26889.9    371.9   0.050010122   0.61227   0.72339  -0.29549   0.04080
  18   27367.4    365.4   0.008310188   0.09997  -0.15248   0.14778  -0.23426
  19   28369.6    352.5   0.026954885   0.31279   0.30582   0.19528   0.42560
  20   29124.5    343.4   0.011024857   0.12462   0.00813  -0.04535   0.35000
  21   29748.8    336.1   0.055945071   0.61911  -0.68484   0.06870  -0.38129
  22   30059.2    332.7   0.113932331   1.24780  -1.07860  -0.15152   0.24790
  23   30137.9    331.8   0.170530671   1.86279  -1.36283  -0.06657   0.03263
  24   30478.1    328.1   0.045033738   0.48644  -0.52214  -0.40403  -0.22487
  25   30924.7    323.4   0.593641557   6.31967   1.83754  -1.60989   0.59279
  26   31265.5    319.8   0.099632361   1.04909  -0.34425  -0.95291  -0.15011
  27   31664.1    315.8   0.055252699   0.57446  -0.63991  -0.02840  -0.40518
  28   32273.5    309.9   0.071147624   0.72575   0.52096  -0.14656   0.65793
  29   32319.6    309.4   0.057034798   0.58096  -0.30146  -0.55592  -0.42548
  30   32652.7    306.3   0.005717544   0.05765   0.11879  -0.17757  -0.10955
  31   33261.8    300.6   0.057830194   0.57238  -0.56739   0.48860   0.10824
  32   33785.9    296.0   0.002670898   0.02603   0.04942   0.13200  -0.07848
  33   33976.0    294.3   0.017264117   0.16728  -0.08146   0.26336   0.30214
  34   34287.1    291.7   0.043423439   0.41694   0.48244   0.35874   0.23556
  35   34646.1    288.6   0.292213542   2.77666  -1.25256   0.53244  -0.96138
  36   35053.7    285.3   0.010899176   0.10236   0.11064   0.09858   0.28355
  37   35254.9    283.6   0.002747087   0.02565   0.01953  -0.14828  -0.05730
  38   35484.3    281.8   0.018499807   0.17164   0.05723  -0.38646  -0.13786
  39   35527.7    281.5   0.100501783   0.93129  -0.22773  -0.23180   0.90868
  40   35829.2    279.1   0.046377272   0.42613   0.14028  -0.62240  -0.13810
  41   36058.1    277.3   0.059820294   0.54616  -0.27532  -0.59739   0.33688
  42   36465.6    274.2   0.144210761   1.30194   0.52978  -0.35334   0.94680
  43   36702.3    272.5   0.115811470   1.03880  -0.60432  -0.07930  -0.81689
  44   36901.6    271.0   0.014298582   0.12756   0.13211   0.29119  -0.15912
  45   37345.8    267.8   0.116817640   1.02978  -0.67387   0.23913  -0.72006
  46   37497.6    266.7   0.018900079   0.16593   0.04397   0.16021  -0.37193
  47   37624.5    265.8   0.030283282   0.26498  -0.44088   0.14801   0.22067
  48   37827.1    264.4   0.005492129   0.04780   0.09805   0.19202   0.03623
  49   37909.0    263.8   0.038933749   0.33811   0.52743   0.12419   0.21097
  50   37956.4    263.5   0.047942616   0.41583   0.62763   0.14590  -0.02482
  51   38103.2    262.4   0.043767964   0.37816  -0.46942  -0.17166  -0.35823
  52   38348.0    260.8   0.014573199   0.12511  -0.33688  -0.03605  -0.10159
  53   38488.5    259.8   0.030166539   0.25803   0.11246   0.40834   0.28043
  54   39092.7    255.8   0.026003840   0.21899   0.21372   0.36895   0.19283
  55   39145.7    255.5   0.089417335   0.75199   0.57904   0.34647   0.54467
  56   39725.6    251.7   0.021856712   0.18113  -0.25972   0.27635   0.19314
  57   39756.5    251.5   0.147866055   1.22444  -0.78298   0.69000   0.36781
  58   39979.6    250.1   0.007136108   0.05876  -0.16043  -0.05108   0.17440
  59   40183.9    248.9   0.009956108   0.08157  -0.27220   0.02991   0.08112

FINAL SINGLE POINT ENERGY     -7158.090948939112

DIPOLE MOMENT
-------------
                                X             Y             Z
Electronic contribution:     14.55687      74.65587      99.79234
Nuclear contribution   :    -20.48027     -74.42702    -107.19788
                        -----------------------------------------
Total Dipole Moment    :     -5.92339       0.22885      -7.40554
                        -----------------------------------------
Magnitude (a.u.)       :      9.48583
Magnitude (Debye)      :     24.11107

Rotational constants in cm-1:     0.000798     0.000519     0.000360
Rotational constants in MHz :    23.931895    15.552515    10.804358

                             ****ORCA TERMINATED NORMALLY****
TOTAL RUN TIME: 0 days 0 hours 9 minutes 15 seconds 589 msec
