                         Program Version 4.2.0 -  RELEASE  -
|  1> # ORCA input file
|  2> # SCF done       -156.197287706109          0.000777006217
|  3> ! CAM-B3LYP def2-SVP def2/J RIJCOSX Grid4 TightSCF
|  4> %maxcore 5000
|  5> %tddft
|  6>     Mode sTDDFT
|  7>     Ethresh 5.0
|  8>     maxcore 5000
|  9> end
| 10>
| 11> %pal
| 12>   nprocs 6
| 13>   end
| 14> * xyz 0 1
| 15>    C       14.66069         0.78183         6.02219
| 16>    C       13.62817         0.99548         6.85462
| 17>    C       13.64457         1.02309         8.28997
| 18>    C       12.43958         1.25471         8.85552
| 19>    C       11.37606         1.42938         7.92669
| 20>    S       11.97634         1.27634         6.28352
| 21>    C       10.05451         1.67606         8.19848
| 22>    C        9.41051         1.72831         9.46298
| 23>    C        8.06544         1.87928         9.38260
| 24>    C        7.54948         1.93098         8.05493
| 25>    S        8.88142         1.90308         6.91382
| 26>    C        6.21705         1.98604         7.74848
| 27>    C        5.53942         1.93954         6.50771
| 28>    S        3.98749         2.76313         6.48401
| 29>    C        3.81995         2.48960         4.79806
| 30>    C        4.85381         1.78819         4.26851
| 31>    C        4.93156         1.40231         2.82832
| 32>    C        5.83719         1.42352         5.24359
| 33>    C        6.92025         0.54898         4.90369
| 34>    C        7.56603        -0.27710         5.75600
| 35>    C        8.73818        -1.00919         5.40226
| 36>    C        9.55024        -1.58301         6.31485
| 37>    C       10.80990        -2.17245         5.97851
| 38>    C       11.74679        -2.56789         6.85585
| 39>    C       11.61967        -2.42095         8.33908
| 40>    C       13.02955        -3.19483         6.36298
| 41>    N       14.18845        -2.44562         6.78647
| 42>    C       15.03522        -2.85663         7.74323
| 43>    C       15.96751        -2.05574         8.32190
| 44>    C       16.98346        -2.42861         9.23752
| 45>    S       18.34271        -1.34063         9.33049
| 46>    C       19.21821        -2.43692        10.33609
| 47>    C       18.53090        -3.57006        10.59757
| 48>    C       19.06626        -4.67151        11.45182
| 49>    C       17.21054        -3.57121        10.01853
| 50>    C       16.28913        -4.59745        10.35439
| 51>    C       14.92669        -4.51718        10.38472
| 52>    C       14.11489        -5.60026        10.75542
| 53>    C       12.74407        -5.55641        10.79403
| 54>    C       11.98582        -6.66402        11.18510
| 55>    C       10.60935        -6.72017        11.23323
| 56>    C        9.81604        -7.83185        11.69857
| 57>    C       10.26502        -9.06172        12.11925
| 58>    C        9.42491       -10.10471        12.55626
| 59>    N        8.79991       -10.99664        12.92250
| 60>    C       11.61033        -9.47657        12.16969
| 61>    N       12.67535        -9.90366        12.24248
| 62>    C        8.41202        -7.43021        11.64197
| 63>    C        8.33746        -6.12017        11.11083
| 64>    C        9.70453        -5.63447        10.82436
| 65>    O        9.98873        -4.55477        10.33533
| 66>    C        7.14678        -5.46205        10.92732
| 67>    C        5.97018        -6.12587        11.29305
| 68>    C        6.05538        -7.43059        11.83015
| 69>    C        7.26086        -8.09887        12.01098
| 70>    S        4.48492        -8.06515        12.22237
| 71>    C        3.74641        -6.58743        11.66499
| 72>    C        4.62680        -5.66595        11.20875
| 73>   Br        1.88066        -6.39968        11.74055
| 74>    H       15.66066         0.65113         6.39800
| 75>    H       14.53302         0.78648         4.95508
| 76>    H       14.55896         0.87113         8.83581
| 77>    H       12.26909         1.31158         9.91613
| 78>    H        9.95644         1.62759        10.38372
| 79>    H        7.40638         1.91690        10.23254
| 80>    H        5.56557         2.16377         8.59831
| 81>    H        2.95236         2.86427         4.29079
| 82>    H        4.06371         1.77642         2.29123
| 83>    H        4.96670         0.31846         2.72544
| 84>    H        5.82908         1.81774         2.37088
| 85>    H        7.22886         0.56310         3.86660
| 86>    H        7.21878        -0.37119         6.77606
| 87>    H        9.02992        -1.00012         4.35964
| 88>    H        9.26816        -1.56260         7.35814
| 89>    H       11.00808        -2.28108         4.91895
| 90>    H       11.21495        -1.44558         8.60348
| 91>    H       12.59110        -2.52649         8.81769
| 92>    H       10.95373        -3.18032         8.75086
| 93>    H       13.02002        -3.24828         5.26891
| 94>    H       13.11883        -4.21134         6.75994
| 95>    H       14.19885        -1.46186         6.53782
| 96>    H       14.97547        -3.90772         7.98858
| 97>    H       16.02390        -1.03058         7.98072
| 98>    H       20.19825        -2.16420        10.67401
| 99>    H       20.08286        -4.44265        11.76095
|100>    H       19.07527        -5.61277        10.90311
|101>    H       18.45283        -4.79960        12.34308
|102>    H       16.73321        -5.52165        10.70387
|103>    H       14.43909        -3.58150        10.14984
|104>    H       14.60753        -6.53250        11.00795
|105>    H       12.23021        -4.64642        10.52350
|106>    H       12.53994        -7.54263        11.48946
|107>    H        7.12108        -4.46457        10.51676
|108>    H        7.27124        -9.09358        12.42357
|109>    H        4.34316        -4.70148        10.82843
|110> *
|111>
|112>                          ****END OF INPUT****

CARTESIAN COORDINATES (ANGSTROEM)
---------------------------------
  C     14.660690    0.781830    6.022190
  C     13.628170    0.995480    6.854620
  C     13.644570    1.023090    8.289970
  C     12.439580    1.254710    8.855520
  C     11.376060    1.429380    7.926690
  S     11.976340    1.276340    6.283520
  C     10.054510    1.676060    8.198480
  C      9.410510    1.728310    9.462980
  C      8.065440    1.879280    9.382600
  C      7.549480    1.930980    8.054930
  S      8.881420    1.903080    6.913820
  C      6.217050    1.986040    7.748480
  C      5.539420    1.939540    6.507710
  S      3.987490    2.763130    6.484010
  C      3.819950    2.489600    4.798060
  C      4.853810    1.788190    4.268510
  C      4.931560    1.402310    2.828320
  C      5.837190    1.423520    5.243590
  C      6.920250    0.548980    4.903690
  C      7.566030   -0.277100    5.756000
  C      8.738180   -1.009190    5.402260
  C      9.550240   -1.583010    6.314850
  C     10.809900   -2.172450    5.978510
  C     11.746790   -2.567890    6.855850
  C     11.619670   -2.420950    8.339080
  C     13.029550   -3.194830    6.362980
  N     14.188450   -2.445620    6.786470
  C     15.035220   -2.856630    7.743230
  C     15.967510   -2.055740    8.321900
  C     16.983460   -2.428610    9.237520
  S     18.342710   -1.340630    9.330490
  C     19.218210   -2.436920   10.336090
  C     18.530900   -3.570060   10.597570
  C     19.066260   -4.671510   11.451820
  C     17.210540   -3.571210   10.018530
  C     16.289130   -4.597450   10.354390
  C     14.926690   -4.517180   10.384720
  C     14.114890   -5.600260   10.755420
  C     12.744070   -5.556410   10.794030
  C     11.985820   -6.664020   11.185100
  C     10.609350   -6.720170   11.233230
  C      9.816040   -7.831850   11.698570
  C     10.265020   -9.061720   12.119250
  C      9.424910  -10.104710   12.556260
  N      8.799910  -10.996640   12.922500
  C     11.610330   -9.476570   12.169690
  N     12.675350   -9.903660   12.242480
  C      8.412020   -7.430210   11.641970
  C      8.337460   -6.120170   11.110830
  C      9.704530   -5.634470   10.824360
  O      9.988730   -4.554770   10.335330
  C      7.146780   -5.462050   10.927320
  C      5.970180   -6.125870   11.293050
  C      6.055380   -7.430590   11.830150
  C      7.260860   -8.098870   12.010980
  S      4.484920   -8.065150   12.222370
  C      3.746410   -6.587430   11.664990
  C      4.626800   -5.665950   11.208750
  Br     1.880660   -6.399680   11.740550
  H     15.660660    0.651130    6.398000
  H     14.533020    0.786480    4.955080
  H     14.558960    0.871130    8.835810
  H     12.269090    1.311580    9.916130
  H      9.956440    1.627590   10.383720
  H      7.406380    1.916900   10.232540
  H      5.565570    2.163770    8.598310
  H      2.952360    2.864270    4.290790
  H      4.063710    1.776420    2.291230
  H      4.966700    0.318460    2.725440
  H      5.829080    1.817740    2.370880
  H      7.228860    0.563100    3.866600
  H      7.218780   -0.371190    6.776060
  H      9.029920   -1.000120    4.359640
  H      9.268160   -1.562600    7.358140
  H     11.008080   -2.281080    4.918950
  H     11.214950   -1.445580    8.603480
  H     12.591100   -2.526490    8.817690
  H     10.953730   -3.180320    8.750860
  H     13.020020   -3.248280    5.268910
  H     13.118830   -4.211340    6.759940
  H     14.198850   -1.461860    6.537820
  H     14.975470   -3.907720    7.988580
  H     16.023900   -1.030580    7.980720
  H     20.198250   -2.164200   10.674010
  H     20.082860   -4.442650   11.760950
  H     19.075270   -5.612770   10.903110
  H     18.452830   -4.799600   12.343080
  H     16.733210   -5.521650   10.703870
  H     14.439090   -3.581500   10.149840
  H     14.607530   -6.532500   11.007950
  H     12.230210   -4.646420   10.523500
  H     12.539940   -7.542630   11.489460
  H      7.121080   -4.464570   10.516760
  H      7.271240   -9.093580   12.423570
  H      4.343160   -4.701480   10.828430

 Total Charge           Charge          ....    0
 Multiplicity           Mult            ....    1
 Number of Electrons    NEL             ....  474
 Basis Dimension        Dim             .... 1044

ORBITAL ENERGIES
----------------

  NO   OCC          E(Eh)            E(eV)
   0   2.0000    -482.879751    -13139.8261
   1   2.0000     -88.967874     -2420.9389
   2   2.0000     -88.946111     -2420.3467
   3   2.0000     -88.944336     -2420.2984
   4   2.0000     -88.943315     -2420.2706
   5   2.0000     -88.943219     -2420.2680
   6   2.0000     -62.557448     -1702.2747
   7   2.0000     -56.391390     -1534.4877
   8   2.0000     -56.388694     -1534.4144
   9   2.0000     -56.388652     -1534.4132
  10   2.0000     -19.205094      -522.5972
  11   2.0000     -14.435840      -392.8192
  12   2.0000     -14.403617      -391.9424
  13   2.0000     -14.401307      -391.8795
  14   2.0000     -10.355474      -281.7868
  15   2.0000     -10.351552      -281.6801
  16   2.0000     -10.327446      -281.0241
  17   2.0000     -10.325347      -280.9670
  18   2.0000     -10.321555      -280.8638
  19   2.0000     -10.317088      -280.7422
  20   2.0000     -10.316459      -280.7251
  21   2.0000     -10.312427      -280.6154
  22   2.0000     -10.311574      -280.5922
  23   2.0000     -10.310995      -280.5764
  24   2.0000     -10.308594      -280.5111
  25   2.0000     -10.307460      -280.4803
  26   2.0000     -10.305444      -280.4254
  27   2.0000     -10.305118      -280.4165
  28   2.0000     -10.300110      -280.2803
  29   2.0000     -10.298645      -280.2404
  30   2.0000     -10.297304      -280.2039
  31   2.0000     -10.296999      -280.1956
  32   2.0000     -10.295935      -280.1666
  33   2.0000     -10.295803      -280.1631
  34   2.0000     -10.295691      -280.1600
  35   2.0000     -10.295099      -280.1439
  36   2.0000     -10.291777      -280.0535
  37   2.0000     -10.289926      -280.0031
  38   2.0000     -10.288179      -279.9556
  39   2.0000     -10.287887      -279.9476
  40   2.0000     -10.286811      -279.9183
  41   2.0000     -10.284723      -279.8616
  42   2.0000     -10.283657      -279.8325
  43   2.0000     -10.281456      -279.7726
  44   2.0000     -10.278416      -279.6899
  45   2.0000     -10.277770      -279.6723
  46   2.0000     -10.275343      -279.6063
  47   2.0000     -10.275208      -279.6026
  48   2.0000     -10.275112      -279.6000
  49   2.0000     -10.272724      -279.5350
  50   2.0000     -10.272036      -279.5163
  51   2.0000     -10.270962      -279.4871
  52   2.0000     -10.270632      -279.4781
  53   2.0000     -10.267957      -279.4053
  54   2.0000     -10.267894      -279.4036
  55   2.0000     -10.267559      -279.3945
  56   2.0000     -10.265036      -279.3258
  57   2.0000     -10.264636      -279.3149
  58   2.0000     -10.263699      -279.2894
  59   2.0000     -10.262360      -279.2530
  60   2.0000     -10.261331      -279.2250
  61   2.0000     -10.258258      -279.1414
  62   2.0000     -10.249577      -278.9052
  63   2.0000      -8.786858      -239.1026
  64   2.0000      -8.063802      -219.4272
  65   2.0000      -8.042431      -218.8457
  66   2.0000      -8.039578      -218.7680
  67   2.0000      -8.039550      -218.7673
  68   2.0000      -8.039532      -218.7668
  69   2.0000      -6.623116      -180.2242
  70   2.0000      -6.608603      -179.8292
  71   2.0000      -6.608438      -179.8247
  72   2.0000      -6.033490      -164.1796
  73   2.0000      -6.029235      -164.0638
  74   2.0000      -6.025044      -163.9498
  75   2.0000      -6.011759      -163.5883
  76   2.0000      -6.009439      -163.5251
  77   2.0000      -6.009317      -163.5218
  78   2.0000      -6.008899      -163.5105
  79   2.0000      -6.007526      -163.4731
  80   2.0000      -6.005471      -163.4172
  81   2.0000      -6.005150      -163.4085
  82   2.0000      -6.004699      -163.3962
  83   2.0000      -6.004514      -163.3911
  84   2.0000      -6.001523      -163.3097
  85   2.0000      -6.000607      -163.2848
  86   2.0000      -6.000056      -163.2698
  87   2.0000      -2.738985       -74.5316
  88   2.0000      -2.734927       -74.4211
  89   2.0000      -2.734787       -74.4173
  90   2.0000      -2.723261       -74.1037
  91   2.0000      -2.723237       -74.1030
  92   2.0000      -1.117520       -30.4093
  93   2.0000      -1.038941       -28.2710
  94   2.0000      -1.012772       -27.5589
  95   2.0000      -1.002017       -27.2663
  96   2.0000      -0.995130       -27.0789
  97   2.0000      -0.981411       -26.7056
  98   2.0000      -0.979082       -26.6422
  99   2.0000      -0.978922       -26.6378
 100   2.0000      -0.977848       -26.6086
 101   2.0000      -0.968737       -26.3607
 102   2.0000      -0.934492       -25.4288
 103   2.0000      -0.920939       -25.0600
 104   2.0000      -0.913602       -24.8604
 105   2.0000      -0.898437       -24.4477
 106   2.0000      -0.895838       -24.3770
 107   2.0000      -0.893083       -24.3020
 108   2.0000      -0.890878       -24.2420
 109   2.0000      -0.877482       -23.8775
 110   2.0000      -0.876338       -23.8464
 111   2.0000      -0.869344       -23.6560
 112   2.0000      -0.867114       -23.5954
 113   2.0000      -0.856397       -23.3038
 114   2.0000      -0.848476       -23.0882
 115   2.0000      -0.842702       -22.9311
 116   2.0000      -0.834447       -22.7064
 117   2.0000      -0.824823       -22.4446
 118   2.0000      -0.821578       -22.3563
 119   2.0000      -0.819687       -22.3048
 120   2.0000      -0.804386       -21.8885
 121   2.0000      -0.793823       -21.6010
 122   2.0000      -0.784967       -21.3600
 123   2.0000      -0.777888       -21.1674
 124   2.0000      -0.755767       -20.5655
 125   2.0000      -0.754439       -20.5293
 126   2.0000      -0.753103       -20.4930
 127   2.0000      -0.746235       -20.3061
 128   2.0000      -0.741452       -20.1759
 129   2.0000      -0.717252       -19.5174
 130   2.0000      -0.711443       -19.3594
 131   2.0000      -0.699501       -19.0344
 132   2.0000      -0.691926       -18.8283
 133   2.0000      -0.683949       -18.6112
 134   2.0000      -0.680805       -18.5256
 135   2.0000      -0.677802       -18.4439
 136   2.0000      -0.660769       -17.9804
 137   2.0000      -0.652374       -17.7520
 138   2.0000      -0.651451       -17.7269
 139   2.0000      -0.647139       -17.6096
 140   2.0000      -0.644999       -17.5513
 141   2.0000      -0.632035       -17.1985
 142   2.0000      -0.628596       -17.1050
 143   2.0000      -0.623926       -16.9779
 144   2.0000      -0.620075       -16.8731
 145   2.0000      -0.615352       -16.7446
 146   2.0000      -0.614291       -16.7157
 147   2.0000      -0.605561       -16.4782
 148   2.0000      -0.603081       -16.4107
 149   2.0000      -0.594276       -16.1711
 150   2.0000      -0.589878       -16.0514
 151   2.0000      -0.583957       -15.8903
 152   2.0000      -0.580593       -15.7988
 153   2.0000      -0.579776       -15.7765
 154   2.0000      -0.567630       -15.4460
 155   2.0000      -0.563555       -15.3351
 156   2.0000      -0.557342       -15.1660
 157   2.0000      -0.547218       -14.8905
 158   2.0000      -0.541317       -14.7300
 159   2.0000      -0.538239       -14.6462
 160   2.0000      -0.535585       -14.5740
 161   2.0000      -0.528901       -14.3921
 162   2.0000      -0.528289       -14.3755
 163   2.0000      -0.527753       -14.3609
 164   2.0000      -0.524535       -14.2733
 165   2.0000      -0.516133       -14.0447
 166   2.0000      -0.515097       -14.0165
 167   2.0000      -0.512519       -13.9463
 168   2.0000      -0.509773       -13.8716
 169   2.0000      -0.507447       -13.8083
 170   2.0000      -0.505426       -13.7533
 171   2.0000      -0.504420       -13.7260
 172   2.0000      -0.501098       -13.6356
 173   2.0000      -0.500764       -13.6265
 174   2.0000      -0.499498       -13.5920
 175   2.0000      -0.493089       -13.4176
 176   2.0000      -0.492866       -13.4116
 177   2.0000      -0.487578       -13.2677
 178   2.0000      -0.485776       -13.2186
 179   2.0000      -0.484616       -13.1871
 180   2.0000      -0.482464       -13.1285
 181   2.0000      -0.482103       -13.1187
 182   2.0000      -0.476494       -12.9661
 183   2.0000      -0.474061       -12.8998
 184   2.0000      -0.471353       -12.8262
 185   2.0000      -0.469576       -12.7778
 186   2.0000      -0.463122       -12.6022
 187   2.0000      -0.462363       -12.5815
 188   2.0000      -0.460613       -12.5339
 189   2.0000      -0.458985       -12.4896
 190   2.0000      -0.455450       -12.3934
 191   2.0000      -0.452734       -12.3195
 192   2.0000      -0.449039       -12.2190
 193   2.0000      -0.448002       -12.1908
 194   2.0000      -0.446608       -12.1528
 195   2.0000      -0.443227       -12.0608
 196   2.0000      -0.440923       -11.9981
 197   2.0000      -0.438127       -11.9220
 198   2.0000      -0.437388       -11.9019
 199   2.0000      -0.437326       -11.9002
 200   2.0000      -0.433155       -11.7868
 201   2.0000      -0.431989       -11.7550
 202   2.0000      -0.430827       -11.7234
 203   2.0000      -0.429807       -11.6957
 204   2.0000      -0.427507       -11.6331
 205   2.0000      -0.424808       -11.5596
 206   2.0000      -0.423612       -11.5271
 207   2.0000      -0.419719       -11.4211
 208   2.0000      -0.414648       -11.2832
 209   2.0000      -0.411482       -11.1970
 210   2.0000      -0.410360       -11.1665
 211   2.0000      -0.408481       -11.1153
 212   2.0000      -0.407388       -11.0856
 213   2.0000      -0.402407       -10.9500
 214   2.0000      -0.400907       -10.9092
 215   2.0000      -0.396856       -10.7990
 216   2.0000      -0.394860       -10.7447
 217   2.0000      -0.388026       -10.5587
 218   2.0000      -0.381456       -10.3799
 219   2.0000      -0.373366       -10.1598
 220   2.0000      -0.369334       -10.0501
 221   2.0000      -0.360848        -9.8192
 222   2.0000      -0.348899        -9.4940
 223   2.0000      -0.346339        -9.4244
 224   2.0000      -0.335644        -9.1333
 225   2.0000      -0.330741        -8.9999
 226   2.0000      -0.325814        -8.8658
 227   2.0000      -0.321465        -8.7475
 228   2.0000      -0.312265        -8.4972
 229   2.0000      -0.306938        -8.3522
 230   2.0000      -0.298455        -8.1214
 231   2.0000      -0.290415        -7.9026
 232   2.0000      -0.285517        -7.7693
 233   2.0000      -0.267612        -7.2821
 234   2.0000      -0.248335        -6.7575
 235   2.0000      -0.228395        -6.2149
 236   2.0000      -0.221254        -6.0206
 237   0.0000      -0.086780        -2.3614
 238   0.0000      -0.071296        -1.9401
 239   0.0000      -0.053254        -1.4491
 240   0.0000      -0.022037        -0.5997
 241   0.0000      -0.015272        -0.4156

MULLIKEN ATOMIC CHARGES
-----------------------
   0 C :   -0.065789
   1 C :   -0.092741
   2 C :    0.047083
   3 C :    0.035779
   4 C :   -0.068348
   5 S :    0.096415
   6 C :   -0.061845
   7 C :    0.024824
   8 C :    0.045445
   9 C :   -0.055127
  10 S :    0.110197
  11 C :    0.010846
  12 C :   -0.188188
  13 S :    0.096218
  14 C :   -0.118186
  15 C :   -0.091777
  16 C :    0.120267
  17 C :    0.154813
  18 C :   -0.075503
  19 C :    0.040272
  20 C :    0.010012
  21 C :    0.006020
  22 C :    0.009567
  23 C :   -0.207751
  24 C :    0.088557
  25 C :    0.219328
  26 N :   -0.149430
  27 C :    0.052445
  28 C :    0.004563
  29 C :   -0.124122
  30 S :    0.089514
  31 C :   -0.139596
  32 C :   -0.064260
  33 C :    0.113462
  34 C :    0.098967
  35 C :   -0.027903
  36 C :   -0.018679
  37 C :    0.056442
  38 C :   -0.021669
  39 C :   -0.020858
  40 C :   -0.085404
  41 C :    0.337102
  42 C :   -0.367457
  43 C :   -0.187474
  44 N :    0.140285
  45 C :   -0.187040
  46 N :    0.130469
  47 C :    0.008545
  48 C :   -0.011556
  49 C :    0.145783
  50 O :   -0.168876
  51 C :   -0.073774
  52 C :    0.117766
  53 C :   -0.096265
  54 C :   -0.018232
  55 S :    0.182309
  56 C :   -0.123450
  57 C :    0.038158
  58 Br:    0.015880
  59 H :    0.038622
  60 H :    0.025897
  61 H :   -0.006142
  62 H :   -0.005702
  63 H :   -0.016907
  64 H :   -0.011877
  65 H :   -0.008075
  66 H :    0.014044
  67 H :    0.006345
  68 H :    0.029595
  69 H :    0.028934
  70 H :   -0.022514
  71 H :    0.007135
  72 H :   -0.020323
  73 H :   -0.006817
  74 H :   -0.035815
  75 H :    0.023602
  76 H :   -0.005086
  77 H :    0.059178
  78 H :    0.004085
  79 H :    0.022768
  80 H :    0.127369
  81 H :    0.024524
  82 H :   -0.058720
  83 H :    0.010164
  84 H :    0.009274
  85 H :    0.029863
  86 H :    0.030019
  87 H :   -0.010722
  88 H :    0.002293
  89 H :    0.006561
  90 H :    0.006209
  91 H :    0.001679
  92 H :   -0.018494
  93 H :   -0.010153
  94 H :   -0.006846
Sum of atomic charges:   -0.0000000

LOEWDIN ATOMIC CHARGES
----------------------
   0 C :   -0.108675
   1 C :   -0.136666
   2 C :   -0.042132
   3 C :   -0.015150
   4 C :   -0.182967
   5 S :    0.362792
   6 C :   -0.172242
   7 C :   -0.049374
   8 C :   -0.022298
   9 C :   -0.161399
  10 S :    0.434396
  11 C :   -0.074386
  12 C :   -0.173527
  13 S :    0.414879
  14 C :   -0.190977
  15 C :   -0.057850
  16 C :   -0.044851
  17 C :   -0.059461
  18 C :   -0.051349
  19 C :   -0.022986
  20 C :   -0.028432
  21 C :   -0.024071
  22 C :   -0.049465
  23 C :   -0.038332
  24 C :   -0.062196
  25 C :    0.047968
  26 N :    0.019200
  27 C :    0.065641
  28 C :   -0.166361
  29 C :   -0.113179
  30 S :    0.414744
  31 C :   -0.209785
  32 C :   -0.047670
  33 C :   -0.045505
  34 C :   -0.109879
  35 C :    0.034829
  36 C :   -0.063135
  37 C :    0.042977
  38 C :   -0.061866
  39 C :    0.069589
  40 C :   -0.118151
  41 C :    0.076894
  42 C :   -0.154800
  43 C :   -0.018729
  44 N :   -0.066088
  45 C :   -0.019849
  46 N :   -0.065959
  47 C :   -0.018768
  48 C :   -0.049333
  49 C :    0.088281
  50 O :   -0.163578
  51 C :    0.017213
  52 C :   -0.035586
  53 C :   -0.145433
  54 C :   -0.011694
  55 S :    0.428762
  56 C :   -0.273935
  57 C :   -0.071266
  58 Br:    0.130688
  59 H :    0.027242
  60 H :    0.026421
  61 H :    0.033752
  62 H :    0.034931
  63 H :    0.030427
  64 H :    0.033455
  65 H :    0.033254
  66 H :    0.020800
  67 H :    0.032169
  68 H :    0.036008
  69 H :    0.034354
  70 H :    0.024520
  71 H :    0.027806
  72 H :    0.023760
  73 H :    0.026940
  74 H :    0.021148
  75 H :    0.033132
  76 H :    0.022399
  77 H :    0.043471
  78 H :    0.024394
  79 H :    0.032595
  80 H :    0.074768
  81 H :    0.032072
  82 H :    0.015390
  83 H :    0.018964
  84 H :    0.034124
  85 H :    0.034031
  86 H :    0.035538
  87 H :    0.031998
  88 H :    0.029582
  89 H :    0.034204
  90 H :    0.031060
  91 H :    0.040302
  92 H :    0.037816
  93 H :    0.040299
  94 H :    0.037355

  Mayer bond orders larger than 0.100000
B(  0-C ,  1-C ) :   1.8048 B(  0-C , 59-H ) :   0.9502 B(  0-C , 60-H ) :   0.9413
B(  1-C ,  2-C ) :   1.0760 B(  1-C ,  5-S ) :   1.0279 B(  2-C ,  3-C ) :   1.6577
B(  2-C , 61-H ) :   0.9921 B(  3-C ,  4-C ) :   1.1487 B(  3-C , 62-H ) :   0.9935
B(  4-C ,  5-S ) :   1.0392 B(  4-C ,  6-C ) :   1.5574 B(  6-C ,  7-C ) :   1.1551
B(  6-C , 10-S ) :   1.0435 B(  7-C ,  8-C ) :   1.6176 B(  7-C , 63-H ) :   0.9927
B(  8-C ,  9-C ) :   1.1181 B(  8-C , 64-H ) :   0.9978 B(  9-C , 10-S ) :   1.0534
B(  9-C , 11-C ) :   1.6215 B( 11-C , 12-C ) :   1.1478 B( 11-C , 65-H ) :   0.9398
B( 12-C , 13-S ) :   1.1195 B( 12-C , 17-C ) :   1.4172 B( 13-S , 14-C ) :   1.1333
B( 14-C , 15-C ) :   1.6064 B( 14-C , 66-H ) :   0.9656 B( 15-C , 16-C ) :   1.0976
B( 15-C , 17-C ) :   1.2205 B( 16-C , 67-H ) :   0.9508 B( 16-C , 68-H ) :   0.9419
B( 16-C , 69-H ) :   0.9423 B( 17-C , 18-C ) :   1.1099 B( 18-C , 19-C ) :   1.6706
B( 18-C , 70-H ) :   0.9594 B( 19-C , 20-C ) :   1.0987 B( 19-C , 71-H ) :   0.9792
B( 20-C , 21-C ) :   1.6822 B( 20-C , 72-H ) :   0.9924 B( 21-C , 22-C ) :   1.0980
B( 21-C , 73-H ) :   0.9750 B( 22-C , 23-C ) :   1.7650 B( 22-C , 74-H ) :   0.9734
B( 23-C , 24-C ) :   1.0671 B( 23-C , 25-C ) :   1.0577 B( 24-C , 75-H ) :   0.9334
B( 24-C , 76-H ) :   0.9465 B( 24-C , 77-H ) :   0.9243 B( 25-C , 26-N ) :   0.9885
B( 25-C , 78-H ) :   0.9365 B( 25-C , 79-H ) :   0.9263 B( 26-N , 27-C ) :   1.2974
B( 26-N , 80-H ) :   0.9162 B( 27-C , 28-C ) :   1.5529 B( 27-C , 81-H ) :   0.9612
B( 28-C , 29-C ) :   1.1962 B( 28-C , 82-H ) :   0.9293 B( 29-C , 30-S ) :   1.1669
B( 29-C , 34-C ) :   1.3696 B( 30-S , 31-C ) :   1.0849 B( 31-C , 32-C ) :   1.6510
B( 31-C , 83-H ) :   0.9659 B( 32-C , 33-C ) :   1.0977 B( 32-C , 34-C ) :   1.1860
B( 33-C , 84-H ) :   0.9502 B( 33-C , 85-H ) :   0.9416 B( 33-C , 86-H ) :   0.9427
B( 34-C , 35-C ) :   1.1522 B( 35-C , 36-C ) :   1.5604 B( 35-C , 87-H ) :   0.9597
B( 36-C , 37-C ) :   1.1957 B( 36-C , 88-H ) :   0.9853 B( 37-C , 38-C ) :   1.4559
B( 37-C , 89-H ) :   0.9921 B( 38-C , 39-C ) :   1.2358 B( 38-C , 90-H ) :   0.9899
B( 39-C , 40-C ) :   1.4504 B( 39-C , 91-H ) :   0.9571 B( 40-C , 41-C ) :   1.0991
B( 40-C , 49-C ) :   0.9777 B( 41-C , 42-C ) :   1.5943 B( 41-C , 47-C ) :   0.9910
B( 42-C , 43-C ) :   1.1486 B( 42-C , 45-C ) :   1.1514 B( 43-C , 44-N ) :   2.9630
B( 45-C , 46-N ) :   2.9552 B( 47-C , 48-C ) :   1.2767 B( 47-C , 54-C ) :   1.4194
B( 48-C , 49-C ) :   0.9417 B( 48-C , 51-C ) :   1.4286 B( 49-C , 50-O ) :   2.1314
B( 51-C , 52-C ) :   1.2421 B( 51-C , 92-H ) :   1.0143 B( 52-C , 53-C ) :   1.3143
B( 52-C , 57-C ) :   1.1604 B( 53-C , 54-C ) :   1.3235 B( 53-C , 55-S ) :   1.0839
B( 54-C , 93-H ) :   0.9779 B( 55-S , 56-C ) :   1.0857 B( 56-C , 57-C ) :   1.6223
B( 56-C , 58-Br) :   1.0136 B( 57-C , 94-H ) :   0.9992

-----------------------------------------------------------------------------
         ABSORPTION SPECTRUM VIA TRANSITION ELECTRIC DIPOLE MOMENTS
-----------------------------------------------------------------------------
State   Energy  Wavelength   fosc         T2         TX        TY        TZ
        (cm-1)    (nm)                  (au**2)     (au)      (au)      (au)
-----------------------------------------------------------------------------
   0   14793.2    676.0   0.577681758  12.85592  -1.95655  -2.44262   1.74970
   1   16909.0    591.4   0.329988832   6.42476   2.36929   0.83612   0.33489
   2   18143.7    551.2   0.026054156   0.47275   0.63990   0.24743  -0.04525
   3   20195.5    495.2   0.220993269   3.60246   1.89713   0.02596   0.05188
   4   21422.1    466.8   0.222591757   3.42077   1.80921  -0.33982  -0.17903
   5   22893.1    436.8   0.263352102   3.78710  -1.69347  -0.95861  -0.01792
   6   23356.7    428.1   0.018969453   0.26737   0.51331  -0.02972  -0.05476
   7   24571.4    407.0   0.386347050   5.17634  -2.04557  -0.97966   0.17958
   8   25577.9    391.0   0.083661498   1.07680  -1.00199   0.26970   0.00855
   9   26895.5    371.8   0.556485110   6.81161  -2.39818   1.01403   0.17916
  10   28032.6    356.7   0.298257987   3.50271  -1.82539   0.38086   0.16005
  11   29347.8    340.7   0.003660229   0.04106   0.15568  -0.02407   0.12745
  12   29589.5    338.0   0.304068278   3.38306  -1.77815   0.25686  -0.39405
  13   29832.1    335.2   0.419418562   4.62849  -1.98070   0.25465  -0.80029
  14   30114.4    332.1   0.078122359   0.85404  -0.86105   0.32103  -0.09778
  15   30383.1    329.1   0.009947962   0.10779  -0.31062  -0.10503  -0.01655
  16   30498.1    327.9   0.085289241   0.92066  -0.91882   0.08604   0.26271
  17   30767.8    325.0   0.045975547   0.49193   0.02190  -0.09581  -0.69446
  18   31480.2    317.7   0.028449293   0.29752   0.00452   0.16020   0.52137
  19   31941.2    313.1   0.026598773   0.27415   0.50168  -0.14824  -0.02221
  20   32114.7    311.4   0.040502778   0.41520   0.51189  -0.32280  -0.22130
  21   32305.4    309.5   0.003349202   0.03413   0.15348  -0.07878   0.06608
  22   32527.0    307.4   0.204467184   2.06945   0.87255  -0.78286  -0.83382
  23   33412.2    299.3   0.707349076   6.96955   2.29730  -1.21819   0.45604
  24   34165.0    292.7   0.018408846   0.17739  -0.39398   0.14186   0.04524
  25   34424.4    290.5   0.064894232   0.62061  -0.75691   0.20669  -0.07055
  26   34543.8    289.5   0.530453234   5.05536  -1.79488   1.03530  -0.87288
  27   34924.6    286.3   0.025630350   0.24160  -0.39141   0.28079  -0.09776
  28   35193.6    284.1   0.074623500   0.69805  -0.69228   0.28782  -0.36872
  29   36526.1    273.8   0.076895148   0.69306   0.67563  -0.07174   0.48109
  30   36724.3    272.3   0.001258119   0.01128   0.09272   0.01070   0.05067
  31   36825.8    271.5   0.057444787   0.51354  -0.58362   0.40319  -0.10180
  32   37083.4    269.7   0.152748876   1.35605   0.95233  -0.03332   0.66932
  33   37133.9    269.3   0.090153546   0.79926   0.73811   0.42818   0.26668
  34   37763.1    264.8   0.131342374   1.14502   0.71633   0.74179  -0.28574
  35   37980.9    263.3   0.100551386   0.87156  -0.42909   0.79376   0.23956
  36   38194.0    261.8   0.023438721   0.20203  -0.27753  -0.21866   0.27784
  37   38601.5    259.1   0.243531187   2.07695  -0.65166  -1.14533   0.58354
  38   38973.8    256.6   0.135856414   1.14758  -1.04568   0.17735  -0.15060
  39   39125.7    255.6   0.103244683   0.86872   0.29471   0.86759   0.17075
  40   39624.9    252.4   0.209749753   1.74265   0.64703  -0.40988   1.07518

FINAL SINGLE POINT ENERGY     -6689.768894262816

DIPOLE MOMENT
-------------
                                X             Y             Z
Electronic contribution:   -133.36005     -61.22233      56.80428
Nuclear contribution   :    133.78175      64.24557     -58.16049
                        -----------------------------------------
Total Dipole Moment    :      0.42169       3.02324      -1.35621
                        -----------------------------------------
Magnitude (a.u.)       :      3.34023
Magnitude (Debye)      :      8.49019

Rotational constants in cm-1:     0.000859     0.000729     0.000418
Rotational constants in MHz :    25.740713    21.840535    12.541835

                             ****ORCA TERMINATED NORMALLY****
TOTAL RUN TIME: 0 days 0 hours 8 minutes 46 seconds 782 msec
