                         Program Version 4.2.0 -  RELEASE  -
|  1> # ORCA input file
|  2> # SCF done       -186.282903525354          0.000408973624
|  3> ! CAM-B3LYP def2-SVP def2/J RIJCOSX Grid4 TightSCF
|  4> %maxcore 5000
|  5> %tddft
|  6>     Mode sTDDFT
|  7>     Ethresh 5.0
|  8>     maxcore 5000
|  9> end
| 10>
| 11> %pal
| 12>   nprocs 6
| 13>   end
| 14> * xyz 0 1
| 15>    C       13.44594       -11.34333         1.62617
| 16>    C       13.28115       -10.41638         0.67376
| 17>    C       14.28612        -9.84748        -0.17998
| 18>    C       13.82312        -8.92924        -1.05407
| 19>    C       12.42069        -8.69062        -0.97063
| 20>    S       11.71146        -9.69571         0.28224
| 21>    C       11.67766        -7.82138        -1.72484
| 22>    C       12.13137        -6.96297        -2.76328
| 23>    C       11.15545        -6.21367        -3.32486
| 24>    C        9.84938        -6.41841        -2.77837
| 25>    S        9.94906        -7.62129        -1.49223
| 26>    C        8.72528        -5.81454        -3.24438
| 27>    C        7.37267        -5.92614        -2.75966
| 28>    C        7.10964        -6.22797        -1.41279
| 29>    C        5.83505        -6.26217        -0.89232
| 30>    C        4.73626        -5.99268        -1.69918
| 31>    C        4.96029        -5.70640        -3.02598
| 32>    C        6.25089        -5.68230        -3.56608
| 33>    N        6.16258        -5.41606        -4.93214
| 34>    C        7.20702        -5.49046        -5.91969
| 35>    C        4.86504        -5.24903        -5.32874
| 36>    O        4.51573        -5.04020        -6.47008
| 37>    C        3.97052        -5.41531        -4.10754
| 38>    C        2.99036        -6.57834        -4.37096
| 39>    C        3.76944        -7.74020        -4.99676
| 40>    O        4.70783        -8.33183        -4.51313
| 41>    N        3.24055        -7.97965        -6.23074
| 42>    C        3.78070        -8.94421        -7.15018
| 43>    C        2.19971        -7.10979        -6.51758
| 44>    C        1.43958        -7.02097        -7.66097
| 45>    C        0.44115        -6.03570        -7.73110
| 46>    C        0.23225        -5.19088        -6.63472
| 47>    C        0.99880        -5.29627        -5.48609
| 48>    C        1.98574        -6.25593        -5.42856
| 49>    C       -0.32260        -5.93628        -8.94889
| 50>    C       -1.21636        -4.97988        -9.28245
| 51>    C       -1.90003        -4.95599       -10.52282
| 52>    S       -1.69387        -6.20413       -11.73276
| 53>    C       -2.78998        -5.44780       -12.86807
| 54>    C       -3.28969        -4.26226       -12.29879
| 55>    C       -2.78755        -4.00861       -10.99849
| 56>    S       -3.41422        -2.54086       -10.31955
| 57>    C       -4.35442        -2.24930       -11.77304
| 58>    C       -5.16208        -1.03182       -11.78486
| 59>    O       -5.16155        -0.29220       -10.82392
| 60>    C       -5.96523        -0.77107       -13.03966
| 61>    C       -6.75575         0.52514       -12.93842
| 62>    C       -4.17423        -3.24279       -12.70350
| 63>    F       -4.78127        -3.25484       -13.90108
| 64>    C       -3.08690        -5.97149       -14.12310
| 65>    C       -2.59082        -7.13820       -14.66449
| 66>    C       -2.89051        -7.66602       -15.94218
| 67>    C       -2.25984        -8.84073       -16.22910
| 68>    C       -1.42782        -9.30542       -15.18829
| 69>    S       -1.47305        -8.19533       -13.83305
| 70>    C       -0.65052       -10.44448       -15.13104
| 71>    C       -0.46817       -11.45313       -16.10419
| 72>    C        0.37648       -12.44577       -15.71889
| 73>    C        0.91929       -12.29065       -14.41025
| 74>    S        0.29426       -10.80763       -13.70325
| 75>    C        1.78451       -13.15934       -13.81414
| 76>    C        2.36526       -13.08438       -12.51282
| 77>    C        3.24374       -14.03871       -12.04979
| 78>    F        3.65351       -15.11104       -12.73016
| 79>    S        3.83802       -13.77921       -10.44842
| 80>    C        2.87325       -12.33529       -10.38850
| 81>    F        2.88995       -11.58872        -9.28466
| 82>    C        2.16365       -12.08557       -11.50644
| 83>    H       14.41910       -11.75422         1.82958
| 84>    H       12.62157       -11.70419         2.21327
| 85>    H       15.31324       -10.15632        -0.09693
| 86>    H       14.43731        -8.40524        -1.76513
| 87>    H       13.16437        -6.93443        -3.06098
| 88>    H       11.31314        -5.51138        -4.12519
| 89>    H        8.88226        -5.14603        -4.07771
| 90>    H        7.94453        -6.40171        -0.75350
| 91>    H        5.69200        -6.49220         0.15217
| 92>    H        3.73479        -6.00995        -1.29668
| 93>    H        7.82209        -6.37509        -5.75467
| 94>    H        7.82882        -4.59241        -5.91465
| 95>    H        6.71570        -5.56059        -6.89189
| 96>    H        3.39765        -4.50267        -3.92025
| 97>    H        2.53723        -6.88406        -3.42423
| 98>    H        4.60372        -9.45012        -6.64713
| 99>    H        4.15265        -8.44497        -8.04704
|100>    H        3.02303        -9.67623        -7.43326
|101>    H        1.61145        -7.67719        -8.50000
|102>    H       -0.54069        -4.44070        -6.68064
|103>    H        0.82420        -4.63149        -4.65299
|104>    H       -0.12935        -6.71253        -9.68084
|105>    H       -1.44868        -4.15836        -8.61938
|106>    H       -6.63587        -1.61880       -13.20192
|107>    H       -5.27784        -0.73683       -13.88881
|108>    H       -7.44584         0.47936       -12.09976
|109>    H       -7.31936         0.69829       -13.85156
|110>    H       -6.08264         1.36270       -12.77362
|111>    H       -3.77713        -5.40331       -14.73252
|112>    H       -3.56390        -7.15897       -16.61066
|113>    H       -2.37239        -9.37954       -17.15273
|114>    H       -0.96448       -11.41470       -17.05737
|115>    H        0.63522       -13.29474       -16.32650
|116>    H        2.07588       -14.02399       -14.39620
|117>    H        1.52213       -11.23282       -11.61437
|118> *
|119>
|120>                          ****END OF INPUT****

CARTESIAN COORDINATES (ANGSTROEM)
---------------------------------
  C     13.445940  -11.343330    1.626170
  C     13.281150  -10.416380    0.673760
  C     14.286120   -9.847480   -0.179980
  C     13.823120   -8.929240   -1.054070
  C     12.420690   -8.690620   -0.970630
  S     11.711460   -9.695710    0.282240
  C     11.677660   -7.821380   -1.724840
  C     12.131370   -6.962970   -2.763280
  C     11.155450   -6.213670   -3.324860
  C      9.849380   -6.418410   -2.778370
  S      9.949060   -7.621290   -1.492230
  C      8.725280   -5.814540   -3.244380
  C      7.372670   -5.926140   -2.759660
  C      7.109640   -6.227970   -1.412790
  C      5.835050   -6.262170   -0.892320
  C      4.736260   -5.992680   -1.699180
  C      4.960290   -5.706400   -3.025980
  C      6.250890   -5.682300   -3.566080
  N      6.162580   -5.416060   -4.932140
  C      7.207020   -5.490460   -5.919690
  C      4.865040   -5.249030   -5.328740
  O      4.515730   -5.040200   -6.470080
  C      3.970520   -5.415310   -4.107540
  C      2.990360   -6.578340   -4.370960
  C      3.769440   -7.740200   -4.996760
  O      4.707830   -8.331830   -4.513130
  N      3.240550   -7.979650   -6.230740
  C      3.780700   -8.944210   -7.150180
  C      2.199710   -7.109790   -6.517580
  C      1.439580   -7.020970   -7.660970
  C      0.441150   -6.035700   -7.731100
  C      0.232250   -5.190880   -6.634720
  C      0.998800   -5.296270   -5.486090
  C      1.985740   -6.255930   -5.428560
  C     -0.322600   -5.936280   -8.948890
  C     -1.216360   -4.979880   -9.282450
  C     -1.900030   -4.955990  -10.522820
  S     -1.693870   -6.204130  -11.732760
  C     -2.789980   -5.447800  -12.868070
  C     -3.289690   -4.262260  -12.298790
  C     -2.787550   -4.008610  -10.998490
  S     -3.414220   -2.540860  -10.319550
  C     -4.354420   -2.249300  -11.773040
  C     -5.162080   -1.031820  -11.784860
  O     -5.161550   -0.292200  -10.823920
  C     -5.965230   -0.771070  -13.039660
  C     -6.755750    0.525140  -12.938420
  C     -4.174230   -3.242790  -12.703500
  F     -4.781270   -3.254840  -13.901080
  C     -3.086900   -5.971490  -14.123100
  C     -2.590820   -7.138200  -14.664490
  C     -2.890510   -7.666020  -15.942180
  C     -2.259840   -8.840730  -16.229100
  C     -1.427820   -9.305420  -15.188290
  S     -1.473050   -8.195330  -13.833050
  C     -0.650520  -10.444480  -15.131040
  C     -0.468170  -11.453130  -16.104190
  C      0.376480  -12.445770  -15.718890
  C      0.919290  -12.290650  -14.410250
  S      0.294260  -10.807630  -13.703250
  C      1.784510  -13.159340  -13.814140
  C      2.365260  -13.084380  -12.512820
  C      3.243740  -14.038710  -12.049790
  F      3.653510  -15.111040  -12.730160
  S      3.838020  -13.779210  -10.448420
  C      2.873250  -12.335290  -10.388500
  F      2.889950  -11.588720   -9.284660
  C      2.163650  -12.085570  -11.506440
  H     14.419100  -11.754220    1.829580
  H     12.621570  -11.704190    2.213270
  H     15.313240  -10.156320   -0.096930
  H     14.437310   -8.405240   -1.765130
  H     13.164370   -6.934430   -3.060980
  H     11.313140   -5.511380   -4.125190
  H      8.882260   -5.146030   -4.077710
  H      7.944530   -6.401710   -0.753500
  H      5.692000   -6.492200    0.152170
  H      3.734790   -6.009950   -1.296680
  H      7.822090   -6.375090   -5.754670
  H      7.828820   -4.592410   -5.914650
  H      6.715700   -5.560590   -6.891890
  H      3.397650   -4.502670   -3.920250
  H      2.537230   -6.884060   -3.424230
  H      4.603720   -9.450120   -6.647130
  H      4.152650   -8.444970   -8.047040
  H      3.023030   -9.676230   -7.433260
  H      1.611450   -7.677190   -8.500000
  H     -0.540690   -4.440700   -6.680640
  H      0.824200   -4.631490   -4.652990
  H     -0.129350   -6.712530   -9.680840
  H     -1.448680   -4.158360   -8.619380
  H     -6.635870   -1.618800  -13.201920
  H     -5.277840   -0.736830  -13.888810
  H     -7.445840    0.479360  -12.099760
  H     -7.319360    0.698290  -13.851560
  H     -6.082640    1.362700  -12.773620
  H     -3.777130   -5.403310  -14.732520
  H     -3.563900   -7.158970  -16.610660
  H     -2.372390   -9.379540  -17.152730
  H     -0.964480  -11.414700  -17.057370
  H      0.635220  -13.294740  -16.326500
  H      2.075880  -14.023990  -14.396200
  H      1.522130  -11.232820  -11.614370

 Total Charge           Charge          ....    0
 Multiplicity           Mult            ....    1
 Number of Electrons    NEL             ....  530
 Basis Dimension        Dim             .... 1155

ORBITAL ENERGIES
----------------

  NO   OCC          E(Eh)            E(eV)
   0   2.0000     -88.980876     -2421.2927
   1   2.0000     -88.960935     -2420.7501
   2   2.0000     -88.950273     -2420.4600
   3   2.0000     -88.949799     -2420.4471
   4   2.0000     -88.948000     -2420.3981
   5   2.0000     -88.934045     -2420.0184
   6   2.0000     -88.929193     -2419.8864
   7   2.0000     -24.808758      -675.0806
   8   2.0000     -24.807549      -675.0477
   9   2.0000     -24.803559      -674.9392
  10   2.0000     -19.197656      -522.3948
  11   2.0000     -19.182519      -521.9829
  12   2.0000     -19.179898      -521.9115
  13   2.0000     -14.445240      -393.0750
  14   2.0000     -14.441059      -392.9612
  15   2.0000     -10.385934      -282.6156
  16   2.0000     -10.385224      -282.5963
  17   2.0000     -10.373665      -282.2818
  18   2.0000     -10.364018      -282.0193
  19   2.0000     -10.363235      -281.9980
  20   2.0000     -10.353124      -281.7228
  21   2.0000     -10.316364      -280.7225
  22   2.0000     -10.314835      -280.6809
  23   2.0000     -10.313451      -280.6433
  24   2.0000     -10.311933      -280.6020
  25   2.0000     -10.310822      -280.5717
  26   2.0000     -10.305949      -280.4391
  27   2.0000     -10.302463      -280.3443
  28   2.0000     -10.301605      -280.3209
  29   2.0000     -10.301433      -280.3162
  30   2.0000     -10.300361      -280.2871
  31   2.0000     -10.299562      -280.2653
  32   2.0000     -10.298493      -280.2362
  33   2.0000     -10.298477      -280.2358
  34   2.0000     -10.298325      -280.2317
  35   2.0000     -10.297111      -280.1986
  36   2.0000     -10.296215      -280.1742
  37   2.0000     -10.294280      -280.1216
  38   2.0000     -10.292047      -280.0608
  39   2.0000     -10.291578      -280.0481
  40   2.0000     -10.290970      -280.0315
  41   2.0000     -10.289516      -279.9920
  42   2.0000     -10.288191      -279.9559
  43   2.0000     -10.287636      -279.9408
  44   2.0000     -10.287541      -279.9382
  45   2.0000     -10.287167      -279.9280
  46   2.0000     -10.286991      -279.9233
  47   2.0000     -10.286785      -279.9177
  48   2.0000     -10.282362      -279.7973
  49   2.0000     -10.279401      -279.7167
  50   2.0000     -10.277519      -279.6655
  51   2.0000     -10.277324      -279.6602
  52   2.0000     -10.276877      -279.6480
  53   2.0000     -10.274451      -279.5820
  54   2.0000     -10.273070      -279.5444
  55   2.0000     -10.272108      -279.5183
  56   2.0000     -10.270809      -279.4829
  57   2.0000     -10.267138      -279.3830
  58   2.0000     -10.264867      -279.3212
  59   2.0000     -10.264819      -279.3199
  60   2.0000     -10.264163      -279.3021
  61   2.0000     -10.264007      -279.2978
  62   2.0000     -10.263019      -279.2709
  63   2.0000     -10.261364      -279.2259
  64   2.0000     -10.259312      -279.1701
  65   2.0000     -10.258298      -279.1425
  66   2.0000     -10.255528      -279.0671
  67   2.0000     -10.245854      -278.8038
  68   2.0000      -8.077980      -219.8130
  69   2.0000      -8.055325      -219.1965
  70   2.0000      -8.046465      -218.9554
  71   2.0000      -8.045846      -218.9386
  72   2.0000      -8.042981      -218.8606
  73   2.0000      -8.029931      -218.5055
  74   2.0000      -8.025902      -218.3959
  75   2.0000      -6.047193      -164.5525
  76   2.0000      -6.043573      -164.4540
  77   2.0000      -6.039332      -164.3386
  78   2.0000      -6.024621      -163.9383
  79   2.0000      -6.020540      -163.8272
  80   2.0000      -6.017495      -163.7444
  81   2.0000      -6.016260      -163.7108
  82   2.0000      -6.015607      -163.6930
  83   2.0000      -6.012885      -163.6189
  84   2.0000      -6.012209      -163.6005
  85   2.0000      -6.011420      -163.5790
  86   2.0000      -6.008793      -163.5076
  87   2.0000      -6.007258      -163.4658
  88   2.0000      -6.006849      -163.4547
  89   2.0000      -6.003745      -163.3702
  90   2.0000      -5.999774      -163.2622
  91   2.0000      -5.995755      -163.1528
  92   2.0000      -5.995739      -163.1524
  93   2.0000      -5.991856      -163.0467
  94   2.0000      -5.990635      -163.0135
  95   2.0000      -5.986355      -162.8970
  96   2.0000      -1.323387       -36.0112
  97   2.0000      -1.322717       -35.9930
  98   2.0000      -1.315083       -35.7852
  99   2.0000      -1.129723       -30.7413
 100   2.0000      -1.119946       -30.4753
 101   2.0000      -1.116641       -30.3854
 102   2.0000      -1.049044       -28.5459
 103   2.0000      -1.044853       -28.4319
 104   2.0000      -1.008477       -27.4420
 105   2.0000      -1.001811       -27.2607
 106   2.0000      -0.996562       -27.1178
 107   2.0000      -0.982910       -26.7463
 108   2.0000      -0.976945       -26.5840
 109   2.0000      -0.960510       -26.1368
 110   2.0000      -0.948548       -25.8113
 111   2.0000      -0.944840       -25.7104
 112   2.0000      -0.938657       -25.5422
 113   2.0000      -0.918380       -24.9904
 114   2.0000      -0.907247       -24.6874
 115   2.0000      -0.897704       -24.4278
 116   2.0000      -0.885759       -24.1027
 117   2.0000      -0.874319       -23.7914
 118   2.0000      -0.866011       -23.5653
 119   2.0000      -0.863142       -23.4873
 120   2.0000      -0.853625       -23.2283
 121   2.0000      -0.850156       -23.1339
 122   2.0000      -0.843747       -22.9595
 123   2.0000      -0.838843       -22.8261
 124   2.0000      -0.836557       -22.7639
 125   2.0000      -0.831297       -22.6208
 126   2.0000      -0.830795       -22.6071
 127   2.0000      -0.823813       -22.4171
 128   2.0000      -0.821780       -22.3618
 129   2.0000      -0.820211       -22.3191
 130   2.0000      -0.810740       -22.0614
 131   2.0000      -0.804594       -21.8941
 132   2.0000      -0.796822       -21.6826
 133   2.0000      -0.790826       -21.5195
 134   2.0000      -0.789477       -21.4828
 135   2.0000      -0.767420       -20.8826
 136   2.0000      -0.760588       -20.6967
 137   2.0000      -0.747735       -20.3469
 138   2.0000      -0.746081       -20.3019
 139   2.0000      -0.727117       -19.7859
 140   2.0000      -0.714630       -19.4461
 141   2.0000      -0.704357       -19.1665
 142   2.0000      -0.697283       -18.9740
 143   2.0000      -0.695660       -18.9299
 144   2.0000      -0.690694       -18.7947
 145   2.0000      -0.685603       -18.6562
 146   2.0000      -0.682235       -18.5646
 147   2.0000      -0.680252       -18.5106
 148   2.0000      -0.677898       -18.4465
 149   2.0000      -0.670418       -18.2430
 150   2.0000      -0.662290       -18.0218
 151   2.0000      -0.660045       -17.9607
 152   2.0000      -0.647516       -17.6198
 153   2.0000      -0.644152       -17.5283
 154   2.0000      -0.641090       -17.4449
 155   2.0000      -0.631385       -17.1809
 156   2.0000      -0.628469       -17.1015
 157   2.0000      -0.621584       -16.9142
 158   2.0000      -0.619044       -16.8451
 159   2.0000      -0.612935       -16.6788
 160   2.0000      -0.610830       -16.6215
 161   2.0000      -0.608050       -16.5459
 162   2.0000      -0.602028       -16.3820
 163   2.0000      -0.599230       -16.3059
 164   2.0000      -0.595002       -16.1908
 165   2.0000      -0.590955       -16.0807
 166   2.0000      -0.590170       -16.0594
 167   2.0000      -0.586986       -15.9727
 168   2.0000      -0.582923       -15.8621
 169   2.0000      -0.581833       -15.8325
 170   2.0000      -0.579494       -15.7688
 171   2.0000      -0.573469       -15.6049
 172   2.0000      -0.568549       -15.4710
 173   2.0000      -0.567712       -15.4482
 174   2.0000      -0.566278       -15.4092
 175   2.0000      -0.560803       -15.2602
 176   2.0000      -0.559218       -15.2171
 177   2.0000      -0.553003       -15.0480
 178   2.0000      -0.545254       -14.8371
 179   2.0000      -0.543867       -14.7994
 180   2.0000      -0.542860       -14.7720
 181   2.0000      -0.536088       -14.5877
 182   2.0000      -0.535652       -14.5758
 183   2.0000      -0.533341       -14.5129
 184   2.0000      -0.528218       -14.3736
 185   2.0000      -0.526728       -14.3330
 186   2.0000      -0.522740       -14.2245
 187   2.0000      -0.517368       -14.0783
 188   2.0000      -0.514709       -14.0059
 189   2.0000      -0.512782       -13.9535
 190   2.0000      -0.509176       -13.8554
 191   2.0000      -0.507204       -13.8017
 192   2.0000      -0.505232       -13.7481
 193   2.0000      -0.503741       -13.7075
 194   2.0000      -0.501729       -13.6527
 195   2.0000      -0.500082       -13.6079
 196   2.0000      -0.496897       -13.5212
 197   2.0000      -0.496348       -13.5063
 198   2.0000      -0.494123       -13.4458
 199   2.0000      -0.493913       -13.4401
 200   2.0000      -0.491542       -13.3755
 201   2.0000      -0.488878       -13.3030
 202   2.0000      -0.485602       -13.2139
 203   2.0000      -0.483558       -13.1583
 204   2.0000      -0.478439       -13.0190
 205   2.0000      -0.475802       -12.9472
 206   2.0000      -0.474064       -12.8999
 207   2.0000      -0.473686       -12.8897
 208   2.0000      -0.468272       -12.7423
 209   2.0000      -0.466419       -12.6919
 210   2.0000      -0.466046       -12.6817
 211   2.0000      -0.464811       -12.6482
 212   2.0000      -0.461676       -12.5628
 213   2.0000      -0.461060       -12.5461
 214   2.0000      -0.458780       -12.4840
 215   2.0000      -0.457384       -12.4460
 216   2.0000      -0.454981       -12.3807
 217   2.0000      -0.452900       -12.3240
 218   2.0000      -0.450879       -12.2690
 219   2.0000      -0.448989       -12.2176
 220   2.0000      -0.447176       -12.1683
 221   2.0000      -0.444734       -12.1018
 222   2.0000      -0.442585       -12.0434
 223   2.0000      -0.439829       -11.9684
 224   2.0000      -0.436180       -11.8691
 225   2.0000      -0.435176       -11.8417
 226   2.0000      -0.434267       -11.8170
 227   2.0000      -0.429829       -11.6962
 228   2.0000      -0.427546       -11.6341
 229   2.0000      -0.424441       -11.5496
 230   2.0000      -0.422808       -11.5052
 231   2.0000      -0.417574       -11.3628
 232   2.0000      -0.417203       -11.3527
 233   2.0000      -0.414186       -11.2706
 234   2.0000      -0.413010       -11.2386
 235   2.0000      -0.411528       -11.1982
 236   2.0000      -0.407275       -11.0825
 237   2.0000      -0.406302       -11.0560
 238   2.0000      -0.403877       -10.9900
 239   2.0000      -0.390621       -10.6293
 240   2.0000      -0.385375       -10.4866
 241   2.0000      -0.382808       -10.4167
 242   2.0000      -0.381594       -10.3837
 243   2.0000      -0.376243       -10.2381
 244   2.0000      -0.365843        -9.9551
 245   2.0000      -0.354264        -9.6400
 246   2.0000      -0.342680        -9.3248
 247   2.0000      -0.340131        -9.2554
 248   2.0000      -0.339831        -9.2473
 249   2.0000      -0.330192        -8.9850
 250   2.0000      -0.329584        -8.9684
 251   2.0000      -0.328452        -8.9376
 252   2.0000      -0.324152        -8.8206
 253   2.0000      -0.322984        -8.7888
 254   2.0000      -0.321499        -8.7484
 255   2.0000      -0.313803        -8.5390
 256   2.0000      -0.306992        -8.3537
 257   2.0000      -0.303427        -8.2567
 258   2.0000      -0.295359        -8.0371
 259   2.0000      -0.290410        -7.9025
 260   2.0000      -0.270570        -7.3626
 261   2.0000      -0.268039        -7.2937
 262   2.0000      -0.250461        -6.8154
 263   2.0000      -0.213402        -5.8070
 264   2.0000      -0.204763        -5.5719
 265   0.0000      -0.088438        -2.4065
 266   0.0000      -0.051994        -1.4148
 267   0.0000      -0.031954        -0.8695
 268   0.0000      -0.015509        -0.4220
 269   0.0000       0.008685         0.2363

MULLIKEN ATOMIC CHARGES
-----------------------
   0 C :   -0.033471
   1 C :   -0.062539
   2 C :    0.050501
   3 C :    0.029263
   4 C :   -0.071350
   5 S :    0.075628
   6 C :   -0.054411
   7 C :    0.034603
   8 C :    0.027910
   9 C :   -0.019068
  10 S :    0.078823
  11 C :   -0.083085
  12 C :    0.046814
  13 C :   -0.046609
  14 C :    0.037356
  15 C :   -0.052564
  16 C :    0.014368
  17 C :    0.167530
  18 N :   -0.235763
  19 C :    0.116030
  20 C :    0.094409
  21 O :   -0.202575
  22 C :    0.035277
  23 C :    0.026606
  24 C :    0.095518
  25 O :   -0.198998
  26 N :   -0.221786
  27 C :    0.124818
  28 C :    0.240628
  29 C :   -0.165155
  30 C :    0.141864
  31 C :   -0.025361
  32 C :   -0.035108
  33 C :    0.009677
  34 C :   -0.017630
  35 C :    0.017201
  36 C :   -0.115761
  37 S :    0.096759
  38 C :   -0.077376
  39 C :    0.091027
  40 C :   -0.018028
  41 S :    0.169018
  42 C :   -0.183243
  43 C :    0.026014
  44 O :   -0.185550
  45 C :   -0.035247
  46 C :    0.053970
  47 C :    0.212996
  48 F :   -0.179362
  49 C :   -0.033049
  50 C :   -0.026156
  51 C :    0.027350
  52 C :    0.032752
  53 C :   -0.035312
  54 S :    0.057620
  55 C :   -0.030879
  56 C :    0.030648
  57 C :    0.039160
  58 C :   -0.014352
  59 S :    0.044804
  60 C :   -0.018106
  61 C :    0.033348
  62 C :    0.065847
  63 F :   -0.162746
  64 S :    0.103559
  65 C :    0.121038
  66 F :   -0.161476
  67 C :    0.002275
  68 H :    0.016219
  69 H :    0.020130
  70 H :   -0.014593
  71 H :   -0.013863
  72 H :   -0.017567
  73 H :   -0.015889
  74 H :   -0.025313
  75 H :   -0.013471
  76 H :   -0.022034
  77 H :   -0.036064
  78 H :    0.048854
  79 H :    0.038618
  80 H :    0.048075
  81 H :    0.041772
  82 H :    0.039552
  83 H :    0.050703
  84 H :    0.033586
  85 H :    0.028268
  86 H :   -0.047389
  87 H :   -0.031177
  88 H :   -0.036251
  89 H :   -0.016122
  90 H :   -0.011624
  91 H :    0.031709
  92 H :    0.032175
  93 H :    0.019598
  94 H :    0.003778
  95 H :    0.019464
  96 H :   -0.007584
  97 H :   -0.009831
  98 H :   -0.014248
  99 H :   -0.011895
 100 H :   -0.009219
 101 H :   -0.008162
 102 H :    0.018900
Sum of atomic charges:   -0.0000000

LOEWDIN ATOMIC CHARGES
----------------------
   0 C :   -0.082441
   1 C :   -0.138848
   2 C :   -0.034345
   3 C :   -0.026556
   4 C :   -0.180639
   5 S :    0.345980
   6 C :   -0.181079
   7 C :   -0.036120
   8 C :   -0.032043
   9 C :   -0.143819
  10 S :    0.373046
  11 C :   -0.056749
  12 C :   -0.054627
  13 C :   -0.015064
  14 C :   -0.033361
  15 C :   -0.016461
  16 C :   -0.034704
  17 C :    0.048646
  18 N :   -0.007333
  19 C :    0.030382
  20 C :    0.074437
  21 O :   -0.195430
  22 C :   -0.021203
  23 C :   -0.020821
  24 C :    0.072458
  25 O :   -0.196322
  26 N :   -0.005963
  27 C :    0.032912
  28 C :    0.042384
  29 C :   -0.050760
  30 C :   -0.014063
  31 C :   -0.028705
  32 C :   -0.013129
  33 C :   -0.035655
  34 C :   -0.020727
  35 C :   -0.039549
  36 C :   -0.192120
  37 S :    0.447377
  38 C :   -0.157953
  39 C :   -0.105706
  40 C :   -0.180858
  41 S :    0.427946
  42 C :   -0.240232
  43 C :    0.060361
  44 O :   -0.156237
  45 C :   -0.067420
  46 C :   -0.050628
  47 C :    0.073664
  48 F :   -0.047931
  49 C :   -0.076462
  50 C :   -0.150984
  51 C :   -0.033164
  52 C :   -0.035549
  53 C :   -0.182321
  54 S :    0.373226
  55 C :   -0.171089
  56 C :   -0.035097
  57 C :   -0.024779
  58 C :   -0.146316
  59 S :    0.375390
  60 C :   -0.046550
  61 C :   -0.097691
  62 C :   -0.082591
  63 F :   -0.052943
  64 S :    0.418150
  65 C :   -0.078251
  66 F :   -0.054298
  67 C :   -0.094017
  68 H :    0.027130
  69 H :    0.025475
  70 H :    0.032167
  71 H :    0.031256
  72 H :    0.030172
  73 H :    0.031107
  74 H :    0.030322
  75 H :    0.015962
  76 H :    0.027502
  77 H :    0.025058
  78 H :    0.032630
  79 H :    0.023069
  80 H :    0.036770
  81 H :    0.050161
  82 H :    0.048490
  83 H :    0.038578
  84 H :    0.027945
  85 H :    0.023872
  86 H :    0.025553
  87 H :    0.024040
  88 H :    0.026661
  89 H :    0.019449
  90 H :    0.031994
  91 H :    0.038549
  92 H :    0.038524
  93 H :    0.028736
  94 H :    0.022855
  95 H :    0.028771
  96 H :    0.039505
  97 H :    0.034516
  98 H :    0.031965
  99 H :    0.033370
 100 H :    0.034688
 101 H :    0.038075
 102 H :    0.026424

  Mayer bond orders larger than 0.100000
B(  0-C ,  1-C ) :   1.8665 B(  0-C , 68-H ) :   0.9509 B(  0-C , 69-H ) :   0.9417
B(  1-C ,  2-C ) :   1.0771 B(  1-C ,  5-S ) :   1.0085 B(  2-C ,  3-C ) :   1.6695
B(  2-C , 70-H ) :   0.9923 B(  3-C ,  4-C ) :   1.1453 B(  3-C , 71-H ) :   0.9911
B(  4-C ,  5-S ) :   1.0367 B(  4-C ,  6-C ) :   1.5835 B(  6-C ,  7-C ) :   1.1498
B(  6-C , 10-S ) :   1.0298 B(  7-C ,  8-C ) :   1.6370 B(  7-C , 72-H ) :   0.9919
B(  8-C ,  9-C ) :   1.1057 B(  8-C , 73-H ) :   0.9971 B(  9-C , 10-S ) :   1.0198
B(  9-C , 11-C ) :   1.6737 B( 11-C , 12-C ) :   1.0351 B( 11-C , 74-H ) :   0.9625
B( 12-C , 13-C ) :   1.3167 B( 12-C , 17-C ) :   1.3547 B( 13-C , 14-C ) :   1.4318
B( 13-C , 75-H ) :   0.9731 B( 14-C , 15-C ) :   1.3199 B( 14-C , 76-H ) :   0.9851
B( 15-C , 16-C ) :   1.4293 B( 15-C , 77-H ) :   1.0045 B( 16-C , 17-C ) :   1.3687
B( 16-C , 22-C ) :   0.9670 B( 17-C , 18-N ) :   1.0517 B( 18-N , 19-C ) :   0.9598
B( 18-N , 20-C ) :   1.1526 B( 19-C , 78-H ) :   0.9680 B( 19-C , 79-H ) :   0.9708
B( 19-C , 80-H ) :   0.9484 B( 20-C , 21-O ) :   2.1267 B( 20-C , 22-C ) :   0.9175
B( 22-C , 23-C ) :   1.0389 B( 22-C , 81-H ) :   0.8736 B( 23-C , 24-C ) :   0.9139
B( 23-C , 33-C ) :   0.9713 B( 23-C , 82-H ) :   0.8752 B( 24-C , 25-O ) :   2.1425
B( 24-C , 26-N ) :   1.1511 B( 26-N , 27-C ) :   0.9639 B( 26-N , 28-C ) :   1.0387
B( 27-C , 83-H ) :   0.9577 B( 27-C , 84-H ) :   0.9712 B( 27-C , 85-H ) :   0.9700
B( 28-C , 29-C ) :   1.3511 B( 28-C , 33-C ) :   1.3637 B( 29-C , 30-C ) :   1.2543
B( 29-C , 86-H ) :   1.0159 B( 30-C , 31-C ) :   1.3712 B( 30-C , 34-C ) :   1.0838
B( 31-C , 32-C ) :   1.3637 B( 31-C , 87-H ) :   0.9867 B( 32-C , 33-C ) :   1.4140
B( 32-C , 88-H ) :   0.9990 B( 34-C , 35-C ) :   1.6593 B( 34-C , 89-H ) :   0.9773
B( 35-C , 36-C ) :   1.1811 B( 35-C , 90-H ) :   0.9681 B( 36-C , 37-S ) :   1.0975
B( 36-C , 40-C ) :   1.4597 B( 37-S , 38-C ) :   1.0990 B( 38-C , 39-C ) :   1.3207
B( 38-C , 49-C ) :   1.2574 B( 39-C , 40-C ) :   1.2796 B( 39-C , 47-C ) :   1.1448
B( 40-C , 41-S ) :   1.0337 B( 41-S , 42-C ) :   1.0469 B( 42-C , 43-C ) :   0.9893
B( 42-C , 47-C ) :   1.5499 B( 43-C , 44-O ) :   2.1968 B( 43-C , 45-C ) :   1.0264
B( 45-C , 46-C ) :   1.1056 B( 45-C , 91-H ) :   0.9184 B( 45-C , 92-H ) :   0.9193
B( 46-C , 93-H ) :   0.9678 B( 46-C , 94-H ) :   0.9629 B( 46-C , 95-H ) :   0.9675
B( 47-C , 48-F ) :   1.1166 B( 49-C , 50-C ) :   1.5076 B( 49-C , 96-H ) :   0.9653
B( 50-C , 51-C ) :   1.1621 B( 50-C , 54-S ) :   1.0478 B( 51-C , 52-C ) :   1.5727
B( 51-C , 97-H ) :   1.0008 B( 52-C , 53-C ) :   1.1941 B( 52-C , 98-H ) :   0.9932
B( 53-C , 54-S ) :   1.0375 B( 53-C , 55-C ) :   1.5101 B( 55-C , 56-C ) :   1.1819
B( 55-C , 59-S ) :   1.0426 B( 56-C , 57-C ) :   1.6046 B( 56-C , 99-H ) :   0.9927
B( 57-C , 58-C ) :   1.1276 B( 57-C ,100-H ) :   0.9988 B( 58-C , 59-S ) :   1.0220
B( 58-C , 60-C ) :   1.6189 B( 60-C , 61-C ) :   1.1110 B( 60-C ,101-H ) :   0.9733
B( 61-C , 62-C ) :   1.4484 B( 61-C , 67-C ) :   1.1355 B( 62-C , 63-F ) :   1.1237
B( 62-C , 64-S ) :   1.1162 B( 64-S , 65-C ) :   1.1105 B( 65-C , 66-F ) :   1.1020
B( 65-C , 67-C ) :   1.5793 B( 67-C ,102-H ) :   0.9834

-----------------------------------------------------------------------------
         ABSORPTION SPECTRUM VIA TRANSITION ELECTRIC DIPOLE MOMENTS
-----------------------------------------------------------------------------
State   Energy  Wavelength   fosc         T2         TX        TY        TZ
        (cm-1)    (nm)                  (au**2)     (au)      (au)      (au)
-----------------------------------------------------------------------------
   0   12245.4    816.6   0.882379874  23.72243   1.38252  -4.07911  -2.27418
   1   20300.3    492.6   0.144791211   2.34809  -0.99894   0.83854  -0.80440
   2   20616.3    485.1   0.024130691   0.38533  -0.45271   0.32872  -0.26895
   3   21139.9    473.0   1.534297050  23.89366   3.48641  -2.64363   2.17942
   4   24111.1    414.7   0.732080669   9.99579  -1.96354   1.29148  -2.11480
   5   26216.1    381.4   0.546303216   6.86027   1.70811  -1.17336   1.60183
   6   26521.5    377.1   0.158111264   1.96264   0.94220  -0.66517   0.79527
   7   26743.7    373.9   0.153058298   1.88413  -0.78911   0.34777  -1.06794
   8   29390.9    340.2   0.049282206   0.55202  -0.24756   0.60044   0.36083
   9   30002.6    333.3   0.000214444   0.00235  -0.04091  -0.01984   0.01690
  10   30471.2    328.2   0.017200832   0.18584  -0.35946  -0.23796   0.00053
  11   30645.8    326.3   0.001352553   0.01453   0.03045  -0.09426   0.06868
  12   31065.6    321.9   0.063167824   0.66941  -0.50768   0.64002  -0.04523
  13   31551.5    316.9   0.016799480   0.17529   0.25034   0.32160  -0.09585
  14   31592.7    316.5   0.183768945   1.91496   0.91314  -0.88764   0.54150
  15   32624.1    306.5   0.001760016   0.01776   0.08705   0.06083   0.08052
  16   33238.3    300.9   0.045150453   0.44720   0.41682  -0.34480   0.39316
  17   33627.6    297.4   0.058824863   0.57589   0.31014  -0.58823  -0.36563
  18   33838.7    295.5   0.000014120   0.00014   0.01034  -0.00437  -0.00339
  19   34132.3    293.0   0.017904272   0.17269  -0.26937   0.27820  -0.15077
  20   34338.1    291.2   0.004346497   0.04167   0.15424  -0.02086  -0.13208
  21   34946.3    286.2   0.084912095   0.79991   0.80095   0.28852  -0.27414
  22   35056.2    285.3   0.059822259   0.56179  -0.35079  -0.08396  -0.65703
  23   35093.0    285.0   0.080248943   0.75283   0.23549   0.24208  -0.79923
  24   35617.0    280.8   0.003527781   0.03261  -0.16265   0.01732  -0.07650
  25   36136.4    276.7   0.059187088   0.53921   0.33281   0.18728   0.62720
  26   36755.0    272.1   0.001886507   0.01690  -0.10252   0.04261  -0.06761
  27   36835.6    271.5   0.114479178   1.02314  -0.66191   0.62365  -0.44281
  28   37209.3    268.7   0.036759001   0.32523  -0.44863   0.11809  -0.33169
  29   37366.7    267.6   0.061475968   0.54162  -0.67939  -0.10917   0.26101
  30   37659.4    265.5   0.071649363   0.62635  -0.28301   0.63633   0.37594
  31   38089.2    262.5   0.101945561   0.88113  -0.58970  -0.22582   0.69454
  32   38259.2    261.4   0.013680511   0.11772  -0.29808   0.00975   0.16962
  33   38953.8    256.7   0.014373197   0.12147   0.23585  -0.23908  -0.09322
  34   39378.6    253.9   0.007502242   0.06272  -0.15396   0.12372   0.15398
  35   39408.5    253.8   0.000093481   0.00078   0.00396   0.02127  -0.01769
  36   39981.8    250.1   0.047514872   0.39124  -0.28293   0.54289   0.12829

FINAL SINGLE POINT ENERGY     -5458.533826554034

DIPOLE MOMENT
-------------
                                X             Y             Z
Electronic contribution:    -17.98059     -34.79451     -29.84584
Nuclear contribution   :     18.89374      33.30500      27.82276
                        -----------------------------------------
Total Dipole Moment    :      0.91315      -1.48951      -2.02308
                        -----------------------------------------
Magnitude (a.u.)       :      2.67308
Magnitude (Debye)      :      6.79442

Rotational constants in cm-1:     0.001030     0.000307     0.000245
Rotational constants in MHz :    30.870442     9.209600     7.340988

                             ****ORCA TERMINATED NORMALLY****
TOTAL RUN TIME: 0 days 0 hours 9 minutes 37 seconds 737 msec
