                         Program Version 4.2.0 -  RELEASE  -
|  1> # ORCA input file
|  2> # SCF done       -196.018438025790          0.000371889025
|  3> ! CAM-B3LYP def2-SVP def2/J RIJCOSX Grid4 TightSCF
|  4> %maxcore 5000
|  5> %tddft
|  6>     Mode sTDDFT
|  7>     Ethresh 5.0
|  8>     maxcore 5000
|  9> end
| 10>
| 11> %pal
| 12>   nprocs 6
| 13>   end
| 14> * xyz 0 1
| 15>    C        7.21359       -16.08200         8.66269
| 16>    C        7.95698       -15.10060         8.13613
| 17>    C        9.25734       -14.66008         8.55732
| 18>    C        9.76482       -13.64082         7.83243
| 19>    C        8.91643       -13.18733         6.78118
| 20>    S        7.43350       -14.12423         6.75459
| 21>    C        9.16019       -12.17308         5.89196
| 22>    C       10.30548       -11.33906         5.80386
| 23>    C       10.24000       -10.41637         4.81481
| 24>    C        9.03891       -10.44230         4.04196
| 25>    S        8.00333       -11.72995         4.64957
| 26>    C        8.77041        -9.57276         3.02734
| 27>    C        7.62075        -9.45269         2.18433
| 28>    C        7.56075        -8.35502         1.30333
| 29>    C        6.48181        -8.14182         0.47582
| 30>    C        5.42575        -9.04537         0.50791
| 31>    C        5.47736       -10.15908         1.36542
| 32>    C        6.55114       -10.36511         2.19179
| 33>    C        4.23054       -11.00262         1.22201
| 34>    C        4.57049       -12.40663         0.71268
| 35>    C        3.46477       -11.08489         2.54592
| 36>    C        3.45401       -10.21738         0.18983
| 37>    C        2.21537       -10.47895        -0.33462
| 38>    C        1.66332        -9.60386        -1.28544
| 39>    C        2.38292        -8.46033        -1.66199
| 40>    C        3.63153        -8.19706        -1.13852
| 41>    C        4.17624        -9.07800        -0.21363
| 42>    C        0.34150        -9.85350        -1.79815
| 43>    S       -0.82275       -10.63974        -0.79637
| 44>    C       -2.11799       -10.40947        -1.93114
| 45>    C       -1.62833        -9.81247        -3.10489
| 46>    C       -0.23070        -9.50318        -3.02789
| 47>    C        0.43083        -8.98372        -4.16031
| 48>    C       -0.28391        -8.75017        -5.29828
| 49>    F        0.33388        -8.26217        -6.38682
| 50>    C       -1.66215        -9.05056        -5.37121
| 51>    F       -2.31484        -8.83713        -6.52507
| 52>    C       -2.32646        -9.58819        -4.30642
| 53>    C       -3.42127       -10.78269        -1.54317
| 54>    C       -4.57488       -10.23765        -2.02658
| 55>    C       -5.88216       -10.57890        -1.62523
| 56>    S       -7.12657        -9.38914        -1.80605
| 57>    C       -8.33137       -10.37843        -1.03933
| 58>    C       -7.78269       -11.63414        -0.70157
| 59>    C       -6.40130       -11.75396        -1.03963
| 60>    C       -5.74021       -12.97731        -0.83429
| 61>    C       -6.42215       -14.01200        -0.25577
| 62>    F       -5.80325       -15.18812        -0.05930
| 63>    C       -7.77157       -13.87403         0.12820
| 64>    F       -8.39677       -14.91412         0.70012
| 65>    C       -8.45358       -12.71059        -0.09847
| 66>    C       -9.61892        -9.90006        -0.77451
| 67>    C      -10.02758        -8.61707        -1.02303
| 68>    C      -11.29375        -8.13504        -0.66880
| 69>    C      -11.71001        -6.82729        -0.67132
| 70>    C      -13.15778        -6.51224        -0.65457
| 71>    O      -14.06807        -7.28524        -0.44586
| 72>    C      -13.25004        -5.07715        -0.99229
| 73>    C      -14.36039        -4.30954        -1.18962
| 74>    C      -14.20548        -2.94499        -1.52452
| 75>    C      -12.89359        -2.40535        -1.65763
| 76>    C      -12.74442        -1.04561        -1.99255
| 77>    C      -13.85766        -0.27427        -2.17826
| 78>    C      -15.15591        -0.78569        -2.05187
| 79>    C      -15.31842        -2.10462        -1.72959
| 80>    F      -13.71705         1.02721        -2.49465
| 81>    C      -11.76031        -3.22556        -1.44541
| 82>    C      -11.93567        -4.53993        -1.10888
| 83>    C      -10.97422        -5.59426        -0.78429
| 84>    C       -9.66208        -5.37456        -0.43709
| 85>    C       -8.81717        -6.32155         0.17540
| 86>    N       -8.08839        -7.01872         0.72571
| 87>    C       -9.02076        -4.12466        -0.54475
| 88>    N       -8.43412        -3.14079        -0.63186
| 89>    H        7.57054       -16.65019         9.50341
| 90>    H        6.24587       -16.33261         8.26852
| 91>    H        9.75157       -15.13114         9.38846
| 92>    H       10.72427       -13.18802         8.01014
| 93>    H       11.13738       -11.44807         6.47641
| 94>    H       11.01414        -9.69967         4.60236
| 95>    H        9.54702        -8.83825         2.84552
| 96>    H        8.38591        -7.65714         1.28996
| 97>    H        6.45633        -7.28725        -0.18377
| 98>    H        6.57743       -11.22670         2.83806
| 99>    H        5.18783       -12.92841         1.43960
|100>    H        5.11542       -12.34576        -0.22708
|101>    H        3.66090       -12.98016         0.55136
|102>    H        4.07250       -11.57945         3.29952
|103>    H        2.54328       -11.64711         2.41561
|104>    H        3.21627       -10.08667         2.90006
|105>    H        1.65521       -11.35357        -0.03572
|106>    H        1.92807        -7.74603        -2.32990
|107>    H        4.16607        -7.30606        -1.43121
|108>    H        1.49341        -8.80826        -4.15560
|109>    H       -3.36048        -9.86735        -4.41547
|110>    H       -3.47720       -11.47295        -0.71298
|111>    H       -4.50627        -9.38510        -2.68795
|112>    H       -4.72214       -13.12903        -1.14985
|113>    H       -9.49204       -12.64171         0.17980
|114>    H      -10.30338       -10.57627        -0.28071
|115>    H       -9.33146        -7.94356        -1.50383
|116>    H      -12.05847        -8.86127        -0.41356
|117>    H      -15.34711        -4.73615        -1.08838
|118>    H      -11.75938        -0.61756        -2.09479
|119>    H      -15.99681        -0.12930        -2.21056
|120>    H      -16.30900        -2.52166        -1.62659
|121>    H      -10.78037        -2.79036        -1.56007
|122> *
|123>
|124>                          ****END OF INPUT****

CARTESIAN COORDINATES (ANGSTROEM)
---------------------------------
  C      7.213590  -16.082000    8.662690
  C      7.956980  -15.100600    8.136130
  C      9.257340  -14.660080    8.557320
  C      9.764820  -13.640820    7.832430
  C      8.916430  -13.187330    6.781180
  S      7.433500  -14.124230    6.754590
  C      9.160190  -12.173080    5.891960
  C     10.305480  -11.339060    5.803860
  C     10.240000  -10.416370    4.814810
  C      9.038910  -10.442300    4.041960
  S      8.003330  -11.729950    4.649570
  C      8.770410   -9.572760    3.027340
  C      7.620750   -9.452690    2.184330
  C      7.560750   -8.355020    1.303330
  C      6.481810   -8.141820    0.475820
  C      5.425750   -9.045370    0.507910
  C      5.477360  -10.159080    1.365420
  C      6.551140  -10.365110    2.191790
  C      4.230540  -11.002620    1.222010
  C      4.570490  -12.406630    0.712680
  C      3.464770  -11.084890    2.545920
  C      3.454010  -10.217380    0.189830
  C      2.215370  -10.478950   -0.334620
  C      1.663320   -9.603860   -1.285440
  C      2.382920   -8.460330   -1.661990
  C      3.631530   -8.197060   -1.138520
  C      4.176240   -9.078000   -0.213630
  C      0.341500   -9.853500   -1.798150
  S     -0.822750  -10.639740   -0.796370
  C     -2.117990  -10.409470   -1.931140
  C     -1.628330   -9.812470   -3.104890
  C     -0.230700   -9.503180   -3.027890
  C      0.430830   -8.983720   -4.160310
  C     -0.283910   -8.750170   -5.298280
  F      0.333880   -8.262170   -6.386820
  C     -1.662150   -9.050560   -5.371210
  F     -2.314840   -8.837130   -6.525070
  C     -2.326460   -9.588190   -4.306420
  C     -3.421270  -10.782690   -1.543170
  C     -4.574880  -10.237650   -2.026580
  C     -5.882160  -10.578900   -1.625230
  S     -7.126570   -9.389140   -1.806050
  C     -8.331370  -10.378430   -1.039330
  C     -7.782690  -11.634140   -0.701570
  C     -6.401300  -11.753960   -1.039630
  C     -5.740210  -12.977310   -0.834290
  C     -6.422150  -14.012000   -0.255770
  F     -5.803250  -15.188120   -0.059300
  C     -7.771570  -13.874030    0.128200
  F     -8.396770  -14.914120    0.700120
  C     -8.453580  -12.710590   -0.098470
  C     -9.618920   -9.900060   -0.774510
  C    -10.027580   -8.617070   -1.023030
  C    -11.293750   -8.135040   -0.668800
  C    -11.710010   -6.827290   -0.671320
  C    -13.157780   -6.512240   -0.654570
  O    -14.068070   -7.285240   -0.445860
  C    -13.250040   -5.077150   -0.992290
  C    -14.360390   -4.309540   -1.189620
  C    -14.205480   -2.944990   -1.524520
  C    -12.893590   -2.405350   -1.657630
  C    -12.744420   -1.045610   -1.992550
  C    -13.857660   -0.274270   -2.178260
  C    -15.155910   -0.785690   -2.051870
  C    -15.318420   -2.104620   -1.729590
  F    -13.717050    1.027210   -2.494650
  C    -11.760310   -3.225560   -1.445410
  C    -11.935670   -4.539930   -1.108880
  C    -10.974220   -5.594260   -0.784290
  C     -9.662080   -5.374560   -0.437090
  C     -8.817170   -6.321550    0.175400
  N     -8.088390   -7.018720    0.725710
  C     -9.020760   -4.124660   -0.544750
  N     -8.434120   -3.140790   -0.631860
  H      7.570540  -16.650190    9.503410
  H      6.245870  -16.332610    8.268520
  H      9.751570  -15.131140    9.388460
  H     10.724270  -13.188020    8.010140
  H     11.137380  -11.448070    6.476410
  H     11.014140   -9.699670    4.602360
  H      9.547020   -8.838250    2.845520
  H      8.385910   -7.657140    1.289960
  H      6.456330   -7.287250   -0.183770
  H      6.577430  -11.226700    2.838060
  H      5.187830  -12.928410    1.439600
  H      5.115420  -12.345760   -0.227080
  H      3.660900  -12.980160    0.551360
  H      4.072500  -11.579450    3.299520
  H      2.543280  -11.647110    2.415610
  H      3.216270  -10.086670    2.900060
  H      1.655210  -11.353570   -0.035720
  H      1.928070   -7.746030   -2.329900
  H      4.166070   -7.306060   -1.431210
  H      1.493410   -8.808260   -4.155600
  H     -3.360480   -9.867350   -4.415470
  H     -3.477200  -11.472950   -0.712980
  H     -4.506270   -9.385100   -2.687950
  H     -4.722140  -13.129030   -1.149850
  H     -9.492040  -12.641710    0.179800
  H    -10.303380  -10.576270   -0.280710
  H     -9.331460   -7.943560   -1.503830
  H    -12.058470   -8.861270   -0.413560
  H    -15.347110   -4.736150   -1.088380
  H    -11.759380   -0.617560   -2.094790
  H    -15.996810   -0.129300   -2.210560
  H    -16.309000   -2.521660   -1.626590
  H    -10.780370   -2.790360   -1.560070

 Total Charge           Charge          ....    0
 Multiplicity           Mult            ....    1
 Number of Electrons    NEL             ....  536
 Basis Dimension        Dim             .... 1217

ORBITAL ENERGIES
----------------

  NO   OCC          E(Eh)            E(eV)
   0   2.0000     -88.977454     -2421.1996
   1   2.0000     -88.976705     -2421.1792
   2   2.0000     -88.943589     -2420.2781
   3   2.0000     -88.937291     -2420.1067
   4   2.0000     -24.794849      -674.7021
   5   2.0000     -24.792002      -674.6247
   6   2.0000     -24.791436      -674.6093
   7   2.0000     -24.789126      -674.5464
   8   2.0000     -24.777487      -674.2297
   9   2.0000     -19.198813      -522.4263
  10   2.0000     -14.403482      -391.9387
  11   2.0000     -14.402090      -391.9008
  12   2.0000     -10.378479      -282.4128
  13   2.0000     -10.374114      -282.2940
  14   2.0000     -10.374079      -282.2931
  15   2.0000     -10.371337      -282.2184
  16   2.0000     -10.360400      -281.9208
  17   2.0000     -10.350349      -281.6473
  18   2.0000     -10.330113      -281.0967
  19   2.0000     -10.328888      -281.0633
  20   2.0000     -10.328229      -281.0454
  21   2.0000     -10.320455      -280.8339
  22   2.0000     -10.313990      -280.6579
  23   2.0000     -10.312307      -280.6121
  24   2.0000     -10.309060      -280.5238
  25   2.0000     -10.307765      -280.4886
  26   2.0000     -10.307367      -280.4777
  27   2.0000     -10.307025      -280.4684
  28   2.0000     -10.306746      -280.4608
  29   2.0000     -10.306573      -280.4561
  30   2.0000     -10.305844      -280.4363
  31   2.0000     -10.305811      -280.4354
  32   2.0000     -10.305586      -280.4293
  33   2.0000     -10.303369      -280.3689
  34   2.0000     -10.303089      -280.3613
  35   2.0000     -10.302349      -280.3412
  36   2.0000     -10.300114      -280.2803
  37   2.0000     -10.299509      -280.2639
  38   2.0000     -10.297875      -280.2194
  39   2.0000     -10.297199      -280.2010
  40   2.0000     -10.295809      -280.1632
  41   2.0000     -10.294873      -280.1377
  42   2.0000     -10.294504      -280.1277
  43   2.0000     -10.294312      -280.1225
  44   2.0000     -10.294091      -280.1165
  45   2.0000     -10.290936      -280.0306
  46   2.0000     -10.289249      -279.9847
  47   2.0000     -10.288736      -279.9707
  48   2.0000     -10.288473      -279.9636
  49   2.0000     -10.286672      -279.9146
  50   2.0000     -10.285679      -279.8876
  51   2.0000     -10.285421      -279.8805
  52   2.0000     -10.285380      -279.8794
  53   2.0000     -10.284365      -279.8518
  54   2.0000     -10.282858      -279.8108
  55   2.0000     -10.282037      -279.7884
  56   2.0000     -10.280490      -279.7464
  57   2.0000     -10.280457      -279.7455
  58   2.0000     -10.280074      -279.7350
  59   2.0000     -10.279815      -279.7280
  60   2.0000     -10.278909      -279.7033
  61   2.0000     -10.278501      -279.6922
  62   2.0000     -10.277987      -279.6782
  63   2.0000     -10.277926      -279.6766
  64   2.0000     -10.276117      -279.6274
  65   2.0000     -10.275352      -279.6065
  66   2.0000     -10.272553      -279.5304
  67   2.0000     -10.271851      -279.5113
  68   2.0000     -10.270358      -279.4706
  69   2.0000     -10.269697      -279.4527
  70   2.0000     -10.269279      -279.4413
  71   2.0000     -10.268165      -279.4110
  72   2.0000     -10.261299      -279.2241
  73   2.0000     -10.260813      -279.2109
  74   2.0000      -8.072623      -219.6672
  75   2.0000      -8.071805      -219.6450
  76   2.0000      -8.039187      -218.7574
  77   2.0000      -8.034051      -218.6176
  78   2.0000      -6.041499      -164.3975
  79   2.0000      -6.040731      -164.3766
  80   2.0000      -6.037486      -164.2883
  81   2.0000      -6.036709      -164.2672
  82   2.0000      -6.035535      -164.2353
  83   2.0000      -6.034568      -164.2089
  84   2.0000      -6.009011      -163.5135
  85   2.0000      -6.005021      -163.4049
  86   2.0000      -6.003907      -163.3746
  87   2.0000      -5.999991      -163.2681
  88   2.0000      -5.999980      -163.2678
  89   2.0000      -5.994515      -163.1190
  90   2.0000      -1.315714       -35.8024
  91   2.0000      -1.312338       -35.7105
  92   2.0000      -1.300497       -35.3883
  93   2.0000      -1.297282       -35.3008
  94   2.0000      -1.292012       -35.1574
  95   2.0000      -1.113294       -30.2943
  96   2.0000      -1.015634       -27.6368
  97   2.0000      -1.012642       -27.5554
  98   2.0000      -1.006165       -27.3792
  99   2.0000      -0.991553       -26.9815
 100   2.0000      -0.989367       -26.9220
 101   2.0000      -0.989166       -26.9166
 102   2.0000      -0.981658       -26.7123
 103   2.0000      -0.968023       -26.3413
 104   2.0000      -0.965168       -26.2636
 105   2.0000      -0.954571       -25.9752
 106   2.0000      -0.954177       -25.9645
 107   2.0000      -0.945987       -25.7416
 108   2.0000      -0.931924       -25.3589
 109   2.0000      -0.921530       -25.0761
 110   2.0000      -0.915087       -24.9008
 111   2.0000      -0.903657       -24.5898
 112   2.0000      -0.890933       -24.2435
 113   2.0000      -0.887698       -24.1555
 114   2.0000      -0.880362       -23.9559
 115   2.0000      -0.873929       -23.7808
 116   2.0000      -0.871650       -23.7188
 117   2.0000      -0.864399       -23.5215
 118   2.0000      -0.852546       -23.1990
 119   2.0000      -0.848829       -23.0978
 120   2.0000      -0.845898       -23.0181
 121   2.0000      -0.844614       -22.9831
 122   2.0000      -0.842585       -22.9279
 123   2.0000      -0.834843       -22.7172
 124   2.0000      -0.828718       -22.5506
 125   2.0000      -0.824188       -22.4273
 126   2.0000      -0.820178       -22.3182
 127   2.0000      -0.818318       -22.2676
 128   2.0000      -0.810422       -22.0527
 129   2.0000      -0.795026       -21.6338
 130   2.0000      -0.778372       -21.1806
 131   2.0000      -0.773222       -21.0404
 132   2.0000      -0.764862       -20.8129
 133   2.0000      -0.751323       -20.4445
 134   2.0000      -0.745201       -20.2779
 135   2.0000      -0.744749       -20.2657
 136   2.0000      -0.741885       -20.1877
 137   2.0000      -0.732571       -19.9343
 138   2.0000      -0.726329       -19.7644
 139   2.0000      -0.720514       -19.6062
 140   2.0000      -0.707015       -19.2388
 141   2.0000      -0.705396       -19.1948
 142   2.0000      -0.698952       -19.0194
 143   2.0000      -0.690248       -18.7826
 144   2.0000      -0.679826       -18.4990
 145   2.0000      -0.678865       -18.4728
 146   2.0000      -0.675866       -18.3912
 147   2.0000      -0.670678       -18.2501
 148   2.0000      -0.668575       -18.1929
 149   2.0000      -0.665400       -18.1064
 150   2.0000      -0.661096       -17.9893
 151   2.0000      -0.653704       -17.7882
 152   2.0000      -0.644611       -17.5408
 153   2.0000      -0.636840       -17.3293
 154   2.0000      -0.633144       -17.2287
 155   2.0000      -0.628359       -17.0985
 156   2.0000      -0.623846       -16.9757
 157   2.0000      -0.622533       -16.9400
 158   2.0000      -0.620023       -16.8717
 159   2.0000      -0.617494       -16.8029
 160   2.0000      -0.615582       -16.7508
 161   2.0000      -0.613830       -16.7032
 162   2.0000      -0.610022       -16.5995
 163   2.0000      -0.605410       -16.4741
 164   2.0000      -0.599341       -16.3089
 165   2.0000      -0.596612       -16.2346
 166   2.0000      -0.595556       -16.2059
 167   2.0000      -0.586194       -15.9511
 168   2.0000      -0.581690       -15.8286
 169   2.0000      -0.580204       -15.7882
 170   2.0000      -0.578005       -15.7283
 171   2.0000      -0.572265       -15.5721
 172   2.0000      -0.570916       -15.5354
 173   2.0000      -0.563566       -15.3354
 174   2.0000      -0.558786       -15.2053
 175   2.0000      -0.556099       -15.1322
 176   2.0000      -0.552299       -15.0288
 177   2.0000      -0.549728       -14.9589
 178   2.0000      -0.548989       -14.9388
 179   2.0000      -0.543436       -14.7876
 180   2.0000      -0.542289       -14.7564
 181   2.0000      -0.540944       -14.7198
 182   2.0000      -0.539622       -14.6839
 183   2.0000      -0.539202       -14.6724
 184   2.0000      -0.537020       -14.6130
 185   2.0000      -0.532709       -14.4958
 186   2.0000      -0.530658       -14.4399
 187   2.0000      -0.527092       -14.3429
 188   2.0000      -0.524648       -14.2764
 189   2.0000      -0.522161       -14.2087
 190   2.0000      -0.520327       -14.1588
 191   2.0000      -0.519380       -14.1330
 192   2.0000      -0.517716       -14.0878
 193   2.0000      -0.514179       -13.9915
 194   2.0000      -0.513912       -13.9842
 195   2.0000      -0.513181       -13.9644
 196   2.0000      -0.510996       -13.9049
 197   2.0000      -0.508619       -13.8402
 198   2.0000      -0.506044       -13.7702
 199   2.0000      -0.502760       -13.6808
 200   2.0000      -0.501851       -13.6561
 201   2.0000      -0.497097       -13.5267
 202   2.0000      -0.493943       -13.4409
 203   2.0000      -0.493670       -13.4334
 204   2.0000      -0.490764       -13.3544
 205   2.0000      -0.486600       -13.2410
 206   2.0000      -0.485560       -13.2128
 207   2.0000      -0.482130       -13.1194
 208   2.0000      -0.480233       -13.0678
 209   2.0000      -0.478576       -13.0227
 210   2.0000      -0.478203       -13.0126
 211   2.0000      -0.473392       -12.8817
 212   2.0000      -0.472341       -12.8531
 213   2.0000      -0.472287       -12.8516
 214   2.0000      -0.470034       -12.7903
 215   2.0000      -0.467199       -12.7131
 216   2.0000      -0.466053       -12.6820
 217   2.0000      -0.464968       -12.6524
 218   2.0000      -0.460863       -12.5407
 219   2.0000      -0.455898       -12.4056
 220   2.0000      -0.453830       -12.3493
 221   2.0000      -0.450001       -12.2452
 222   2.0000      -0.448583       -12.2066
 223   2.0000      -0.446567       -12.1517
 224   2.0000      -0.443300       -12.0628
 225   2.0000      -0.442673       -12.0458
 226   2.0000      -0.441249       -12.0070
 227   2.0000      -0.438701       -11.9377
 228   2.0000      -0.435773       -11.8580
 229   2.0000      -0.434474       -11.8226
 230   2.0000      -0.431352       -11.7377
 231   2.0000      -0.428613       -11.6631
 232   2.0000      -0.427534       -11.6338
 233   2.0000      -0.427425       -11.6308
 234   2.0000      -0.425985       -11.5916
 235   2.0000      -0.422732       -11.5031
 236   2.0000      -0.421474       -11.4689
 237   2.0000      -0.417242       -11.3537
 238   2.0000      -0.416102       -11.3227
 239   2.0000      -0.414838       -11.2883
 240   2.0000      -0.412531       -11.2255
 241   2.0000      -0.407958       -11.1011
 242   2.0000      -0.403383       -10.9766
 243   2.0000      -0.398083       -10.8324
 244   2.0000      -0.396574       -10.7913
 245   2.0000      -0.395647       -10.7661
 246   2.0000      -0.390406       -10.6235
 247   2.0000      -0.387162       -10.5352
 248   2.0000      -0.385199       -10.4818
 249   2.0000      -0.371489       -10.1087
 250   2.0000      -0.361893        -9.8476
 251   2.0000      -0.359363        -9.7788
 252   2.0000      -0.348704        -9.4887
 253   2.0000      -0.337349        -9.1797
 254   2.0000      -0.332186        -9.0392
 255   2.0000      -0.327022        -8.8987
 256   2.0000      -0.324840        -8.8393
 257   2.0000      -0.321835        -8.7576
 258   2.0000      -0.319908        -8.7052
 259   2.0000      -0.319363        -8.6903
 260   2.0000      -0.317200        -8.6314
 261   2.0000      -0.315169        -8.5762
 262   2.0000      -0.302177        -8.2227
 263   2.0000      -0.290317        -7.8999
 264   2.0000      -0.286391        -7.7931
 265   2.0000      -0.265496        -7.2245
 266   2.0000      -0.229301        -6.2396
 267   2.0000      -0.216566        -5.8931
 268   0.0000      -0.103878        -2.8267
 269   0.0000      -0.069497        -1.8911
 270   0.0000      -0.060211        -1.6384
 271   0.0000      -0.046072        -1.2537
 272   0.0000      -0.035227        -0.9586

MULLIKEN ATOMIC CHARGES
-----------------------
   0 C :   -0.028109
   1 C :   -0.064067
   2 C :    0.052853
   3 C :    0.032112
   4 C :   -0.068172
   5 S :    0.074974
   6 C :   -0.031506
   7 C :    0.031549
   8 C :    0.030717
   9 C :    0.000148
  10 S :    0.037778
  11 C :   -0.049807
  12 C :    0.120232
  13 C :   -0.022055
  14 C :   -0.043731
  15 C :    0.090780
  16 C :    0.022803
  17 C :   -0.095100
  18 C :   -0.155389
  19 C :    0.110474
  20 C :    0.107355
  21 C :    0.042067
  22 C :   -0.113618
  23 C :    0.106879
  24 C :   -0.026583
  25 C :   -0.048913
  26 C :    0.091472
  27 C :   -0.133470
  28 S :    0.174409
  29 C :   -0.147820
  30 C :    0.122843
  31 C :    0.132180
  32 C :   -0.122809
  33 C :    0.226605
  34 F :   -0.179412
  35 C :    0.230461
  36 F :   -0.176392
  37 C :   -0.121430
  38 C :    0.038547
  39 C :    0.005335
  40 C :   -0.105885
  41 S :    0.187045
  42 C :   -0.100952
  43 C :    0.147812
  44 C :    0.112926
  45 C :   -0.113316
  46 C :    0.220984
  47 F :   -0.179083
  48 C :    0.234387
  49 F :   -0.173866
  50 C :   -0.117242
  51 C :    0.022027
  52 C :   -0.011096
  53 C :    0.025010
  54 C :   -0.126966
  55 C :    0.140842
  56 O :   -0.154441
  57 C :    0.004154
  58 C :   -0.085323
  59 C :    0.101950
  60 C :    0.102993
  61 C :   -0.100055
  62 C :    0.303375
  63 C :   -0.031320
  64 C :   -0.011796
  65 F :   -0.193700
  66 C :   -0.091019
  67 C :    0.042555
  68 C :    0.294742
  69 C :   -0.349942
  70 C :   -0.221801
  71 N :    0.160037
  72 C :   -0.176207
  73 N :    0.136739
  74 H :    0.019663
  75 H :    0.020464
  76 H :   -0.011470
  77 H :   -0.012295
  78 H :   -0.014587
  79 H :   -0.012957
  80 H :   -0.025105
  81 H :   -0.027008
  82 H :   -0.034890
  83 H :   -0.025689
  84 H :    0.015273
  85 H :    0.018136
  86 H :    0.006361
  87 H :    0.014719
  88 H :    0.005398
  89 H :    0.020109
  90 H :   -0.031830
  91 H :   -0.014359
  92 H :   -0.030450
  93 H :   -0.001826
  94 H :   -0.008395
  95 H :    0.000690
  96 H :    0.002428
  97 H :   -0.007615
  98 H :   -0.006877
  99 H :    0.000655
 100 H :    0.022255
 101 H :    0.010753
 102 H :   -0.015864
 103 H :   -0.004832
 104 H :    0.000594
 105 H :   -0.011746
 106 H :   -0.007459
Sum of atomic charges:   -0.0000000

LOEWDIN ATOMIC CHARGES
----------------------
   0 C :   -0.076975
   1 C :   -0.139326
   2 C :   -0.030625
   3 C :   -0.026068
   4 C :   -0.176616
   5 S :    0.346276
   6 C :   -0.181376
   7 C :   -0.035923
   8 C :   -0.030030
   9 C :   -0.142493
  10 S :    0.370676
  11 C :   -0.054522
  12 C :   -0.023215
  13 C :   -0.015815
  14 C :   -0.019373
  15 C :   -0.022640
  16 C :    0.006008
  17 C :   -0.028063
  18 C :   -0.038401
  19 C :   -0.025286
  20 C :   -0.025260
  21 C :    0.007397
  22 C :   -0.025439
  23 C :   -0.046515
  24 C :   -0.017648
  25 C :   -0.016937
  26 C :   -0.010016
  27 C :   -0.153301
  28 S :    0.496381
  29 C :   -0.192452
  30 C :   -0.035746
  31 C :   -0.049095
  32 C :   -0.036271
  33 C :    0.058487
  34 F :   -0.057170
  35 C :    0.066819
  36 F :   -0.054202
  37 C :   -0.044610
  38 C :   -0.023089
  39 C :   -0.065441
  40 C :   -0.138497
  41 S :    0.509173
  42 C :   -0.193787
  43 C :   -0.021423
  44 C :   -0.053674
  45 C :   -0.034612
  46 C :    0.057161
  47 F :   -0.057087
  48 C :    0.071166
  49 F :   -0.051375
  50 C :   -0.040511
  51 C :    0.018980
  52 C :   -0.052661
  53 C :    0.065263
  54 C :   -0.109669
  55 C :    0.078391
  56 O :   -0.156786
  57 C :   -0.057072
  58 C :    0.029714
  59 C :   -0.019789
  60 C :    0.002079
  61 C :   -0.042866
  62 C :    0.091127
  63 C :   -0.040064
  64 C :    0.003029
  65 F :   -0.068114
  66 C :    0.007417
  67 C :   -0.015685
  68 C :    0.070210
  69 C :   -0.151107
  70 C :   -0.024353
  71 N :   -0.062869
  72 C :   -0.018800
  73 N :   -0.063576
  74 H :    0.028641
  75 H :    0.026001
  76 H :    0.033475
  77 H :    0.032211
  78 H :    0.031278
  79 H :    0.032863
  80 H :    0.032482
  81 H :    0.026151
  82 H :    0.026952
  83 H :    0.007960
  84 H :    0.025517
  85 H :    0.028892
  86 H :    0.021927
  87 H :    0.025598
  88 H :    0.021494
  89 H :    0.029491
  90 H :    0.018275
  91 H :    0.029872
  92 H :    0.029118
  93 H :    0.043201
  94 H :    0.040569
  95 H :    0.031973
  96 H :    0.032579
  97 H :    0.040891
  98 H :    0.041571
  99 H :    0.038856
 100 H :    0.024122
 101 H :    0.042866
 102 H :    0.038071
 103 H :    0.042307
 104 H :    0.040542
 105 H :    0.034610
 106 H :    0.038202

  Mayer bond orders larger than 0.100000
B(  0-C ,  1-C ) :   1.8681 B(  0-C , 74-H ) :   0.9507 B(  0-C , 75-H ) :   0.9416
B(  1-C ,  2-C ) :   1.0764 B(  1-C ,  5-S ) :   1.0065 B(  2-C ,  3-C ) :   1.6677
B(  2-C , 76-H ) :   0.9933 B(  3-C ,  4-C ) :   1.1472 B(  3-C , 77-H ) :   0.9908
B(  4-C ,  5-S ) :   1.0402 B(  4-C ,  6-C ) :   1.5745 B(  6-C ,  7-C ) :   1.1579
B(  6-C , 10-S ) :   1.0265 B(  7-C ,  8-C ) :   1.6259 B(  7-C , 78-H ) :   0.9909
B(  8-C ,  9-C ) :   1.1182 B(  8-C , 79-H ) :   0.9990 B(  9-C , 10-S ) :   1.0229
B(  9-C , 11-C ) :   1.6147 B( 11-C , 12-C ) :   1.1009 B( 11-C , 80-H ) :   0.9697
B( 12-C , 13-C ) :   1.3100 B( 12-C , 17-C ) :   1.2871 B( 13-C , 14-C ) :   1.4000
B( 13-C , 81-H ) :   0.9930 B( 14-C , 15-C ) :   1.3227 B( 14-C , 82-H ) :   0.9913
B( 15-C , 16-C ) :   1.3762 B( 15-C , 26-C ) :   0.9992 B( 16-C , 17-C ) :   1.4423
B( 16-C , 18-C ) :   0.9357 B( 17-C , 83-H ) :   0.9747 B( 18-C , 19-C ) :   1.0317
B( 18-C , 20-C ) :   1.0331 B( 18-C , 21-C ) :   0.9302 B( 19-C , 84-H ) :   0.9633
B( 19-C , 85-H ) :   0.9636 B( 19-C , 86-H ) :   0.9620 B( 20-C , 87-H ) :   0.9627
B( 20-C , 88-H ) :   0.9620 B( 20-C , 89-H ) :   0.9644 B( 21-C , 22-C ) :   1.4138
B( 21-C , 26-C ) :   1.3733 B( 22-C , 23-C ) :   1.2795 B( 22-C , 90-H ) :   0.9939
B( 23-C , 24-C ) :   1.3549 B( 23-C , 27-C ) :   1.0461 B( 24-C , 25-C ) :   1.3890
B( 24-C , 91-H ) :   0.9864 B( 25-C , 26-C ) :   1.3358 B( 25-C , 92-H ) :   0.9932
B( 27-C , 28-S ) :   1.2014 B( 27-C , 29-C ) :   0.1127 B( 27-C , 31-C ) :   1.3623
B( 28-S , 29-C ) :   1.1289 B( 29-C , 30-C ) :   1.3326 B( 29-C , 38-C ) :   1.1934
B( 30-C , 31-C ) :   1.2122 B( 30-C , 37-C ) :   1.1658 B( 31-C , 32-C ) :   1.1525
B( 32-C , 33-C ) :   1.5035 B( 32-C , 37-C ) :   0.1101 B( 32-C , 93-H ) :   0.9981
B( 33-C , 34-F ) :   1.1242 B( 33-C , 35-C ) :   1.1550 B( 35-C , 36-F ) :   1.1289
B( 35-C , 37-C ) :   1.4962 B( 37-C , 94-H ) :   0.9970 B( 38-C , 39-C ) :   1.6085
B( 38-C , 95-H ) :   0.9479 B( 39-C , 40-C ) :   1.1951 B( 39-C , 96-H ) :   0.9469
B( 40-C , 41-S ) :   1.1998 B( 40-C , 44-C ) :   1.2946 B( 41-S , 42-C ) :   1.1069
B( 42-C , 43-C ) :   1.2703 B( 42-C , 51-C ) :   1.2530 B( 43-C , 44-C ) :   1.2385
B( 43-C , 50-C ) :   1.1906 B( 44-C , 45-C ) :   1.1716 B( 45-C , 46-C ) :   1.4863
B( 45-C , 50-C ) :   0.1103 B( 45-C , 97-H ) :   0.9961 B( 46-C , 47-F ) :   1.1259
B( 46-C , 48-C ) :   1.1720 B( 48-C , 49-F ) :   1.1320 B( 48-C , 50-C ) :   1.4812
B( 50-C , 98-H ) :   0.9983 B( 51-C , 52-C ) :   1.5309 B( 51-C , 99-H ) :   0.9751
B( 52-C , 53-C ) :   1.2111 B( 52-C ,100-H ) :   0.9590 B( 53-C , 54-C ) :   1.5193
B( 53-C ,101-H ) :   0.9590 B( 54-C , 55-C ) :   0.9578 B( 54-C , 68-C ) :   1.0794
B( 55-C , 56-O ) :   2.2599 B( 55-C , 57-C ) :   0.9174 B( 57-C , 58-C ) :   1.4771
B( 57-C , 67-C ) :   1.2192 B( 58-C , 59-C ) :   1.1831 B( 58-C ,102-H ) :   1.0163
B( 59-C , 60-C ) :   1.2612 B( 59-C , 64-C ) :   1.2363 B( 60-C , 61-C ) :   1.2012
B( 60-C , 66-C ) :   1.1987 B( 61-C , 62-C ) :   1.4398 B( 61-C ,103-H ) :   1.0077
B( 62-C , 63-C ) :   1.2569 B( 62-C , 65-F ) :   1.0852 B( 63-C , 64-C ) :   1.4569
B( 63-C ,104-H ) :   0.9932 B( 64-C ,105-H ) :   0.9976 B( 66-C , 67-C ) :   1.4632
B( 66-C ,106-H ) :   0.9928 B( 67-C , 68-C ) :   0.9950 B( 68-C , 69-C ) :   1.6031
B( 69-C , 70-C ) :   1.1644 B( 69-C , 72-C ) :   1.1379 B( 70-C , 71-N ) :   3.0091
B( 72-C , 73-N ) :   2.9722

-----------------------------------------------------------------------------
         ABSORPTION SPECTRUM VIA TRANSITION ELECTRIC DIPOLE MOMENTS
-----------------------------------------------------------------------------
State   Energy  Wavelength   fosc         T2         TX        TY        TZ
        (cm-1)    (nm)                  (au**2)     (au)      (au)      (au)
-----------------------------------------------------------------------------
   0   12050.3    829.9   1.417691437  38.73112   5.74810  -2.38423   0.07684
   1   17256.9    579.5   0.295973097   5.64631  -0.97946  -0.12371  -2.16140
   2   19955.7    501.1   0.644937350  10.63961   1.83912  -0.93353   2.52701
   3   21382.1    467.7   1.274931989  19.62967  -1.38872  -3.57495   2.21829
   4   21826.6    458.2   0.114385393   1.72528  -0.70329  -1.08414  -0.23516
   5   24342.1    410.8   0.093267868   1.26139  -0.50619  -0.99802   0.09550
   6   25276.8    395.6   0.005309188   0.06915  -0.10089   0.13397  -0.20254
   7   26170.2    382.1   0.046541429   0.58548   0.15846  -0.74579   0.06455
   8   26924.1    371.4   0.212566210   2.59914  -1.33095   0.85047  -0.32311
   9   27408.7    364.8   0.014262903   0.17132   0.35561  -0.20261  -0.06170
  10   27705.4    360.9   0.041088923   0.48824  -0.54323  -0.41962  -0.13063
  11   28902.6    346.0   0.011895008   0.13549   0.34408  -0.12299  -0.04439
  12   29244.0    342.0   0.087964398   0.99025  -0.17130   0.76245  -0.61610
  13   30048.4    332.8   0.184125939   2.01729  -0.94860   0.89945  -0.55537
  14   30458.6    328.3   0.093782563   1.01365  -0.83215  -0.26720  -0.49978
  15   31171.3    320.8   0.025123240   0.26534   0.00457   0.49487  -0.14290
  16   31251.6    320.0   0.104866488   1.10469  -0.04105  -1.02219   0.24110
  17   31920.6    313.3   0.074512451   0.76848  -0.78242  -0.11392  -0.37858
  18   32115.9    311.4   0.013781500   0.14127  -0.23401  -0.20949   0.20646
  19   32952.2    303.5   0.078581641   0.78508  -0.74401   0.13500   0.46184
  20   33239.0    300.9   0.622940248   6.16983   1.45770  -1.84206   0.80731
  21   33367.6    299.7   0.367940796   3.63019   1.53680   0.94554   0.61188
  22   33574.1    297.8   0.050586819   0.49603  -0.00069   0.63851  -0.29722
  23   33989.1    294.2   0.118596833   1.14871  -0.52654   0.89760  -0.25646
  24   34215.1    292.3   0.132287276   1.27285  -0.95034   0.21107  -0.57022
  25   34442.8    290.3   0.011646939   0.11132   0.14558   0.24979   0.16655
  26   34710.1    288.1   0.011938993   0.11324  -0.09299  -0.32340  -0.00106
  27   34901.9    286.5   0.024488411   0.23099  -0.00086  -0.24567   0.41307
  28   35035.0    285.4   0.051217747   0.48128  -0.10223  -0.46166   0.50764
  29   35604.8    280.9   0.003043576   0.02814  -0.02133   0.16418  -0.02706
  30   35899.8    278.6   0.014838898   0.13608   0.10840   0.33063  -0.12253
  31   36382.5    274.9   0.063401908   0.57370   0.64552  -0.05525   0.39237
  32   36878.0    271.2   0.141297898   1.26137  -1.08197  -0.28306  -0.10289
  33   37062.3    269.8   0.014060992   0.12490   0.31069   0.16673  -0.02394
  34   37433.4    267.1   0.009700749   0.08531   0.27359  -0.09127   0.04620
  35   37701.9    265.2   0.083065563   0.72533   0.62025   0.21565  -0.54231
  36   37894.6    263.9   0.130782766   1.13618  -0.79178   0.70186  -0.12908
  37   38050.1    262.8   0.023475597   0.20311  -0.37783   0.20240  -0.13925
  38   38509.8    259.7   0.019967154   0.17070   0.38927  -0.10519   0.08999
  39   38871.5    257.3   0.262775097   2.22550  -1.47292   0.02577  -0.23525
  40   39375.1    254.0   0.017068918   0.14271   0.35451  -0.07739   0.10511
  41   39795.8    251.3   0.041190785   0.34075   0.12161   0.55523  -0.13297
  42   39855.6    250.9   0.037516565   0.30989   0.19079  -0.36328   0.37619
  43   40167.9    249.0   0.017686447   0.14496   0.29696  -0.23822   0.00489
  44   40186.1    248.8   0.017573955   0.14397  -0.34427   0.11844   0.10686

FINAL SINGLE POINT ENERGY     -4654.792980391926

DIPOLE MOMENT
-------------
                                X             Y             Z
Electronic contribution:    -80.68637      12.82103     -42.11812
Nuclear contribution   :     83.45518     -14.19395      42.58052
                        -----------------------------------------
Total Dipole Moment    :      2.76881      -1.37293       0.46240
                        -----------------------------------------
Magnitude (a.u.)       :      3.12491
Magnitude (Debye)      :      7.94288

Rotational constants in cm-1:     0.001098     0.000198     0.000192
Rotational constants in MHz :    32.913163     5.930530     5.763992

                             ****ORCA TERMINATED NORMALLY****
TOTAL RUN TIME: 0 days 0 hours 10 minutes 56 seconds 416 msec
