                         Program Version 4.2.0 -  RELEASE  -
|  1> # ORCA input file
|  2> # SCF done       -150.804179969045          0.000479817886
|  3> ! CAM-B3LYP def2-SVP def2/J RIJCOSX Grid4 TightSCF
|  4> %maxcore 5000
|  5> %tddft
|  6>     Mode sTDDFT
|  7>     Ethresh 5.0
|  8>     maxcore 5000
|  9> end
| 10>
| 11> %pal
| 12>   nprocs 6
| 13>   end
| 14> * xyz 0 1
| 15>    C        9.19646        -0.43464        -6.16181
| 16>    C        9.02398        -0.51391        -4.83419
| 17>    C        9.65321         0.27468        -3.81629
| 18>    C        9.28174        -0.04494        -2.55467
| 19>    C        8.33783        -1.10352        -2.47470
| 20>    S        7.92877        -1.67909        -4.07287
| 21>    C        7.80358        -1.65451        -1.32635
| 22>    C        8.07075        -1.29910         0.01182
| 23>    C        7.41578        -2.06925         0.92897
| 24>    C        6.59687        -3.07349         0.37045
| 25>    S        6.66825        -2.98861        -1.37675
| 26>    C        5.90081        -4.01916         1.10270
| 27>    C        5.11586        -5.07086         0.65601
| 28>    C        4.59779        -6.10337         1.46028
| 29>    C        3.93398        -7.03549         0.64992
| 30>    C        3.99641        -6.56392        -0.72739
| 31>    O        3.56042        -7.01906        -1.76063
| 32>    N        4.72888        -5.37735        -0.63339
| 33>    C        3.58002        -8.12178         1.46276
| 34>    O        3.98506        -7.84446         2.74863
| 35>    C        4.62110        -6.60851         2.81208
| 36>    O        5.05817        -6.16724         3.84011
| 37>    C        3.03220        -9.35475         1.17406
| 38>    C        3.03054       -10.40465         2.09125
| 39>    C        2.62271       -11.73045         1.87978
| 40>    C        2.93484       -12.58036         2.91496
| 41>    C        3.58908       -11.94093         3.97517
| 42>    S        3.74905       -10.23240         3.66858
| 43>    C        4.20944       -12.50232         5.09754
| 44>    C        4.41616       -13.84575         5.42640
| 45>    C        5.26934       -14.02858         6.49045
| 46>    C        5.75438       -12.83704         7.05099
| 47>    S        5.04647       -11.46703         6.22206
| 48>    C        6.76966       -12.71942         7.99729
| 49>    C        7.27006       -11.54829         8.53819
| 50>    C        8.51400       -11.36053         9.18038
| 51>    C        8.67109        -9.99784         9.46736
| 52>    C        7.46420        -9.29026         9.06046
| 53>    O        7.13682        -8.13094         9.16071
| 54>    N        6.68575       -10.29494         8.48981
| 55>    C        9.98094        -9.80049         9.91268
| 56>    O       10.62027       -11.01466         9.93284
| 57>    C        9.76156       -12.02279         9.49202
| 58>    O       10.11324       -13.17014         9.42714
| 59>    C       10.63998        -8.62514        10.21866
| 60>    C       12.00417        -8.52637        10.44502
| 61>    C       12.72130        -7.33953        10.69901
| 62>    C       14.07226        -7.51756        10.78341
| 63>    C       14.47491        -8.85763        10.59901
| 64>    S       13.08161        -9.89109        10.34800
| 65>    C       15.76898        -9.34691        10.56993
| 66>    C       16.96962        -8.60394        10.72954
| 67>    C       18.09936        -9.34129        10.61839
| 68>    C       17.86948       -10.73249        10.36209
| 69>    S       16.12467       -11.02986        10.28172
| 70>    C       18.78378       -11.69983        10.19426
| 71>    H        9.87370         0.28640        -6.58432
| 72>    H        8.67103        -1.08122        -6.84031
| 73>    H       10.35816         1.04467        -4.07421
| 74>    H        9.65539         0.44154        -1.67138
| 75>    H        8.73951        -0.49708         0.26624
| 76>    H        7.50362        -1.95261         1.99442
| 77>    H        6.01527        -3.97148         2.17773
| 78>    H        4.94183        -4.81487        -1.44277
| 79>    H        2.66886        -9.52175         0.17211
| 80>    H        2.14021       -12.03616         0.96840
| 81>    H        2.72268       -13.63458         2.91444
| 82>    H        3.97451       -14.64856         4.86399
| 83>    H        5.57270       -14.99098         6.86246
| 84>    H        7.28693       -13.62672         8.27707
| 85>    H        5.76537       -10.10753         8.12341
| 86>    H       10.04169        -7.72630        10.22536
| 87>    H       12.22118        -6.39269        10.79903
| 88>    H       14.77474        -6.72349        10.96072
| 89>    H       16.95391        -7.54544        10.91834
| 90>    H       19.09897        -8.95447        10.70531
| 91>    H       19.83498       -11.47718        10.24603
| 92>    H       18.49955       -12.71785        10.00107
| 93> *
| 94>
| 95>                          ****END OF INPUT****

CARTESIAN COORDINATES (ANGSTROEM)
---------------------------------
  C      9.196460   -0.434640   -6.161810
  C      9.023980   -0.513910   -4.834190
  C      9.653210    0.274680   -3.816290
  C      9.281740   -0.044940   -2.554670
  C      8.337830   -1.103520   -2.474700
  S      7.928770   -1.679090   -4.072870
  C      7.803580   -1.654510   -1.326350
  C      8.070750   -1.299100    0.011820
  C      7.415780   -2.069250    0.928970
  C      6.596870   -3.073490    0.370450
  S      6.668250   -2.988610   -1.376750
  C      5.900810   -4.019160    1.102700
  C      5.115860   -5.070860    0.656010
  C      4.597790   -6.103370    1.460280
  C      3.933980   -7.035490    0.649920
  C      3.996410   -6.563920   -0.727390
  O      3.560420   -7.019060   -1.760630
  N      4.728880   -5.377350   -0.633390
  C      3.580020   -8.121780    1.462760
  O      3.985060   -7.844460    2.748630
  C      4.621100   -6.608510    2.812080
  O      5.058170   -6.167240    3.840110
  C      3.032200   -9.354750    1.174060
  C      3.030540  -10.404650    2.091250
  C      2.622710  -11.730450    1.879780
  C      2.934840  -12.580360    2.914960
  C      3.589080  -11.940930    3.975170
  S      3.749050  -10.232400    3.668580
  C      4.209440  -12.502320    5.097540
  C      4.416160  -13.845750    5.426400
  C      5.269340  -14.028580    6.490450
  C      5.754380  -12.837040    7.050990
  S      5.046470  -11.467030    6.222060
  C      6.769660  -12.719420    7.997290
  C      7.270060  -11.548290    8.538190
  C      8.514000  -11.360530    9.180380
  C      8.671090   -9.997840    9.467360
  C      7.464200   -9.290260    9.060460
  O      7.136820   -8.130940    9.160710
  N      6.685750  -10.294940    8.489810
  C      9.980940   -9.800490    9.912680
  O     10.620270  -11.014660    9.932840
  C      9.761560  -12.022790    9.492020
  O     10.113240  -13.170140    9.427140
  C     10.639980   -8.625140   10.218660
  C     12.004170   -8.526370   10.445020
  C     12.721300   -7.339530   10.699010
  C     14.072260   -7.517560   10.783410
  C     14.474910   -8.857630   10.599010
  S     13.081610   -9.891090   10.348000
  C     15.768980   -9.346910   10.569930
  C     16.969620   -8.603940   10.729540
  C     18.099360   -9.341290   10.618390
  C     17.869480  -10.732490   10.362090
  S     16.124670  -11.029860   10.281720
  C     18.783780  -11.699830   10.194260
  H      9.873700    0.286400   -6.584320
  H      8.671030   -1.081220   -6.840310
  H     10.358160    1.044670   -4.074210
  H      9.655390    0.441540   -1.671380
  H      8.739510   -0.497080    0.266240
  H      7.503620   -1.952610    1.994420
  H      6.015270   -3.971480    2.177730
  H      4.941830   -4.814870   -1.442770
  H      2.668860   -9.521750    0.172110
  H      2.140210  -12.036160    0.968400
  H      2.722680  -13.634580    2.914440
  H      3.974510  -14.648560    4.863990
  H      5.572700  -14.990980    6.862460
  H      7.286930  -13.626720    8.277070
  H      5.765370  -10.107530    8.123410
  H     10.041690   -7.726300   10.225360
  H     12.221180   -6.392690   10.799030
  H     14.774740   -6.723490   10.960720
  H     16.953910   -7.545440   10.918340
  H     19.098970   -8.954470   10.705310
  H     19.834980  -11.477180   10.246030
  H     18.499550  -12.717850   10.001070

 Total Charge           Charge          ....    0
 Multiplicity           Mult            ....    1
 Number of Electrons    NEL             ....  432
 Basis Dimension        Dim             ....  918

ORBITAL ENERGIES
----------------

  NO   OCC          E(Eh)            E(eV)
   0   2.0000     -88.957582     -2420.6589
   1   2.0000     -88.954488     -2420.5747
   2   2.0000     -88.949717     -2420.4449
   3   2.0000     -88.949327     -2420.4342
   4   2.0000     -88.948542     -2420.4129
   5   2.0000     -88.944832     -2420.3119
   6   2.0000     -19.266650      -524.2722
   7   2.0000     -19.264464      -524.2127
   8   2.0000     -19.191773      -522.2347
   9   2.0000     -19.188214      -522.1379
  10   2.0000     -19.175972      -521.8047
  11   2.0000     -19.172873      -521.7204
  12   2.0000     -14.443837      -393.0368
  13   2.0000     -14.440576      -392.9480
  14   2.0000     -10.391835      -282.7762
  15   2.0000     -10.388762      -282.6926
  16   2.0000     -10.368118      -282.1308
  17   2.0000     -10.365101      -282.0487
  18   2.0000     -10.346561      -281.5442
  19   2.0000     -10.344127      -281.4780
  20   2.0000     -10.329644      -281.0839
  21   2.0000     -10.328513      -281.0531
  22   2.0000     -10.324205      -280.9359
  23   2.0000     -10.322886      -280.9000
  24   2.0000     -10.319369      -280.8043
  25   2.0000     -10.318107      -280.7700
  26   2.0000     -10.317708      -280.7591
  27   2.0000     -10.317219      -280.7458
  28   2.0000     -10.315798      -280.7071
  29   2.0000     -10.315666      -280.7035
  30   2.0000     -10.315234      -280.6918
  31   2.0000     -10.312001      -280.6038
  32   2.0000     -10.310645      -280.5669
  33   2.0000     -10.307945      -280.4934
  34   2.0000     -10.297946      -280.2213
  35   2.0000     -10.297809      -280.2176
  36   2.0000     -10.296104      -280.1712
  37   2.0000     -10.295048      -280.1425
  38   2.0000     -10.294669      -280.1322
  39   2.0000     -10.294548      -280.1289
  40   2.0000     -10.290615      -280.0219
  41   2.0000     -10.288667      -279.9688
  42   2.0000     -10.288279      -279.9583
  43   2.0000     -10.287816      -279.9457
  44   2.0000     -10.287278      -279.9311
  45   2.0000     -10.286149      -279.9004
  46   2.0000     -10.283960      -279.8408
  47   2.0000     -10.283629      -279.8318
  48   2.0000     -10.283186      -279.8197
  49   2.0000     -10.282276      -279.7950
  50   2.0000     -10.281254      -279.7671
  51   2.0000     -10.280511      -279.7469
  52   2.0000     -10.265664      -279.3429
  53   2.0000     -10.263746      -279.2907
  54   2.0000     -10.261650      -279.2337
  55   2.0000     -10.261287      -279.2238
  56   2.0000      -8.053747      -219.1536
  57   2.0000      -8.050803      -219.0735
  58   2.0000      -8.046340      -218.9521
  59   2.0000      -8.046048      -218.9441
  60   2.0000      -8.044272      -218.8958
  61   2.0000      -8.040613      -218.7962
  62   2.0000      -6.023450      -163.9064
  63   2.0000      -6.020423      -163.8240
  64   2.0000      -6.019488      -163.7986
  65   2.0000      -6.016283      -163.7114
  66   2.0000      -6.016132      -163.7073
  67   2.0000      -6.015789      -163.6980
  68   2.0000      -6.014737      -163.6693
  69   2.0000      -6.014011      -163.6496
  70   2.0000      -6.012178      -163.5997
  71   2.0000      -6.012029      -163.5956
  72   2.0000      -6.011823      -163.5900
  73   2.0000      -6.010324      -163.5492
  74   2.0000      -6.009715      -163.5327
  75   2.0000      -6.006993      -163.4586
  76   2.0000      -6.006732      -163.4515
  77   2.0000      -6.005864      -163.4279
  78   2.0000      -6.005349      -163.4139
  79   2.0000      -6.001824      -163.3179
  80   2.0000      -1.193929       -32.4885
  81   2.0000      -1.192926       -32.4612
  82   2.0000      -1.115615       -30.3574
  83   2.0000      -1.113656       -30.3041
  84   2.0000      -1.099534       -29.9198
  85   2.0000      -1.097260       -29.8580
  86   2.0000      -1.044348       -28.4181
  87   2.0000      -1.043102       -28.3843
  88   2.0000      -1.002276       -27.2733
  89   2.0000      -1.000488       -27.2247
  90   2.0000      -0.999762       -27.2049
  91   2.0000      -0.978962       -26.6389
  92   2.0000      -0.978009       -26.6130
  93   2.0000      -0.976969       -26.5847
  94   2.0000      -0.904335       -24.6082
  95   2.0000      -0.902357       -24.5544
  96   2.0000      -0.898116       -24.4390
  97   2.0000      -0.896395       -24.3922
  98   2.0000      -0.895175       -24.3589
  99   2.0000      -0.880920       -23.9711
 100   2.0000      -0.870873       -23.6977
 101   2.0000      -0.868205       -23.6251
 102   2.0000      -0.853496       -23.2248
 103   2.0000      -0.852469       -23.1969
 104   2.0000      -0.852126       -23.1875
 105   2.0000      -0.833927       -22.6923
 106   2.0000      -0.831133       -22.6163
 107   2.0000      -0.826348       -22.4861
 108   2.0000      -0.823664       -22.4130
 109   2.0000      -0.815989       -22.2042
 110   2.0000      -0.812673       -22.1140
 111   2.0000      -0.791760       -21.5449
 112   2.0000      -0.767833       -20.8938
 113   2.0000      -0.763488       -20.7756
 114   2.0000      -0.746998       -20.3269
 115   2.0000      -0.743507       -20.2319
 116   2.0000      -0.740360       -20.1462
 117   2.0000      -0.719562       -19.5803
 118   2.0000      -0.716134       -19.4870
 119   2.0000      -0.709504       -19.3066
 120   2.0000      -0.691717       -18.8226
 121   2.0000      -0.687583       -18.7101
 122   2.0000      -0.682793       -18.5797
 123   2.0000      -0.673466       -18.3259
 124   2.0000      -0.668575       -18.1928
 125   2.0000      -0.653976       -17.7956
 126   2.0000      -0.650394       -17.6981
 127   2.0000      -0.646823       -17.6009
 128   2.0000      -0.631449       -17.1826
 129   2.0000      -0.630542       -17.1579
 130   2.0000      -0.628517       -17.1028
 131   2.0000      -0.623782       -16.9740
 132   2.0000      -0.621133       -16.9019
 133   2.0000      -0.609508       -16.5856
 134   2.0000      -0.608927       -16.5697
 135   2.0000      -0.607400       -16.5282
 136   2.0000      -0.606668       -16.5083
 137   2.0000      -0.580558       -15.7978
 138   2.0000      -0.578522       -15.7424
 139   2.0000      -0.575887       -15.6707
 140   2.0000      -0.572390       -15.5755
 141   2.0000      -0.569974       -15.5098
 142   2.0000      -0.566489       -15.4150
 143   2.0000      -0.563555       -15.3351
 144   2.0000      -0.559413       -15.2224
 145   2.0000      -0.558605       -15.2004
 146   2.0000      -0.546991       -14.8844
 147   2.0000      -0.541242       -14.7279
 148   2.0000      -0.538947       -14.6655
 149   2.0000      -0.527821       -14.3627
 150   2.0000      -0.525601       -14.3023
 151   2.0000      -0.518451       -14.1078
 152   2.0000      -0.516025       -14.0418
 153   2.0000      -0.515507       -14.0277
 154   2.0000      -0.514339       -13.9959
 155   2.0000      -0.513246       -13.9661
 156   2.0000      -0.511198       -13.9104
 157   2.0000      -0.508587       -13.8394
 158   2.0000      -0.503778       -13.7085
 159   2.0000      -0.502734       -13.6801
 160   2.0000      -0.502357       -13.6698
 161   2.0000      -0.501266       -13.6401
 162   2.0000      -0.499396       -13.5893
 163   2.0000      -0.496714       -13.5163
 164   2.0000      -0.494719       -13.4620
 165   2.0000      -0.493673       -13.4335
 166   2.0000      -0.491638       -13.3781
 167   2.0000      -0.488159       -13.2835
 168   2.0000      -0.485539       -13.2122
 169   2.0000      -0.484530       -13.1847
 170   2.0000      -0.472807       -12.8657
 171   2.0000      -0.470973       -12.8158
 172   2.0000      -0.470176       -12.7941
 173   2.0000      -0.469690       -12.7809
 174   2.0000      -0.468048       -12.7362
 175   2.0000      -0.463179       -12.6037
 176   2.0000      -0.456842       -12.4313
 177   2.0000      -0.452689       -12.3183
 178   2.0000      -0.450003       -12.2452
 179   2.0000      -0.449320       -12.2266
 180   2.0000      -0.439889       -11.9700
 181   2.0000      -0.438448       -11.9308
 182   2.0000      -0.437218       -11.8973
 183   2.0000      -0.435715       -11.8564
 184   2.0000      -0.435118       -11.8402
 185   2.0000      -0.432492       -11.7687
 186   2.0000      -0.426691       -11.6109
 187   2.0000      -0.424871       -11.5613
 188   2.0000      -0.420416       -11.4401
 189   2.0000      -0.414480       -11.2786
 190   2.0000      -0.409970       -11.1558
 191   2.0000      -0.400224       -10.8907
 192   2.0000      -0.392502       -10.6805
 193   2.0000      -0.390933       -10.6378
 194   2.0000      -0.386817       -10.5258
 195   2.0000      -0.380264       -10.3475
 196   2.0000      -0.356152        -9.6914
 197   2.0000      -0.352465        -9.5911
 198   2.0000      -0.347506        -9.4561
 199   2.0000      -0.346040        -9.4162
 200   2.0000      -0.345259        -9.3950
 201   2.0000      -0.343399        -9.3443
 202   2.0000      -0.338404        -9.2084
 203   2.0000      -0.338063        -9.1992
 204   2.0000      -0.334818        -9.1109
 205   2.0000      -0.330457        -8.9922
 206   2.0000      -0.325897        -8.8681
 207   2.0000      -0.322463        -8.7747
 208   2.0000      -0.321037        -8.7359
 209   2.0000      -0.320179        -8.7125
 210   2.0000      -0.317103        -8.6288
 211   2.0000      -0.282918        -7.6986
 212   2.0000      -0.266135        -7.2419
 213   2.0000      -0.248865        -6.7720
 214   2.0000      -0.218017        -5.9325
 215   2.0000      -0.183632        -4.9969
 216   0.0000      -0.120028        -3.2661
 217   0.0000      -0.085203        -2.3185
 218   0.0000      -0.065652        -1.7865
 219   0.0000      -0.032023        -0.8714
 220   0.0000      -0.011145        -0.3033

MULLIKEN ATOMIC CHARGES
-----------------------
   0 C :   -0.019811
   1 C :   -0.069724
   2 C :    0.056466
   3 C :    0.027938
   4 C :   -0.059120
   5 S :    0.095132
   6 C :   -0.044906
   7 C :    0.034273
   8 C :    0.024069
   9 C :   -0.004452
  10 S :    0.063212
  11 C :   -0.056371
  12 C :    0.078258
  13 C :   -0.108608
  14 C :   -0.012066
  15 C :    0.123039
  16 O :   -0.173565
  17 N :   -0.130437
  18 C :    0.111375
  19 O :   -0.291334
  20 C :    0.221013
  21 O :   -0.147298
  22 C :   -0.040385
  23 C :   -0.020403
  24 C :    0.024033
  25 C :    0.028199
  26 C :   -0.042860
  27 S :    0.145125
  28 C :   -0.040790
  29 C :    0.029919
  30 C :    0.027931
  31 C :   -0.029867
  32 S :    0.079350
  33 C :   -0.021794
  34 C :    0.066203
  35 C :   -0.087173
  36 C :   -0.030143
  37 C :    0.133012
  38 O :   -0.172999
  39 N :   -0.139633
  40 C :    0.121298
  41 O :   -0.281133
  42 C :    0.216583
  43 O :   -0.148557
  44 C :   -0.065531
  45 C :   -0.009168
  46 C :    0.026965
  47 C :    0.033256
  48 C :   -0.056484
  49 S :    0.151753
  50 C :   -0.060686
  51 C :    0.028178
  52 C :    0.059050
  53 C :   -0.070534
  54 S :    0.112642
  55 C :   -0.018738
  56 H :    0.026422
  57 H :    0.028686
  58 H :   -0.006003
  59 H :   -0.007351
  60 H :   -0.009120
  61 H :    0.000059
  62 H :    0.006747
  63 H :    0.129985
  64 H :    0.008677
  65 H :   -0.007012
  66 H :   -0.011234
  67 H :   -0.008955
  68 H :   -0.003159
  69 H :    0.007516
  70 H :    0.135752
  71 H :    0.012270
  72 H :   -0.004946
  73 H :   -0.010358
  74 H :   -0.006299
  75 H :   -0.005493
  76 H :    0.028185
  77 H :    0.031928
Sum of atomic charges:   -0.0000000

LOEWDIN ATOMIC CHARGES
----------------------
   0 C :   -0.061274
   1 C :   -0.141032
   2 C :   -0.023481
   3 C :   -0.027404
   4 C :   -0.166826
   5 S :    0.365601
   6 C :   -0.183912
   7 C :   -0.026614
   8 C :   -0.033538
   9 C :   -0.134728
  10 S :    0.378221
  11 C :   -0.072501
  12 C :    0.052121
  13 C :   -0.121035
  14 C :   -0.106794
  15 C :    0.069377
  16 O :   -0.195169
  17 N :    0.019772
  18 C :    0.079315
  19 O :   -0.072157
  20 C :    0.096509
  21 O :   -0.154960
  22 C :   -0.071327
  23 C :   -0.132388
  24 C :   -0.038811
  25 C :   -0.029273
  26 C :   -0.186782
  27 S :    0.440341
  28 C :   -0.169840
  29 C :   -0.033503
  30 C :   -0.032038
  31 C :   -0.145359
  32 S :    0.404534
  33 C :   -0.058981
  34 C :    0.044920
  35 C :   -0.112045
  36 C :   -0.109393
  37 C :    0.068363
  38 O :   -0.192782
  39 N :    0.019199
  40 C :    0.086491
  41 O :   -0.070323
  42 C :    0.099472
  43 O :   -0.153178
  44 C :   -0.082108
  45 C :   -0.121392
  46 C :   -0.039894
  47 C :   -0.018440
  48 C :   -0.193447
  49 S :    0.427915
  50 C :   -0.157953
  51 C :   -0.028475
  52 C :   -0.019651
  53 C :   -0.142303
  54 S :    0.379770
  55 C :   -0.054951
  56 H :    0.031522
  57 H :    0.029332
  58 H :    0.035723
  59 H :    0.034115
  60 H :    0.033835
  61 H :    0.038474
  62 H :    0.051569
  63 H :    0.069566
  64 H :    0.049939
  65 H :    0.034944
  66 H :    0.031846
  67 H :    0.034116
  68 H :    0.036648
  69 H :    0.050528
  70 H :    0.068976
  71 H :    0.051569
  72 H :    0.036443
  73 H :    0.032150
  74 H :    0.034257
  75 H :    0.035950
  76 H :    0.032024
  77 H :    0.030613

  Mayer bond orders larger than 0.100000
B(  0-C ,  1-C ) :   1.8563 B(  0-C , 56-H ) :   0.9510 B(  0-C , 57-H ) :   0.9420
B(  1-C ,  2-C ) :   1.0840 B(  1-C ,  5-S ) :   1.0070 B(  2-C ,  3-C ) :   1.6472
B(  2-C , 58-H ) :   0.9940 B(  3-C ,  4-C ) :   1.1649 B(  3-C , 59-H ) :   0.9931
B(  4-C ,  5-S ) :   1.0623 B(  4-C ,  6-C ) :   1.5097 B(  6-C ,  7-C ) :   1.2032
B(  6-C , 10-S ) :   1.0444 B(  7-C ,  8-C ) :   1.5537 B(  7-C , 60-H ) :   0.9933
B(  8-C ,  9-C ) :   1.1835 B(  8-C , 61-H ) :   1.0025 B(  9-C , 10-S ) :   1.0435
B(  9-C , 11-C ) :   1.4529 B( 11-C , 12-C ) :   1.2861 B( 11-C , 62-H ) :   0.9504
B( 12-C , 13-C ) :   1.2693 B( 12-C , 17-N ) :   1.1843 B( 13-C , 14-C ) :   1.2769
B( 13-C , 20-C ) :   1.0050 B( 14-C , 15-C ) :   0.9505 B( 14-C , 18-C ) :   1.2563
B( 15-C , 16-O ) :   2.2227 B( 15-C , 17-N ) :   1.0641 B( 17-N , 63-H ) :   0.9106
B( 18-C , 19-O ) :   1.0843 B( 18-C , 22-C ) :   1.3651 B( 19-O , 20-C ) :   0.9929
B( 20-C , 21-O ) :   2.2292 B( 22-C , 23-C ) :   1.3764 B( 22-C , 64-H ) :   0.9684
B( 23-C , 24-C ) :   1.2262 B( 23-C , 27-S ) :   1.0968 B( 24-C , 25-C ) :   1.4923
B( 24-C , 65-H ) :   1.0010 B( 25-C , 26-C ) :   1.2709 B( 25-C , 66-H ) :   0.9973
B( 26-C , 27-S ) :   1.0592 B( 26-C , 28-C ) :   1.3676 B( 28-C , 29-C ) :   1.2766
B( 28-C , 32-S ) :   1.0818 B( 29-C , 30-C ) :   1.4880 B( 29-C , 67-H ) :   0.9949
B( 30-C , 31-C ) :   1.2309 B( 30-C , 68-H ) :   1.0018 B( 31-C , 32-S ) :   1.0515
B( 31-C , 33-C ) :   1.4010 B( 33-C , 34-C ) :   1.3214 B( 33-C , 69-H ) :   0.9561
B( 34-C , 35-C ) :   1.2527 B( 34-C , 39-N ) :   1.1710 B( 35-C , 36-C ) :   1.2794
B( 35-C , 42-C ) :   1.0002 B( 36-C , 37-C ) :   0.9468 B( 36-C , 40-C ) :   1.2801
B( 37-C , 38-O ) :   2.2197 B( 37-C , 39-N ) :   1.0740 B( 39-N , 70-H ) :   0.9070
B( 40-C , 41-O ) :   1.1048 B( 40-C , 44-C ) :   1.3389 B( 41-O , 42-C ) :   0.9942
B( 42-C , 43-O ) :   2.2308 B( 44-C , 45-C ) :   1.4127 B( 44-C , 71-H ) :   0.9644
B( 45-C , 46-C ) :   1.1838 B( 45-C , 49-S ) :   1.0955 B( 46-C , 47-C ) :   1.5482
B( 46-C , 72-H ) :   1.0029 B( 47-C , 48-C ) :   1.2080 B( 47-C , 73-H ) :   0.9946
B( 48-C , 49-S ) :   1.0285 B( 48-C , 50-C ) :   1.4967 B( 50-C , 51-C ) :   1.1672
B( 50-C , 54-S ) :   1.0755 B( 51-C , 52-C ) :   1.6450 B( 51-C , 74-H ) :   0.9922
B( 52-C , 53-C ) :   1.0849 B( 52-C , 75-H ) :   0.9941 B( 53-C , 54-S ) :   1.0070
B( 53-C , 55-C ) :   1.8509 B( 55-C , 76-H ) :   0.9524 B( 55-C , 77-H ) :   0.9423

-----------------------------------------------------------------------------
         ABSORPTION SPECTRUM VIA TRANSITION ELECTRIC DIPOLE MOMENTS
-----------------------------------------------------------------------------
State   Energy  Wavelength   fosc         T2         TX        TY        TZ
        (cm-1)    (nm)                  (au**2)     (au)      (au)      (au)
-----------------------------------------------------------------------------
   0    2522.9   3963.6   0.228770349  29.85163  -2.46564   2.47243  -4.20230
   1    8860.3   1128.6   0.016310430   0.60603  -0.48037  -0.61232  -0.01859
   2   11909.4    839.7   1.746491549  48.27823   5.63096   3.91830  -1.10335
   3   14078.9    710.3   0.010501052   0.24555  -0.38338   0.26503  -0.16832
   4   17602.2    568.1   0.037547868   0.70225  -0.06556   0.76546  -0.33470
   5   18491.2    540.8   0.043271204   0.77039   0.08417  -0.86902   0.09001
   6   18948.5    527.7   0.072084273   1.25239   0.99453   0.25302  -0.44640
   7   21834.6    458.0   0.065101930   0.98158  -0.46172   0.30731  -0.82095
   8   22162.3    451.2   0.024954760   0.37069   0.24172   0.55035  -0.09686
   9   22579.9    442.9   0.233192192   3.39991   1.12452  -0.93409  -1.12376
  10   24577.5    406.9   0.236699930   3.17056   0.56288  -1.15650  -1.23135
  11   25830.9    387.1   0.016177599   0.20618  -0.13836   0.19507  -0.38599
  12   27084.4    369.2   0.010439701   0.12689   0.13018  -0.33059  -0.02565
  13   27206.5    367.6   0.172907378   2.09227  -0.52966   0.68164  -1.16064
  14   27423.1    364.7   0.000124174   0.00149  -0.01315  -0.00388   0.03609
  15   27809.5    359.6   0.012415582   0.14698  -0.36706   0.09759  -0.05218
  16   27860.8    358.9   0.001564889   0.01849   0.11037  -0.05875   0.05345
  17   28492.7    351.0   0.055963308   0.64661   0.30761  -0.36444   0.64744
  18   29460.5    339.4   0.065828828   0.73562   0.17681  -0.83811  -0.04389
  19   29884.9    334.6   0.021486741   0.23670  -0.10286   0.29153  -0.37567
  20   30149.0    331.7   0.038065659   0.41566  -0.54512  -0.22876   0.25724
  21   31083.2    321.7   0.029310127   0.31043   0.35327   0.31654   0.29228
  22   31552.7    316.9   0.127975798   1.33526  -0.50829  -0.83367  -0.61799
  23   31768.6    314.8   0.048277464   0.50029   0.08841   0.68544  -0.15048
  24   32000.5    312.5   0.008342963   0.08583  -0.04736  -0.28744  -0.03103
  25   32366.4    309.0   0.008445162   0.08590  -0.13959  -0.21318  -0.14481
  26   32577.7    307.0   0.000522522   0.00528   0.06168   0.03842   0.00010
  27   32841.7    304.5   0.008421629   0.08442  -0.08395   0.06447   0.27058
  28   32882.1    304.1   0.000479344   0.00480  -0.03159  -0.05247  -0.03238
  29   33204.7    301.2   0.010983644   0.10890   0.20210  -0.21925   0.14136
  30   33489.3    298.6   0.019443980   0.19114  -0.11679   0.39684  -0.14148
  31   33744.7    296.3   0.002541868   0.02480  -0.02924   0.00672   0.15459
  32   34000.4    294.1   0.046722549   0.45239  -0.04406   0.63983   0.20267
  33   34711.9    288.1   0.054839687   0.52011  -0.63434  -0.06474  -0.33695
  34   34967.6    286.0   0.009033858   0.08505   0.05608  -0.27766  -0.06937
  35   35237.3    283.8   0.008560231   0.07998  -0.20446  -0.18731  -0.05553
  36   35292.2    283.3   0.053828550   0.50212  -0.60127  -0.37467  -0.01462
  37   35412.6    282.4   0.000984224   0.00915  -0.05455  -0.07856  -0.00161
  38   35534.7    281.4   0.013823778   0.12807   0.07992   0.32418   0.12880
  39   35589.8    281.0   0.027110992   0.25078  -0.01124  -0.46011  -0.19738
  40   35967.1    278.0   0.009722219   0.08899   0.05937   0.02110  -0.29158
  41   36356.2    275.1   0.099635160   0.90221  -0.75986  -0.53615   0.19331
  42   37029.8    270.1   0.019080455   0.16963   0.24171  -0.29397  -0.15745
  43   37328.2    267.9   0.072506106   0.63946  -0.03212   0.24197   0.76150
  44   37613.3    265.9   0.022424451   0.19627   0.06417  -0.43222   0.07309
  45   38020.1    263.0   0.002528806   0.02190   0.14161  -0.04281   0.00337
  46   38361.9    260.7   0.069947686   0.60027   0.17045  -0.70273  -0.27820
  47   39216.6    255.0   0.043630713   0.36627   0.17596  -0.26293   0.51592
  48   39418.3    253.7   0.033662135   0.28114   0.17233   0.11798   0.48736
  49   39720.9    251.8   0.011192850   0.09277   0.21956  -0.00463   0.21104
  50   39894.2    250.7   0.084961585   0.70111   0.12300  -0.79141  -0.24425
  51   39947.9    250.3   0.030288672   0.24961   0.04768   0.45650   0.19734
  52   40107.0    249.3   0.009489583   0.07789  -0.12401   0.16162   0.19077

FINAL SINGLE POINT ENERGY     -4560.175606149705

DIPOLE MOMENT
-------------
                                X             Y             Z
Electronic contribution:    -21.46621     -12.00121       8.92661
Nuclear contribution   :     24.61089      13.58614      -9.81588
                        -----------------------------------------
Total Dipole Moment    :      3.14468       1.58493      -0.88927
                        -----------------------------------------
Magnitude (a.u.)       :      3.63205
Magnitude (Debye)      :      9.23195

Rotational constants in cm-1:     0.001072     0.000454     0.000339
Rotational constants in MHz :    32.150672    13.615258    10.166710

                             ****ORCA TERMINATED NORMALLY****
TOTAL RUN TIME: 0 days 0 hours 13 minutes 35 seconds 881 msec
