                         Program Version 4.2.0 -  RELEASE  -
|  1> # ORCA input file
|  2> # SCF done       -171.324194721685          0.000397636926
|  3> ! CAM-B3LYP def2-SVP def2/J RIJCOSX Grid4 TightSCF
|  4> %maxcore 5000
|  5> %tddft
|  6>     Mode sTDDFT
|  7>     Ethresh 5.0
|  8>     maxcore 5000
|  9> end
| 10>
| 11> %pal
| 12>   nprocs 6
| 13>   end
| 14> * xyz 0 1
| 15>    C        3.08721        -0.03841        -8.35546
| 16>    C        3.42624        -0.23351        -7.07249
| 17>    C        3.90869         0.73441        -6.13201
| 18>    C        4.17435         0.23352        -4.90283
| 19>    C        3.92666        -1.15858        -4.77354
| 20>    S        3.33114        -1.81503        -6.28174
| 21>    C        4.11117        -1.94073        -3.65108
| 22>    C        4.59599        -1.55538        -2.38453
| 23>    C        4.66415        -2.58155        -1.48847
| 24>    C        4.24720        -3.83722        -1.98827
| 25>    S        3.74923        -3.65470        -3.65752
| 26>    C        4.16599        -4.96911        -1.19523
| 27>    C        3.78577        -6.28562        -1.43248
| 28>    S        3.39230        -7.21667         0.00150
| 29>    C        2.90115        -8.62142        -0.89998
| 30>    C        3.09879        -8.39028        -2.28530
| 31>    C        3.61946        -7.09849        -2.58525
| 32>    C        3.98638        -6.80382        -3.90535
| 33>    C        3.76998        -7.73227        -4.88940
| 34>    F        4.12783        -7.45230        -6.15367
| 35>    C        3.19617        -8.98135        -4.59822
| 36>    F        2.98918        -9.86294        -5.59085
| 37>    C        2.87270        -9.31806        -3.31080
| 38>    C        2.41517        -9.77033        -0.29147
| 39>    C        2.31146        -9.95299         1.07199
| 40>    C        1.83435       -11.10724         1.67671
| 41>    S        1.24697       -12.46797         0.75403
| 42>    C        0.90843       -13.42173         2.17638
| 43>    C        1.24144       -12.68714         3.34338
| 44>    C        1.75237       -11.39066         3.06390
| 45>    C        2.12161       -10.54211         4.11629
| 46>    C        1.98035       -10.98443         5.40524
| 47>    F        2.32931       -10.18203         6.42608
| 48>    C        1.47503       -12.26736         5.68175
| 49>    F        1.35226       -12.66256         6.96074
| 50>    C        1.10686       -13.11571         4.67077
| 51>    C        0.39842       -14.70971         2.10013
| 52>    C        0.04912       -15.34359         0.92504
| 53>    C       -0.42590       -16.64412         0.83864
| 54>    S       -0.56721       -17.68388         2.23391
| 55>    C       -1.16024       -19.03285         1.29878
| 56>    C       -1.25812       -18.66975        -0.07001
| 57>    C       -0.84439       -17.33509        -0.32780
| 58>    C       -0.88611       -16.82896        -1.63379
| 59>    C       -1.32854       -17.63957        -2.64608
| 60>    F       -1.37728       -17.16815        -3.90357
| 61>    C       -1.73557       -18.96114        -2.39157
| 62>    F       -2.16336       -19.72588        -3.41115
| 63>    C       -1.70384       -19.47890        -1.12333
| 64>    C       -1.46137       -20.25862         1.87398
| 65>    C       -1.32004       -20.55553         3.21624
| 66>    C       -1.61435       -21.79357         3.76386
| 67>    C       -1.46579       -22.11925         5.10162
| 68>    C       -1.74441       -23.36196         5.70399
| 69>    C       -1.49864       -23.40397         7.04697
| 70>    C       -1.01093       -22.19000         7.57391
| 71>    S       -0.87631       -20.99060         6.30462
| 72>    C       -0.66697       -21.91026         8.88235
| 73>    C       -0.72711       -22.79085         9.99410
| 74>    C       -0.32338       -22.24104        11.16361
| 75>    C        0.08885       -20.87260        11.06104
| 76>    S       -0.07398       -20.34181         9.37935
| 77>    C        0.53421       -20.07025        12.03955
| 78>    H        3.15944         0.93857        -8.79968
| 79>    H        2.73698        -0.84266        -8.97599
| 80>    H        4.03688         1.76297        -6.41877
| 81>    H        4.54316         0.81629        -4.07744
| 82>    H        4.87932        -0.54209        -2.16462
| 83>    H        5.00784        -2.47286        -0.47465
| 84>    H        4.37086        -4.76410        -0.14881
| 85>    H        4.45953        -5.87463        -4.16630
| 86>    H        2.46410       -10.29347        -3.10501
| 87>    H        2.10457       -10.58012        -0.93734
| 88>    H        2.63597        -9.15007         1.72001
| 89>    H        2.51138        -9.55436         3.93381
| 90>    H        0.72148       -14.09255         4.91198
| 91>    H        0.26527       -15.24725         3.02907
| 92>    H        0.14955       -14.79107         0.00057
| 93>    H       -0.58177       -15.81999        -1.85793
| 94>    H       -2.02319       -20.49471        -0.95892
| 95>    H       -1.82417       -21.03557         1.21474
| 96>    H       -0.95293       -19.78100         3.87862
| 97>    H       -1.98371       -22.57494         3.11161
| 98>    H       -2.11824       -24.19221         5.13071
| 99>    H       -1.65552       -24.27161         7.66202
|100>    H       -1.06856       -23.80525         9.88844
|101>    H       -0.29950       -22.75320        12.10893
|102>    H        0.61821       -20.43133        13.04930
|103>    H        0.81868       -19.05169        11.84992
|104> *
|105>
|106>                          ****END OF INPUT****

CARTESIAN COORDINATES (ANGSTROEM)
---------------------------------
  C      3.087210   -0.038410   -8.355460
  C      3.426240   -0.233510   -7.072490
  C      3.908690    0.734410   -6.132010
  C      4.174350    0.233520   -4.902830
  C      3.926660   -1.158580   -4.773540
  S      3.331140   -1.815030   -6.281740
  C      4.111170   -1.940730   -3.651080
  C      4.595990   -1.555380   -2.384530
  C      4.664150   -2.581550   -1.488470
  C      4.247200   -3.837220   -1.988270
  S      3.749230   -3.654700   -3.657520
  C      4.165990   -4.969110   -1.195230
  C      3.785770   -6.285620   -1.432480
  S      3.392300   -7.216670    0.001500
  C      2.901150   -8.621420   -0.899980
  C      3.098790   -8.390280   -2.285300
  C      3.619460   -7.098490   -2.585250
  C      3.986380   -6.803820   -3.905350
  C      3.769980   -7.732270   -4.889400
  F      4.127830   -7.452300   -6.153670
  C      3.196170   -8.981350   -4.598220
  F      2.989180   -9.862940   -5.590850
  C      2.872700   -9.318060   -3.310800
  C      2.415170   -9.770330   -0.291470
  C      2.311460   -9.952990    1.071990
  C      1.834350  -11.107240    1.676710
  S      1.246970  -12.467970    0.754030
  C      0.908430  -13.421730    2.176380
  C      1.241440  -12.687140    3.343380
  C      1.752370  -11.390660    3.063900
  C      2.121610  -10.542110    4.116290
  C      1.980350  -10.984430    5.405240
  F      2.329310  -10.182030    6.426080
  C      1.475030  -12.267360    5.681750
  F      1.352260  -12.662560    6.960740
  C      1.106860  -13.115710    4.670770
  C      0.398420  -14.709710    2.100130
  C      0.049120  -15.343590    0.925040
  C     -0.425900  -16.644120    0.838640
  S     -0.567210  -17.683880    2.233910
  C     -1.160240  -19.032850    1.298780
  C     -1.258120  -18.669750   -0.070010
  C     -0.844390  -17.335090   -0.327800
  C     -0.886110  -16.828960   -1.633790
  C     -1.328540  -17.639570   -2.646080
  F     -1.377280  -17.168150   -3.903570
  C     -1.735570  -18.961140   -2.391570
  F     -2.163360  -19.725880   -3.411150
  C     -1.703840  -19.478900   -1.123330
  C     -1.461370  -20.258620    1.873980
  C     -1.320040  -20.555530    3.216240
  C     -1.614350  -21.793570    3.763860
  C     -1.465790  -22.119250    5.101620
  C     -1.744410  -23.361960    5.703990
  C     -1.498640  -23.403970    7.046970
  C     -1.010930  -22.190000    7.573910
  S     -0.876310  -20.990600    6.304620
  C     -0.666970  -21.910260    8.882350
  C     -0.727110  -22.790850    9.994100
  C     -0.323380  -22.241040   11.163610
  C      0.088850  -20.872600   11.061040
  S     -0.073980  -20.341810    9.379350
  C      0.534210  -20.070250   12.039550
  H      3.159440    0.938570   -8.799680
  H      2.736980   -0.842660   -8.975990
  H      4.036880    1.762970   -6.418770
  H      4.543160    0.816290   -4.077440
  H      4.879320   -0.542090   -2.164620
  H      5.007840   -2.472860   -0.474650
  H      4.370860   -4.764100   -0.148810
  H      4.459530   -5.874630   -4.166300
  H      2.464100  -10.293470   -3.105010
  H      2.104570  -10.580120   -0.937340
  H      2.635970   -9.150070    1.720010
  H      2.511380   -9.554360    3.933810
  H      0.721480  -14.092550    4.911980
  H      0.265270  -15.247250    3.029070
  H      0.149550  -14.791070    0.000570
  H     -0.581770  -15.819990   -1.857930
  H     -2.023190  -20.494710   -0.958920
  H     -1.824170  -21.035570    1.214740
  H     -0.952930  -19.781000    3.878620
  H     -1.983710  -22.574940    3.111610
  H     -2.118240  -24.192210    5.130710
  H     -1.655520  -24.271610    7.662020
  H     -1.068560  -23.805250    9.888440
  H     -0.299500  -22.753200   12.108930
  H      0.618210  -20.431330   13.049300
  H      0.818680  -19.051690   11.849920

 Total Charge           Charge          ....    0
 Multiplicity           Mult            ....    1
 Number of Electrons    NEL             ....  492
 Basis Dimension        Dim             .... 1040

ORBITAL ENERGIES
----------------

  NO   OCC          E(Eh)            E(eV)
   0   2.0000     -88.960562     -2420.7400
   1   2.0000     -88.959990     -2420.7244
   2   2.0000     -88.959376     -2420.7077
   3   2.0000     -88.946199     -2420.3491
   4   2.0000     -88.942454     -2420.2472
   5   2.0000     -88.938491     -2420.1394
   6   2.0000     -88.937561     -2420.1141
   7   2.0000     -24.783113      -674.3828
   8   2.0000     -24.782872      -674.3762
   9   2.0000     -24.782743      -674.3727
  10   2.0000     -24.782601      -674.3689
  11   2.0000     -24.781230      -674.3316
  12   2.0000     -24.778367      -674.2537
  13   2.0000     -10.364457      -282.0312
  14   2.0000     -10.364383      -282.0292
  15   2.0000     -10.364047      -282.0200
  16   2.0000     -10.363957      -282.0176
  17   2.0000     -10.362022      -281.9649
  18   2.0000     -10.359854      -281.9060
  19   2.0000     -10.310107      -280.5523
  20   2.0000     -10.309466      -280.5348
  21   2.0000     -10.309001      -280.5222
  22   2.0000     -10.308822      -280.5173
  23   2.0000     -10.307711      -280.4871
  24   2.0000     -10.307369      -280.4778
  25   2.0000     -10.307268      -280.4750
  26   2.0000     -10.306869      -280.4642
  27   2.0000     -10.306833      -280.4632
  28   2.0000     -10.306501      -280.4542
  29   2.0000     -10.306093      -280.4431
  30   2.0000     -10.305559      -280.4285
  31   2.0000     -10.304799      -280.4078
  32   2.0000     -10.304266      -280.3933
  33   2.0000     -10.291234      -280.0387
  34   2.0000     -10.291130      -280.0359
  35   2.0000     -10.290953      -280.0311
  36   2.0000     -10.290868      -280.0288
  37   2.0000     -10.290578      -280.0209
  38   2.0000     -10.290320      -280.0138
  39   2.0000     -10.288173      -279.9554
  40   2.0000     -10.287799      -279.9452
  41   2.0000     -10.287765      -279.9443
  42   2.0000     -10.287645      -279.9410
  43   2.0000     -10.287575      -279.9391
  44   2.0000     -10.287519      -279.9376
  45   2.0000     -10.287401      -279.9344
  46   2.0000     -10.285415      -279.8804
  47   2.0000     -10.284858      -279.8652
  48   2.0000     -10.284707      -279.8611
  49   2.0000     -10.284595      -279.8580
  50   2.0000     -10.284053      -279.8433
  51   2.0000     -10.284047      -279.8431
  52   2.0000     -10.283851      -279.8378
  53   2.0000     -10.283432      -279.8264
  54   2.0000     -10.283087      -279.8170
  55   2.0000     -10.282101      -279.7902
  56   2.0000     -10.281629      -279.7773
  57   2.0000     -10.281600      -279.7766
  58   2.0000     -10.280695      -279.7519
  59   2.0000     -10.277676      -279.6698
  60   2.0000     -10.276824      -279.6466
  61   2.0000     -10.269758      -279.4543
  62   2.0000     -10.268836      -279.4292
  63   2.0000      -8.055535      -219.2022
  64   2.0000      -8.054940      -219.1861
  65   2.0000      -8.054702      -219.1796
  66   2.0000      -8.042144      -218.8379
  67   2.0000      -8.038787      -218.7465
  68   2.0000      -8.035137      -218.6472
  69   2.0000      -8.034242      -218.6228
  70   2.0000      -6.024630      -163.9385
  71   2.0000      -6.024042      -163.9225
  72   2.0000      -6.023792      -163.9157
  73   2.0000      -6.020843      -163.8355
  74   2.0000      -6.020196      -163.8179
  75   2.0000      -6.019953      -163.8112
  76   2.0000      -6.017819      -163.7532
  77   2.0000      -6.017260      -163.7380
  78   2.0000      -6.016978      -163.7303
  79   2.0000      -6.011875      -163.5914
  80   2.0000      -6.008463      -163.4986
  81   2.0000      -6.007740      -163.4789
  82   2.0000      -6.004934      -163.4026
  83   2.0000      -6.004530      -163.3916
  84   2.0000      -6.004059      -163.3787
  85   2.0000      -6.003162      -163.3543
  86   2.0000      -6.001007      -163.2957
  87   2.0000      -6.000098      -163.2710
  88   2.0000      -5.999725      -163.2608
  89   2.0000      -5.995757      -163.1528
  90   2.0000      -5.994837      -163.1278
  91   2.0000      -1.304359       -35.4934
  92   2.0000      -1.304340       -35.4929
  93   2.0000      -1.301565       -35.4174
  94   2.0000      -1.289591       -35.0916
  95   2.0000      -1.289523       -35.0897
  96   2.0000      -1.286658       -35.0117
  97   2.0000      -1.001652       -27.2563
  98   2.0000      -0.999429       -27.1958
  99   2.0000      -0.997803       -27.1516
 100   2.0000      -0.991502       -26.9801
 101   2.0000      -0.990832       -26.9619
 102   2.0000      -0.968786       -26.3620
 103   2.0000      -0.968371       -26.3507
 104   2.0000      -0.943711       -25.6797
 105   2.0000      -0.941039       -25.6070
 106   2.0000      -0.937670       -25.5153
 107   2.0000      -0.921062       -25.0634
 108   2.0000      -0.910353       -24.7720
 109   2.0000      -0.897840       -24.4315
 110   2.0000      -0.887048       -24.1378
 111   2.0000      -0.876433       -23.8490
 112   2.0000      -0.868399       -23.6304
 113   2.0000      -0.858718       -23.3669
 114   2.0000      -0.855014       -23.2661
 115   2.0000      -0.848892       -23.0995
 116   2.0000      -0.843249       -22.9460
 117   2.0000      -0.842003       -22.9121
 118   2.0000      -0.840069       -22.8594
 119   2.0000      -0.831908       -22.6374
 120   2.0000      -0.830943       -22.6111
 121   2.0000      -0.828351       -22.5406
 122   2.0000      -0.821374       -22.3507
 123   2.0000      -0.817822       -22.2541
 124   2.0000      -0.813494       -22.1363
 125   2.0000      -0.801626       -21.8133
 126   2.0000      -0.788408       -21.4537
 127   2.0000      -0.775188       -21.0939
 128   2.0000      -0.755684       -20.5632
 129   2.0000      -0.742719       -20.2104
 130   2.0000      -0.733103       -19.9487
 131   2.0000      -0.732971       -19.9451
 132   2.0000      -0.730519       -19.8784
 133   2.0000      -0.727621       -19.7996
 134   2.0000      -0.715816       -19.4783
 135   2.0000      -0.703104       -19.1324
 136   2.0000      -0.690326       -18.7847
 137   2.0000      -0.686152       -18.6711
 138   2.0000      -0.674497       -18.3540
 139   2.0000      -0.671482       -18.2720
 140   2.0000      -0.667636       -18.1673
 141   2.0000      -0.665571       -18.1111
 142   2.0000      -0.650968       -17.7137
 143   2.0000      -0.649436       -17.6721
 144   2.0000      -0.647382       -17.6162
 145   2.0000      -0.636855       -17.3297
 146   2.0000      -0.634720       -17.2716
 147   2.0000      -0.624198       -16.9853
 148   2.0000      -0.623192       -16.9579
 149   2.0000      -0.619398       -16.8547
 150   2.0000      -0.617035       -16.7904
 151   2.0000      -0.615142       -16.7389
 152   2.0000      -0.608947       -16.5703
 153   2.0000      -0.607804       -16.5392
 154   2.0000      -0.605916       -16.4878
 155   2.0000      -0.603991       -16.4354
 156   2.0000      -0.603720       -16.4281
 157   2.0000      -0.597705       -16.2644
 158   2.0000      -0.596888       -16.2422
 159   2.0000      -0.593073       -16.1383
 160   2.0000      -0.588547       -16.0152
 161   2.0000      -0.581975       -15.8363
 162   2.0000      -0.574272       -15.6267
 163   2.0000      -0.569931       -15.5086
 164   2.0000      -0.569879       -15.5072
 165   2.0000      -0.567063       -15.4306
 166   2.0000      -0.564611       -15.3639
 167   2.0000      -0.555918       -15.1273
 168   2.0000      -0.546977       -14.8840
 169   2.0000      -0.544471       -14.8158
 170   2.0000      -0.538660       -14.6577
 171   2.0000      -0.538128       -14.6432
 172   2.0000      -0.534346       -14.5403
 173   2.0000      -0.533213       -14.5095
 174   2.0000      -0.531903       -14.4738
 175   2.0000      -0.531899       -14.4737
 176   2.0000      -0.530969       -14.4484
 177   2.0000      -0.528792       -14.3892
 178   2.0000      -0.525734       -14.3059
 179   2.0000      -0.521311       -14.1856
 180   2.0000      -0.516530       -14.0555
 181   2.0000      -0.511768       -13.9259
 182   2.0000      -0.510392       -13.8885
 183   2.0000      -0.505424       -13.7533
 184   2.0000      -0.503079       -13.6895
 185   2.0000      -0.502347       -13.6696
 186   2.0000      -0.499445       -13.5906
 187   2.0000      -0.498658       -13.5692
 188   2.0000      -0.495137       -13.4734
 189   2.0000      -0.493229       -13.4214
 190   2.0000      -0.492884       -13.4121
 191   2.0000      -0.490928       -13.3588
 192   2.0000      -0.489985       -13.3332
 193   2.0000      -0.484956       -13.1963
 194   2.0000      -0.482669       -13.1341
 195   2.0000      -0.481764       -13.1095
 196   2.0000      -0.479979       -13.0609
 197   2.0000      -0.474930       -12.9235
 198   2.0000      -0.473905       -12.8956
 199   2.0000      -0.468209       -12.7406
 200   2.0000      -0.467735       -12.7277
 201   2.0000      -0.464358       -12.6358
 202   2.0000      -0.461881       -12.5684
 203   2.0000      -0.461113       -12.5475
 204   2.0000      -0.456576       -12.4241
 205   2.0000      -0.453299       -12.3349
 206   2.0000      -0.450928       -12.2704
 207   2.0000      -0.447534       -12.1780
 208   2.0000      -0.445219       -12.1150
 209   2.0000      -0.438504       -11.9323
 210   2.0000      -0.434201       -11.8152
 211   2.0000      -0.432490       -11.7686
 212   2.0000      -0.431860       -11.7515
 213   2.0000      -0.427695       -11.6382
 214   2.0000      -0.426287       -11.5999
 215   2.0000      -0.424250       -11.5444
 216   2.0000      -0.422084       -11.4855
 217   2.0000      -0.420292       -11.4367
 218   2.0000      -0.419196       -11.4069
 219   2.0000      -0.418080       -11.3765
 220   2.0000      -0.411284       -11.1916
 221   2.0000      -0.408462       -11.1148
 222   2.0000      -0.403023       -10.9668
 223   2.0000      -0.402402       -10.9499
 224   2.0000      -0.396744       -10.7960
 225   2.0000      -0.395578       -10.7642
 226   2.0000      -0.393113       -10.6971
 227   2.0000      -0.385450       -10.4886
 228   2.0000      -0.370969       -10.0946
 229   2.0000      -0.354898        -9.6573
 230   2.0000      -0.336521        -9.1572
 231   2.0000      -0.335793        -9.1374
 232   2.0000      -0.335582        -9.1316
 233   2.0000      -0.334319        -9.0973
 234   2.0000      -0.329861        -8.9760
 235   2.0000      -0.324177        -8.8213
 236   2.0000      -0.316353        -8.6084
 237   2.0000      -0.312307        -8.4983
 238   2.0000      -0.311653        -8.4805
 239   2.0000      -0.309560        -8.4236
 240   2.0000      -0.306619        -8.3435
 241   2.0000      -0.282397        -7.6844
 242   2.0000      -0.261287        -7.1100
 243   2.0000      -0.235876        -6.4185
 244   2.0000      -0.208419        -5.6714
 245   2.0000      -0.179024        -4.8715
 246   0.0000      -0.106458        -2.8969
 247   0.0000      -0.076045        -2.0693
 248   0.0000      -0.050811        -1.3826
 249   0.0000      -0.031743        -0.8638
 250   0.0000      -0.020570        -0.5597

MULLIKEN ATOMIC CHARGES
-----------------------
   0 C :   -0.027634
   1 C :   -0.065465
   2 C :    0.050998
   3 C :    0.028910
   4 C :   -0.066886
   5 S :    0.085611
   6 C :   -0.051106
   7 C :    0.029382
   8 C :    0.027005
   9 C :   -0.033510
  10 S :    0.083247
  11 C :   -0.005471
  12 C :   -0.117295
  13 S :    0.117685
  14 C :   -0.069391
  15 C :    0.121557
  16 C :    0.139107
  17 C :   -0.120191
  18 C :    0.214487
  19 F :   -0.179895
  20 C :    0.223649
  21 F :   -0.179734
  22 C :   -0.119503
  23 C :   -0.024556
  24 C :   -0.031234
  25 C :   -0.065851
  26 S :    0.100154
  27 C :   -0.062289
  28 C :    0.129116
  29 C :    0.132625
  30 C :   -0.116954
  31 C :    0.223163
  32 F :   -0.180888
  33 C :    0.222170
  34 F :   -0.181797
  35 C :   -0.117302
  36 C :   -0.032105
  37 C :   -0.032887
  38 C :   -0.066758
  39 S :    0.112428
  40 C :   -0.058567
  41 C :    0.132893
  42 C :    0.132078
  43 C :   -0.118713
  44 C :    0.223262
  45 F :   -0.180742
  46 C :    0.221634
  47 F :   -0.181053
  48 C :   -0.115426
  49 C :   -0.030828
  50 C :    0.004131
  51 C :   -0.011301
  52 C :   -0.022806
  53 C :    0.032179
  54 C :    0.022791
  55 C :   -0.046404
  56 S :    0.076635
  57 C :   -0.065891
  58 C :    0.030115
  59 C :    0.048914
  60 C :   -0.065618
  61 S :    0.085040
  62 C :   -0.026719
  63 H :    0.020521
  64 H :    0.023819
  65 H :   -0.011438
  66 H :   -0.011868
  67 H :   -0.015715
  68 H :   -0.013553
  69 H :   -0.012047
  70 H :   -0.007899
  71 H :   -0.014718
  72 H :   -0.009211
  73 H :   -0.010686
  74 H :   -0.013746
  75 H :   -0.011397
  76 H :   -0.008926
  77 H :   -0.009809
  78 H :   -0.012988
  79 H :   -0.013577
  80 H :   -0.018851
  81 H :    0.003178
  82 H :   -0.019506
  83 H :   -0.014897
  84 H :   -0.015467
  85 H :   -0.012163
  86 H :   -0.011459
  87 H :    0.020859
  88 H :    0.023353
Sum of atomic charges:   -0.0000000

LOEWDIN ATOMIC CHARGES
----------------------
   0 C :   -0.073652
   1 C :   -0.139994
   2 C :   -0.031393
   3 C :   -0.027655
   4 C :   -0.177269
   5 S :    0.357307
   6 C :   -0.183797
   7 C :   -0.039182
   8 C :   -0.035224
   9 C :   -0.155704
  10 S :    0.399974
  11 C :   -0.086692
  12 C :   -0.163890
  13 S :    0.449173
  14 C :   -0.169792
  15 C :   -0.040362
  16 C :   -0.047712
  17 C :   -0.043145
  18 C :    0.058953
  19 F :   -0.057626
  20 C :    0.061213
  21 F :   -0.057955
  22 C :   -0.039720
  23 C :   -0.054241
  24 C :   -0.054072
  25 C :   -0.164787
  26 S :    0.442514
  27 C :   -0.162514
  28 C :   -0.043611
  29 C :   -0.042752
  30 C :   -0.037300
  31 C :    0.060178
  32 F :   -0.059347
  33 C :    0.059844
  34 F :   -0.059117
  35 C :   -0.035989
  36 C :   -0.056094
  37 C :   -0.053043
  38 C :   -0.166403
  39 S :    0.448873
  40 C :   -0.163138
  41 C :   -0.043460
  42 C :   -0.041868
  43 C :   -0.037317
  44 C :    0.060497
  45 F :   -0.058380
  46 C :    0.059276
  47 F :   -0.059374
  48 C :   -0.036581
  49 C :   -0.049369
  50 C :   -0.033776
  51 C :   -0.059380
  52 C :   -0.146914
  53 C :   -0.038444
  54 C :   -0.033732
  55 C :   -0.181478
  56 S :    0.374179
  57 C :   -0.176664
  58 C :   -0.027656
  59 C :   -0.032115
  60 C :   -0.139991
  61 S :    0.357364
  62 C :   -0.073357
  63 H :    0.028889
  64 H :    0.027111
  65 H :    0.033351
  66 H :    0.032360
  67 H :    0.030987
  68 H :    0.032434
  69 H :    0.034087
  70 H :    0.021319
  71 H :    0.039093
  72 H :    0.024586
  73 H :    0.025176
  74 H :    0.039440
  75 H :    0.040276
  76 H :    0.025564
  77 H :    0.024740
  78 H :    0.039545
  79 H :    0.039081
  80 H :    0.031735
  81 H :    0.016518
  82 H :    0.032249
  83 H :    0.032762
  84 H :    0.030768
  85 H :    0.032300
  86 H :    0.033338
  87 H :    0.029042
  88 H :    0.026928

  Mayer bond orders larger than 0.100000
B(  0-C ,  1-C ) :   1.8539 B(  0-C , 63-H ) :   0.9513 B(  0-C , 64-H ) :   0.9417
B(  1-C ,  2-C ) :   1.0859 B(  1-C ,  5-S ) :   1.0089 B(  2-C ,  3-C ) :   1.6458
B(  2-C , 65-H ) :   0.9934 B(  3-C ,  4-C ) :   1.1683 B(  3-C , 66-H ) :   0.9916
B(  4-C ,  5-S ) :   1.0517 B(  4-C ,  6-C ) :   1.5169 B(  6-C ,  7-C ) :   1.1941
B(  6-C , 10-S ) :   1.0415 B(  7-C ,  8-C ) :   1.5672 B(  7-C , 67-H ) :   0.9920
B(  8-C ,  9-C ) :   1.1724 B(  8-C , 68-H ) :   0.9980 B(  9-C , 10-S ) :   1.0362
B(  9-C , 11-C ) :   1.5421 B( 11-C , 12-C ) :   1.2510 B( 11-C , 69-H ) :   0.9337
B( 12-C , 13-S ) :   1.1252 B( 12-C , 16-C ) :   1.2743 B( 13-S , 14-C ) :   1.1116
B( 14-C , 15-C ) :   1.2516 B( 14-C , 23-C ) :   1.3054 B( 15-C , 16-C ) :   1.2332
B( 15-C , 22-C ) :   1.2006 B( 16-C , 17-C ) :   1.1841 B( 17-C , 18-C ) :   1.4921
B( 17-C , 22-C ) :   0.1096 B( 17-C , 70-H ) :   0.9734 B( 18-C , 19-F ) :   1.1259
B( 18-C , 20-C ) :   1.1811 B( 20-C , 21-F ) :   1.1290 B( 20-C , 22-C ) :   1.4710
B( 22-C , 71-H ) :   0.9986 B( 23-C , 24-C ) :   1.4702 B( 23-C , 72-H ) :   0.9628
B( 24-C , 25-C ) :   1.3143 B( 24-C , 73-H ) :   0.9639 B( 25-C , 26-S ) :   1.1014
B( 25-C , 29-C ) :   1.2551 B( 26-S , 27-C ) :   1.1019 B( 27-C , 28-C ) :   1.2538
B( 27-C , 36-C ) :   1.3180 B( 28-C , 29-C ) :   1.2328 B( 28-C , 35-C ) :   1.1913
B( 29-C , 30-C ) :   1.1923 B( 30-C , 31-C ) :   1.4763 B( 30-C , 35-C ) :   0.1131
B( 30-C , 74-H ) :   0.9982 B( 31-C , 32-F ) :   1.1259 B( 31-C , 33-C ) :   1.1814
B( 33-C , 34-F ) :   1.1239 B( 33-C , 35-C ) :   1.4768 B( 35-C , 75-H ) :   0.9987
B( 36-C , 37-C ) :   1.4569 B( 36-C , 76-H ) :   0.9647 B( 37-C , 38-C ) :   1.3192
B( 37-C , 77-H ) :   0.9641 B( 38-C , 39-S ) :   1.1034 B( 38-C , 42-C ) :   1.2499
B( 39-S , 40-C ) :   1.1046 B( 40-C , 41-C ) :   1.2539 B( 40-C , 49-C ) :   1.2820
B( 41-C , 42-C ) :   1.2367 B( 41-C , 48-C ) :   1.1917 B( 42-C , 43-C ) :   1.1937
B( 43-C , 44-C ) :   1.4752 B( 43-C , 48-C ) :   0.1131 B( 43-C , 78-H ) :   0.9982
B( 44-C , 45-F ) :   1.1259 B( 44-C , 46-C ) :   1.1825 B( 46-C , 47-F ) :   1.1258
B( 46-C , 48-C ) :   1.4767 B( 48-C , 79-H ) :   0.9977 B( 49-C , 50-C ) :   1.4911
B( 49-C , 80-H ) :   0.9736 B( 50-C , 51-C ) :   1.2479 B( 50-C , 81-H ) :   0.9700
B( 51-C , 52-C ) :   1.4789 B( 51-C , 82-H ) :   0.9839 B( 52-C , 53-C ) :   1.1787
B( 52-C , 56-S ) :   1.0442 B( 53-C , 54-C ) :   1.5574 B( 53-C , 83-H ) :   0.9992
B( 54-C , 55-C ) :   1.2059 B( 54-C , 84-H ) :   0.9934 B( 55-C , 56-S ) :   1.0447
B( 55-C , 57-C ) :   1.5089 B( 57-C , 58-C ) :   1.1701 B( 57-C , 61-S ) :   1.0537
B( 58-C , 59-C ) :   1.6441 B( 58-C , 85-H ) :   0.9920 B( 59-C , 60-C ) :   1.0856
B( 59-C , 86-H ) :   0.9939 B( 60-C , 61-S ) :   1.0086 B( 60-C , 62-C ) :   1.8544
B( 62-C , 87-H ) :   0.9509 B( 62-C , 88-H ) :   0.9416

-----------------------------------------------------------------------------
         ABSORPTION SPECTRUM VIA TRANSITION ELECTRIC DIPOLE MOMENTS
-----------------------------------------------------------------------------
State   Energy  Wavelength   fosc         T2         TX        TY        TZ
        (cm-1)    (nm)                  (au**2)     (au)      (au)      (au)
-----------------------------------------------------------------------------
   0    5151.7   1941.1   1.256583789  80.29953   1.89100   7.51015  -4.50792
   1   10747.3    930.5   0.001578893   0.04836   0.06595   0.20281  -0.05371
   2   12102.7    826.3   0.124902991   3.39756   0.55046   1.70462   0.43454
   3   15418.2    648.6   0.016088839   0.34353  -0.08267  -0.50845   0.27960
   4   17872.9    559.5   0.920646543  16.95795   1.20895  -0.56168   3.89627
   5   19204.1    520.7   0.081034214   1.38915   0.23904   0.29588   1.11556
   6   19414.3    515.1   0.063483634   1.07651  -0.53763  -0.77888  -0.42522
   7   21006.2    476.0   0.196251070   3.07567   0.44605  -0.31456   1.66666
   8   22753.4    439.5   0.257502574   3.72572   0.15301   1.45961   1.25374
   9   24045.7    415.9   0.283959121   3.88772   0.16468   1.07160   1.64689
  10   24458.0    408.9   0.009726947   0.13093   0.00815  -0.23793  -0.27249
  11   25764.0    388.1   0.050077482   0.63989   0.37152   0.05946   0.70592
  12   27353.4    365.6   0.021833598   0.26278  -0.13743  -0.47396  -0.13875
  13   27753.3    360.3   0.073432434   0.87106   0.42275   0.66620   0.49852
  14   27894.2    358.5   0.071162089   0.83987  -0.17959  -0.34623   0.82930
  15   28896.6    346.1   0.011939908   0.13603   0.22286   0.26011  -0.13676
  16   28921.9    345.8   0.113744018   1.29472   0.32550   0.53177   0.95184
  17   29433.5    339.7   0.043664939   0.48839   0.04004  -0.14717   0.68200
  18   29696.2    336.7   0.082172224   0.91096   0.29977   0.05990   0.90416
  19   30866.9    324.0   0.035175566   0.37517   0.17307   0.58747   0.00958
  20   31005.6    322.5   0.013456527   0.14288   0.16962   0.30862  -0.13733
  21   31139.8    321.1   0.001254387   0.01326   0.00101   0.03544   0.10956
  22   31411.2    318.4   0.007879510   0.08258  -0.08196   0.27538   0.00557
  23   31798.3    314.5   0.059853806   0.61967   0.04868   0.24755   0.74567
  24   32126.3    311.3   0.121389971   1.24393   0.15255   0.37815   1.03811
  25   32632.5    306.4   0.754226242   7.60898   0.20745   0.02522   2.75051
  26   32965.4    303.3   0.000235250   0.00235   0.01186   0.02849   0.03737
  27   33140.3    301.7   0.012341779   0.12260  -0.02968  -0.12994  -0.32378
  28   33483.0    298.7   0.030959946   0.30440  -0.06113  -0.21288  -0.50532
  29   33835.8    295.5   0.191000100   1.85837   0.05082   0.60612  -1.22000
  30   33897.0    295.0   0.058097447   0.56425   0.04345   0.10675   0.74227
  31   35027.2    285.5   0.005505204   0.05174  -0.01543  -0.19295   0.11948
  32   35080.3    285.1   0.065428464   0.61402   0.22421   0.55735   0.50310
  33   35214.8    284.0   0.005166006   0.04830  -0.13429  -0.16684  -0.04925
  34   35337.5    283.0   0.001961674   0.01828  -0.05349  -0.12217   0.02208
  35   35579.7    281.1   0.042746242   0.39552   0.25941   0.57278   0.01239
  36   36042.6    277.4   0.004615537   0.04216  -0.00998  -0.20083   0.04156
  37   36237.2    276.0   0.009467476   0.08601  -0.00090   0.17013  -0.23889
  38   36256.4    275.8   0.040834105   0.37078  -0.06865  -0.55326  -0.24488
  39   36634.3    273.0   0.171178910   1.53829   0.13869   0.35738   1.17955
  40   36802.3    271.7   0.081908571   0.73271  -0.00262  -0.16068   0.84076
  41   36940.9    270.7   0.114840698   1.02344  -0.18956   0.04545  -0.99270
  42   37602.7    265.9   0.055548679   0.48633   0.12743  -0.04959   0.68384
  43   37792.6    264.6   0.017233716   0.15012  -0.21164  -0.16717  -0.27818
  44   37978.6    263.3   0.016695372   0.14472  -0.15858  -0.34065   0.05943
  45   38180.7    261.9   0.055538801   0.47888  -0.09406  -0.23328  -0.64468
  46   38389.1    260.5   0.051913492   0.44519  -0.14683  -0.24523  -0.60291
  47   38725.3    258.2   0.066670576   0.56678  -0.13230   0.12205  -0.73101
  48   38960.1    256.7   0.004200867   0.03550   0.05584   0.16529  -0.07112
  49   39603.6    252.5   0.024148807   0.20074  -0.12549  -0.31912   0.28837
  50   39892.6    250.7   0.030353445   0.25049  -0.00705   0.17605   0.46845
  51   40015.9    249.9   0.018171997   0.14950   0.02426   0.05972   0.38124

FINAL SINGLE POINT ENERGY     -5303.271012948524

DIPOLE MOMENT
-------------
                                X             Y             Z
Electronic contribution:      0.76116       1.98106     -24.85696
Nuclear contribution   :     -0.67295      -1.91659      26.41302
                        -----------------------------------------
Total Dipole Moment    :      0.08821       0.06447       1.55606
                        -----------------------------------------
Magnitude (a.u.)       :      1.55989
Magnitude (Debye)      :      3.96493

Rotational constants in cm-1:     0.001653     0.000246     0.000216
Rotational constants in MHz :    49.551605     7.366402     6.470064

                             ****ORCA TERMINATED NORMALLY****
TOTAL RUN TIME: 0 days 0 hours 13 minutes 27 seconds 446 msec
