                         Program Version 4.2.0 -  RELEASE  -
|  1> # ORCA input file
|  2> # SCF done       -154.184479668000          0.000995988811
|  3> ! CAM-B3LYP def2-SVP def2/J RIJCOSX Grid4 TightSCF
|  4> %maxcore 5000
|  5> %tddft
|  6>     Mode sTDDFT
|  7>     Ethresh 5.0
|  8>     maxcore 5000
|  9> end
| 10>
| 11> %pal
| 12>   nprocs 6
| 13>   end
| 14> * xyz 0 1
| 15>    C       -1.62365        -6.32577        -5.75560
| 16>    C       -1.50015        -4.99324        -5.68389
| 17>    C       -2.11853        -4.00713        -6.52367
| 18>    C       -1.80797        -2.73065        -6.20635
| 19>    C       -0.92510        -2.60141        -5.09703
| 20>    S       -0.49792        -4.17825        -4.47079
| 21>    C       -0.43852        -1.43736        -4.54830
| 22>    C       -0.66916        -0.10561        -4.97049
| 23>    C       -0.02409         0.82606        -4.22049
| 24>    C        0.76739         0.28957        -3.16949
| 25>    S        0.62564        -1.45303        -3.15549
| 26>    C        1.43697         1.03356        -2.22833
| 27>    C        2.27178         0.56681        -1.19172
| 28>    C        3.11735        -0.53215        -1.20958
| 29>    C        3.82424        -1.06107        -0.02416
| 30>    C        3.73344        -0.45597         1.24968
| 31>    C        3.08586         0.70867         1.44736
| 32>    S        2.20512         1.57784         0.24427
| 33>    N        4.58396        -2.10039        -0.29924
| 34>    C        4.48814        -2.29329        -1.64364
| 35>    C        3.59784        -1.35314        -2.23937
| 36>    S        3.56381        -1.51605        -3.94756
| 37>    C        4.70220        -2.86822        -3.86748
| 38>    C        5.08798        -3.14724        -2.55846
| 39>    C        5.06355        -3.46375        -5.07982
| 40>    C        5.88190        -4.55006        -5.29507
| 41>    C        6.19392        -5.08739        -6.56495
| 42>    C        7.00343        -6.18565        -6.53093
| 43>    C        7.37229        -6.57764        -5.22940
| 44>    S        6.67133        -5.49836        -4.04858
| 45>    C        8.15538        -7.65962        -4.85462
| 46>    C        8.75715        -8.62443        -5.68215
| 47>    C        9.44080        -9.58704        -4.99497
| 48>    C        9.41515        -9.42993        -3.59124
| 49>    S        8.49823        -8.00348        -3.17130
| 50>    C       10.01127       -10.29464        -2.69436
| 51>    C       10.03921       -10.23816        -1.29866
| 52>    C       10.64935       -11.24172        -0.54250
| 53>    C       10.72837       -11.28377         0.92644
| 54>    C       10.18453       -10.26127         1.73443
| 55>    C        9.55084        -9.19509         1.20654
| 56>    S        9.29226        -8.88801        -0.47536
| 57>    N       11.34557       -12.35969         1.37887
| 58>    C       11.70269       -13.07573         0.27796
| 59>    C       11.29616       -12.41878        -0.91967
| 60>    S       11.74356       -13.31421        -2.31808
| 61>    C       12.46725       -14.57430        -1.30479
| 62>    C       12.35418       -14.28223         0.05018
| 63>    C       13.04179       -15.66811        -1.96451
| 64>    C       13.62544       -16.78666        -1.42146
| 65>    C       14.18953       -17.84833        -2.17374
| 66>    C       14.70178       -18.86266        -1.42703
| 67>    C       14.57036       -18.66852        -0.03132
| 68>    S       13.77995       -17.13682         0.29074
| 69>    C       14.96957       -19.50999         0.98176
| 70>    C       15.62136       -20.76684         0.85417
| 71>    C       15.88628       -21.38066         2.02951
| 72>    C       15.45977       -20.65088         3.18789
| 73>    S       14.71007       -19.13152         2.67305
| 74>    C       15.57884       -21.00844         4.47436
| 75>    H       -2.24389        -6.78002        -6.50829
| 76>    H       -1.11155        -6.97882        -5.07245
| 77>    H       -2.76896        -4.30159        -7.32819
| 78>    H       -2.18233        -1.86696        -6.72706
| 79>    H       -1.29655         0.12415        -5.81287
| 80>    H       -0.07434         1.88722        -4.39043
| 81>    H        1.21040         2.09347        -2.21250
| 82>    H        4.25280        -0.93284         2.06688
| 83>    H        3.05653         1.20559         2.40317
| 84>    H        5.78154        -3.92225        -2.29344
| 85>    H        4.63586        -3.01677        -5.96926
| 86>    H        5.80788        -4.64629        -7.46726
| 87>    H        7.33579        -6.71912        -7.40312
| 88>    H        8.67114        -8.59406        -6.75348
| 89>    H        9.96066       -10.40925        -5.45399
| 90>    H       10.52030       -11.14279        -3.13496
| 91>    H       10.28667       -10.35696         2.80478
| 92>    H        9.12943        -8.41103         1.81429
| 93>    H       12.73214       -14.91813         0.82792
| 94>    H       13.01777       -15.62995        -3.04710
| 95>    H       14.19513       -17.82341        -3.24964
| 96>    H       15.16367       -19.74227        -1.83785
| 97>    H       15.87348       -21.17048        -0.11026
| 98>    H       16.37373       -22.33418         2.13047
| 99>    H       16.04072       -21.94160         4.74438
|100>    H       15.21827       -20.38329         5.27006
|101> *
|102>
|103>                          ****END OF INPUT****

CARTESIAN COORDINATES (ANGSTROEM)
---------------------------------
  C     -1.623650   -6.325770   -5.755600
  C     -1.500150   -4.993240   -5.683890
  C     -2.118530   -4.007130   -6.523670
  C     -1.807970   -2.730650   -6.206350
  C     -0.925100   -2.601410   -5.097030
  S     -0.497920   -4.178250   -4.470790
  C     -0.438520   -1.437360   -4.548300
  C     -0.669160   -0.105610   -4.970490
  C     -0.024090    0.826060   -4.220490
  C      0.767390    0.289570   -3.169490
  S      0.625640   -1.453030   -3.155490
  C      1.436970    1.033560   -2.228330
  C      2.271780    0.566810   -1.191720
  C      3.117350   -0.532150   -1.209580
  C      3.824240   -1.061070   -0.024160
  C      3.733440   -0.455970    1.249680
  C      3.085860    0.708670    1.447360
  S      2.205120    1.577840    0.244270
  N      4.583960   -2.100390   -0.299240
  C      4.488140   -2.293290   -1.643640
  C      3.597840   -1.353140   -2.239370
  S      3.563810   -1.516050   -3.947560
  C      4.702200   -2.868220   -3.867480
  C      5.087980   -3.147240   -2.558460
  C      5.063550   -3.463750   -5.079820
  C      5.881900   -4.550060   -5.295070
  C      6.193920   -5.087390   -6.564950
  C      7.003430   -6.185650   -6.530930
  C      7.372290   -6.577640   -5.229400
  S      6.671330   -5.498360   -4.048580
  C      8.155380   -7.659620   -4.854620
  C      8.757150   -8.624430   -5.682150
  C      9.440800   -9.587040   -4.994970
  C      9.415150   -9.429930   -3.591240
  S      8.498230   -8.003480   -3.171300
  C     10.011270  -10.294640   -2.694360
  C     10.039210  -10.238160   -1.298660
  C     10.649350  -11.241720   -0.542500
  C     10.728370  -11.283770    0.926440
  C     10.184530  -10.261270    1.734430
  C      9.550840   -9.195090    1.206540
  S      9.292260   -8.888010   -0.475360
  N     11.345570  -12.359690    1.378870
  C     11.702690  -13.075730    0.277960
  C     11.296160  -12.418780   -0.919670
  S     11.743560  -13.314210   -2.318080
  C     12.467250  -14.574300   -1.304790
  C     12.354180  -14.282230    0.050180
  C     13.041790  -15.668110   -1.964510
  C     13.625440  -16.786660   -1.421460
  C     14.189530  -17.848330   -2.173740
  C     14.701780  -18.862660   -1.427030
  C     14.570360  -18.668520   -0.031320
  S     13.779950  -17.136820    0.290740
  C     14.969570  -19.509990    0.981760
  C     15.621360  -20.766840    0.854170
  C     15.886280  -21.380660    2.029510
  C     15.459770  -20.650880    3.187890
  S     14.710070  -19.131520    2.673050
  C     15.578840  -21.008440    4.474360
  H     -2.243890   -6.780020   -6.508290
  H     -1.111550   -6.978820   -5.072450
  H     -2.768960   -4.301590   -7.328190
  H     -2.182330   -1.866960   -6.727060
  H     -1.296550    0.124150   -5.812870
  H     -0.074340    1.887220   -4.390430
  H      1.210400    2.093470   -2.212500
  H      4.252800   -0.932840    2.066880
  H      3.056530    1.205590    2.403170
  H      5.781540   -3.922250   -2.293440
  H      4.635860   -3.016770   -5.969260
  H      5.807880   -4.646290   -7.467260
  H      7.335790   -6.719120   -7.403120
  H      8.671140   -8.594060   -6.753480
  H      9.960660  -10.409250   -5.453990
  H     10.520300  -11.142790   -3.134960
  H     10.286670  -10.356960    2.804780
  H      9.129430   -8.411030    1.814290
  H     12.732140  -14.918130    0.827920
  H     13.017770  -15.629950   -3.047100
  H     14.195130  -17.823410   -3.249640
  H     15.163670  -19.742270   -1.837850
  H     15.873480  -21.170480   -0.110260
  H     16.373730  -22.334180    2.130470
  H     16.040720  -21.941600    4.744380
  H     15.218270  -20.383290    5.270060

 Total Charge           Charge          ....    0
 Multiplicity           Mult            ....    1
 Number of Electrons    NEL             ....  488
 Basis Dimension        Dim             .... 1010

ORBITAL ENERGIES
----------------

  NO   OCC          E(Eh)            E(eV)
   0   2.0000     -88.966003     -2420.8880
   1   2.0000     -88.957852     -2420.6662
   2   2.0000     -88.954925     -2420.5866
   3   2.0000     -88.952828     -2420.5295
   4   2.0000     -88.950890     -2420.4768
   5   2.0000     -88.949238     -2420.4318
   6   2.0000     -88.946771     -2420.3647
   7   2.0000     -88.929697     -2419.9001
   8   2.0000     -88.926839     -2419.8223
   9   2.0000     -88.921621     -2419.6803
  10   2.0000     -14.372829      -391.1046
  11   2.0000     -14.351622      -390.5275
  12   2.0000     -10.333167      -281.1798
  13   2.0000     -10.331115      -281.1239
  14   2.0000     -10.327600      -281.0283
  15   2.0000     -10.321757      -280.8693
  16   2.0000     -10.319423      -280.8058
  17   2.0000     -10.316945      -280.7383
  18   2.0000     -10.313553      -280.6461
  19   2.0000     -10.311548      -280.5915
  20   2.0000     -10.309415      -280.5334
  21   2.0000     -10.306863      -280.4640
  22   2.0000     -10.305140      -280.4171
  23   2.0000     -10.304719      -280.4057
  24   2.0000     -10.303072      -280.3608
  25   2.0000     -10.302426      -280.3433
  26   2.0000     -10.299349      -280.2595
  27   2.0000     -10.299123      -280.2534
  28   2.0000     -10.294868      -280.1376
  29   2.0000     -10.293014      -280.0872
  30   2.0000     -10.292894      -280.0839
  31   2.0000     -10.292022      -280.0601
  32   2.0000     -10.291863      -280.0558
  33   2.0000     -10.291557      -280.0475
  34   2.0000     -10.290823      -280.0275
  35   2.0000     -10.289972      -280.0044
  36   2.0000     -10.288657      -279.9686
  37   2.0000     -10.287711      -279.9429
  38   2.0000     -10.287502      -279.9372
  39   2.0000     -10.287252      -279.9304
  40   2.0000     -10.285534      -279.8836
  41   2.0000     -10.282064      -279.7892
  42   2.0000     -10.280742      -279.7532
  43   2.0000     -10.280546      -279.7479
  44   2.0000     -10.279418      -279.7172
  45   2.0000     -10.279084      -279.7081
  46   2.0000     -10.277613      -279.6681
  47   2.0000     -10.275231      -279.6032
  48   2.0000     -10.274369      -279.5798
  49   2.0000     -10.268599      -279.4228
  50   2.0000     -10.268464      -279.4191
  51   2.0000     -10.267997      -279.4064
  52   2.0000     -10.267043      -279.3804
  53   2.0000     -10.266956      -279.3781
  54   2.0000     -10.265067      -279.3267
  55   2.0000     -10.263451      -279.2827
  56   2.0000     -10.261491      -279.2294
  57   2.0000     -10.255637      -279.0701
  58   2.0000     -10.253542      -279.0131
  59   2.0000     -10.246345      -278.8172
  60   2.0000      -8.061690      -219.3697
  61   2.0000      -8.053424      -219.1448
  62   2.0000      -8.051516      -219.0929
  63   2.0000      -8.047940      -218.9956
  64   2.0000      -8.045061      -218.9172
  65   2.0000      -8.045011      -218.9159
  66   2.0000      -8.042612      -218.8506
  67   2.0000      -8.024181      -218.3491
  68   2.0000      -8.022690      -218.3085
  69   2.0000      -8.018324      -218.1897
  70   2.0000      -6.031237      -164.1183
  71   2.0000      -6.026788      -163.9972
  72   2.0000      -6.023488      -163.9074
  73   2.0000      -6.023118      -163.8974
  74   2.0000      -6.021333      -163.8488
  75   2.0000      -6.018939      -163.7837
  76   2.0000      -6.017482      -163.7440
  77   2.0000      -6.017334      -163.7400
  78   2.0000      -6.014795      -163.6709
  79   2.0000      -6.014521      -163.6634
  80   2.0000      -6.014405      -163.6603
  81   2.0000      -6.012930      -163.6201
  82   2.0000      -6.012345      -163.6042
  83   2.0000      -6.012127      -163.5983
  84   2.0000      -6.010647      -163.5580
  85   2.0000      -6.010464      -163.5530
  86   2.0000      -6.009924      -163.5384
  87   2.0000      -6.008077      -163.4881
  88   2.0000      -6.006975      -163.4581
  89   2.0000      -6.006131      -163.4351
  90   2.0000      -6.003742      -163.3701
  91   2.0000      -5.993740      -163.0979
  92   2.0000      -5.992463      -163.0632
  93   2.0000      -5.989923      -162.9941
  94   2.0000      -5.988412      -162.9530
  95   2.0000      -5.988161      -162.9461
  96   2.0000      -5.985740      -162.8803
  97   2.0000      -5.984231      -162.8392
  98   2.0000      -5.983589      -162.8217
  99   2.0000      -5.978841      -162.6925
 100   2.0000      -1.041161       -28.3314
 101   2.0000      -1.019717       -27.7479
 102   2.0000      -1.008045       -27.4303
 103   2.0000      -0.997086       -27.1321
 104   2.0000      -0.986150       -26.8345
 105   2.0000      -0.977073       -26.5875
 106   2.0000      -0.975377       -26.5414
 107   2.0000      -0.964563       -26.2471
 108   2.0000      -0.953827       -25.9549
 109   2.0000      -0.953183       -25.9374
 110   2.0000      -0.946256       -25.7489
 111   2.0000      -0.932675       -25.3794
 112   2.0000      -0.908152       -24.7121
 113   2.0000      -0.893814       -24.3219
 114   2.0000      -0.886203       -24.1148
 115   2.0000      -0.877500       -23.8780
 116   2.0000      -0.868153       -23.6236
 117   2.0000      -0.860879       -23.4257
 118   2.0000      -0.855164       -23.2702
 119   2.0000      -0.849815       -23.1246
 120   2.0000      -0.847196       -23.0534
 121   2.0000      -0.844952       -22.9923
 122   2.0000      -0.835655       -22.7393
 123   2.0000      -0.832436       -22.6517
 124   2.0000      -0.829087       -22.5606
 125   2.0000      -0.827661       -22.5218
 126   2.0000      -0.822469       -22.3805
 127   2.0000      -0.809808       -22.0360
 128   2.0000      -0.804164       -21.8824
 129   2.0000      -0.803071       -21.8527
 130   2.0000      -0.795540       -21.6478
 131   2.0000      -0.785029       -21.3617
 132   2.0000      -0.783042       -21.3077
 133   2.0000      -0.771217       -20.9859
 134   2.0000      -0.754243       -20.5240
 135   2.0000      -0.743644       -20.2356
 136   2.0000      -0.732664       -19.9368
 137   2.0000      -0.713898       -19.4261
 138   2.0000      -0.704935       -19.1823
 139   2.0000      -0.699845       -19.0438
 140   2.0000      -0.683174       -18.5901
 141   2.0000      -0.677379       -18.4324
 142   2.0000      -0.674889       -18.3647
 143   2.0000      -0.672701       -18.3051
 144   2.0000      -0.657637       -17.8952
 145   2.0000      -0.653647       -17.7866
 146   2.0000      -0.646997       -17.6057
 147   2.0000      -0.639818       -17.4103
 148   2.0000      -0.632859       -17.2210
 149   2.0000      -0.631459       -17.1829
 150   2.0000      -0.626404       -17.0453
 151   2.0000      -0.623991       -16.9797
 152   2.0000      -0.613768       -16.7015
 153   2.0000      -0.612060       -16.6550
 154   2.0000      -0.608112       -16.5476
 155   2.0000      -0.606223       -16.4962
 156   2.0000      -0.603232       -16.4148
 157   2.0000      -0.597786       -16.2666
 158   2.0000      -0.591789       -16.1034
 159   2.0000      -0.587709       -15.9924
 160   2.0000      -0.582846       -15.8601
 161   2.0000      -0.576884       -15.6978
 162   2.0000      -0.572996       -15.5920
 163   2.0000      -0.566380       -15.4120
 164   2.0000      -0.554988       -15.1020
 165   2.0000      -0.553893       -15.0722
 166   2.0000      -0.549030       -14.9399
 167   2.0000      -0.545127       -14.8337
 168   2.0000      -0.539511       -14.6808
 169   2.0000      -0.534806       -14.5528
 170   2.0000      -0.524948       -14.2846
 171   2.0000      -0.523497       -14.2451
 172   2.0000      -0.519419       -14.1341
 173   2.0000      -0.517478       -14.0813
 174   2.0000      -0.512582       -13.9481
 175   2.0000      -0.511415       -13.9163
 176   2.0000      -0.509668       -13.8688
 177   2.0000      -0.507353       -13.8058
 178   2.0000      -0.501293       -13.6409
 179   2.0000      -0.500795       -13.6273
 180   2.0000      -0.499056       -13.5800
 181   2.0000      -0.496030       -13.4977
 182   2.0000      -0.494001       -13.4425
 183   2.0000      -0.491727       -13.3806
 184   2.0000      -0.488683       -13.2977
 185   2.0000      -0.485511       -13.2114
 186   2.0000      -0.483769       -13.1640
 187   2.0000      -0.479731       -13.0541
 188   2.0000      -0.478133       -13.0107
 189   2.0000      -0.476229       -12.9589
 190   2.0000      -0.473865       -12.8945
 191   2.0000      -0.472288       -12.8516
 192   2.0000      -0.469529       -12.7765
 193   2.0000      -0.465999       -12.6805
 194   2.0000      -0.462880       -12.5956
 195   2.0000      -0.457465       -12.4483
 196   2.0000      -0.454420       -12.3654
 197   2.0000      -0.452868       -12.3232
 198   2.0000      -0.451156       -12.2766
 199   2.0000      -0.448694       -12.2096
 200   2.0000      -0.443751       -12.0751
 201   2.0000      -0.439040       -11.9469
 202   2.0000      -0.437175       -11.8961
 203   2.0000      -0.435925       -11.8621
 204   2.0000      -0.435256       -11.8439
 205   2.0000      -0.431033       -11.7290
 206   2.0000      -0.427424       -11.6308
 207   2.0000      -0.423730       -11.5303
 208   2.0000      -0.420435       -11.4406
 209   2.0000      -0.415408       -11.3038
 210   2.0000      -0.412163       -11.2155
 211   2.0000      -0.410493       -11.1701
 212   2.0000      -0.409963       -11.1557
 213   2.0000      -0.406706       -11.0670
 214   2.0000      -0.405982       -11.0473
 215   2.0000      -0.401936       -10.9372
 216   2.0000      -0.401445       -10.9239
 217   2.0000      -0.393976       -10.7206
 218   2.0000      -0.390256       -10.6194
 219   2.0000      -0.382378       -10.4050
 220   2.0000      -0.378792       -10.3075
 221   2.0000      -0.377110       -10.2617
 222   2.0000      -0.369012       -10.0413
 223   2.0000      -0.361142        -9.8272
 224   2.0000      -0.352954        -9.6044
 225   2.0000      -0.348052        -9.4710
 226   2.0000      -0.337035        -9.1712
 227   2.0000      -0.330246        -8.9865
 228   2.0000      -0.325887        -8.8678
 229   2.0000      -0.322949        -8.7879
 230   2.0000      -0.322521        -8.7762
 231   2.0000      -0.321004        -8.7350
 232   2.0000      -0.318134        -8.6569
 233   2.0000      -0.312443        -8.5020
 234   2.0000      -0.311035        -8.4637
 235   2.0000      -0.302859        -8.2412
 236   2.0000      -0.300893        -8.1877
 237   2.0000      -0.275889        -7.5073
 238   2.0000      -0.263460        -7.1691
 239   2.0000      -0.255960        -6.9650
 240   2.0000      -0.242554        -6.6002
 241   2.0000      -0.238461        -6.4888
 242   2.0000      -0.211673        -5.7599
 243   2.0000      -0.187267        -5.0958
 244   0.0000      -0.097642        -2.6570
 245   0.0000      -0.080972        -2.2034
 246   0.0000      -0.049100        -1.3361
 247   0.0000      -0.030436        -0.8282
 248   0.0000      -0.019293        -0.5250

MULLIKEN ATOMIC CHARGES
-----------------------
   0 C :   -0.015269
   1 C :   -0.073576
   2 C :    0.061399
   3 C :    0.026789
   4 C :   -0.053791
   5 S :    0.106707
   6 C :   -0.067259
   7 C :    0.043510
   8 C :    0.033218
   9 C :   -0.034726
  10 S :    0.130596
  11 C :   -0.018450
  12 C :   -0.148737
  13 C :    0.058308
  14 C :   -0.025723
  15 C :    0.062051
  16 C :   -0.089978
  17 S :    0.125697
  18 N :   -0.067254
  19 C :    0.091865
  20 C :   -0.144442
  21 S :    0.142843
  22 C :   -0.102351
  23 C :   -0.068367
  24 C :    0.053462
  25 C :   -0.044990
  26 C :    0.044563
  27 C :    0.016567
  28 C :   -0.023495
  29 S :    0.078634
  30 C :   -0.047709
  31 C :    0.036483
  32 C :    0.018432
  33 C :   -0.015953
  34 S :    0.089511
  35 C :   -0.056184
  36 C :   -0.068507
  37 C :    0.036183
  38 C :   -0.018169
  39 C :    0.055876
  40 C :   -0.073196
  41 S :    0.095336
  42 N :   -0.073465
  43 C :    0.100081
  44 C :   -0.136022
  45 S :    0.078287
  46 C :   -0.071161
  47 C :   -0.090863
  48 C :    0.031488
  49 C :   -0.034467
  50 C :    0.034006
  51 C :    0.020578
  52 C :   -0.032797
  53 S :    0.062800
  54 C :   -0.069809
  55 C :    0.027764
  56 C :    0.049896
  57 C :   -0.064672
  58 S :    0.078636
  59 C :   -0.033592
  60 H :    0.029058
  61 H :    0.033811
  62 H :   -0.003216
  63 H :   -0.005923
  64 H :   -0.010138
  65 H :   -0.007089
  66 H :    0.001859
  67 H :   -0.003561
  68 H :    0.049946
  69 H :   -0.004205
  70 H :   -0.014160
  71 H :   -0.011528
  72 H :   -0.014217
  73 H :   -0.012538
  74 H :   -0.007707
  75 H :   -0.014092
  76 H :   -0.008554
  77 H :    0.045753
  78 H :   -0.008181
  79 H :   -0.022497
  80 H :   -0.017363
  81 H :   -0.021173
  82 H :   -0.016200
  83 H :   -0.017751
  84 H :    0.014220
  85 H :    0.018856
Sum of atomic charges:    0.0000000

LOEWDIN ATOMIC CHARGES
----------------------
   0 C :   -0.053014
   1 C :   -0.142661
   2 C :   -0.016425
   3 C :   -0.028793
   4 C :   -0.156395
   5 S :    0.372034
   6 C :   -0.191846
   7 C :   -0.020044
   8 C :   -0.039474
   9 C :   -0.130519
  10 S :    0.422503
  11 C :   -0.106019
  12 C :   -0.129416
  13 C :   -0.091497
  14 C :    0.006433
  15 C :   -0.037968
  16 C :   -0.174983
  17 S :    0.440056
  18 N :   -0.123011
  19 C :   -0.029529
  20 C :   -0.228249
  21 S :    0.424398
  22 C :   -0.167296
  23 C :   -0.057302
  24 C :   -0.050526
  25 C :   -0.161157
  26 C :   -0.017801
  27 C :   -0.049147
  28 C :   -0.157342
  29 S :    0.399217
  30 C :   -0.196092
  31 C :   -0.024726
  32 C :   -0.043034
  33 C :   -0.131322
  34 S :    0.386170
  35 C :   -0.093962
  36 C :   -0.133831
  37 C :   -0.083710
  38 C :   -0.001805
  39 C :   -0.034273
  40 C :   -0.182642
  41 S :    0.438781
  42 N :   -0.132632
  43 C :   -0.030450
  44 C :   -0.224514
  45 S :    0.387274
  46 C :   -0.158440
  47 C :   -0.062998
  48 C :   -0.074412
  49 C :   -0.152635
  50 C :   -0.031718
  51 C :   -0.044904
  52 C :   -0.178247
  53 S :    0.382762
  54 C :   -0.183310
  55 C :   -0.026562
  56 C :   -0.038160
  57 C :   -0.138736
  58 S :    0.349523
  59 C :   -0.085968
  60 H :    0.032749
  61 H :    0.031721
  62 H :    0.036913
  63 H :    0.034504
  64 H :    0.033365
  65 H :    0.035109
  66 H :    0.034229
  67 H :    0.045565
  68 H :    0.033349
  69 H :    0.023642
  70 H :    0.034178
  71 H :    0.033988
  72 H :    0.031507
  73 H :    0.032404
  74 H :    0.034911
  75 H :    0.032536
  76 H :    0.043839
  77 H :    0.031514
  78 H :    0.021922
  79 H :    0.030343
  80 H :    0.031223
  81 H :    0.028460
  82 H :    0.030604
  83 H :    0.030898
  84 H :    0.026069
  85 H :    0.024808

  Mayer bond orders larger than 0.100000
B(  0-C ,  1-C ) :   1.8655 B(  0-C , 60-H ) :   0.9513 B(  0-C , 61-H ) :   0.9418
B(  1-C ,  2-C ) :   1.0773 B(  1-C ,  5-S ) :   1.0046 B(  2-C ,  3-C ) :   1.6633
B(  2-C , 62-H ) :   0.9935 B(  3-C ,  4-C ) :   1.1491 B(  3-C , 63-H ) :   0.9929
B(  4-C ,  5-S ) :   1.0671 B(  4-C ,  6-C ) :   1.5427 B(  6-C ,  7-C ) :   1.1737
B(  6-C , 10-S ) :   1.0318 B(  7-C ,  8-C ) :   1.6047 B(  7-C , 64-H ) :   0.9923
B(  8-C ,  9-C ) :   1.1352 B(  8-C , 65-H ) :   0.9976 B(  9-C , 10-S ) :   1.0849
B(  9-C , 11-C ) :   1.5813 B( 11-C , 12-C ) :   1.1726 B( 11-C , 66-H ) :   0.9428
B( 12-C , 13-C ) :   1.4086 B( 12-C , 17-S ) :   1.0987 B( 13-C , 14-C ) :   1.0408
B( 13-C , 20-C ) :   1.2669 B( 14-C , 15-C ) :   1.1830 B( 14-C , 18-N ) :   1.6538
B( 15-C , 16-C ) :   1.6401 B( 15-C , 67-H ) :   0.9758 B( 16-C , 17-S ) :   1.1037
B( 16-C , 68-H ) :   0.9420 B( 18-N , 19-C ) :   1.3198 B( 19-C , 20-C ) :   1.3129
B( 19-C , 23-C ) :   1.2881 B( 20-C , 21-S ) :   1.0650 B( 21-S , 22-C ) :   1.0802
B( 22-C , 23-C ) :   1.3836 B( 22-C , 24-C ) :   1.1955 B( 23-C , 69-H ) :   0.9938
B( 24-C , 25-C ) :   1.5695 B( 24-C , 70-H ) :   0.9503 B( 25-C , 26-C ) :   1.1661
B( 25-C , 29-S ) :   1.0338 B( 26-C , 27-C ) :   1.5615 B( 26-C , 71-H ) :   0.9993
B( 27-C , 28-C ) :   1.2069 B( 27-C , 72-H ) :   0.9939 B( 28-C , 29-S ) :   1.0656
B( 28-C , 30-C ) :   1.4671 B( 30-C , 31-C ) :   1.2142 B( 30-C , 34-S ) :   1.0326
B( 31-C , 32-C ) :   1.5521 B( 31-C , 73-H ) :   0.9932 B( 32-C , 33-C ) :   1.1786
B( 32-C , 74-H ) :   1.0012 B( 33-C , 34-S ) :   1.0662 B( 33-C , 35-C ) :   1.4949
B( 35-C , 36-C ) :   1.2664 B( 35-C , 75-H ) :   0.9610 B( 36-C , 37-C ) :   1.3555
B( 36-C , 41-S ) :   1.0756 B( 37-C , 38-C ) :   1.0496 B( 37-C , 44-C ) :   1.2979
B( 38-C , 39-C ) :   1.1855 B( 38-C , 42-N ) :   1.6297 B( 39-C , 40-C ) :   1.6277
B( 39-C , 76-H ) :   0.9766 B( 40-C , 41-S ) :   1.1069 B( 40-C , 77-H ) :   0.9413
B( 42-N , 43-C ) :   1.3345 B( 43-C , 44-C ) :   1.3306 B( 43-C , 47-C ) :   1.2500
B( 44-C , 45-S ) :   1.0487 B( 45-S , 46-C ) :   1.0623 B( 46-C , 47-C ) :   1.4258
B( 46-C , 48-C ) :   1.1771 B( 47-C , 78-H ) :   0.9942 B( 48-C , 49-C ) :   1.5962
B( 48-C , 79-H ) :   0.9503 B( 49-C , 50-C ) :   1.1452 B( 49-C , 53-S ) :   1.0360
B( 50-C , 51-C ) :   1.5970 B( 50-C , 80-H ) :   0.9988 B( 51-C , 52-C ) :   1.1745
B( 51-C , 81-H ) :   0.9917 B( 52-C , 53-S ) :   1.0365 B( 52-C , 54-C ) :   1.5475
B( 54-C , 55-C ) :   1.1576 B( 54-C , 58-S ) :   1.0408 B( 55-C , 56-C ) :   1.6546
B( 55-C , 82-H ) :   0.9921 B( 56-C , 57-C ) :   1.0834 B( 56-C , 83-H ) :   0.9924
B( 57-C , 58-S ) :   1.0105 B( 57-C , 59-C ) :   1.8603 B( 59-C , 84-H ) :   0.9502
B( 59-C , 85-H ) :   0.9409

-----------------------------------------------------------------------------
         ABSORPTION SPECTRUM VIA TRANSITION ELECTRIC DIPOLE MOMENTS
-----------------------------------------------------------------------------
State   Energy  Wavelength   fosc         T2         TX        TY        TZ
        (cm-1)    (nm)                  (au**2)     (au)      (au)      (au)
-----------------------------------------------------------------------------
   0    8961.9   1115.8   1.529875256  56.19920  -4.71349   5.44596  -2.07936
   1   12537.8    797.6   0.189894791   4.98619   0.47079   2.10897  -0.56284
   2   13588.3    735.9   0.410440078   9.94399   2.21022  -2.20460   0.44570
   3   17178.4    582.1   0.728269753  13.95680  -0.01527  -3.72317  -0.30748
   4   17818.7    561.2   0.173698422   3.20920  -0.33651   0.98801  -1.45595
   5   18422.6    542.8   0.207285157   3.70418   1.21517  -0.91194   1.18149
   6   18666.2    535.7   0.064681166   1.14077  -0.60697  -0.11718  -0.87099
   7   19993.6    500.2   0.114361993   1.88307   1.16486   0.65509   0.31149
   8   21828.9    458.1   0.076019383   1.14649   0.45627   0.15413   0.95632
   9   22677.0    441.0   0.206695712   3.00070   0.35120   1.30473   1.08399
  10   23998.7    416.7   0.464922971   6.37778  -0.52077   2.09601   1.30894
  11   24816.1    403.0   0.051784019   0.68697   0.65300   0.40410   0.31187
  12   24860.6    402.2   0.086009731   1.13897   0.14137  -0.19993   1.03875
  13   25287.6    395.5   0.006069035   0.07901  -0.15882  -0.21090  -0.09647
  14   25799.6    387.6   0.012555198   0.16021  -0.11572  -0.37517   0.07790
  15   26016.6    384.4   0.006290532   0.07960  -0.11204   0.25727  -0.02930
  16   27265.7    366.8   0.141797162   1.71209  -0.02132  -0.23073  -1.28779
  17   27966.1    357.6   0.116743539   1.37428   0.10515   0.27522   1.13467
  18   28647.3    349.1   0.194798879   2.23861  -0.00167   0.59429   1.37311
  19   29182.9    342.7   0.004371074   0.04931   0.13309   0.04102  -0.17296
  20   29527.8    338.7   0.207487145   2.31332  -0.20495   0.08414   1.50474
  21   29542.0    338.5   0.002266821   0.02526   0.01128   0.02729   0.15617
  22   30253.8    330.5   0.122039098   1.32799  -0.16351   1.12256   0.20278
  23   30665.2    326.1   0.000523119   0.00562   0.04173  -0.01003  -0.06143
  24   31301.2    319.5   0.051105092   0.53750   0.00062  -0.04612  -0.73169
  25   31447.1    318.0   0.202364277   2.11850  -0.03995   0.21190   1.43945
  26   31758.0    314.9   0.080740396   0.83698  -0.16422   0.88784   0.14750
  27   32068.7    311.8   0.094122828   0.96625  -0.35693   0.38788   0.82970
  28   32354.1    309.1   0.095240164   0.96909  -0.13721  -0.07647   0.97181
  29   32839.5    304.5   0.015729173   0.15768   0.15128  -0.23730   0.28015
  30   32983.9    303.2   0.016455149   0.16424   0.05537  -0.23472  -0.32570
  31   33106.3    302.1   0.185689322   1.84651   0.36277  -0.79900  -1.03755
  32   33251.4    300.7   0.237965574   2.35603  -0.33166   0.84966   1.23454
  33   33571.5    297.9   0.009151811   0.08975  -0.00469  -0.13507  -0.26736
  34   33816.7    295.7   0.043875129   0.42713  -0.06580   0.25280   0.59908
  35   34354.4    291.1   0.013633190   0.13064   0.16168  -0.31909  -0.05184
  36   34519.4    289.7   0.126236365   1.20392   0.74727  -0.79307   0.12860
  37   34530.6    289.6   0.016093998   0.15344  -0.24730   0.22940  -0.19915
  38   35081.7    285.0   0.299902609   2.81433   0.30415  -0.80707  -1.43891
  39   35520.0    281.5   0.006546122   0.06067   0.08516   0.08673   0.21424
  40   35589.1    281.0   0.021492461   0.19881  -0.13755   0.08834  -0.41484
  41   35911.5    278.5   0.003716537   0.03407  -0.03289   0.17121   0.06064
  42   36251.6    275.8   0.095702123   0.86910  -0.35042   0.86368   0.01888
  43   36522.7    273.8   0.046356942   0.41786  -0.31707   0.45551   0.33141
  44   36894.2    271.0   0.013300318   0.11868  -0.03129  -0.34305   0.00403
  45   37206.0    268.8   0.006971054   0.06168  -0.13304  -0.09797   0.18543
  46   37258.0    268.4   0.055781704   0.49289  -0.04892   0.65972   0.23509
  47   37380.0    267.5   0.016804856   0.14800   0.07290   0.04745   0.37475
  48   37575.6    266.1   0.000870007   0.00762   0.06697   0.05436  -0.01351
  49   37753.2    264.9   0.048481213   0.42276   0.19449   0.00594   0.62040
  50   37904.7    263.8   0.017024529   0.14786   0.31883  -0.20119  -0.07572
  51   38114.3    262.4   0.035272993   0.30467   0.35164  -0.41986   0.06884
  52   38458.5    260.0   0.044532996   0.38121  -0.24477   0.36952   0.42983
  53   38628.1    258.9   0.003614745   0.03081  -0.06851   0.14084   0.07923
  54   38786.2    257.8   0.030964087   0.26282   0.08505   0.49706   0.09229
  55   38935.3    256.8   0.080801157   0.68320   0.09717   0.09864   0.81488
  56   39290.6    254.5   0.121803048   1.02058   0.03913  -1.00020  -0.13654
  57   39381.7    253.9   0.037463399   0.31318   0.31353  -0.46345  -0.00929
  58   39613.9    252.4   0.017134092   0.14239  -0.14845  -0.06114  -0.34149
  59   39683.4    252.0   0.041691203   0.34587  -0.16469   0.01446  -0.56439
  60   39724.0    251.7   0.000332579   0.00276   0.04545   0.01729   0.01979
  61   39891.7    250.7   0.084717869   0.69915  -0.43132   0.68620  -0.20553
  62   40174.0    248.9   0.026727865   0.21903  -0.02914  -0.25897  -0.38873
  63   40258.6    248.4   0.000279457   0.00229  -0.03209   0.02946   0.01969

FINAL SINGLE POINT ENERGY     -5932.263540648717

DIPOLE MOMENT
-------------
                                X             Y             Z
Electronic contribution:     -5.39373      27.21338       6.34013
Nuclear contribution   :      1.20899     -24.03932     -10.38135
                        -----------------------------------------
Total Dipole Moment    :     -4.18474       3.17406      -4.04123
                        -----------------------------------------
Magnitude (a.u.)       :      6.62708
Magnitude (Debye)      :     16.84471

Rotational constants in cm-1:     0.002251     0.000228     0.000219
Rotational constants in MHz :    67.481401     6.825394     6.572950

                             ****ORCA TERMINATED NORMALLY****
TOTAL RUN TIME: 0 days 0 hours 6 minutes 44 seconds 439 msec
