                         Program Version 4.2.0 -  RELEASE  -
|  1> # ORCA input file
|  2> # SCF done       -154.574211810394          0.000383913438
|  3> ! CAM-B3LYP def2-SVP def2/J RIJCOSX Grid4 TightSCF
|  4> %maxcore 5000
|  5> %tddft
|  6>     Mode sTDDFT
|  7>     Ethresh 5.0
|  8>     maxcore 5000
|  9> end
| 10>
| 11> %pal
| 12>   nprocs 6
| 13>   end
| 14> * xyz 0 1
| 15>    C        5.81112       -18.26605         4.43605
| 16>    C        6.59602       -17.23660         4.78415
| 17>    C        7.81846       -17.27516         5.53337
| 18>    C        8.39158       -16.06600         5.73005
| 19>    C        7.67773       -14.97901         5.15665
| 20>    S        6.23362       -15.55812         4.35128
| 21>    C        8.01214       -13.64389         5.18602
| 22>    C        9.13230       -13.02944         5.79149
| 23>    C        9.17094       -11.67792         5.63116
| 24>    C        8.08899       -11.14321         4.89094
| 25>    S        7.00825       -12.43342         4.40658
| 26>    C        7.90052        -9.81388         4.58310
| 27>    C        6.85321        -9.25972         3.84970
| 28>    S        5.56116       -10.21519         3.18917
| 29>    C        4.76566        -8.84359         2.47814
| 30>    C        5.48625        -7.66737         2.74822
| 31>    C        6.66309        -7.89642         3.52255
| 32>    C        7.48781        -6.81826         3.87599
| 33>    C        7.14567        -5.55811         3.46893
| 34>    F        7.92688        -4.51361         3.80121
| 35>    C        5.98385        -5.33014         2.70403
| 36>    F        5.68670        -4.07325         2.32610
| 37>    C        5.16122        -6.35942         2.34419
| 38>    C        3.56673        -8.99281         1.74802
| 39>    C        2.94942       -10.18754         1.57516
| 40>    C        1.74288       -10.42912         0.84970
| 41>    C        1.02650        -9.50888         0.13647
| 42>    S       -0.38363       -10.13668        -0.62438
| 43>    C       -0.04881       -11.73238         0.00293
| 44>    C        1.12499       -11.73549         0.78477
| 45>    C        1.53421       -12.92114         1.38265
| 46>    C        0.77078       -14.04980         1.16309
| 47>    C       -0.40955       -14.05002         0.38109
| 48>    C       -0.95693       -15.36383         0.27056
| 49>    C       -0.24985       -16.28809         0.95169
| 50>    S        1.12990       -15.64240         1.77389
| 51>    C       -0.85221       -12.85065        -0.20063
| 52>    C       -2.07087       -12.71780        -0.98287
| 53>    C       -3.23697       -13.29734        -0.67008
| 54>    C       -4.49064       -13.19476        -1.38136
| 55>    C       -4.93355       -12.22427        -2.19109
| 56>    C       -4.21459       -10.95149        -2.50744
| 57>    C       -6.28773       -12.35616        -2.84230
| 58>    N       -7.14636       -11.25851        -2.46462
| 59>    C       -8.14919       -10.79872        -3.24421
| 60>    C       -9.07006        -9.88614        -2.83926
| 61>    C      -10.13266        -9.36508        -3.61153
| 62>    C      -10.55907        -9.70120        -4.86735
| 63>    C      -11.67352        -9.11787        -5.52890
| 64>    C      -11.95152        -9.63343        -6.75344
| 65>    C      -11.07055       -10.66756        -7.15905
| 66>    S       -9.86635       -10.94280        -5.91388
| 67>    C      -11.09051       -11.39322        -8.32314
| 68>    C      -12.00763       -11.28025        -9.40238
| 69>    C      -11.78508       -12.14076       -10.42107
| 70>    C      -10.66131       -13.01141       -10.23064
| 71>    S       -9.91399       -12.65634        -8.66526
| 72>    C      -10.20409       -13.95760       -11.06239
| 73>    H        6.06773       -19.27175         4.71860
| 74>    H        4.90966       -18.12234         3.86923
| 75>    H        8.21342       -18.20941         5.89117
| 76>    H        9.30944       -15.90990         6.26883
| 77>    H        9.87407       -13.59630         6.32479
| 78>    H        9.94693       -11.04267         6.02125
| 79>    H        8.65273        -9.12833         4.94918
| 80>    H        8.38223        -6.96036         4.46003
| 81>    H        4.27922        -6.15626         1.75971
| 82>    H        3.14468        -8.09384         1.32311
| 83>    H        3.40569       -11.05608         2.03032
| 84>    H        1.24727        -8.46835         0.00213
| 85>    H        2.42163       -12.97263         1.99234
| 86>    H       -1.82286       -15.59974        -0.32001
| 87>    H       -0.44495       -17.34008         1.02841
| 88>    H       -1.98670       -12.06729        -1.84039
| 89>    H       -3.27437       -13.93143         0.20740
| 90>    H       -5.16018       -14.02776        -1.19604
| 91>    H       -3.62503       -10.60995        -1.65960
| 92>    H       -4.93193       -10.17873        -2.77757
| 93>    H       -3.54438       -11.09215        -3.35568
| 94>    H       -6.74331       -13.32013        -2.57380
| 95>    H       -6.17427       -12.32898        -3.93118
| 96>    H       -7.17111       -11.02837        -1.48159
| 97>    H       -8.14637       -11.18069        -4.25303
| 98>    H       -8.99699        -9.51201        -1.82538
| 99>    H      -10.72172        -8.59497        -3.12762
|100>    H      -12.24043        -8.33027        -5.06247
|101>    H      -12.76468        -9.30804        -7.37741
|102>    H      -12.80699       -10.56019        -9.38178
|103>    H      -12.37782       -12.20050       -11.31689
|104>    H      -10.69003       -14.14072       -12.00438
|105>    H       -9.34658       -14.55789       -10.82017
|106> *
|107>
|108>                          ****END OF INPUT****

CARTESIAN COORDINATES (ANGSTROEM)
---------------------------------
  C      5.811120  -18.266050    4.436050
  C      6.596020  -17.236600    4.784150
  C      7.818460  -17.275160    5.533370
  C      8.391580  -16.066000    5.730050
  C      7.677730  -14.979010    5.156650
  S      6.233620  -15.558120    4.351280
  C      8.012140  -13.643890    5.186020
  C      9.132300  -13.029440    5.791490
  C      9.170940  -11.677920    5.631160
  C      8.088990  -11.143210    4.890940
  S      7.008250  -12.433420    4.406580
  C      7.900520   -9.813880    4.583100
  C      6.853210   -9.259720    3.849700
  S      5.561160  -10.215190    3.189170
  C      4.765660   -8.843590    2.478140
  C      5.486250   -7.667370    2.748220
  C      6.663090   -7.896420    3.522550
  C      7.487810   -6.818260    3.875990
  C      7.145670   -5.558110    3.468930
  F      7.926880   -4.513610    3.801210
  C      5.983850   -5.330140    2.704030
  F      5.686700   -4.073250    2.326100
  C      5.161220   -6.359420    2.344190
  C      3.566730   -8.992810    1.748020
  C      2.949420  -10.187540    1.575160
  C      1.742880  -10.429120    0.849700
  C      1.026500   -9.508880    0.136470
  S     -0.383630  -10.136680   -0.624380
  C     -0.048810  -11.732380    0.002930
  C      1.124990  -11.735490    0.784770
  C      1.534210  -12.921140    1.382650
  C      0.770780  -14.049800    1.163090
  C     -0.409550  -14.050020    0.381090
  C     -0.956930  -15.363830    0.270560
  C     -0.249850  -16.288090    0.951690
  S      1.129900  -15.642400    1.773890
  C     -0.852210  -12.850650   -0.200630
  C     -2.070870  -12.717800   -0.982870
  C     -3.236970  -13.297340   -0.670080
  C     -4.490640  -13.194760   -1.381360
  C     -4.933550  -12.224270   -2.191090
  C     -4.214590  -10.951490   -2.507440
  C     -6.287730  -12.356160   -2.842300
  N     -7.146360  -11.258510   -2.464620
  C     -8.149190  -10.798720   -3.244210
  C     -9.070060   -9.886140   -2.839260
  C    -10.132660   -9.365080   -3.611530
  C    -10.559070   -9.701200   -4.867350
  C    -11.673520   -9.117870   -5.528900
  C    -11.951520   -9.633430   -6.753440
  C    -11.070550  -10.667560   -7.159050
  S     -9.866350  -10.942800   -5.913880
  C    -11.090510  -11.393220   -8.323140
  C    -12.007630  -11.280250   -9.402380
  C    -11.785080  -12.140760  -10.421070
  C    -10.661310  -13.011410  -10.230640
  S     -9.913990  -12.656340   -8.665260
  C    -10.204090  -13.957600  -11.062390
  H      6.067730  -19.271750    4.718600
  H      4.909660  -18.122340    3.869230
  H      8.213420  -18.209410    5.891170
  H      9.309440  -15.909900    6.268830
  H      9.874070  -13.596300    6.324790
  H      9.946930  -11.042670    6.021250
  H      8.652730   -9.128330    4.949180
  H      8.382230   -6.960360    4.460030
  H      4.279220   -6.156260    1.759710
  H      3.144680   -8.093840    1.323110
  H      3.405690  -11.056080    2.030320
  H      1.247270   -8.468350    0.002130
  H      2.421630  -12.972630    1.992340
  H     -1.822860  -15.599740   -0.320010
  H     -0.444950  -17.340080    1.028410
  H     -1.986700  -12.067290   -1.840390
  H     -3.274370  -13.931430    0.207400
  H     -5.160180  -14.027760   -1.196040
  H     -3.625030  -10.609950   -1.659600
  H     -4.931930  -10.178730   -2.777570
  H     -3.544380  -11.092150   -3.355680
  H     -6.743310  -13.320130   -2.573800
  H     -6.174270  -12.328980   -3.931180
  H     -7.171110  -11.028370   -1.481590
  H     -8.146370  -11.180690   -4.253030
  H     -8.996990   -9.512010   -1.825380
  H    -10.721720   -8.594970   -3.127620
  H    -12.240430   -8.330270   -5.062470
  H    -12.764680   -9.308040   -7.377410
  H    -12.806990  -10.560190   -9.381780
  H    -12.377820  -12.200500  -11.316890
  H    -10.690030  -14.140720  -12.004380
  H     -9.346580  -14.557890  -10.820170

 Total Charge           Charge          ....    0
 Multiplicity           Mult            ....    1
 Number of Electrons    NEL             ....  458
 Basis Dimension        Dim             .... 1005

ORBITAL ENERGIES
----------------

  NO   OCC          E(Eh)            E(eV)
   0   2.0000     -88.961011     -2420.7522
   1   2.0000     -88.947986     -2420.3978
   2   2.0000     -88.945763     -2420.3373
   3   2.0000     -88.942855     -2420.2581
   4   2.0000     -88.939409     -2420.1644
   5   2.0000     -88.925111     -2419.7753
   6   2.0000     -88.917192     -2419.5598
   7   2.0000     -24.779916      -674.2958
   8   2.0000     -24.779755      -674.2914
   9   2.0000     -14.430439      -392.6722
  10   2.0000     -10.361214      -281.9430
  11   2.0000     -10.360278      -281.9175
  12   2.0000     -10.311271      -280.5839
  13   2.0000     -10.308604      -280.5114
  14   2.0000     -10.307321      -280.4765
  15   2.0000     -10.307201      -280.4732
  16   2.0000     -10.306561      -280.4558
  17   2.0000     -10.306188      -280.4456
  18   2.0000     -10.305199      -280.4187
  19   2.0000     -10.299284      -280.2578
  20   2.0000     -10.294958      -280.1401
  21   2.0000     -10.294033      -280.1149
  22   2.0000     -10.292932      -280.0849
  23   2.0000     -10.292369      -280.0696
  24   2.0000     -10.290111      -280.0082
  25   2.0000     -10.290031      -280.0060
  26   2.0000     -10.286973      -279.9228
  27   2.0000     -10.286769      -279.9172
  28   2.0000     -10.286512      -279.9102
  29   2.0000     -10.285778      -279.8902
  30   2.0000     -10.285527      -279.8834
  31   2.0000     -10.285018      -279.8696
  32   2.0000     -10.284534      -279.8564
  33   2.0000     -10.284346      -279.8513
  34   2.0000     -10.284175      -279.8466
  35   2.0000     -10.283710      -279.8340
  36   2.0000     -10.283405      -279.8257
  37   2.0000     -10.281475      -279.7732
  38   2.0000     -10.280413      -279.7443
  39   2.0000     -10.278548      -279.6935
  40   2.0000     -10.278408      -279.6897
  41   2.0000     -10.278254      -279.6855
  42   2.0000     -10.277779      -279.6726
  43   2.0000     -10.276686      -279.6429
  44   2.0000     -10.275955      -279.6230
  45   2.0000     -10.275075      -279.5990
  46   2.0000     -10.273954      -279.5685
  47   2.0000     -10.271359      -279.4979
  48   2.0000     -10.270415      -279.4722
  49   2.0000     -10.269550      -279.4487
  50   2.0000     -10.269016      -279.4341
  51   2.0000     -10.266217      -279.3580
  52   2.0000     -10.266167      -279.3566
  53   2.0000     -10.262547      -279.2581
  54   2.0000     -10.261433      -279.2278
  55   2.0000     -10.261392      -279.2267
  56   2.0000     -10.247612      -278.8517
  57   2.0000     -10.246420      -278.8193
  58   2.0000      -8.055565      -219.2031
  59   2.0000      -8.043666      -218.8793
  60   2.0000      -8.041781      -218.8280
  61   2.0000      -8.039198      -218.7577
  62   2.0000      -8.036085      -218.6730
  63   2.0000      -8.020796      -218.2570
  64   2.0000      -8.013823      -218.0672
  65   2.0000      -6.024578      -163.9371
  66   2.0000      -6.020570      -163.8280
  67   2.0000      -6.018237      -163.7646
  68   2.0000      -6.013218      -163.6280
  69   2.0000      -6.011551      -163.5826
  70   2.0000      -6.008949      -163.5118
  71   2.0000      -6.008819      -163.5083
  72   2.0000      -6.007406      -163.4698
  73   2.0000      -6.005890      -163.4286
  74   2.0000      -6.005388      -163.4149
  75   2.0000      -6.004632      -163.3943
  76   2.0000      -6.002715      -163.3422
  77   2.0000      -6.001988      -163.3224
  78   2.0000      -6.000594      -163.2845
  79   2.0000      -5.996644      -163.1770
  80   2.0000      -5.990589      -163.0122
  81   2.0000      -5.986646      -162.9049
  82   2.0000      -5.983697      -162.8247
  83   2.0000      -5.981683      -162.7699
  84   2.0000      -5.979807      -162.7188
  85   2.0000      -5.974289      -162.5687
  86   2.0000      -1.300840       -35.3977
  87   2.0000      -1.286085       -34.9961
  88   2.0000      -1.031286       -28.0627
  89   2.0000      -0.999959       -27.2103
  90   2.0000      -0.996280       -27.1101
  91   2.0000      -0.991069       -26.9684
  92   2.0000      -0.970040       -26.3961
  93   2.0000      -0.969732       -26.3877
  94   2.0000      -0.968601       -26.3570
  95   2.0000      -0.947120       -25.7724
  96   2.0000      -0.937980       -25.5237
  97   2.0000      -0.923123       -25.1195
  98   2.0000      -0.910448       -24.7746
  99   2.0000      -0.901086       -24.5198
 100   2.0000      -0.887912       -24.1613
 101   2.0000      -0.881845       -23.9962
 102   2.0000      -0.876520       -23.8513
 103   2.0000      -0.866276       -23.5726
 104   2.0000      -0.850821       -23.1520
 105   2.0000      -0.849972       -23.1289
 106   2.0000      -0.845387       -23.0042
 107   2.0000      -0.839039       -22.8314
 108   2.0000      -0.830004       -22.5856
 109   2.0000      -0.824062       -22.4239
 110   2.0000      -0.822734       -22.3877
 111   2.0000      -0.819745       -22.3064
 112   2.0000      -0.808640       -22.0042
 113   2.0000      -0.801519       -21.8104
 114   2.0000      -0.799417       -21.7533
 115   2.0000      -0.797900       -21.7120
 116   2.0000      -0.788653       -21.4603
 117   2.0000      -0.777980       -21.1699
 118   2.0000      -0.766020       -20.8445
 119   2.0000      -0.756718       -20.5913
 120   2.0000      -0.742189       -20.1960
 121   2.0000      -0.731048       -19.8928
 122   2.0000      -0.728079       -19.8120
 123   2.0000      -0.710886       -19.3442
 124   2.0000      -0.707886       -19.2626
 125   2.0000      -0.702559       -19.1176
 126   2.0000      -0.686770       -18.6880
 127   2.0000      -0.682329       -18.5671
 128   2.0000      -0.672411       -18.2972
 129   2.0000      -0.665435       -18.1074
 130   2.0000      -0.658621       -17.9220
 131   2.0000      -0.654521       -17.8104
 132   2.0000      -0.650660       -17.7054
 133   2.0000      -0.639895       -17.4124
 134   2.0000      -0.638214       -17.3667
 135   2.0000      -0.625435       -17.0190
 136   2.0000      -0.621577       -16.9140
 137   2.0000      -0.619445       -16.8560
 138   2.0000      -0.613013       -16.6809
 139   2.0000      -0.609407       -16.5828
 140   2.0000      -0.604108       -16.4386
 141   2.0000      -0.603676       -16.4269
 142   2.0000      -0.602319       -16.3899
 143   2.0000      -0.598770       -16.2934
 144   2.0000      -0.597004       -16.2453
 145   2.0000      -0.585926       -15.9439
 146   2.0000      -0.580950       -15.8085
 147   2.0000      -0.578743       -15.7484
 148   2.0000      -0.574264       -15.6265
 149   2.0000      -0.572961       -15.5911
 150   2.0000      -0.566545       -15.4165
 151   2.0000      -0.561041       -15.2667
 152   2.0000      -0.552364       -15.0306
 153   2.0000      -0.552018       -15.0212
 154   2.0000      -0.550060       -14.9679
 155   2.0000      -0.544633       -14.8202
 156   2.0000      -0.535108       -14.5610
 157   2.0000      -0.531991       -14.4762
 158   2.0000      -0.528839       -14.3904
 159   2.0000      -0.524017       -14.2592
 160   2.0000      -0.522403       -14.2153
 161   2.0000      -0.517188       -14.0734
 162   2.0000      -0.513979       -13.9861
 163   2.0000      -0.510116       -13.8810
 164   2.0000      -0.508908       -13.8481
 165   2.0000      -0.506065       -13.7707
 166   2.0000      -0.502041       -13.6612
 167   2.0000      -0.499798       -13.6002
 168   2.0000      -0.498537       -13.5659
 169   2.0000      -0.497310       -13.5325
 170   2.0000      -0.493015       -13.4156
 171   2.0000      -0.490574       -13.3492
 172   2.0000      -0.490018       -13.3341
 173   2.0000      -0.489350       -13.3159
 174   2.0000      -0.483451       -13.1554
 175   2.0000      -0.482023       -13.1165
 176   2.0000      -0.477875       -13.0037
 177   2.0000      -0.474223       -12.9043
 178   2.0000      -0.472941       -12.8694
 179   2.0000      -0.470208       -12.7950
 180   2.0000      -0.467712       -12.7271
 181   2.0000      -0.467011       -12.7080
 182   2.0000      -0.462680       -12.5902
 183   2.0000      -0.461718       -12.5640
 184   2.0000      -0.459958       -12.5161
 185   2.0000      -0.458505       -12.4766
 186   2.0000      -0.453361       -12.3366
 187   2.0000      -0.450789       -12.2666
 188   2.0000      -0.445390       -12.1197
 189   2.0000      -0.443004       -12.0547
 190   2.0000      -0.441759       -12.0209
 191   2.0000      -0.438702       -11.9377
 192   2.0000      -0.436387       -11.8747
 193   2.0000      -0.431408       -11.7392
 194   2.0000      -0.429112       -11.6767
 195   2.0000      -0.426994       -11.6191
 196   2.0000      -0.426247       -11.5988
 197   2.0000      -0.420522       -11.4430
 198   2.0000      -0.418476       -11.3873
 199   2.0000      -0.417292       -11.3551
 200   2.0000      -0.410678       -11.1751
 201   2.0000      -0.409555       -11.1446
 202   2.0000      -0.408511       -11.1161
 203   2.0000      -0.405824       -11.0430
 204   2.0000      -0.402234       -10.9453
 205   2.0000      -0.399963       -10.8835
 206   2.0000      -0.393304       -10.7024
 207   2.0000      -0.382925       -10.4199
 208   2.0000      -0.378202       -10.2914
 209   2.0000      -0.376218       -10.2374
 210   2.0000      -0.376011       -10.2318
 211   2.0000      -0.370368       -10.0782
 212   2.0000      -0.366519        -9.9735
 213   2.0000      -0.346782        -9.4364
 214   2.0000      -0.338131        -9.2010
 215   2.0000      -0.331434        -9.0188
 216   2.0000      -0.324867        -8.8401
 217   2.0000      -0.320329        -8.7166
 218   2.0000      -0.318061        -8.6549
 219   2.0000      -0.308503        -8.3948
 220   2.0000      -0.305340        -8.3087
 221   2.0000      -0.302239        -8.2243
 222   2.0000      -0.296651        -8.0723
 223   2.0000      -0.289296        -7.8721
 224   2.0000      -0.263559        -7.1718
 225   2.0000      -0.260881        -7.0989
 226   2.0000      -0.245485        -6.6800
 227   2.0000      -0.201510        -5.4834
 228   2.0000      -0.192901        -5.2491
 229   0.0000      -0.080806        -2.1988
 230   0.0000      -0.039113        -1.0643
 231   0.0000      -0.030537        -0.8310
 232   0.0000      -0.023035        -0.6268
 233   0.0000       0.001049         0.0285

MULLIKEN ATOMIC CHARGES
-----------------------
   0 C :   -0.026140
   1 C :   -0.065694
   2 C :    0.053469
   3 C :    0.029485
   4 C :   -0.065537
   5 S :    0.081694
   6 C :   -0.035918
   7 C :    0.031422
   8 C :    0.025976
   9 C :   -0.036154
  10 S :    0.059126
  11 C :   -0.019022
  12 C :   -0.080059
  13 S :    0.096777
  14 C :   -0.085820
  15 C :    0.127690
  16 C :    0.133058
  17 C :   -0.115922
  18 C :    0.222582
  19 F :   -0.184101
  20 C :    0.225158
  21 F :   -0.183805
  22 C :   -0.117945
  23 C :    0.021235
  24 C :   -0.039256
  25 C :    0.140571
  26 C :   -0.139278
  27 S :    0.100258
  28 C :   -0.141487
  29 C :    0.118170
  30 C :   -0.071009
  31 C :   -0.087321
  32 C :    0.049135
  33 C :    0.004223
  34 C :   -0.052560
  35 S :    0.095983
  36 C :    0.081532
  37 C :   -0.081776
  38 C :    0.015598
  39 C :   -0.000190
  40 C :   -0.223866
  41 C :    0.092647
  42 C :    0.228944
  43 N :   -0.177190
  44 C :    0.065521
  45 C :   -0.041032
  46 C :    0.002512
  47 C :   -0.039854
  48 C :    0.040801
  49 C :    0.010823
  50 C :   -0.026262
  51 S :    0.017731
  52 C :   -0.074656
  53 C :    0.028007
  54 C :    0.042496
  55 C :   -0.058094
  56 S :    0.054850
  57 C :   -0.042881
  58 H :    0.020599
  59 H :    0.023707
  60 H :   -0.011174
  61 H :   -0.010762
  62 H :   -0.016456
  63 H :   -0.013487
  64 H :   -0.020195
  65 H :   -0.015271
  66 H :   -0.016590
  67 H :   -0.028400
  68 H :   -0.010969
  69 H :    0.018218
  70 H :   -0.032448
  71 H :   -0.017758
  72 H :    0.025275
  73 H :    0.005072
  74 H :    0.003941
  75 H :   -0.020090
  76 H :    0.028116
  77 H :    0.018003
  78 H :    0.036002
  79 H :    0.006571
  80 H :    0.027044
  81 H :    0.118374
  82 H :    0.017606
  83 H :   -0.036504
  84 H :   -0.020376
  85 H :   -0.021770
  86 H :   -0.024480
  87 H :   -0.017060
  88 H :   -0.020597
  89 H :    0.009562
  90 H :    0.011647
Sum of atomic charges:   -0.0000000

LOEWDIN ATOMIC CHARGES
----------------------
   0 C :   -0.072937
   1 C :   -0.139864
   2 C :   -0.029323
   3 C :   -0.027166
   4 C :   -0.173533
   5 S :    0.353334
   6 C :   -0.182692
   7 C :   -0.038670
   8 C :   -0.035030
   9 C :   -0.155318
  10 S :    0.367597
  11 C :   -0.076256
  12 C :   -0.174865
  13 S :    0.469116
  14 C :   -0.180144
  15 C :   -0.044617
  16 C :   -0.046309
  17 C :   -0.038723
  18 C :    0.056776
  19 F :   -0.062310
  20 C :    0.060192
  21 F :   -0.061540
  22 C :   -0.041676
  23 C :   -0.035445
  24 C :   -0.031886
  25 C :   -0.062055
  26 C :   -0.168829
  27 S :    0.406325
  28 C :   -0.150811
  29 C :   -0.038279
  30 C :   -0.038125
  31 C :   -0.152601
  32 C :   -0.042281
  33 C :   -0.065331
  34 C :   -0.161768
  35 S :    0.389775
  36 C :   -0.037885
  37 C :   -0.023743
  38 C :   -0.022273
  39 C :   -0.054488
  40 C :   -0.029003
  41 C :   -0.056028
  42 C :    0.048817
  43 N :   -0.003287
  44 C :    0.044532
  45 C :   -0.135487
  46 C :   -0.038685
  47 C :   -0.178174
  48 C :   -0.024685
  49 C :   -0.061229
  50 C :   -0.170947
  51 S :    0.351001
  52 C :   -0.195216
  53 C :   -0.025484
  54 C :   -0.047160
  55 C :   -0.136888
  56 S :    0.330237
  57 C :   -0.099591
  58 H :    0.028955
  59 H :    0.027126
  60 H :    0.033588
  61 H :    0.032808
  62 H :    0.030753
  63 H :    0.032939
  64 H :    0.037108
  65 H :    0.038040
  66 H :    0.037829
  67 H :    0.028954
  68 H :    0.018401
  69 H :    0.020371
  70 H :    0.029356
  71 H :    0.029656
  72 H :    0.024016
  73 H :    0.024523
  74 H :    0.030967
  75 H :    0.025716
  76 H :    0.032646
  77 H :    0.029305
  78 H :    0.038841
  79 H :    0.018290
  80 H :    0.034526
  81 H :    0.078505
  82 H :    0.011801
  83 H :    0.020774
  84 H :    0.033123
  85 H :    0.029870
  86 H :    0.026972
  87 H :    0.030121
  88 H :    0.029346
  89 H :    0.024131
  90 H :    0.021578

  Mayer bond orders larger than 0.100000
B(  0-C ,  1-C ) :   1.8595 B(  0-C , 58-H ) :   0.9512 B(  0-C , 59-H ) :   0.9414
B(  1-C ,  2-C ) :   1.0820 B(  1-C ,  5-S ) :   1.0084 B(  2-C ,  3-C ) :   1.6542
B(  2-C , 60-H ) :   0.9934 B(  3-C ,  4-C ) :   1.1588 B(  3-C , 61-H ) :   0.9920
B(  4-C ,  5-S ) :   1.0491 B(  4-C ,  6-C ) :   1.5408 B(  6-C ,  7-C ) :   1.1820
B(  6-C , 10-S ) :   1.0324 B(  7-C ,  8-C ) :   1.5862 B(  7-C , 62-H ) :   0.9918
B(  8-C ,  9-C ) :   1.1580 B(  8-C , 63-H ) :   0.9988 B(  9-C , 10-S ) :   1.0415
B(  9-C , 11-C ) :   1.5288 B( 11-C , 12-C ) :   1.2539 B( 11-C , 64-H ) :   0.9604
B( 12-C , 13-S ) :   1.1176 B( 12-C , 16-C ) :   1.2846 B( 13-S , 14-C ) :   1.1279
B( 14-C , 15-C ) :   1.3084 B( 14-C , 23-C ) :   1.1984 B( 15-C , 16-C ) :   1.2258
B( 15-C , 22-C ) :   1.1668 B( 16-C , 17-C ) :   1.1834 B( 17-C , 18-C ) :   1.4881
B( 17-C , 22-C ) :   0.1135 B( 17-C , 65-H ) :   0.9968 B( 18-C , 19-F ) :   1.1228
B( 18-C , 20-C ) :   1.1678 B( 20-C , 21-F ) :   1.1228 B( 20-C , 22-C ) :   1.4988
B( 22-C , 66-H ) :   0.9982 B( 23-C , 24-C ) :   1.6525 B( 23-C , 67-H ) :   0.9677
B( 24-C , 25-C ) :   1.1050 B( 24-C , 68-H ) :   0.9672 B( 25-C , 26-C ) :   1.5794
B( 25-C , 29-C ) :   1.1063 B( 26-C , 27-S ) :   1.1065 B( 26-C , 69-H ) :   0.9572
B( 27-S , 28-C ) :   1.0637 B( 28-C , 29-C ) :   1.2942 B( 28-C , 36-C ) :   1.3991
B( 29-C , 30-C ) :   1.3485 B( 30-C , 31-C ) :   1.3839 B( 30-C , 70-H ) :   0.9916
B( 31-C , 32-C ) :   1.2871 B( 31-C , 35-S ) :   1.0607 B( 32-C , 33-C ) :   1.1784
B( 32-C , 36-C ) :   1.3298 B( 33-C , 34-C ) :   1.6434 B( 33-C , 71-H ) :   0.9910
B( 34-C , 35-S ) :   1.1116 B( 34-C , 72-H ) :   0.9663 B( 36-C , 37-C ) :   1.0259
B( 37-C , 38-C ) :   1.7968 B( 37-C , 73-H ) :   0.9518 B( 38-C , 39-C ) :   1.0866
B( 38-C , 74-H ) :   0.9582 B( 39-C , 40-C ) :   1.8340 B( 39-C , 75-H ) :   0.9484
B( 40-C , 41-C ) :   1.0798 B( 40-C , 42-C ) :   1.0483 B( 41-C , 76-H ) :   0.9435
B( 41-C , 77-H ) :   0.9429 B( 41-C , 78-H ) :   0.9368 B( 42-C , 43-N ) :   0.9722
B( 42-C , 79-H ) :   0.9353 B( 42-C , 80-H ) :   0.9272 B( 43-N , 44-C ) :   1.2261
B( 43-N , 81-H ) :   0.9416 B( 44-C , 45-C ) :   1.5854 B( 44-C , 82-H ) :   0.9464
B( 45-C , 46-C ) :   1.2157 B( 45-C , 83-H ) :   0.9615 B( 46-C , 47-C ) :   1.6018
B( 46-C , 84-H ) :   0.9595 B( 47-C , 48-C ) :   1.1454 B( 47-C , 51-S ) :   1.0037
B( 48-C , 49-C ) :   1.6055 B( 48-C , 85-H ) :   0.9969 B( 49-C , 50-C ) :   1.1674
B( 49-C , 86-H ) :   0.9917 B( 50-C , 51-S ) :   1.0349 B( 50-C , 52-C ) :   1.5641
B( 52-C , 53-C ) :   1.1585 B( 52-C , 56-S ) :   1.0237 B( 53-C , 54-C ) :   1.6558
B( 53-C , 87-H ) :   0.9915 B( 54-C , 55-C ) :   1.0815 B( 54-C , 88-H ) :   0.9924
B( 55-C , 56-S ) :   1.0116 B( 55-C , 57-C ) :   1.8602 B( 57-C , 89-H ) :   0.9496
B( 57-C , 90-H ) :   0.9418

-----------------------------------------------------------------------------
         ABSORPTION SPECTRUM VIA TRANSITION ELECTRIC DIPOLE MOMENTS
-----------------------------------------------------------------------------
State   Energy  Wavelength   fosc         T2         TX        TY        TZ
        (cm-1)    (nm)                  (au**2)     (au)      (au)      (au)
-----------------------------------------------------------------------------
   0   13039.4    766.9   0.790662033  19.96227   2.21557  -3.39334   1.88115
   1   18618.2    537.1   0.000229826   0.00406  -0.03458  -0.03104  -0.04364
   2   19968.2    500.8   1.181202251  19.47431   1.44236   1.41357   3.92374
   3   20739.3    482.2   0.004547906   0.07219  -0.16014  -0.21261  -0.03667
   4   23556.7    424.5   0.615343578   8.59962  -1.64215  -2.35794  -0.58572
   5   24930.9    401.1   0.136763926   1.80597   1.12762   0.52626   0.50744
   6   25275.4    395.6   0.003218387   0.04192  -0.04945   0.17325   0.09727
   7   26513.1    377.2   0.466774446   5.79592   1.30933   1.94536   0.54514
   8   28991.3    344.9   0.254988290   2.89553   1.02069   1.26352   0.50721
   9   29569.8    338.2   0.003356196   0.03737  -0.18848  -0.03515   0.02462
  10   29610.4    337.7   0.023612127   0.26252   0.21099  -0.39819  -0.24383
  11   29805.9    335.5   0.001109866   0.01226   0.09540  -0.05388  -0.01599
  12   30326.3    329.7   0.000461406   0.00501   0.03741   0.03621  -0.04794
  13   30592.3    326.9   0.055265666   0.59473   0.42379   0.62436   0.15908
  14   31573.9    316.7   0.190547602   1.98679  -1.23698   0.35965  -0.57212
  15   31906.2    313.4   0.110647741   1.14168  -0.83030   0.50605  -0.44294
  16   32393.2    308.7   0.079102535   0.80392   0.82450   0.03933   0.35009
  17   32988.4    303.1   0.020674895   0.20633  -0.28918   0.31277   0.15773
  18   33292.0    300.4   0.002831163   0.02800  -0.11411  -0.11648  -0.03752
  19   33441.1    299.0   0.046577066   0.45853   0.50125   0.44782   0.08201
  20   33664.5    297.0   0.004698042   0.04594  -0.16673   0.13395   0.01424
  21   33919.7    294.8   0.184667577   1.79232  -0.92608  -0.94497  -0.20425
  22   34034.7    293.8   0.211926038   2.04992   0.81471  -1.10242   0.41332
  23   34278.1    291.7   0.243545929   2.33905  -1.06351   1.09278   0.11754
  24   34883.8    286.7   0.244339179   2.30593  -0.72265  -1.31649  -0.22484
  25   35826.1    279.1   0.031880037   0.29295  -0.30427   0.34821  -0.28128
  26   36396.1    274.8   0.031166550   0.28191   0.31431  -0.39823  -0.15664
  27   36952.0    270.6   0.008803794   0.07843  -0.10844  -0.25780   0.01475
  28   37106.8    269.5   0.103554188   0.91873  -0.00552   0.95357  -0.09698
  29   37262.6    268.4   0.107162147   0.94677  -0.42341  -0.87266  -0.07717
  30   37519.1    266.5   0.003532416   0.03100   0.13499   0.11161   0.01781
  31   38249.5    261.4   0.062930517   0.54164  -0.64748  -0.30105  -0.17826
  32   38994.8    256.4   0.001235591   0.01043  -0.08224   0.05368  -0.02805
  33   39240.0    254.8   0.055767442   0.46787   0.47706  -0.28346   0.39992
  34   39730.6    251.7   0.047204251   0.39114  -0.43832   0.33346  -0.29634
  35   40034.2    249.8   0.000706208   0.00581  -0.05977   0.02228   0.04169

FINAL SINGLE POINT ENERGY     -4887.087076202462

DIPOLE MOMENT
-------------
                                X             Y             Z
Electronic contribution:     69.65392      29.90811      35.41985
Nuclear contribution   :    -68.74138     -31.29609     -33.82249
                        -----------------------------------------
Total Dipole Moment    :      0.91255      -1.38798       1.59737
                        -----------------------------------------
Magnitude (a.u.)       :      2.30452
Magnitude (Debye)      :      5.85762

Rotational constants in cm-1:     0.001716     0.000265     0.000237
Rotational constants in MHz :    51.443348     7.951109     7.092672

                             ****ORCA TERMINATED NORMALLY****
TOTAL RUN TIME: 0 days 0 hours 8 minutes 42 seconds 190 msec
