                         Program Version 4.2.0 -  RELEASE  -
|  1> # ORCA input file
|  2> # SCF done       -155.400559266718          0.000550456174
|  3> ! CAM-B3LYP def2-SVP def2/J RIJCOSX Grid4 TightSCF
|  4> %maxcore 5000
|  5> %tddft
|  6>     Mode sTDDFT
|  7>     Ethresh 5.0
|  8>     maxcore 5000
|  9> end
| 10>
| 11> %pal
| 12>   nprocs 6
| 13>   end
| 14> * xyz 0 1
| 15>    C        5.03702       -13.80978        -5.81152
| 16>    C        5.41238       -12.58490        -5.41938
| 17>    C        6.13198       -11.60728        -6.18849
| 18>    C        6.34872       -10.44036        -5.54591
| 19>    C        5.82311       -10.38719        -4.22292
| 20>    S        5.05002       -11.91115        -3.81626
| 21>    C        5.84067        -9.31753        -3.36781
| 22>    C        6.31291        -8.00430        -3.63999
| 23>    C        6.04856        -7.10865        -2.66160
| 24>    C        5.34139        -7.64825        -1.54324
| 25>    S        5.15581        -9.38921        -1.75263
| 26>    C        4.88201        -6.89660        -0.51012
| 27>    N        4.09623        -7.25350         0.55796
| 28>    C        3.25061        -8.31001         0.73812
| 29>    S        3.05719        -8.87507         2.37592
| 30>    C        1.90121       -10.04520         1.82983
| 31>    N        1.29416       -10.86069         2.78386
| 32>    O        0.47977       -11.68113         2.39558
| 33>    O        1.62592       -10.68985         3.94755
| 34>    C        1.69452        -9.99947         0.47717
| 35>    C        2.44352        -9.00023        -0.17260
| 36>    C        2.35107        -8.71245        -1.58504
| 37>    C        1.88795        -9.58544        -2.49787
| 38>    C        1.97285        -9.36162        -3.91032
| 39>    C        1.68168       -10.28169        -4.84312
| 40>    C        1.14075       -11.64329        -4.52021
| 41>    C        1.92929       -10.02081        -6.30064
| 42>    N        2.76414       -11.07512        -6.83137
| 43>    C        3.06419       -11.21626        -8.14872
| 44>    C        2.53106       -10.53751        -9.18319
| 45>    C        2.89562       -10.87257       -10.52657
| 46>    C        2.40135       -10.36919       -11.66694
| 47>    C        1.32336        -9.32737       -11.74837
| 48>    C        2.87123       -10.90459       -12.99827
| 49>    N        1.82365       -11.64370       -13.68477
| 50>    C        1.41375       -12.86707       -13.34631
| 51>    C        1.95368       -13.65755       -12.36716
| 52>    C        1.45445       -14.93764       -12.12002
| 53>    C        1.90064       -15.78619       -11.12903
| 54>    C        1.40880       -17.11514       -10.85920
| 55>    C        0.42829       -17.80035       -11.53787
| 56>    C        0.00505       -19.10478       -11.21634
| 57>    N       -0.38723       -20.16491       -11.01028
| 58>    C       -0.29575       -17.31927       -12.64568
| 59>    N       -0.93119       -17.00733       -13.55167
| 60>    C        2.15048       -17.63981        -9.71371
| 61>    C        3.07797       -16.65875        -9.29030
| 62>    C        2.95807       -15.46650       -10.15981
| 63>    O        3.61840       -14.44679       -10.05620
| 64>    C        3.92797       -16.85489        -8.23111
| 65>    C        3.86057       -18.07607        -7.55214
| 66>    C        2.93180       -19.04992        -7.98300
| 67>    C        2.07172       -18.85297        -9.05712
| 68>    S        3.01596       -20.48807        -7.00884
| 69>    C        4.28215       -19.76787        -6.05081
| 70>    C        4.62458       -18.51626        -6.43625
| 71>   Br        5.03238       -20.73575        -4.62782
| 72>    H        5.27315       -14.15206        -6.80338
| 73>    H        4.49249       -14.47497        -5.16699
| 74>    H        6.44842       -11.82582        -7.19271
| 75>    H        6.87026        -9.60290        -5.97355
| 76>    H        6.80628        -7.76204        -4.56372
| 77>    H        6.30076        -6.06388        -2.70458
| 78>    H        5.18307        -5.85682        -0.48493
| 79>    H        4.24888        -6.70388         1.39404
| 80>    H        0.98636       -10.64496        -0.00827
| 81>    H        2.71802        -7.74737        -1.90608
| 82>    H        1.53446       -10.55233        -2.17707
| 83>    H        2.36202        -8.39939        -4.22043
| 84>    H        0.22313       -11.56561        -3.93964
| 85>    H        1.85882       -12.21662        -3.93467
| 86>    H        0.92832       -12.19173        -5.43366
| 87>    H        2.39003        -9.03201        -6.44548
| 88>    H        0.97709       -10.03327        -6.84677
| 89>    H        3.39296       -11.50263        -6.17145
| 90>    H        3.76844       -12.01293        -8.34861
| 91>    H        1.80744        -9.75584        -9.01623
| 92>    H        3.66388       -11.63274       -10.59474
| 93>    H        1.31568        -8.70224       -10.86073
| 94>    H        0.33947        -9.79204       -11.83946
| 95>    H        1.47529        -8.68593       -12.61607
| 96>    H        3.72723       -11.56809       -12.85765
| 97>    H        3.17010       -10.08566       -13.65955
| 98>    H        1.26614       -11.12597       -14.34566
| 99>    H        0.58471       -13.25186       -13.92998
|100>    H        2.75729       -13.29912       -11.74955
|101>    H        0.64969       -15.27958       -12.75795
|102>    H        4.63060       -16.09296        -7.93415
|103>    H        1.38246       -19.62826        -9.34628
|104>    H        5.38425       -17.92707        -5.95552
|105> *
|106>
|107>                          ****END OF INPUT****

CARTESIAN COORDINATES (ANGSTROEM)
---------------------------------
  C      5.037020  -13.809780   -5.811520
  C      5.412380  -12.584900   -5.419380
  C      6.131980  -11.607280   -6.188490
  C      6.348720  -10.440360   -5.545910
  C      5.823110  -10.387190   -4.222920
  S      5.050020  -11.911150   -3.816260
  C      5.840670   -9.317530   -3.367810
  C      6.312910   -8.004300   -3.639990
  C      6.048560   -7.108650   -2.661600
  C      5.341390   -7.648250   -1.543240
  S      5.155810   -9.389210   -1.752630
  C      4.882010   -6.896600   -0.510120
  N      4.096230   -7.253500    0.557960
  C      3.250610   -8.310010    0.738120
  S      3.057190   -8.875070    2.375920
  C      1.901210  -10.045200    1.829830
  N      1.294160  -10.860690    2.783860
  O      0.479770  -11.681130    2.395580
  O      1.625920  -10.689850    3.947550
  C      1.694520   -9.999470    0.477170
  C      2.443520   -9.000230   -0.172600
  C      2.351070   -8.712450   -1.585040
  C      1.887950   -9.585440   -2.497870
  C      1.972850   -9.361620   -3.910320
  C      1.681680  -10.281690   -4.843120
  C      1.140750  -11.643290   -4.520210
  C      1.929290  -10.020810   -6.300640
  N      2.764140  -11.075120   -6.831370
  C      3.064190  -11.216260   -8.148720
  C      2.531060  -10.537510   -9.183190
  C      2.895620  -10.872570  -10.526570
  C      2.401350  -10.369190  -11.666940
  C      1.323360   -9.327370  -11.748370
  C      2.871230  -10.904590  -12.998270
  N      1.823650  -11.643700  -13.684770
  C      1.413750  -12.867070  -13.346310
  C      1.953680  -13.657550  -12.367160
  C      1.454450  -14.937640  -12.120020
  C      1.900640  -15.786190  -11.129030
  C      1.408800  -17.115140  -10.859200
  C      0.428290  -17.800350  -11.537870
  C      0.005050  -19.104780  -11.216340
  N     -0.387230  -20.164910  -11.010280
  C     -0.295750  -17.319270  -12.645680
  N     -0.931190  -17.007330  -13.551670
  C      2.150480  -17.639810   -9.713710
  C      3.077970  -16.658750   -9.290300
  C      2.958070  -15.466500  -10.159810
  O      3.618400  -14.446790  -10.056200
  C      3.927970  -16.854890   -8.231110
  C      3.860570  -18.076070   -7.552140
  C      2.931800  -19.049920   -7.983000
  C      2.071720  -18.852970   -9.057120
  S      3.015960  -20.488070   -7.008840
  C      4.282150  -19.767870   -6.050810
  C      4.624580  -18.516260   -6.436250
  Br     5.032380  -20.735750   -4.627820
  H      5.273150  -14.152060   -6.803380
  H      4.492490  -14.474970   -5.166990
  H      6.448420  -11.825820   -7.192710
  H      6.870260   -9.602900   -5.973550
  H      6.806280   -7.762040   -4.563720
  H      6.300760   -6.063880   -2.704580
  H      5.183070   -5.856820   -0.484930
  H      4.248880   -6.703880    1.394040
  H      0.986360  -10.644960   -0.008270
  H      2.718020   -7.747370   -1.906080
  H      1.534460  -10.552330   -2.177070
  H      2.362020   -8.399390   -4.220430
  H      0.223130  -11.565610   -3.939640
  H      1.858820  -12.216620   -3.934670
  H      0.928320  -12.191730   -5.433660
  H      2.390030   -9.032010   -6.445480
  H      0.977090  -10.033270   -6.846770
  H      3.392960  -11.502630   -6.171450
  H      3.768440  -12.012930   -8.348610
  H      1.807440   -9.755840   -9.016230
  H      3.663880  -11.632740  -10.594740
  H      1.315680   -8.702240  -10.860730
  H      0.339470   -9.792040  -11.839460
  H      1.475290   -8.685930  -12.616070
  H      3.727230  -11.568090  -12.857650
  H      3.170100  -10.085660  -13.659550
  H      1.266140  -11.125970  -14.345660
  H      0.584710  -13.251860  -13.929980
  H      2.757290  -13.299120  -11.749550
  H      0.649690  -15.279580  -12.757950
  H      4.630600  -16.092960   -7.934150
  H      1.382460  -19.628260   -9.346280
  H      5.384250  -17.927070   -5.955520

 Total Charge           Charge          ....    0
 Multiplicity           Mult            ....    1
 Number of Electrons    NEL             ....  456
 Basis Dimension        Dim             ....  997

ORBITAL ENERGIES
----------------

  NO   OCC          E(Eh)            E(eV)
   0   2.0000    -482.877036    -13139.7522
   1   2.0000     -88.978057     -2421.2160
   2   2.0000     -88.964491     -2420.8469
   3   2.0000     -88.950127     -2420.4560
   4   2.0000     -88.947750     -2420.3913
   5   2.0000     -62.554754     -1702.2014
   6   2.0000     -56.388697     -1534.4145
   7   2.0000     -56.386001     -1534.3411
   8   2.0000     -56.385955     -1534.3398
   9   2.0000     -19.231396      -523.3129
  10   2.0000     -19.230578      -523.2906
  11   2.0000     -19.199251      -522.4382
  12   2.0000     -14.642726      -398.4488
  13   2.0000     -14.484697      -394.1486
  14   2.0000     -14.463016      -393.5587
  15   2.0000     -14.416320      -392.2880
  16   2.0000     -14.398477      -391.8025
  17   2.0000     -14.395097      -391.7105
  18   2.0000     -10.364527      -282.0331
  19   2.0000     -10.348968      -281.6097
  20   2.0000     -10.348483      -281.5965
  21   2.0000     -10.341094      -281.3955
  22   2.0000     -10.339029      -281.3393
  23   2.0000     -10.337499      -281.2977
  24   2.0000     -10.321758      -280.8693
  25   2.0000     -10.317553      -280.7549
  26   2.0000     -10.315995      -280.7125
  27   2.0000     -10.315923      -280.7105
  28   2.0000     -10.314754      -280.6787
  29   2.0000     -10.312361      -280.6136
  30   2.0000     -10.312089      -280.6062
  31   2.0000     -10.311656      -280.5944
  32   2.0000     -10.303408      -280.3700
  33   2.0000     -10.302987      -280.3585
  34   2.0000     -10.299845      -280.2730
  35   2.0000     -10.299236      -280.2565
  36   2.0000     -10.298726      -280.2426
  37   2.0000     -10.296066      -280.1702
  38   2.0000     -10.295782      -280.1625
  39   2.0000     -10.295710      -280.1605
  40   2.0000     -10.295651      -280.1589
  41   2.0000     -10.295018      -280.1417
  42   2.0000     -10.292096      -280.0622
  43   2.0000     -10.291869      -280.0560
  44   2.0000     -10.290952      -280.0310
  45   2.0000     -10.288602      -279.9671
  46   2.0000     -10.288083      -279.9530
  47   2.0000     -10.287104      -279.9263
  48   2.0000     -10.278491      -279.6920
  49   2.0000     -10.276875      -279.6480
  50   2.0000     -10.276337      -279.6333
  51   2.0000     -10.275164      -279.6014
  52   2.0000     -10.268614      -279.4232
  53   2.0000     -10.266842      -279.3750
  54   2.0000     -10.262252      -279.2501
  55   2.0000     -10.259984      -279.1884
  56   2.0000     -10.258258      -279.1414
  57   2.0000     -10.257635      -279.1244
  58   2.0000     -10.254447      -279.0377
  59   2.0000     -10.253562      -279.0136
  60   2.0000     -10.236002      -278.5358
  61   2.0000      -8.784176      -239.0296
  62   2.0000      -8.074138      -219.7085
  63   2.0000      -8.060497      -219.3373
  64   2.0000      -8.045403      -218.9265
  65   2.0000      -8.043626      -218.8782
  66   2.0000      -6.620441      -180.1514
  67   2.0000      -6.605897      -179.7556
  68   2.0000      -6.605764      -179.7520
  69   2.0000      -6.043833      -164.4610
  70   2.0000      -6.039462      -164.3421
  71   2.0000      -6.035422      -164.2322
  72   2.0000      -6.030197      -164.0900
  73   2.0000      -6.025923      -163.9737
  74   2.0000      -6.021696      -163.8587
  75   2.0000      -6.015435      -163.6883
  76   2.0000      -6.013466      -163.6347
  77   2.0000      -6.011332      -163.5767
  78   2.0000      -6.009600      -163.5295
  79   2.0000      -6.005858      -163.4277
  80   2.0000      -6.004225      -163.3833
  81   2.0000      -2.736300       -74.4585
  82   2.0000      -2.732258       -74.3485
  83   2.0000      -2.732109       -74.3445
  84   2.0000      -2.720571       -74.0305
  85   2.0000      -2.720558       -74.0301
  86   2.0000      -1.310713       -35.6663
  87   2.0000      -1.129574       -30.7373
  88   2.0000      -1.110940       -30.2302
  89   2.0000      -1.085310       -29.5328
  90   2.0000      -1.056272       -28.7426
  91   2.0000      -1.017740       -27.6941
  92   2.0000      -1.008676       -27.4475
  93   2.0000      -1.001119       -27.2418
  94   2.0000      -0.996997       -27.1297
  95   2.0000      -0.995529       -27.0897
  96   2.0000      -0.976425       -26.5699
  97   2.0000      -0.973986       -26.5035
  98   2.0000      -0.972374       -26.4597
  99   2.0000      -0.929125       -25.2828
 100   2.0000      -0.919202       -25.0128
 101   2.0000      -0.904682       -24.6177
 102   2.0000      -0.900831       -24.5129
 103   2.0000      -0.895528       -24.3686
 104   2.0000      -0.893635       -24.3170
 105   2.0000      -0.890000       -24.2181
 106   2.0000      -0.875877       -23.8338
 107   2.0000      -0.872600       -23.7447
 108   2.0000      -0.862374       -23.4664
 109   2.0000      -0.853205       -23.2169
 110   2.0000      -0.849622       -23.1194
 111   2.0000      -0.843466       -22.9519
 112   2.0000      -0.832746       -22.6602
 113   2.0000      -0.826212       -22.4824
 114   2.0000      -0.816982       -22.2312
 115   2.0000      -0.812165       -22.1001
 116   2.0000      -0.799803       -21.7637
 117   2.0000      -0.786951       -21.4140
 118   2.0000      -0.780927       -21.2501
 119   2.0000      -0.778356       -21.1802
 120   2.0000      -0.762076       -20.7371
 121   2.0000      -0.753804       -20.5121
 122   2.0000      -0.742519       -20.2050
 123   2.0000      -0.736493       -20.0410
 124   2.0000      -0.731522       -19.9057
 125   2.0000      -0.698047       -18.9948
 126   2.0000      -0.695957       -18.9380
 127   2.0000      -0.688762       -18.7422
 128   2.0000      -0.676905       -18.4195
 129   2.0000      -0.669059       -18.2060
 130   2.0000      -0.665988       -18.1225
 131   2.0000      -0.658110       -17.9081
 132   2.0000      -0.657288       -17.8857
 133   2.0000      -0.645139       -17.5551
 134   2.0000      -0.638588       -17.3769
 135   2.0000      -0.636950       -17.3323
 136   2.0000      -0.634130       -17.2555
 137   2.0000      -0.632832       -17.2202
 138   2.0000      -0.625792       -17.0287
 139   2.0000      -0.623623       -16.9696
 140   2.0000      -0.619445       -16.8560
 141   2.0000      -0.614938       -16.7333
 142   2.0000      -0.608914       -16.5694
 143   2.0000      -0.605845       -16.4859
 144   2.0000      -0.600518       -16.3409
 145   2.0000      -0.595390       -16.2014
 146   2.0000      -0.590861       -16.0781
 147   2.0000      -0.582612       -15.8537
 148   2.0000      -0.580628       -15.7997
 149   2.0000      -0.579916       -15.7803
 150   2.0000      -0.568139       -15.4598
 151   2.0000      -0.565575       -15.3901
 152   2.0000      -0.562810       -15.3148
 153   2.0000      -0.556723       -15.1492
 154   2.0000      -0.550800       -14.9880
 155   2.0000      -0.545615       -14.8469
 156   2.0000      -0.541566       -14.7368
 157   2.0000      -0.533806       -14.5256
 158   2.0000      -0.524638       -14.2761
 159   2.0000      -0.523705       -14.2507
 160   2.0000      -0.522802       -14.2262
 161   2.0000      -0.520175       -14.1547
 162   2.0000      -0.519650       -14.1404
 163   2.0000      -0.516358       -14.0508
 164   2.0000      -0.515171       -14.0185
 165   2.0000      -0.509325       -13.8594
 166   2.0000      -0.505317       -13.7504
 167   2.0000      -0.502956       -13.6861
 168   2.0000      -0.497118       -13.5273
 169   2.0000      -0.495696       -13.4886
 170   2.0000      -0.495530       -13.4841
 171   2.0000      -0.494219       -13.4484
 172   2.0000      -0.491918       -13.3858
 173   2.0000      -0.488967       -13.3055
 174   2.0000      -0.486739       -13.2449
 175   2.0000      -0.484220       -13.1763
 176   2.0000      -0.479282       -13.0419
 177   2.0000      -0.476812       -12.9747
 178   2.0000      -0.475279       -12.9330
 179   2.0000      -0.469559       -12.7773
 180   2.0000      -0.467407       -12.7188
 181   2.0000      -0.466769       -12.7014
 182   2.0000      -0.461092       -12.5469
 183   2.0000      -0.459068       -12.4919
 184   2.0000      -0.458506       -12.4766
 185   2.0000      -0.453807       -12.3487
 186   2.0000      -0.446756       -12.1568
 187   2.0000      -0.445406       -12.1201
 188   2.0000      -0.443278       -12.0622
 189   2.0000      -0.439520       -11.9600
 190   2.0000      -0.438066       -11.9204
 191   2.0000      -0.436449       -11.8764
 192   2.0000      -0.435188       -11.8421
 193   2.0000      -0.433175       -11.7873
 194   2.0000      -0.430574       -11.7165
 195   2.0000      -0.429619       -11.6905
 196   2.0000      -0.427005       -11.6194
 197   2.0000      -0.425396       -11.5756
 198   2.0000      -0.413001       -11.2383
 199   2.0000      -0.410363       -11.1666
 200   2.0000      -0.409880       -11.1534
 201   2.0000      -0.407346       -11.0844
 202   2.0000      -0.405284       -11.0284
 203   2.0000      -0.401839       -10.9346
 204   2.0000      -0.399419       -10.8688
 205   2.0000      -0.395826       -10.7710
 206   2.0000      -0.390008       -10.6126
 207   2.0000      -0.387534       -10.5453
 208   2.0000      -0.379321       -10.3218
 209   2.0000      -0.377410       -10.2698
 210   2.0000      -0.371550       -10.1104
 211   2.0000      -0.366857        -9.9827
 212   2.0000      -0.366646        -9.9769
 213   2.0000      -0.359240        -9.7754
 214   2.0000      -0.348862        -9.4930
 215   2.0000      -0.343083        -9.3358
 216   2.0000      -0.341177        -9.2839
 217   2.0000      -0.338653        -9.2152
 218   2.0000      -0.335373        -9.1260
 219   2.0000      -0.323487        -8.8025
 220   2.0000      -0.319930        -8.7057
 221   2.0000      -0.303274        -8.2525
 222   2.0000      -0.298767        -8.1298
 223   2.0000      -0.282605        -7.6901
 224   2.0000      -0.265776        -7.2321
 225   2.0000      -0.256439        -6.9781
 226   2.0000      -0.236126        -6.4253
 227   2.0000      -0.222976        -6.0675
 228   0.0000      -0.067819        -1.8455
 229   0.0000      -0.065178        -1.7736
 230   0.0000      -0.044504        -1.2110
 231   0.0000      -0.039364        -1.0711
 232   0.0000      -0.014217        -0.3869

MULLIKEN ATOMIC CHARGES
-----------------------
   0 C :   -0.047121
   1 C :   -0.118813
   2 C :    0.044025
   3 C :    0.037673
   4 C :   -0.069553
   5 S :    0.080159
   6 C :   -0.050681
   7 C :    0.021773
   8 C :    0.041762
   9 C :   -0.068577
  10 S :    0.095167
  11 C :    0.007914
  12 N :   -0.024731
  13 C :   -0.137895
  14 S :    0.155681
  15 C :   -0.004814
  16 N :    0.280632
  17 O :   -0.254970
  18 O :   -0.269460
  19 C :   -0.008071
  20 C :    0.116863
  21 C :   -0.007126
  22 C :    0.014639
  23 C :    0.014635
  24 C :   -0.239356
  25 C :    0.095881
  26 C :    0.253477
  27 N :   -0.189471
  28 C :    0.067683
  29 C :   -0.087762
  30 C :    0.038577
  31 C :   -0.219647
  32 C :    0.088237
  33 C :    0.183354
  34 N :   -0.111009
  35 C :    0.091719
  36 C :   -0.040997
  37 C :   -0.018010
  38 C :   -0.110037
  39 C :    0.339481
  40 C :   -0.373433
  41 C :   -0.187448
  42 N :    0.137189
  43 C :   -0.189930
  44 N :    0.123543
  45 C :    0.006910
  46 C :    0.003628
  47 C :    0.145816
  48 O :   -0.184159
  49 C :   -0.076153
  50 C :    0.124312
  51 C :   -0.095702
  52 C :   -0.023320
  53 S :    0.180984
  54 C :   -0.121989
  55 C :    0.030490
  56 Br:    0.014751
  57 H :    0.044371
  58 H :    0.022423
  59 H :   -0.004676
  60 H :   -0.011016
  61 H :   -0.015693
  62 H :   -0.013291
  63 H :    0.011225
  64 H :    0.145229
  65 H :    0.009676
  66 H :   -0.001583
  67 H :   -0.021284
  68 H :   -0.034785
  69 H :    0.029918
  70 H :    0.028660
  71 H :    0.019066
  72 H :   -0.004217
  73 H :    0.018836
  74 H :    0.145577
  75 H :    0.000582
  76 H :   -0.030114
  77 H :   -0.009249
  78 H :    0.019421
  79 H :    0.019697
  80 H :   -0.007199
  81 H :    0.020049
  82 H :    0.012791
  83 H :    0.135316
  84 H :    0.027799
  85 H :    0.007038
  86 H :   -0.004399
  87 H :   -0.049459
  88 H :   -0.009859
  89 H :   -0.007571
Sum of atomic charges:   -0.0000000

LOEWDIN ATOMIC CHARGES
----------------------
   0 C :   -0.087581
   1 C :   -0.150343
   2 C :   -0.043297
   3 C :   -0.021173
   4 C :   -0.189686
   5 S :    0.349494
   6 C :   -0.172557
   7 C :   -0.043098
   8 C :   -0.026939
   9 C :   -0.188522
  10 S :    0.402047
  11 C :   -0.016276
  12 N :    0.022539
  13 C :   -0.116927
  14 S :    0.440600
  15 C :   -0.210124
  16 N :    0.274836
  17 O :   -0.220613
  18 O :   -0.235569
  19 C :    0.006881
  20 C :   -0.099477
  21 C :   -0.038527
  22 C :   -0.024956
  23 C :   -0.047273
  24 C :   -0.032659
  25 C :   -0.057896
  26 C :    0.046529
  27 N :   -0.013499
  28 C :    0.047816
  29 C :   -0.141906
  30 C :   -0.014224
  31 C :   -0.100343
  32 C :   -0.054386
  33 C :    0.044429
  34 N :    0.042318
  35 C :    0.095522
  36 C :   -0.115360
  37 C :    0.081143
  38 C :   -0.138534
  39 C :    0.080481
  40 C :   -0.163878
  41 C :   -0.019373
  42 N :   -0.071847
  43 C :   -0.018750
  44 N :   -0.074538
  45 C :   -0.018577
  46 C :   -0.046652
  47 C :    0.086398
  48 O :   -0.177716
  49 C :    0.010320
  50 C :   -0.036495
  51 C :   -0.146954
  52 C :   -0.011962
  53 S :    0.427664
  54 C :   -0.274461
  55 C :   -0.073999
  56 Br:    0.129321
  57 H :    0.028792
  58 H :    0.027180
  59 H :    0.035033
  60 H :    0.033441
  61 H :    0.031508
  62 H :    0.032315
  63 H :    0.033860
  64 H :    0.092963
  65 H :    0.044494
  66 H :    0.026486
  67 H :    0.022310
  68 H :    0.022877
  69 H :    0.035595
  70 H :    0.030885
  71 H :    0.031548
  72 H :    0.015166
  73 H :    0.027612
  74 H :    0.071032
  75 H :    0.026797
  76 H :    0.014252
  77 H :    0.026079
  78 H :    0.030794
  79 H :    0.028409
  80 H :    0.020647
  81 H :    0.031504
  82 H :    0.025977
  83 H :    0.087066
  84 H :    0.037556
  85 H :    0.028781
  86 H :    0.038150
  87 H :    0.032824
  88 H :    0.040317
  89 H :    0.036362

  Mayer bond orders larger than 0.100000
B(  0-C ,  1-C ) :   1.8482 B(  0-C , 57-H ) :   0.9399 B(  0-C , 58-H ) :   0.9463
B(  1-C ,  2-C ) :   1.0697 B(  1-C ,  5-S ) :   1.0109 B(  2-C ,  3-C ) :   1.6589
B(  2-C , 59-H ) :   0.9928 B(  3-C ,  4-C ) :   1.1531 B(  3-C , 60-H ) :   0.9914
B(  4-C ,  5-S ) :   1.0219 B(  4-C ,  6-C ) :   1.5735 B(  6-C ,  7-C ) :   1.1528
B(  6-C , 10-S ) :   1.0426 B(  7-C ,  8-C ) :   1.6461 B(  7-C , 61-H ) :   0.9915
B(  8-C ,  9-C ) :   1.1129 B(  8-C , 62-H ) :   0.9967 B(  9-C , 10-S ) :   1.0275
B(  9-C , 11-C ) :   1.6538 B( 11-C , 12-N ) :   1.1318 B( 11-C , 63-H ) :   0.9556
B( 12-N , 13-C ) :   1.1698 B( 12-N , 64-H ) :   0.9108 B( 13-C , 14-S ) :   1.1315
B( 13-C , 20-C ) :   1.3844 B( 14-S , 15-C ) :   1.0797 B( 15-C , 16-N ) :   0.9770
B( 15-C , 19-C ) :   1.4784 B( 16-N , 17-O ) :   1.5271 B( 16-N , 18-O ) :   1.5051
B( 17-O , 18-O ) :   0.2567 B( 19-C , 20-C ) :   1.2383 B( 19-C , 65-H ) :   1.0042
B( 20-C , 21-C ) :   1.0450 B( 21-C , 22-C ) :   1.7247 B( 21-C , 66-H ) :   0.9810
B( 22-C , 23-C ) :   1.1049 B( 22-C , 67-H ) :   0.9651 B( 23-C , 24-C ) :   1.7714
B( 23-C , 68-H ) :   0.9766 B( 24-C , 25-C ) :   1.0685 B( 24-C , 26-C ) :   1.0527
B( 25-C , 69-H ) :   0.9443 B( 25-C , 70-H ) :   0.9416 B( 25-C , 71-H ) :   0.9496
B( 26-C , 27-N ) :   0.9828 B( 26-C , 72-H ) :   0.9364 B( 26-C , 73-H ) :   0.9158
B( 27-N , 28-C ) :   1.2217 B( 27-N , 74-H ) :   0.9261 B( 28-C , 29-C ) :   1.6660
B( 28-C , 75-H ) :   0.9607 B( 29-C , 30-C ) :   1.1216 B( 29-C , 76-H ) :   0.9677
B( 30-C , 31-C ) :   1.7794 B( 30-C , 77-H ) :   0.9640 B( 31-C , 32-C ) :   1.0584
B( 31-C , 33-C ) :   1.0546 B( 32-C , 78-H ) :   0.9520 B( 32-C , 79-H ) :   0.9550
B( 32-C , 80-H ) :   0.9532 B( 33-C , 34-N ) :   0.9794 B( 33-C , 81-H ) :   0.9340
B( 33-C , 82-H ) :   0.9364 B( 34-N , 35-C ) :   1.3437 B( 34-N , 83-H ) :   0.9330
B( 35-C , 36-C ) :   1.4398 B( 35-C , 84-H ) :   0.9630 B( 36-C , 37-C ) :   1.2939
B( 36-C , 85-H ) :   0.9638 B( 37-C , 38-C ) :   1.4259 B( 37-C , 86-H ) :   0.9555
B( 38-C , 39-C ) :   1.1109 B( 38-C , 47-C ) :   0.9889 B( 39-C , 40-C ) :   1.5867
B( 39-C , 45-C ) :   0.9887 B( 40-C , 41-C ) :   1.1466 B( 40-C , 43-C ) :   1.1543
B( 41-C , 42-N ) :   2.9630 B( 43-C , 44-N ) :   2.9521 B( 45-C , 46-C ) :   1.2820
B( 45-C , 52-C ) :   1.4185 B( 46-C , 47-C ) :   0.9393 B( 46-C , 49-C ) :   1.4264
B( 47-C , 48-O ) :   2.1434 B( 49-C , 50-C ) :   1.2441 B( 49-C , 87-H ) :   1.0171
B( 50-C , 51-C ) :   1.3195 B( 50-C , 55-C ) :   1.1584 B( 51-C , 52-C ) :   1.3187
B( 51-C , 53-S ) :   1.0816 B( 52-C , 88-H ) :   0.9796 B( 53-S , 54-C ) :   1.0869
B( 54-C , 55-C ) :   1.6205 B( 54-C , 56-Br) :   1.0139 B( 55-C , 89-H ) :   0.9998

-----------------------------------------------------------------------------
         ABSORPTION SPECTRUM VIA TRANSITION ELECTRIC DIPOLE MOMENTS
-----------------------------------------------------------------------------
State   Energy  Wavelength   fosc         T2         TX        TY        TZ
        (cm-1)    (nm)                  (au**2)     (au)      (au)      (au)
-----------------------------------------------------------------------------
   0   17650.1    566.6   0.492382964   9.18401   1.46129  -1.11590  -2.40903
   1   21597.4    463.0   0.002965043   0.04520   0.03844  -0.20121  -0.05686
   2   21689.2    461.1   0.007394407   0.11224   0.20935   0.24983   0.07743
   3   22971.6    435.3   0.095570694   1.36965   0.02776  -1.16884  -0.05194
   4   24241.5    412.5   0.512907488   6.96555  -0.62966  -2.48764   0.61703
   5   24544.6    407.4   0.005853095   0.07851   0.08536   0.26120  -0.05474
   6   25282.2    395.5   0.074350686   0.96816  -0.01710  -0.92761  -0.32774
   7   26137.0    382.6   0.002983734   0.03758   0.01967  -0.17831   0.07350
   8   28069.8    356.3   0.271397175   3.18304   0.51169  -0.50511   1.63281
   9   28262.3    353.8   0.620710679   7.23032   0.56392   2.25928   1.34460
  10   28653.4    349.0   0.015774305   0.18124   0.10068   0.25510   0.32562
  11   30408.8    328.9   0.099596482   1.07825   0.03509   0.28530   0.99781
  12   30733.9    325.4   0.758082481   8.12034  -1.35797   1.30686  -2.13737
  13   30931.1    323.3   0.065958931   0.70203  -0.13202   0.28932   0.77517
  14   31296.8    319.5   0.001073384   0.01129  -0.03453  -0.09959   0.01342
  15   31509.0    317.4   0.000671755   0.00702   0.01422  -0.07784   0.02753
  16   32212.7    310.4   0.050062060   0.51163   0.50943   0.48853  -0.11596
  17   32249.3    310.1   0.224537578   2.29216  -1.11143  -0.43788  -0.93013
  18   32320.0    309.4   0.264635429   2.69558  -0.01399  -1.46919   0.73272
  19   32745.2    305.4   0.001768782   0.01778   0.04703  -0.08095   0.09496
  20   33486.4    298.6   0.139386726   1.37034   0.58087   0.90592  -0.46069
  21   34016.5    294.0   0.000213924   0.00207  -0.01213   0.03796  -0.02196
  22   34429.8    290.4   0.055015662   0.52605   0.42240   0.55065   0.21075
  23   35424.1    282.3   0.290750689   2.70207   1.20941   0.39451   1.04104
  24   35487.5    281.8   0.006174466   0.05728   0.06963  -0.11946   0.19534
  25   35988.8    277.9   0.008603607   0.07870  -0.09407  -0.24655   0.09522
  26   36578.4    273.4   0.000286740   0.00258  -0.04564  -0.00233  -0.02219
  27   36923.1    270.8   0.376323971   3.35536   0.30389   0.36491  -1.76914
  28   38123.1    262.3   0.000431136   0.00372  -0.02786  -0.03812   0.03865
  29   38319.8    261.0   0.004552077   0.03911   0.09179   0.02759   0.17298
  30   38499.1    259.7   0.017802566   0.15223   0.14129   0.17938   0.31638
  31   38961.1    256.7   0.000836552   0.00707  -0.01570   0.07585  -0.03269
  32   39575.4    252.7   0.065463356   0.54456   0.08475   0.46803   0.56421
  33   39786.1    251.3   0.615706227   5.09469   0.43549   1.09385   1.92576

FINAL SINGLE POINT ENERGY     -6375.820738259670

DIPOLE MOMENT
-------------
                                X             Y             Z
Electronic contribution:     25.30206    -130.71263      55.92132
Nuclear contribution   :    -22.48704     136.25589     -56.47508
                        -----------------------------------------
Total Dipole Moment    :      2.81502       5.54326      -0.55376
                        -----------------------------------------
Magnitude (a.u.)       :      6.24169
Magnitude (Debye)      :     15.86512

Rotational constants in cm-1:     0.001288     0.000566     0.000448
Rotational constants in MHz :    38.623103    16.968283    13.417354

                             ****ORCA TERMINATED NORMALLY****
TOTAL RUN TIME: 0 days 0 hours 12 minutes 30 seconds 246 msec
