                         Program Version 4.2.0 -  RELEASE  -
|  1> # ORCA input file
|  2> # SCF done       -177.463814424199          0.000417784867
|  3> ! CAM-B3LYP def2-SVP def2/J RIJCOSX Grid4 TightSCF
|  4> %maxcore 5000
|  5> %tddft
|  6>     Mode sTDDFT
|  7>     Ethresh 5.0
|  8>     maxcore 5000
|  9> end
| 10>
| 11> %pal
| 12>   nprocs 6
| 13>   end
| 14> * xyz 0 1
| 15>    C        8.16260        -3.69493         5.42311
| 16>    C        7.19304        -3.91791         4.52712
| 17>    C        6.45262        -2.94568         3.77196
| 18>    C        5.52334        -3.46866         2.94513
| 19>    C        5.44815        -4.89212         2.97288
| 20>    S        6.62434        -5.53956         4.09894
| 21>    C        4.59742        -5.69150         2.25457
| 22>    C        3.57805        -5.29719         1.34940
| 23>    C        2.88753        -6.32629         0.80266
| 24>    C        3.32708        -7.61187         1.22727
| 25>    S        4.65313        -7.44126         2.37293
| 26>    C        2.84615        -8.81637         0.82170
| 27>    N        3.34169       -10.00745         1.28129
| 28>    C        3.10531       -11.23980         0.77669
| 29>    S        3.20260       -12.59521         1.87018
| 30>    C        2.64931       -13.65152         0.60409
| 31>    N        2.53269       -15.00921         0.89224
| 32>    O        2.14076       -15.74843         0.00400
| 33>    O        2.83187       -15.35974         2.02439
| 34>    C        2.41169       -12.99558        -0.57345
| 35>    C        2.69880       -11.61859        -0.51666
| 36>    C        2.67848       -10.81966        -1.71231
| 37>    C        3.38743        -9.69428        -1.93542
| 38>    C        3.33527        -8.93240        -3.13564
| 39>    C        3.88767        -7.66897        -3.30673
| 40>    C        4.58193        -7.04081        -2.26254
| 41>    N        5.14581        -6.58790        -1.37148
| 42>    C        3.66498        -7.14717        -4.61033
| 43>    C        2.96397        -8.05210        -5.39825
| 44>    S        2.53352        -9.50558        -4.58095
| 45>    S        2.68993        -7.54846        -7.03556
| 46>    C        3.53065        -6.07931        -6.66125
| 47>    C        3.98050        -5.97207        -5.35172
| 48>    C        4.61501        -4.71858        -5.11815
| 49>    C        4.95522        -4.24040        -3.84591
| 50>    N        5.15587        -3.80892        -2.80135
| 51>    C        4.67619        -3.93820        -6.26558
| 52>    S        3.90060        -4.70973        -7.63607
| 53>    C        5.28984        -2.67260        -6.45519
| 54>    S        4.78781        -1.65603        -7.79272
| 55>    C        6.33061        -2.05921        -5.78709
| 56>    S        7.38263        -2.45588        -4.46929
| 57>    C        8.21084        -0.93559        -4.77014
| 58>    N        7.77840        -0.21214        -5.72872
| 59>    C        6.72194        -0.80499        -6.34726
| 60>    C        5.97490        -0.43137        -7.45738
| 61>    C        6.09828         0.71542        -8.27692
| 62>    C        7.05115         1.65820        -8.07848
| 63>    C        7.22941         2.80386        -8.89434
| 64>    S        6.18053         3.16498       -10.23353
| 65>    C        7.07593         4.59926       -10.63308
| 66>    C        8.12519         4.78318        -9.75260
| 67>    C        8.21379         3.77164        -8.77875
| 68>    C        9.25674         3.76366        -7.70163
| 69>    C       10.39372         4.73291        -8.03920
| 70>    N       11.23642         4.85686        -6.81502
| 71>    O       11.99899         3.95437        -6.59835
| 72>    O       11.04906         5.82039        -6.11495
| 73>    C        9.81265         6.07601        -8.44724
| 74>    N       10.88585         7.09187        -8.64600
| 75>    O       10.53250         8.23966        -8.68709
| 76>    O       12.00906         6.68257        -8.80218
| 77>    C        9.08137         5.93638        -9.78706
| 78>    C        6.61950         5.36839       -11.76012
| 79>    C        7.29250         6.29396       -12.44111
| 80>    H        8.47630        -2.69231         5.65466
| 81>    H        8.65551        -4.50028         5.93614
| 82>    H        6.65507        -1.89552         3.88673
| 83>    H        4.88470        -2.88931         2.30278
| 84>    H        3.39413        -4.26233         1.12685
| 85>    H        2.08589        -6.21981         0.09417
| 86>    H        2.04087        -8.87240         0.10722
| 87>    H        3.89404        -9.95619         2.13053
| 88>    H        2.08189       -13.50793        -1.45947
| 89>    H        2.07648       -11.22164        -2.51824
| 90>    H        4.04304        -9.28740        -1.17870
| 91>    H        9.04131        -0.65650        -4.15139
| 92>    H        5.39929         0.80836        -9.09747
| 93>    H        7.73242         1.53018        -7.24961
| 94>    H        9.66177         2.75859        -7.56830
| 95>    H        8.79460         4.06420        -6.75411
| 96>    H       11.03285         4.31946        -8.82544
| 97>    H        9.13889         6.46885        -7.67965
| 98>    H        9.82078         5.77085       -10.57902
| 99>    H        8.54594         6.86221       -10.00862
|100>    H        5.61534         5.11607       -12.07762
|101>    H        8.30866         6.56841       -12.22821
|102>    H        6.83215         6.79776       -13.27276
|103> *
|104>
|105>                          ****END OF INPUT****

CARTESIAN COORDINATES (ANGSTROEM)
---------------------------------
  C      8.162600   -3.694930    5.423110
  C      7.193040   -3.917910    4.527120
  C      6.452620   -2.945680    3.771960
  C      5.523340   -3.468660    2.945130
  C      5.448150   -4.892120    2.972880
  S      6.624340   -5.539560    4.098940
  C      4.597420   -5.691500    2.254570
  C      3.578050   -5.297190    1.349400
  C      2.887530   -6.326290    0.802660
  C      3.327080   -7.611870    1.227270
  S      4.653130   -7.441260    2.372930
  C      2.846150   -8.816370    0.821700
  N      3.341690  -10.007450    1.281290
  C      3.105310  -11.239800    0.776690
  S      3.202600  -12.595210    1.870180
  C      2.649310  -13.651520    0.604090
  N      2.532690  -15.009210    0.892240
  O      2.140760  -15.748430    0.004000
  O      2.831870  -15.359740    2.024390
  C      2.411690  -12.995580   -0.573450
  C      2.698800  -11.618590   -0.516660
  C      2.678480  -10.819660   -1.712310
  C      3.387430   -9.694280   -1.935420
  C      3.335270   -8.932400   -3.135640
  C      3.887670   -7.668970   -3.306730
  C      4.581930   -7.040810   -2.262540
  N      5.145810   -6.587900   -1.371480
  C      3.664980   -7.147170   -4.610330
  C      2.963970   -8.052100   -5.398250
  S      2.533520   -9.505580   -4.580950
  S      2.689930   -7.548460   -7.035560
  C      3.530650   -6.079310   -6.661250
  C      3.980500   -5.972070   -5.351720
  C      4.615010   -4.718580   -5.118150
  C      4.955220   -4.240400   -3.845910
  N      5.155870   -3.808920   -2.801350
  C      4.676190   -3.938200   -6.265580
  S      3.900600   -4.709730   -7.636070
  C      5.289840   -2.672600   -6.455190
  S      4.787810   -1.656030   -7.792720
  C      6.330610   -2.059210   -5.787090
  S      7.382630   -2.455880   -4.469290
  C      8.210840   -0.935590   -4.770140
  N      7.778400   -0.212140   -5.728720
  C      6.721940   -0.804990   -6.347260
  C      5.974900   -0.431370   -7.457380
  C      6.098280    0.715420   -8.276920
  C      7.051150    1.658200   -8.078480
  C      7.229410    2.803860   -8.894340
  S      6.180530    3.164980  -10.233530
  C      7.075930    4.599260  -10.633080
  C      8.125190    4.783180   -9.752600
  C      8.213790    3.771640   -8.778750
  C      9.256740    3.763660   -7.701630
  C     10.393720    4.732910   -8.039200
  N     11.236420    4.856860   -6.815020
  O     11.998990    3.954370   -6.598350
  O     11.049060    5.820390   -6.114950
  C      9.812650    6.076010   -8.447240
  N     10.885850    7.091870   -8.646000
  O     10.532500    8.239660   -8.687090
  O     12.009060    6.682570   -8.802180
  C      9.081370    5.936380   -9.787060
  C      6.619500    5.368390  -11.760120
  C      7.292500    6.293960  -12.441110
  H      8.476300   -2.692310    5.654660
  H      8.655510   -4.500280    5.936140
  H      6.655070   -1.895520    3.886730
  H      4.884700   -2.889310    2.302780
  H      3.394130   -4.262330    1.126850
  H      2.085890   -6.219810    0.094170
  H      2.040870   -8.872400    0.107220
  H      3.894040   -9.956190    2.130530
  H      2.081890  -13.507930   -1.459470
  H      2.076480  -11.221640   -2.518240
  H      4.043040   -9.287400   -1.178700
  H      9.041310   -0.656500   -4.151390
  H      5.399290    0.808360   -9.097470
  H      7.732420    1.530180   -7.249610
  H      9.661770    2.758590   -7.568300
  H      8.794600    4.064200   -6.754110
  H     11.032850    4.319460   -8.825440
  H      9.138890    6.468850   -7.679650
  H      9.820780    5.770850  -10.579020
  H      8.545940    6.862210  -10.008620
  H      5.615340    5.116070  -12.077620
  H      8.308660    6.568410  -12.228210
  H      6.832150    6.797760  -13.272760

 Total Charge           Charge          ....    0
 Multiplicity           Mult            ....    1
 Number of Electrons    NEL             ....  522
 Basis Dimension        Dim             .... 1061

ORBITAL ENERGIES
----------------

  NO   OCC          E(Eh)            E(eV)
   0   2.0000     -88.991941     -2421.5938
   1   2.0000     -88.991243     -2421.5748
   2   2.0000     -88.988045     -2421.4878
   3   2.0000     -88.981347     -2421.3056
   4   2.0000     -88.978482     -2421.2276
   5   2.0000     -88.971481     -2421.0371
   6   2.0000     -88.967143     -2420.9190
   7   2.0000     -88.941709     -2420.2269
   8   2.0000     -88.931341     -2419.9448
   9   2.0000     -19.255899      -523.9796
  10   2.0000     -19.254944      -523.9537
  11   2.0000     -19.254795      -523.9496
  12   2.0000     -19.254247      -523.9347
  13   2.0000     -19.229686      -523.2663
  14   2.0000     -19.228557      -523.2356
  15   2.0000     -14.654303      -398.7639
  16   2.0000     -14.653509      -398.7422
  17   2.0000     -14.641066      -398.4037
  18   2.0000     -14.482294      -394.0832
  19   2.0000     -14.428190      -392.6110
  20   2.0000     -14.410512      -392.1300
  21   2.0000     -14.406761      -392.0279
  22   2.0000     -10.369892      -282.1791
  23   2.0000     -10.350198      -281.6432
  24   2.0000     -10.350020      -281.6384
  25   2.0000     -10.348384      -281.5938
  26   2.0000     -10.347958      -281.5822
  27   2.0000     -10.341656      -281.4108
  28   2.0000     -10.341237      -281.3994
  29   2.0000     -10.336961      -281.2830
  30   2.0000     -10.336137      -281.2606
  31   2.0000     -10.331853      -281.1440
  32   2.0000     -10.327387      -281.0225
  33   2.0000     -10.326848      -281.0078
  34   2.0000     -10.323602      -280.9195
  35   2.0000     -10.323400      -280.9140
  36   2.0000     -10.321757      -280.8693
  37   2.0000     -10.319927      -280.8195
  38   2.0000     -10.316344      -280.7220
  39   2.0000     -10.314627      -280.6753
  40   2.0000     -10.313493      -280.6444
  41   2.0000     -10.313252      -280.6379
  42   2.0000     -10.311262      -280.5837
  43   2.0000     -10.310582      -280.5652
  44   2.0000     -10.310039      -280.5504
  45   2.0000     -10.307138      -280.4715
  46   2.0000     -10.306249      -280.4473
  47   2.0000     -10.306073      -280.4425
  48   2.0000     -10.303754      -280.3794
  49   2.0000     -10.302734      -280.3516
  50   2.0000     -10.301922      -280.3295
  51   2.0000     -10.300252      -280.2841
  52   2.0000     -10.299902      -280.2746
  53   2.0000     -10.299517      -280.2641
  54   2.0000     -10.299197      -280.2554
  55   2.0000     -10.298253      -280.2297
  56   2.0000     -10.297031      -280.1964
  57   2.0000     -10.294997      -280.1411
  58   2.0000     -10.293677      -280.1052
  59   2.0000     -10.282674      -279.8058
  60   2.0000     -10.282205      -279.7930
  61   2.0000     -10.279915      -279.7307
  62   2.0000     -10.278908      -279.7033
  63   2.0000     -10.277169      -279.6560
  64   2.0000     -10.262825      -279.2657
  65   2.0000      -8.087009      -220.0587
  66   2.0000      -8.086672      -220.0495
  67   2.0000      -8.083288      -219.9574
  68   2.0000      -8.076556      -219.7743
  69   2.0000      -8.074473      -219.7176
  70   2.0000      -8.067077      -219.5163
  71   2.0000      -8.062892      -219.4024
  72   2.0000      -8.038227      -218.7313
  73   2.0000      -8.028099      -218.4557
  74   2.0000      -6.056997      -164.8193
  75   2.0000      -6.056315      -164.8007
  76   2.0000      -6.052838      -164.7061
  77   2.0000      -6.052755      -164.7038
  78   2.0000      -6.052092      -164.6858
  79   2.0000      -6.048703      -164.5936
  80   2.0000      -6.048071      -164.5764
  81   2.0000      -6.047817      -164.5695
  82   2.0000      -6.045974      -164.5193
  83   2.0000      -6.044861      -164.4890
  84   2.0000      -6.044217      -164.4715
  85   2.0000      -6.041807      -164.4059
  86   2.0000      -6.039796      -164.3512
  87   2.0000      -6.038480      -164.3154
  88   2.0000      -6.036633      -164.2651
  89   2.0000      -6.035686      -164.2394
  90   2.0000      -6.032312      -164.1475
  91   2.0000      -6.031958      -164.1379
  92   2.0000      -6.028554      -164.0453
  93   2.0000      -6.028113      -164.0333
  94   2.0000      -6.025118      -163.9518
  95   2.0000      -6.008097      -163.4886
  96   2.0000      -6.004159      -163.3815
  97   2.0000      -5.998808      -163.2359
  98   2.0000      -5.997928      -163.2119
  99   2.0000      -5.994066      -163.1068
 100   2.0000      -5.988577      -162.9575
 101   2.0000      -1.340459       -36.4758
 102   2.0000      -1.334056       -36.3015
 103   2.0000      -1.308687       -35.6112
 104   2.0000      -1.161045       -31.5936
 105   2.0000      -1.158187       -31.5159
 106   2.0000      -1.127638       -30.6846
 107   2.0000      -1.087017       -29.5792
 108   2.0000      -1.081968       -29.4419
 109   2.0000      -1.046072       -28.4651
 110   2.0000      -1.016691       -27.6656
 111   2.0000      -1.014349       -27.6018
 112   2.0000      -1.000914       -27.2363
 113   2.0000      -0.995996       -27.1024
 114   2.0000      -0.993826       -27.0434
 115   2.0000      -0.984779       -26.7972
 116   2.0000      -0.983514       -26.7628
 117   2.0000      -0.980574       -26.6828
 118   2.0000      -0.961646       -26.1677
 119   2.0000      -0.954499       -25.9733
 120   2.0000      -0.929994       -25.3064
 121   2.0000      -0.918320       -24.9888
 122   2.0000      -0.914965       -24.8975
 123   2.0000      -0.900429       -24.5019
 124   2.0000      -0.897536       -24.4232
 125   2.0000      -0.893679       -24.3182
 126   2.0000      -0.888250       -24.1705
 127   2.0000      -0.878433       -23.9034
 128   2.0000      -0.872525       -23.7426
 129   2.0000      -0.870408       -23.6850
 130   2.0000      -0.858964       -23.3736
 131   2.0000      -0.852205       -23.1897
 132   2.0000      -0.839602       -22.8467
 133   2.0000      -0.838534       -22.8177
 134   2.0000      -0.837530       -22.7903
 135   2.0000      -0.831590       -22.6287
 136   2.0000      -0.816915       -22.2294
 137   2.0000      -0.814250       -22.1569
 138   2.0000      -0.798560       -21.7299
 139   2.0000      -0.784929       -21.3590
 140   2.0000      -0.780807       -21.2468
 141   2.0000      -0.774742       -21.0818
 142   2.0000      -0.761702       -20.7270
 143   2.0000      -0.744804       -20.2671
 144   2.0000      -0.734741       -19.9933
 145   2.0000      -0.725336       -19.7374
 146   2.0000      -0.718747       -19.5581
 147   2.0000      -0.715504       -19.4698
 148   2.0000      -0.709168       -19.2974
 149   2.0000      -0.702027       -19.1031
 150   2.0000      -0.689728       -18.7684
 151   2.0000      -0.686030       -18.6678
 152   2.0000      -0.682002       -18.5582
 153   2.0000      -0.674398       -18.3513
 154   2.0000      -0.673447       -18.3254
 155   2.0000      -0.659423       -17.9438
 156   2.0000      -0.655773       -17.8445
 157   2.0000      -0.654481       -17.8093
 158   2.0000      -0.651614       -17.7313
 159   2.0000      -0.649204       -17.6657
 160   2.0000      -0.647393       -17.6165
 161   2.0000      -0.636033       -17.3073
 162   2.0000      -0.631099       -17.1731
 163   2.0000      -0.629456       -17.1284
 164   2.0000      -0.622186       -16.9305
 165   2.0000      -0.620682       -16.8896
 166   2.0000      -0.618483       -16.8298
 167   2.0000      -0.614245       -16.7144
 168   2.0000      -0.610557       -16.6141
 169   2.0000      -0.608190       -16.5497
 170   2.0000      -0.605586       -16.4788
 171   2.0000      -0.602224       -16.3874
 172   2.0000      -0.592689       -16.1279
 173   2.0000      -0.591398       -16.0927
 174   2.0000      -0.590828       -16.0773
 175   2.0000      -0.582672       -15.8553
 176   2.0000      -0.578303       -15.7364
 177   2.0000      -0.574792       -15.6409
 178   2.0000      -0.568762       -15.4768
 179   2.0000      -0.563996       -15.3471
 180   2.0000      -0.556870       -15.1532
 181   2.0000      -0.555997       -15.1294
 182   2.0000      -0.553064       -15.0496
 183   2.0000      -0.547643       -14.9021
 184   2.0000      -0.543268       -14.7831
 185   2.0000      -0.538853       -14.6629
 186   2.0000      -0.537313       -14.6210
 187   2.0000      -0.536147       -14.5893
 188   2.0000      -0.534638       -14.5482
 189   2.0000      -0.525487       -14.2992
 190   2.0000      -0.523920       -14.2566
 191   2.0000      -0.523211       -14.2373
 192   2.0000      -0.517661       -14.0863
 193   2.0000      -0.515050       -14.0152
 194   2.0000      -0.513666       -13.9776
 195   2.0000      -0.509472       -13.8634
 196   2.0000      -0.507970       -13.8226
 197   2.0000      -0.504666       -13.7327
 198   2.0000      -0.500984       -13.6325
 199   2.0000      -0.496205       -13.5024
 200   2.0000      -0.492905       -13.4126
 201   2.0000      -0.489902       -13.3309
 202   2.0000      -0.487923       -13.2771
 203   2.0000      -0.483133       -13.1467
 204   2.0000      -0.479865       -13.0578
 205   2.0000      -0.477103       -12.9826
 206   2.0000      -0.474058       -12.8998
 207   2.0000      -0.473615       -12.8877
 208   2.0000      -0.471576       -12.8322
 209   2.0000      -0.468945       -12.7606
 210   2.0000      -0.465934       -12.6787
 211   2.0000      -0.464775       -12.6472
 212   2.0000      -0.461967       -12.5708
 213   2.0000      -0.456974       -12.4349
 214   2.0000      -0.456137       -12.4121
 215   2.0000      -0.455408       -12.3923
 216   2.0000      -0.452280       -12.3072
 217   2.0000      -0.449289       -12.2258
 218   2.0000      -0.448707       -12.2099
 219   2.0000      -0.439480       -11.9589
 220   2.0000      -0.437659       -11.9093
 221   2.0000      -0.436502       -11.8778
 222   2.0000      -0.433688       -11.8012
 223   2.0000      -0.430490       -11.7142
 224   2.0000      -0.428739       -11.6666
 225   2.0000      -0.427998       -11.6464
 226   2.0000      -0.426643       -11.6095
 227   2.0000      -0.424834       -11.5603
 228   2.0000      -0.421952       -11.4819
 229   2.0000      -0.417748       -11.3675
 230   2.0000      -0.414529       -11.2799
 231   2.0000      -0.400736       -10.9046
 232   2.0000      -0.396519       -10.7898
 233   2.0000      -0.394841       -10.7442
 234   2.0000      -0.393324       -10.7029
 235   2.0000      -0.390506       -10.6262
 236   2.0000      -0.387747       -10.5511
 237   2.0000      -0.385818       -10.4986
 238   2.0000      -0.385521       -10.4906
 239   2.0000      -0.381552       -10.3825
 240   2.0000      -0.379764       -10.3339
 241   2.0000      -0.378129       -10.2894
 242   2.0000      -0.378028       -10.2867
 243   2.0000      -0.375516       -10.2183
 244   2.0000      -0.369519       -10.0551
 245   2.0000      -0.362145        -9.8545
 246   2.0000      -0.358598        -9.7579
 247   2.0000      -0.357939        -9.7400
 248   2.0000      -0.348430        -9.4813
 249   2.0000      -0.334055        -9.0901
 250   2.0000      -0.331683        -9.0255
 251   2.0000      -0.329208        -8.9582
 252   2.0000      -0.327154        -8.9023
 253   2.0000      -0.325095        -8.8463
 254   2.0000      -0.320331        -8.7167
 255   2.0000      -0.314878        -8.5683
 256   2.0000      -0.293057        -7.9745
 257   2.0000      -0.292083        -7.9480
 258   2.0000      -0.265616        -7.2278
 259   2.0000      -0.246743        -6.7142
 260   2.0000      -0.213975        -5.8226
 261   0.0000      -0.080362        -2.1868
 262   0.0000      -0.065126        -1.7722
 263   0.0000      -0.051176        -1.3926
 264   0.0000      -0.033977        -0.9246
 265   0.0000      -0.030934        -0.8418

MULLIKEN ATOMIC CHARGES
-----------------------
   0 C :   -0.032182
   1 C :   -0.061586
   2 C :    0.049884
   3 C :    0.035759
   4 C :   -0.068138
   5 S :    0.070488
   6 C :   -0.038227
   7 C :    0.045083
   8 C :    0.056523
   9 C :   -0.032729
  10 S :    0.042456
  11 C :   -0.007768
  12 N :   -0.029182
  13 C :   -0.116863
  14 S :    0.169705
  15 C :   -0.015566
  16 N :    0.282286
  17 O :   -0.260527
  18 O :   -0.271165
  19 C :    0.003415
  20 C :    0.095255
  21 C :   -0.039903
  22 C :   -0.032647
  23 C :   -0.087268
  24 C :   -0.033218
  25 C :   -0.305673
  26 N :    0.196889
  27 C :    0.166374
  28 C :   -0.238789
  29 S :    0.155925
  30 S :    0.189433
  31 C :   -0.231564
  32 C :    0.118185
  33 C :   -0.004174
  34 C :   -0.336945
  35 N :    0.202492
  36 C :   -0.076277
  37 S :    0.168190
  38 C :   -0.245389
  39 S :    0.155042
  40 C :    0.018823
  41 S :    0.149927
  42 C :    0.020803
  43 N :   -0.056514
  44 C :    0.058306
  45 C :   -0.132662
  46 C :    0.021518
  47 C :   -0.017033
  48 C :   -0.088073
  49 S :    0.121542
  50 C :   -0.143331
  51 C :   -0.064430
  52 C :   -0.089700
  53 C :    0.203349
  54 C :    0.016641
  55 N :    0.226828
  56 O :   -0.219835
  57 O :   -0.231710
  58 C :    0.018191
  59 N :    0.227317
  60 O :   -0.220353
  61 O :   -0.231055
  62 C :    0.175074
  63 C :    0.027000
  64 C :   -0.027181
  65 H :    0.017339
  66 H :    0.019784
  67 H :   -0.012681
  68 H :   -0.007789
  69 H :   -0.010156
  70 H :   -0.016446
  71 H :    0.031643
  72 H :    0.145942
  73 H :    0.008370
  74 H :   -0.004054
  75 H :    0.049418
  76 H :    0.051083
  77 H :   -0.019595
  78 H :    0.010418
  79 H :    0.051870
  80 H :    0.039065
  81 H :    0.048668
  82 H :    0.052103
  83 H :    0.040954
  84 H :    0.049083
  85 H :   -0.001307
  86 H :    0.021812
  87 H :    0.033431
Sum of atomic charges:   -0.0000000

LOEWDIN ATOMIC CHARGES
----------------------
   0 C :   -0.080902
   1 C :   -0.137794
   2 C :   -0.033129
   3 C :   -0.021416
   4 C :   -0.176664
   5 S :    0.344887
   6 C :   -0.168678
   7 C :   -0.019853
   8 C :   -0.028369
   9 C :   -0.168106
  10 S :    0.341318
  11 C :   -0.024068
  12 N :    0.037114
  13 C :   -0.095882
  14 S :    0.446138
  15 C :   -0.216260
  16 N :    0.274643
  17 O :   -0.225595
  18 O :   -0.236898
  19 C :    0.005972
  20 C :   -0.115478
  21 C :   -0.015536
  22 C :   -0.057144
  23 C :   -0.123287
  24 C :   -0.106345
  25 C :   -0.038837
  26 N :   -0.036181
  27 C :   -0.063752
  28 C :   -0.333691
  29 S :    0.442964
  30 S :    0.424271
  31 C :   -0.337372
  32 C :   -0.060494
  33 C :   -0.110438
  34 C :   -0.052238
  35 N :   -0.042450
  36 C :   -0.143453
  37 S :    0.440171
  38 C :   -0.227568
  39 S :    0.449508
  40 C :   -0.188891
  41 S :    0.431547
  42 C :   -0.089805
  43 N :   -0.091192
  44 C :   -0.068343
  45 C :   -0.161410
  46 C :   -0.052062
  47 C :   -0.018626
  48 C :   -0.173807
  49 S :    0.445675
  50 C :   -0.165809
  51 C :   -0.065030
  52 C :   -0.058933
  53 C :   -0.012927
  54 C :    0.004527
  55 N :    0.275545
  56 O :   -0.184071
  57 O :   -0.199916
  58 C :    0.004720
  59 N :    0.275551
  60 O :   -0.184725
  61 O :   -0.198620
  62 C :   -0.014932
  63 C :   -0.042871
  64 C :   -0.036694
  65 H :    0.027716
  66 H :    0.025439
  67 H :    0.032895
  68 H :    0.034083
  69 H :    0.034658
  70 H :    0.031829
  71 H :    0.036067
  72 H :    0.085575
  73 H :    0.044948
  74 H :    0.025885
  75 H :    0.044797
  76 H :    0.024311
  77 H :    0.022592
  78 H :    0.035396
  79 H :    0.047352
  80 H :    0.044310
  81 H :    0.045721
  82 H :    0.046924
  83 H :    0.040245
  84 H :    0.045951
  85 H :    0.031517
  86 H :    0.022543
  87 H :    0.031238

  Mayer bond orders larger than 0.100000
B(  0-C ,  1-C ) :   1.8678 B(  0-C , 65-H ) :   0.9508 B(  0-C , 66-H ) :   0.9418
B(  1-C ,  2-C ) :   1.0760 B(  1-C ,  5-S ) :   1.0082 B(  2-C ,  3-C ) :   1.6703
B(  2-C , 67-H ) :   0.9925 B(  3-C ,  4-C ) :   1.1469 B(  3-C , 68-H ) :   0.9916
B(  4-C ,  5-S ) :   1.0375 B(  4-C ,  6-C ) :   1.5842 B(  6-C ,  7-C ) :   1.1668
B(  6-C , 10-S ) :   1.0266 B(  7-C ,  8-C ) :   1.6413 B(  7-C , 69-H ) :   0.9891
B(  8-C ,  9-C ) :   1.1281 B(  8-C , 70-H ) :   0.9964 B(  9-C , 10-S ) :   1.0219
B(  9-C , 11-C ) :   1.6408 B( 11-C , 12-N ) :   1.1053 B( 11-C , 71-H ) :   0.9566
B( 12-N , 13-C ) :   1.2285 B( 12-N , 72-H ) :   0.8982 B( 13-C , 14-S ) :   1.1386
B( 13-C , 20-C ) :   1.3421 B( 14-S , 15-C ) :   1.0690 B( 15-C , 16-N ) :   0.9843
B( 15-C , 19-C ) :   1.4841 B( 16-N , 17-O ) :   1.5244 B( 16-N , 18-O ) :   1.5026
B( 17-O , 18-O ) :   0.2536 B( 19-C , 20-C ) :   1.2271 B( 19-C , 73-H ) :   1.0052
B( 20-C , 21-C ) :   1.0961 B( 21-C , 22-C ) :   1.6693 B( 21-C , 74-H ) :   0.9666
B( 22-C , 23-C ) :   1.1975 B( 22-C , 75-H ) :   0.9441 B( 23-C , 24-C ) :   1.4942
B( 23-C , 29-S ) :   1.1133 B( 24-C , 25-C ) :   1.1766 B( 24-C , 27-C ) :   1.2360
B( 25-C , 26-N ) :   2.9410 B( 27-C , 28-C ) :   1.4177 B( 27-C , 32-C ) :   1.0740
B( 28-C , 29-S ) :   1.0853 B( 28-C , 30-S ) :   1.0851 B( 30-S , 31-C ) :   1.0848
B( 31-C , 32-C ) :   1.4298 B( 31-C , 37-S ) :   1.0730 B( 32-C , 33-C ) :   1.2458
B( 33-C , 34-C ) :   1.1691 B( 33-C , 36-C ) :   1.5108 B( 34-C , 35-N ) :   2.9688
B( 36-C , 37-S ) :   1.1356 B( 36-C , 38-C ) :   1.1612 B( 38-C , 39-S ) :   1.1135
B( 38-C , 40-C ) :   1.5409 B( 38-C , 45-C ) :   0.1199 B( 39-S , 45-C ) :   1.1233
B( 40-C , 41-S ) :   1.0664 B( 40-C , 44-C ) :   1.2371 B( 41-S , 42-C ) :   1.1007
B( 41-S , 43-N ) :   0.1023 B( 42-C , 43-N ) :   1.7621 B( 42-C , 76-H ) :   0.9637
B( 43-N , 44-C ) :   1.2949 B( 44-C , 45-C ) :   1.4222 B( 45-C , 46-C ) :   1.1512
B( 46-C , 47-C ) :   1.6467 B( 46-C , 77-H ) :   0.9580 B( 47-C , 48-C ) :   1.1577
B( 47-C , 78-H ) :   0.9489 B( 48-C , 49-S ) :   1.1119 B( 48-C , 52-C ) :   1.4994
B( 49-S , 50-C ) :   1.1318 B( 50-C , 51-C ) :   1.5396 B( 50-C , 63-C ) :   1.0958
B( 51-C , 52-C ) :   1.3080 B( 51-C , 62-C ) :   1.0509 B( 52-C , 53-C ) :   1.0537
B( 53-C , 54-C ) :   1.0417 B( 53-C , 79-H ) :   0.9012 B( 53-C , 80-H ) :   0.8943
B( 54-C , 55-N ) :   0.8374 B( 54-C , 58-C ) :   0.9851 B( 54-C , 81-H ) :   0.9021
B( 55-N , 56-O ) :   1.5785 B( 55-N , 57-O ) :   1.5647 B( 56-O , 57-O ) :   0.2753
B( 58-C , 59-N ) :   0.8371 B( 58-C , 62-C ) :   1.0419 B( 58-C , 82-H ) :   0.9020
B( 59-N , 60-O ) :   1.5762 B( 59-N , 61-O ) :   1.5656 B( 60-O , 61-O ) :   0.2757
B( 62-C , 83-H ) :   0.8925 B( 62-C , 84-H ) :   0.9049 B( 63-C , 64-C ) :   1.9307
B( 63-C , 85-H ) :   0.9471 B( 64-C , 86-H ) :   0.9594 B( 64-C , 87-H ) :   0.9450

-----------------------------------------------------------------------------
         ABSORPTION SPECTRUM VIA TRANSITION ELECTRIC DIPOLE MOMENTS
-----------------------------------------------------------------------------
State   Energy  Wavelength   fosc         T2         TX        TY        TZ
        (cm-1)    (nm)                  (au**2)     (au)      (au)      (au)
-----------------------------------------------------------------------------
   0   16798.6    595.3   0.566502594  11.10210  -1.16403  -1.94847  -2.43939
   1   19735.6    506.7   0.039421582   0.65759   0.28011   0.75483  -0.09673
   2   20754.3    481.8   2.163613857  34.32007   1.68981   5.25745  -1.95545
   3   20989.7    476.4   0.104889383   1.64513   0.40052   0.51162   1.10588
   4   25076.3    398.8   0.351831459   4.61900   1.28787   1.00720   1.39497
   5   27911.1    358.3   0.296846299   3.50131   1.28392   1.27494  -0.47684
   6   28756.3    347.8   0.007297128   0.08354   0.03241  -0.25046   0.14057
   7   28999.0    344.8   0.065519626   0.74381   0.08959  -0.49810   0.69835
   8   29505.1    338.9   0.365824938   4.08181   0.38221   1.76741  -0.90110
   9   29988.5    333.5   0.004108081   0.04510   0.14830  -0.05397   0.14210
  10   30308.7    329.9   0.000588155   0.00639  -0.03464  -0.07059  -0.01433
  11   31539.3    317.1   0.131338512   1.37093   0.66698   0.06867   0.95987
  12   31875.0    313.7   0.001542177   0.01593   0.00929  -0.08894   0.08906
  13   32599.0    306.8   0.015374731   0.15527  -0.15094   0.22242  -0.28812
  14   32650.4    306.3   0.003977589   0.04011   0.05037   0.18733  -0.04975
  15   32887.0    304.1   0.259615322   2.59885  -0.24781   1.21138  -1.03440
  16   34027.8    293.9   0.000052305   0.00051  -0.00731   0.01595  -0.01408
  17   34141.4    292.9   0.021511069   0.20742  -0.10992   0.17768  -0.40469
  18   34281.0    291.7   0.074186926   0.71244   0.18132  -0.65559   0.49977
  19   34397.7    290.7   0.067237423   0.64351  -0.26506  -0.65408  -0.38137
  20   35151.3    284.5   0.180495684   1.69045  -0.29243   0.87965  -0.91167
  21   35583.9    281.0   0.025731854   0.23806   0.41121   0.08403   0.24882
  22   35684.5    280.2   0.006415333   0.05919  -0.21349  -0.06953  -0.09367
  23   35849.3    278.9   0.035156921   0.32285   0.07633  -0.22782   0.51490
  24   36243.7    275.9   0.125452931   1.13952   0.02454  -0.87810   0.60652
  25   36399.2    274.7   0.014782430   0.13370  -0.05772  -0.28884   0.21666
  26   36469.0    274.2   0.044207965   0.39907  -0.43036   0.16561  -0.43178
  27   36946.3    270.7   0.000013024   0.00012  -0.00246  -0.00831   0.00640
  28   37116.1    269.4   0.068951555   0.61158  -0.62638  -0.35723  -0.30268
  29   37269.3    268.3   0.002018947   0.01783   0.07567   0.01175  -0.10941
  30   37454.9    267.0   0.012698834   0.11162   0.13431   0.30521  -0.02054
  31   37603.0    265.9   0.016915687   0.14810  -0.27254   0.26707  -0.04991
  32   37951.2    263.5   0.123195503   1.06867  -0.70869  -0.74533  -0.10448
  33   38228.7    261.6   0.020622304   0.17759  -0.11789  -0.35969   0.18524
  34   38343.8    260.8   0.001728591   0.01484   0.00827  -0.12136  -0.00672
  35   38506.2    259.7   0.007742252   0.06619   0.22113   0.08959  -0.09627
  36   39048.3    256.1   0.016609368   0.14003  -0.16596   0.32190  -0.09417
  37   39258.0    254.7   0.003655111   0.03065  -0.16461  -0.05593   0.02064
  38   39312.7    254.4   0.021495483   0.18001  -0.12376  -0.17785  -0.36477
  39   39924.3    250.5   0.040066152   0.33038   0.38921   0.23932   0.34875

FINAL SINGLE POINT ENERGY     -6066.178467671293

DIPOLE MOMENT
-------------
                                X             Y             Z
Electronic contribution:    -19.64082     -54.54581       1.60651
Nuclear contribution   :     17.53096      55.92618      -4.51452
                        -----------------------------------------
Total Dipole Moment    :     -2.10986       1.38037      -2.90801
                        -----------------------------------------
Magnitude (a.u.)       :      3.84883
Magnitude (Debye)      :      9.78294

Rotational constants in cm-1:     0.001521     0.000283     0.000245
Rotational constants in MHz :    45.606714     8.493577     7.349104

                             ****ORCA TERMINATED NORMALLY****
TOTAL RUN TIME: 0 days 0 hours 8 minutes 2 seconds 720 msec
