                         Program Version 4.2.0 -  RELEASE  -
|  1> # ORCA input file
|  2> # SCF done       -181.255560876685          0.000482668797
|  3> ! CAM-B3LYP def2-SVP def2/J RIJCOSX Grid4 TightSCF
|  4> %maxcore 5000
|  5> %tddft
|  6>     Mode sTDDFT
|  7>     Ethresh 5.0
|  8>     maxcore 5000
|  9> end
| 10>
| 11> %pal
| 12>   nprocs 6
| 13>   end
| 14> * xyz 0 1
| 15>    C        2.57864       -13.63077         2.37010
| 16>    C        3.55431       -12.71187         2.35412
| 17>    C        4.75190       -12.68567         3.14248
| 18>    C        5.55427       -11.62293         2.90616
| 19>    C        5.06678       -10.72417         1.91937
| 20>    S        3.53065       -11.29105         1.29506
| 21>    C        5.66458        -9.57197         1.46337
| 22>    C        6.91183        -9.02604         1.84967
| 23>    C        7.24390        -7.88848         1.18093
| 24>    C        6.28595        -7.46601         0.22822
| 25>    S        4.91830        -8.56509         0.23359
| 26>    C        6.40273        -6.38487        -0.61453
| 27>    C        5.48965        -5.97797        -1.58152
| 28>    C        5.65390        -4.92170        -2.50073
| 29>    C        4.54306        -4.77458        -3.37631
| 30>    N        4.51193        -3.82318        -4.31971
| 31>    C        5.56041        -3.04281        -4.41267
| 32>    C        6.69147        -3.21201        -3.55825
| 33>    N        6.72820        -4.12904        -2.61654
| 34>    C        7.90192        -2.34857        -3.71194
| 35>    C        5.52321        -1.97513        -5.45405
| 36>    C        3.51972        -5.70405        -3.15454
| 37>    S        3.95026        -6.74814        -1.84123
| 38>    C        2.33110        -5.77645        -3.90947
| 39>    C        1.25409        -6.63504        -3.77167
| 40>    C        0.22918        -6.40210        -4.74268
| 41>    C        0.59165        -5.34869        -5.62532
| 42>    S        2.15310        -4.66377        -5.24131
| 43>    C       -0.20551        -4.89163        -6.65808
| 44>    C        0.26247        -3.79884        -7.57182
| 45>    C        0.97815        -4.38499        -8.78990
| 46>    C       -1.44110        -5.52289        -6.82212
| 47>    C       -1.81846        -6.55123        -5.92773
| 48>    C       -1.02822        -7.01168        -4.88697
| 49>    C       -1.55173        -8.11206        -4.01265
| 50>    C       -1.39215        -9.47645        -4.68618
| 51>    S       -3.41610        -7.15135        -6.30835
| 52>    C       -3.54393        -6.04834        -7.63417
| 53>    C       -2.45743        -5.26628        -7.79077
| 54>    C        1.23116        -7.63633        -2.71256
| 55>    S        1.58786        -9.29332        -3.02940
| 56>    C        1.36500        -9.69154        -1.36935
| 57>    C        1.03586        -8.62707        -0.59899
| 58>    C        0.83705        -8.72711         0.87454
| 59>    C        0.96996        -7.41412        -1.36467
| 60>    C        0.81392        -6.08153        -0.87868
| 61>    C        0.30954        -5.64598         0.30327
| 62>    C        0.45720        -4.29961         0.73360
| 63>    C        1.48614        -3.50836         0.31146
| 64>    C        1.71454        -2.19883         0.76436
| 65>    C        2.85019        -1.48465         0.46550
| 66>    C        3.17104        -0.13981         0.89032
| 67>    C        2.34597         0.74289         1.54260
| 68>    C        2.72271         2.04835         1.91706
| 69>    N        2.96789         3.11915         2.25261
| 70>    C        1.01194         0.48987         1.92142
| 71>    N       -0.07984         0.36889         2.25817
| 72>    C        4.54778         0.13874         0.48777
| 73>    C        5.05837        -0.99404        -0.18978
| 74>    C        4.00734        -2.02667        -0.27753
| 75>    O        4.11412        -3.09675        -0.84712
| 76>    C        6.34798        -1.06716        -0.65490
| 77>    C        7.17203         0.04690        -0.46150
| 78>    C        6.64852         1.18425         0.19658
| 79>    C        5.34758         1.24901         0.68216
| 80>    S        7.83320         2.45037         0.32575
| 81>    C        9.00004         1.44539        -0.49222
| 82>    C        8.52997         0.22584        -0.84474
| 83>   Br       10.73035         2.10066        -0.80710
| 84>    H        2.63612       -14.47937         3.02828
| 85>    H        1.71704       -13.55453         1.73272
| 86>    H        4.95805       -13.46718         3.85194
| 87>    H        6.48922       -11.44679         3.40798
| 88>    H        7.52942        -9.49010         2.59740
| 89>    H        8.15582        -7.33805         1.33296
| 90>    H        7.30303        -5.78836        -0.54739
| 91>    H        8.32205        -2.46429        -4.71031
| 92>    H        8.64861        -2.64316        -2.97916
| 93>    H        7.64665        -1.29812        -3.57603
| 94>    H        6.34469        -2.09790        -6.15842
| 95>    H        5.61635        -0.99181        -4.99470
| 96>    H        4.57888        -2.03534        -5.98747
| 97>    H        0.95346        -3.15228        -7.02661
| 98>    H       -0.58582        -3.19559        -7.89858
| 99>    H        1.84381        -4.96119        -8.47232
|100>    H        1.31365        -3.58969        -9.45116
|101>    H        0.31108        -5.04173        -9.34404
|102>    H       -1.04096        -8.10886        -3.05110
|103>    H       -2.61521        -7.93374        -3.83045
|104>    H       -1.74211       -10.26423        -4.02381
|105>    H       -0.34925        -9.66356        -4.92985
|106>    H       -1.97252        -9.51348        -5.60456
|107>    H       -4.44065        -6.05933        -8.22288
|108>    H       -2.36933        -4.52842        -8.56742
|109>    H        1.51389       -10.70457        -1.05315
|110>    H        1.15845        -9.70490         1.22314
|111>    H       -0.21308        -8.59626         1.13440
|112>    H        1.42167        -7.96295         1.38299
|113>    H        1.16681        -5.32474        -1.56785
|114>    H       -0.23739        -6.31263         0.95192
|115>    H       -0.22410        -3.92684         1.48854
|116>    H        2.21479        -3.92116        -0.36870
|117>    H        0.96709        -1.75442         1.40917
|118>    H        6.70851        -1.95975        -1.14142
|119>    H        5.00306         2.13441         1.18948
|120>    H        9.11591        -0.51916        -1.35091
|121> *
|122>
|123>                          ****END OF INPUT****

CARTESIAN COORDINATES (ANGSTROEM)
---------------------------------
  C      2.578640  -13.630770    2.370100
  C      3.554310  -12.711870    2.354120
  C      4.751900  -12.685670    3.142480
  C      5.554270  -11.622930    2.906160
  C      5.066780  -10.724170    1.919370
  S      3.530650  -11.291050    1.295060
  C      5.664580   -9.571970    1.463370
  C      6.911830   -9.026040    1.849670
  C      7.243900   -7.888480    1.180930
  C      6.285950   -7.466010    0.228220
  S      4.918300   -8.565090    0.233590
  C      6.402730   -6.384870   -0.614530
  C      5.489650   -5.977970   -1.581520
  C      5.653900   -4.921700   -2.500730
  C      4.543060   -4.774580   -3.376310
  N      4.511930   -3.823180   -4.319710
  C      5.560410   -3.042810   -4.412670
  C      6.691470   -3.212010   -3.558250
  N      6.728200   -4.129040   -2.616540
  C      7.901920   -2.348570   -3.711940
  C      5.523210   -1.975130   -5.454050
  C      3.519720   -5.704050   -3.154540
  S      3.950260   -6.748140   -1.841230
  C      2.331100   -5.776450   -3.909470
  C      1.254090   -6.635040   -3.771670
  C      0.229180   -6.402100   -4.742680
  C      0.591650   -5.348690   -5.625320
  S      2.153100   -4.663770   -5.241310
  C     -0.205510   -4.891630   -6.658080
  C      0.262470   -3.798840   -7.571820
  C      0.978150   -4.384990   -8.789900
  C     -1.441100   -5.522890   -6.822120
  C     -1.818460   -6.551230   -5.927730
  C     -1.028220   -7.011680   -4.886970
  C     -1.551730   -8.112060   -4.012650
  C     -1.392150   -9.476450   -4.686180
  S     -3.416100   -7.151350   -6.308350
  C     -3.543930   -6.048340   -7.634170
  C     -2.457430   -5.266280   -7.790770
  C      1.231160   -7.636330   -2.712560
  S      1.587860   -9.293320   -3.029400
  C      1.365000   -9.691540   -1.369350
  C      1.035860   -8.627070   -0.598990
  C      0.837050   -8.727110    0.874540
  C      0.969960   -7.414120   -1.364670
  C      0.813920   -6.081530   -0.878680
  C      0.309540   -5.645980    0.303270
  C      0.457200   -4.299610    0.733600
  C      1.486140   -3.508360    0.311460
  C      1.714540   -2.198830    0.764360
  C      2.850190   -1.484650    0.465500
  C      3.171040   -0.139810    0.890320
  C      2.345970    0.742890    1.542600
  C      2.722710    2.048350    1.917060
  N      2.967890    3.119150    2.252610
  C      1.011940    0.489870    1.921420
  N     -0.079840    0.368890    2.258170
  C      4.547780    0.138740    0.487770
  C      5.058370   -0.994040   -0.189780
  C      4.007340   -2.026670   -0.277530
  O      4.114120   -3.096750   -0.847120
  C      6.347980   -1.067160   -0.654900
  C      7.172030    0.046900   -0.461500
  C      6.648520    1.184250    0.196580
  C      5.347580    1.249010    0.682160
  S      7.833200    2.450370    0.325750
  C      9.000040    1.445390   -0.492220
  C      8.529970    0.225840   -0.844740
  Br    10.730350    2.100660   -0.807100
  H      2.636120  -14.479370    3.028280
  H      1.717040  -13.554530    1.732720
  H      4.958050  -13.467180    3.851940
  H      6.489220  -11.446790    3.407980
  H      7.529420   -9.490100    2.597400
  H      8.155820   -7.338050    1.332960
  H      7.303030   -5.788360   -0.547390
  H      8.322050   -2.464290   -4.710310
  H      8.648610   -2.643160   -2.979160
  H      7.646650   -1.298120   -3.576030
  H      6.344690   -2.097900   -6.158420
  H      5.616350   -0.991810   -4.994700
  H      4.578880   -2.035340   -5.987470
  H      0.953460   -3.152280   -7.026610
  H     -0.585820   -3.195590   -7.898580
  H      1.843810   -4.961190   -8.472320
  H      1.313650   -3.589690   -9.451160
  H      0.311080   -5.041730   -9.344040
  H     -1.040960   -8.108860   -3.051100
  H     -2.615210   -7.933740   -3.830450
  H     -1.742110  -10.264230   -4.023810
  H     -0.349250   -9.663560   -4.929850
  H     -1.972520   -9.513480   -5.604560
  H     -4.440650   -6.059330   -8.222880
  H     -2.369330   -4.528420   -8.567420
  H      1.513890  -10.704570   -1.053150
  H      1.158450   -9.704900    1.223140
  H     -0.213080   -8.596260    1.134400
  H      1.421670   -7.962950    1.382990
  H      1.166810   -5.324740   -1.567850
  H     -0.237390   -6.312630    0.951920
  H     -0.224100   -3.926840    1.488540
  H      2.214790   -3.921160   -0.368700
  H      0.967090   -1.754420    1.409170
  H      6.708510   -1.959750   -1.141420
  H      5.003060    2.134410    1.189480
  H      9.115910   -0.519160   -1.350910

 Total Charge           Charge          ....    0
 Multiplicity           Mult            ....    1
 Number of Electrons    NEL             ....  556
 Basis Dimension        Dim             .... 1197

ORBITAL ENERGIES
----------------

  NO   OCC          E(Eh)            E(eV)
   0   2.0000    -482.884054    -13139.9431
   1   2.0000     -88.972776     -2421.0723
   2   2.0000     -88.966776     -2420.9091
   3   2.0000     -88.954289     -2420.5693
   4   2.0000     -88.946796     -2420.3654
   5   2.0000     -88.944357     -2420.2990
   6   2.0000     -88.933912     -2420.0148
   7   2.0000     -88.931881     -2419.9595
   8   2.0000     -62.561770     -1702.3923
   9   2.0000     -56.395712     -1534.6053
  10   2.0000     -56.393010     -1534.5318
  11   2.0000     -56.392972     -1534.5308
  12   2.0000     -19.210874      -522.7544
  13   2.0000     -14.416776      -392.3004
  14   2.0000     -14.413422      -392.2092
  15   2.0000     -14.408384      -392.0721
  16   2.0000     -14.407664      -392.0525
  17   2.0000     -10.360862      -281.9334
  18   2.0000     -10.356364      -281.8110
  19   2.0000     -10.333738      -281.1953
  20   2.0000     -10.332907      -281.1727
  21   2.0000     -10.321558      -280.8639
  22   2.0000     -10.318157      -280.7713
  23   2.0000     -10.317181      -280.7448
  24   2.0000     -10.312288      -280.6116
  25   2.0000     -10.311459      -280.5891
  26   2.0000     -10.311097      -280.5792
  27   2.0000     -10.310108      -280.5523
  28   2.0000     -10.309540      -280.5368
  29   2.0000     -10.305988      -280.4402
  30   2.0000     -10.305121      -280.4166
  31   2.0000     -10.303401      -280.3698
  32   2.0000     -10.303332      -280.3679
  33   2.0000     -10.303087      -280.3613
  34   2.0000     -10.302402      -280.3426
  35   2.0000     -10.301249      -280.3112
  36   2.0000     -10.300445      -280.2894
  37   2.0000     -10.300198      -280.2826
  38   2.0000     -10.299402      -280.2610
  39   2.0000     -10.299323      -280.2588
  40   2.0000     -10.295660      -280.1592
  41   2.0000     -10.294223      -280.1201
  42   2.0000     -10.294055      -280.1155
  43   2.0000     -10.292080      -280.0617
  44   2.0000     -10.286916      -279.9212
  45   2.0000     -10.286714      -279.9157
  46   2.0000     -10.285868      -279.8927
  47   2.0000     -10.285713      -279.8885
  48   2.0000     -10.284944      -279.8676
  49   2.0000     -10.284223      -279.8479
  50   2.0000     -10.284115      -279.8450
  51   2.0000     -10.283791      -279.8362
  52   2.0000     -10.282621      -279.8044
  53   2.0000     -10.278616      -279.6954
  54   2.0000     -10.277803      -279.6732
  55   2.0000     -10.277594      -279.6676
  56   2.0000     -10.276911      -279.6490
  57   2.0000     -10.274904      -279.5944
  58   2.0000     -10.274827      -279.5923
  59   2.0000     -10.273376      -279.5528
  60   2.0000     -10.272244      -279.5220
  61   2.0000     -10.269130      -279.4372
  62   2.0000     -10.268614      -279.4232
  63   2.0000     -10.267592      -279.3954
  64   2.0000     -10.267201      -279.3847
  65   2.0000     -10.264155      -279.3019
  66   2.0000     -10.262789      -279.2647
  67   2.0000     -10.261071      -279.2179
  68   2.0000     -10.260528      -279.2032
  69   2.0000     -10.259735      -279.1816
  70   2.0000     -10.254245      -279.0322
  71   2.0000     -10.247979      -278.8617
  72   2.0000     -10.241941      -278.6974
  73   2.0000      -8.791200      -239.2207
  74   2.0000      -8.068612      -219.5581
  75   2.0000      -8.059559      -219.3118
  76   2.0000      -8.049538      -219.0391
  77   2.0000      -8.042494      -218.8474
  78   2.0000      -8.040473      -218.7924
  79   2.0000      -8.029576      -218.4959
  80   2.0000      -8.025981      -218.3980
  81   2.0000      -6.627463      -180.3424
  82   2.0000      -6.612947      -179.9474
  83   2.0000      -6.612767      -179.9426
  84   2.0000      -6.038317      -164.3110
  85   2.0000      -6.034033      -164.1944
  86   2.0000      -6.029867      -164.0810
  87   2.0000      -6.028699      -164.0492
  88   2.0000      -6.024483      -163.9345
  89   2.0000      -6.022411      -163.8781
  90   2.0000      -6.018718      -163.7776
  91   2.0000      -6.014392      -163.6599
  92   2.0000      -6.012267      -163.6021
  93   2.0000      -6.012092      -163.5973
  94   2.0000      -6.010293      -163.5484
  95   2.0000      -6.008078      -163.4881
  96   2.0000      -6.006349      -163.4411
  97   2.0000      -6.003503      -163.3636
  98   2.0000      -6.001156      -163.2997
  99   2.0000      -5.999204      -163.2466
 100   2.0000      -5.995751      -163.1527
 101   2.0000      -5.994925      -163.1302
 102   2.0000      -5.991434      -163.0352
 103   2.0000      -5.991180      -163.0283
 104   2.0000      -5.987289      -162.9224
 105   2.0000      -2.743348       -74.6503
 106   2.0000      -2.739246       -74.5387
 107   2.0000      -2.739138       -74.5357
 108   2.0000      -2.727584       -74.2213
 109   2.0000      -2.727575       -74.2211
 110   2.0000      -1.124287       -30.5934
 111   2.0000      -1.074092       -29.2275
 112   2.0000      -1.017743       -27.6942
 113   2.0000      -1.007211       -27.4076
 114   2.0000      -1.000939       -27.2369
 115   2.0000      -0.996057       -27.1041
 116   2.0000      -0.992782       -27.0150
 117   2.0000      -0.986720       -26.8500
 118   2.0000      -0.983322       -26.7575
 119   2.0000      -0.978796       -26.6344
 120   2.0000      -0.977635       -26.6028
 121   2.0000      -0.968075       -26.3427
 122   2.0000      -0.953947       -25.9582
 123   2.0000      -0.939264       -25.5587
 124   2.0000      -0.923104       -25.1189
 125   2.0000      -0.903836       -24.5946
 126   2.0000      -0.903422       -24.5834
 127   2.0000      -0.895878       -24.3781
 128   2.0000      -0.892589       -24.2886
 129   2.0000      -0.890249       -24.2249
 130   2.0000      -0.881483       -23.9864
 131   2.0000      -0.879512       -23.9327
 132   2.0000      -0.868676       -23.6379
 133   2.0000      -0.864398       -23.5215
 134   2.0000      -0.861909       -23.4537
 135   2.0000      -0.846832       -23.0435
 136   2.0000      -0.842993       -22.9390
 137   2.0000      -0.839510       -22.8442
 138   2.0000      -0.831078       -22.6148
 139   2.0000      -0.824935       -22.4476
 140   2.0000      -0.821193       -22.3458
 141   2.0000      -0.817066       -22.2335
 142   2.0000      -0.810624       -22.0582
 143   2.0000      -0.807429       -21.9713
 144   2.0000      -0.794966       -21.6321
 145   2.0000      -0.793456       -21.5910
 146   2.0000      -0.790055       -21.4985
 147   2.0000      -0.768905       -20.9230
 148   2.0000      -0.761146       -20.7118
 149   2.0000      -0.758007       -20.6264
 150   2.0000      -0.750026       -20.4092
 151   2.0000      -0.745274       -20.2799
 152   2.0000      -0.730411       -19.8755
 153   2.0000      -0.717430       -19.5223
 154   2.0000      -0.714243       -19.4355
 155   2.0000      -0.713435       -19.4136
 156   2.0000      -0.698155       -18.9978
 157   2.0000      -0.689503       -18.7623
 158   2.0000      -0.687295       -18.7022
 159   2.0000      -0.684376       -18.6228
 160   2.0000      -0.676776       -18.4160
 161   2.0000      -0.667779       -18.1712
 162   2.0000      -0.662787       -18.0354
 163   2.0000      -0.660997       -17.9866
 164   2.0000      -0.652123       -17.7452
 165   2.0000      -0.648388       -17.6435
 166   2.0000      -0.642555       -17.4848
 167   2.0000      -0.640394       -17.4260
 168   2.0000      -0.635973       -17.3057
 169   2.0000      -0.628241       -17.0953
 170   2.0000      -0.620227       -16.8772
 171   2.0000      -0.617198       -16.7948
 172   2.0000      -0.615272       -16.7424
 173   2.0000      -0.607858       -16.5407
 174   2.0000      -0.603541       -16.4232
 175   2.0000      -0.602061       -16.3829
 176   2.0000      -0.596958       -16.2441
 177   2.0000      -0.593426       -16.1479
 178   2.0000      -0.588609       -16.0169
 179   2.0000      -0.581787       -15.8312
 180   2.0000      -0.566309       -15.4100
 181   2.0000      -0.560880       -15.2623
 182   2.0000      -0.559255       -15.2181
 183   2.0000      -0.555705       -15.1215
 184   2.0000      -0.552565       -15.0361
 185   2.0000      -0.546613       -14.8741
 186   2.0000      -0.538756       -14.6603
 187   2.0000      -0.533672       -14.5219
 188   2.0000      -0.532931       -14.5018
 189   2.0000      -0.532299       -14.4846
 190   2.0000      -0.528599       -14.3839
 191   2.0000      -0.525372       -14.2961
 192   2.0000      -0.521602       -14.1935
 193   2.0000      -0.517512       -14.0822
 194   2.0000      -0.516889       -14.0653
 195   2.0000      -0.512221       -13.9382
 196   2.0000      -0.510132       -13.8814
 197   2.0000      -0.509126       -13.8540
 198   2.0000      -0.507925       -13.8214
 199   2.0000      -0.505270       -13.7491
 200   2.0000      -0.504838       -13.7373
 201   2.0000      -0.503879       -13.7113
 202   2.0000      -0.500567       -13.6211
 203   2.0000      -0.498673       -13.5696
 204   2.0000      -0.495554       -13.4847
 205   2.0000      -0.494761       -13.4631
 206   2.0000      -0.493438       -13.4271
 207   2.0000      -0.492303       -13.3962
 208   2.0000      -0.489910       -13.3311
 209   2.0000      -0.488497       -13.2927
 210   2.0000      -0.487386       -13.2624
 211   2.0000      -0.486044       -13.2259
 212   2.0000      -0.481436       -13.1005
 213   2.0000      -0.479031       -13.0351
 214   2.0000      -0.478368       -13.0170
 215   2.0000      -0.474034       -12.8991
 216   2.0000      -0.471204       -12.8221
 217   2.0000      -0.470715       -12.8088
 218   2.0000      -0.465625       -12.6703
 219   2.0000      -0.465082       -12.6555
 220   2.0000      -0.463636       -12.6162
 221   2.0000      -0.462104       -12.5745
 222   2.0000      -0.456595       -12.4246
 223   2.0000      -0.454936       -12.3794
 224   2.0000      -0.452227       -12.3057
 225   2.0000      -0.451269       -12.2797
 226   2.0000      -0.447047       -12.1648
 227   2.0000      -0.444512       -12.0958
 228   2.0000      -0.443658       -12.0725
 229   2.0000      -0.442095       -12.0300
 230   2.0000      -0.440746       -11.9933
 231   2.0000      -0.440108       -11.9759
 232   2.0000      -0.437152       -11.8955
 233   2.0000      -0.435205       -11.8425
 234   2.0000      -0.433602       -11.7989
 235   2.0000      -0.430909       -11.7256
 236   2.0000      -0.429001       -11.6737
 237   2.0000      -0.427234       -11.6256
 238   2.0000      -0.426106       -11.5949
 239   2.0000      -0.421726       -11.4758
 240   2.0000      -0.419868       -11.4252
 241   2.0000      -0.419553       -11.4166
 242   2.0000      -0.418525       -11.3886
 243   2.0000      -0.416737       -11.3400
 244   2.0000      -0.412874       -11.2349
 245   2.0000      -0.411553       -11.1989
 246   2.0000      -0.411027       -11.1846
 247   2.0000      -0.407697       -11.0940
 248   2.0000      -0.403997       -10.9933
 249   2.0000      -0.400731       -10.9044
 250   2.0000      -0.400412       -10.8958
 251   2.0000      -0.396841       -10.7986
 252   2.0000      -0.388217       -10.5639
 253   2.0000      -0.385242       -10.4830
 254   2.0000      -0.384266       -10.4564
 255   2.0000      -0.383639       -10.4393
 256   2.0000      -0.375144       -10.2082
 257   2.0000      -0.373508       -10.1637
 258   2.0000      -0.364699        -9.9240
 259   2.0000      -0.361928        -9.8486
 260   2.0000      -0.352189        -9.5836
 261   2.0000      -0.342548        -9.3212
 262   2.0000      -0.340127        -9.2553
 263   2.0000      -0.337410        -9.1814
 264   2.0000      -0.329337        -8.9617
 265   2.0000      -0.326040        -8.8720
 266   2.0000      -0.314976        -8.5709
 267   2.0000      -0.311705        -8.4819
 268   2.0000      -0.310638        -8.4529
 269   2.0000      -0.308277        -8.3886
 270   2.0000      -0.304908        -8.2970
 271   2.0000      -0.296826        -8.0770
 272   2.0000      -0.292450        -7.9580
 273   2.0000      -0.289418        -7.8755
 274   2.0000      -0.262646        -7.1470
 275   2.0000      -0.258564        -7.0359
 276   2.0000      -0.240640        -6.5481
 277   2.0000      -0.205208        -5.5840
 278   0.0000      -0.090004        -2.4491
 279   0.0000      -0.082580        -2.2471
 280   0.0000      -0.056493        -1.5373
 281   0.0000      -0.034246        -0.9319
 282   0.0000      -0.016968        -0.4617

MULLIKEN ATOMIC CHARGES
-----------------------
   0 C :   -0.030221
   1 C :   -0.061964
   2 C :    0.048933
   3 C :    0.030460
   4 C :   -0.066209
   5 S :    0.073409
   6 C :   -0.026060
   7 C :    0.019691
   8 C :    0.039663
   9 C :   -0.033258
  10 S :    0.062453
  11 C :   -0.015724
  12 C :   -0.123465
  13 C :    0.081674
  14 C :    0.047312
  15 N :   -0.001197
  16 C :   -0.159736
  17 C :   -0.181512
  18 N :   -0.001092
  19 C :    0.116839
  20 C :    0.123993
  21 C :   -0.145064
  22 S :    0.129489
  23 C :   -0.057225
  24 C :   -0.018900
  25 C :    0.158198
  26 C :   -0.102029
  27 S :    0.114658
  28 C :   -0.110804
  29 C :    0.037452
  30 C :    0.038563
  31 C :    0.088038
  32 C :   -0.143294
  33 C :   -0.140731
  34 C :    0.039349
  35 C :    0.042369
  36 S :    0.082097
  37 C :   -0.049773
  38 C :   -0.004876
  39 C :   -0.356685
  40 S :    0.176000
  41 C :   -0.118791
  42 C :   -0.090670
  43 C :    0.124850
  44 C :    0.182797
  45 C :   -0.001214
  46 C :   -0.015775
  47 C :    0.060660
  48 C :   -0.018405
  49 C :   -0.014424
  50 C :   -0.090682
  51 C :    0.326997
  52 C :   -0.363146
  53 C :   -0.181920
  54 N :    0.144197
  55 C :   -0.193321
  56 N :    0.147119
  57 C :    0.017466
  58 C :   -0.005635
  59 C :    0.155798
  60 O :   -0.161209
  61 C :   -0.084245
  62 C :    0.123924
  63 C :   -0.096645
  64 C :   -0.024450
  65 S :    0.184414
  66 C :   -0.125459
  67 C :    0.039833
  68 Br:    0.018938
  69 H :    0.022324
  70 H :    0.019728
  71 H :   -0.010101
  72 H :   -0.011007
  73 H :   -0.015538
  74 H :   -0.012679
  75 H :   -0.007826
  76 H :    0.028141
  77 H :    0.028431
  78 H :    0.024739
  79 H :    0.023523
  80 H :    0.026316
  81 H :    0.031747
  82 H :    0.009780
  83 H :    0.003937
  84 H :    0.012766
  85 H :    0.011230
  86 H :    0.010164
  87 H :    0.016605
  88 H :    0.006230
  89 H :    0.007859
  90 H :    0.009391
  91 H :    0.009569
  92 H :    0.021500
  93 H :   -0.021320
  94 H :    0.008433
  95 H :    0.000676
  96 H :    0.028635
  97 H :    0.030608
  98 H :    0.026249
  99 H :   -0.007569
 100 H :    0.006015
 101 H :    0.034247
 102 H :    0.009963
 103 H :   -0.025120
 104 H :   -0.008096
 105 H :   -0.011369
Sum of atomic charges:   -0.0000000

LOEWDIN ATOMIC CHARGES
----------------------
   0 C :   -0.077723
   1 C :   -0.139290
   2 C :   -0.033038
   3 C :   -0.024979
   4 C :   -0.178503
   5 S :    0.364730
   6 C :   -0.178516
   7 C :   -0.042201
   8 C :   -0.028616
   9 C :   -0.157062
  10 S :    0.370902
  11 C :   -0.057124
  12 C :   -0.179582
  13 C :   -0.038422
  14 C :   -0.044029
  15 N :   -0.053735
  16 C :    0.001531
  17 C :   -0.010328
  18 N :   -0.048262
  19 C :   -0.057452
  20 C :   -0.052318
  21 C :   -0.214637
  22 S :    0.512997
  23 C :   -0.156768
  24 C :   -0.098856
  25 C :   -0.040902
  26 C :   -0.158483
  27 S :    0.435114
  28 C :   -0.041502
  29 C :   -0.032811
  30 C :   -0.049189
  31 C :   -0.048572
  32 C :   -0.153726
  33 C :   -0.036839
  34 C :   -0.038744
  35 C :   -0.055958
  36 S :    0.391656
  37 C :   -0.165322
  38 C :   -0.066341
  39 C :   -0.178584
  40 S :    0.478930
  41 C :   -0.193516
  42 C :   -0.048608
  43 C :   -0.047901
  44 C :   -0.079592
  45 C :    0.031374
  46 C :   -0.050625
  47 C :    0.043954
  48 C :   -0.043012
  49 C :    0.074775
  50 C :   -0.105046
  51 C :    0.076077
  52 C :   -0.146423
  53 C :   -0.017867
  54 N :   -0.060304
  55 C :   -0.020742
  56 N :   -0.056601
  57 C :   -0.019154
  58 C :   -0.048790
  59 C :    0.090210
  60 O :   -0.147532
  61 C :    0.015745
  62 C :   -0.034955
  63 C :   -0.144774
  64 C :   -0.011677
  65 S :    0.430352
  66 C :   -0.272967
  67 C :   -0.073967
  68 Br:    0.132642
  69 H :    0.029662
  70 H :    0.025238
  71 H :    0.033964
  72 H :    0.033209
  73 H :    0.030540
  74 H :    0.034061
  75 H :    0.042968
  76 H :    0.038892
  77 H :    0.033418
  78 H :    0.033910
  79 H :    0.036771
  80 H :    0.037826
  81 H :    0.040484
  82 H :    0.020476
  83 H :    0.026173
  84 H :    0.023983
  85 H :    0.021763
  86 H :    0.023109
  87 H :    0.028869
  88 H :    0.022586
  89 H :    0.021651
  90 H :    0.010072
  91 H :    0.015435
  92 H :    0.022729
  93 H :    0.027158
  94 H :    0.016475
  95 H :    0.020715
  96 H :    0.032154
  97 H :    0.035119
  98 H :    0.039443
  99 H :    0.030328
 100 H :    0.034426
 101 H :    0.030756
 102 H :    0.041362
 103 H :    0.038840
 104 H :    0.040542
 105 H :    0.036369

  Mayer bond orders larger than 0.100000
B(  0-C ,  1-C ) :   1.8610 B(  0-C , 69-H ) :   0.9503 B(  0-C , 70-H ) :   0.9420
B(  1-C ,  2-C ) :   1.0838 B(  1-C ,  5-S ) :   1.0057 B(  2-C ,  3-C ) :   1.6541
B(  2-C , 71-H ) :   0.9928 B(  3-C ,  4-C ) :   1.1589 B(  3-C , 72-H ) :   0.9911
B(  4-C ,  5-S ) :   1.0453 B(  4-C ,  6-C ) :   1.5461 B(  6-C ,  7-C ) :   1.1760
B(  6-C , 10-S ) :   1.0344 B(  7-C ,  8-C ) :   1.5883 B(  7-C , 73-H ) :   0.9929
B(  8-C ,  9-C ) :   1.1567 B(  8-C , 74-H ) :   1.0000 B(  9-C , 10-S ) :   1.0369
B(  9-C , 11-C ) :   1.4907 B( 11-C , 12-C ) :   1.2680 B( 11-C , 75-H ) :   0.9734
B( 12-C , 13-C ) :   1.2803 B( 12-C , 21-C ) :   0.1313 B( 12-C , 22-S ) :   1.1157
B( 13-C , 14-C ) :   1.2513 B( 13-C , 18-N ) :   1.4216 B( 14-C , 15-N ) :   1.3836
B( 14-C , 21-C ) :   1.3013 B( 15-N , 16-C ) :   1.6999 B( 16-C , 17-C ) :   1.1481
B( 16-C , 20-C ) :   1.1021 B( 17-C , 18-N ) :   1.6673 B( 17-C , 19-C ) :   1.0934
B( 19-C , 76-H ) :   0.9374 B( 19-C , 77-H ) :   0.9421 B( 19-C , 78-H ) :   0.9389
B( 20-C , 79-H ) :   0.9390 B( 20-C , 80-H ) :   0.9416 B( 20-C , 81-H ) :   0.9434
B( 21-C , 22-S ) :   1.1539 B( 21-C , 23-C ) :   1.2088 B( 23-C , 24-C ) :   1.5289
B( 23-C , 27-S ) :   1.0912 B( 24-C , 25-C ) :   1.1811 B( 24-C , 39-C ) :   0.9715
B( 25-C , 26-C ) :   1.2584 B( 25-C , 33-C ) :   1.3417 B( 26-C , 27-S ) :   0.9940
B( 26-C , 28-C ) :   1.4571 B( 28-C , 29-C ) :   1.0700 B( 28-C , 31-C ) :   1.3401
B( 29-C , 30-C ) :   1.1084 B( 29-C , 82-H ) :   0.9203 B( 29-C , 83-H ) :   0.9174
B( 30-C , 84-H ) :   0.9653 B( 30-C , 85-H ) :   0.9677 B( 30-C , 86-H ) :   0.9686
B( 31-C , 32-C ) :   1.2908 B( 31-C , 38-C ) :   1.1695 B( 32-C , 33-C ) :   1.4370
B( 32-C , 36-S ) :   1.0506 B( 33-C , 34-C ) :   1.0720 B( 34-C , 35-C ) :   1.1096
B( 34-C , 87-H ) :   0.9123 B( 34-C , 88-H ) :   0.9137 B( 35-C , 89-H ) :   0.9665
B( 35-C , 90-H ) :   0.9563 B( 35-C , 91-H ) :   0.9629 B( 36-S , 37-C ) :   1.1084
B( 37-C , 38-C ) :   1.6475 B( 37-C , 92-H ) :   0.9668 B( 38-C , 93-H ) :   0.9901
B( 39-C , 40-S ) :   1.2138 B( 39-C , 44-C ) :   1.4309 B( 40-S , 41-C ) :   1.1263
B( 41-C , 42-C ) :   1.6184 B( 41-C , 94-H ) :   0.9634 B( 42-C , 43-C ) :   1.0972
B( 42-C , 44-C ) :   1.1958 B( 43-C , 95-H ) :   0.9364 B( 43-C , 96-H ) :   0.9376
B( 43-C , 97-H ) :   0.9407 B( 44-C , 45-C ) :   1.1396 B( 45-C , 46-C ) :   1.6612
B( 45-C , 98-H ) :   0.9450 B( 46-C , 47-C ) :   1.1289 B( 46-C , 99-H ) :   0.9701
B( 47-C , 48-C ) :   1.5689 B( 47-C ,100-H ) :   0.9769 B( 48-C , 49-C ) :   1.1992
B( 48-C ,101-H ) :   0.9612 B( 49-C , 50-C ) :   1.5073 B( 49-C ,102-H ) :   0.9622
B( 50-C , 51-C ) :   1.0742 B( 50-C , 59-C ) :   0.9676 B( 51-C , 52-C ) :   1.6189
B( 51-C , 57-C ) :   0.9977 B( 52-C , 53-C ) :   1.1446 B( 52-C , 55-C ) :   1.1508
B( 53-C , 54-N ) :   2.9657 B( 55-C , 56-N ) :   2.9682 B( 57-C , 58-C ) :   1.2724
B( 57-C , 64-C ) :   1.4134 B( 58-C , 59-C ) :   0.9459 B( 58-C , 61-C ) :   1.4300
B( 59-C , 60-O ) :   2.1270 B( 61-C , 62-C ) :   1.2398 B( 61-C ,103-H ) :   1.0097
B( 62-C , 63-C ) :   1.3092 B( 62-C , 67-C ) :   1.1615 B( 63-C , 64-C ) :   1.3267
B( 63-C , 65-S ) :   1.0849 B( 64-C ,104-H ) :   0.9798 B( 65-S , 66-C ) :   1.0864
B( 66-C , 67-C ) :   1.6175 B( 66-C , 68-Br) :   1.0171 B( 67-C ,105-H ) :   0.9975

-----------------------------------------------------------------------------
         ABSORPTION SPECTRUM VIA TRANSITION ELECTRIC DIPOLE MOMENTS
-----------------------------------------------------------------------------
State   Energy  Wavelength   fosc         T2         TX        TY        TZ
        (cm-1)    (nm)                  (au**2)     (au)      (au)      (au)
-----------------------------------------------------------------------------
   0   10742.7    930.9   0.035920819   1.10080   0.33306  -0.86066   0.49914
   1   12933.3    773.2   0.838900052  21.35385   1.42613  -3.06422   3.15127
   2   18723.9    534.1   0.042319018   0.74407   0.04717   0.32010   0.79961
   3   18824.4    531.2   0.041041094   0.71775   0.00605   0.54265   0.65058
   4   20139.5    496.5   0.030848061   0.50426  -0.58641  -0.39585  -0.06067
   5   20453.8    488.9   0.595042379   9.57746   0.98205   2.58747   1.38494
   6   21638.2    462.1   0.584829586   8.89783   1.11995   2.73255  -0.42040
   7   22428.8    445.9   0.015479843   0.22721  -0.29435  -0.02260   0.37425
   8   23862.3    419.1   0.182889419   2.52320  -1.03024  -1.20381   0.11248
   9   24781.6    403.5   0.312047540   4.14541  -1.38328  -1.49226  -0.07140
  10   25505.0    392.1   0.067013338   0.86499   0.60836   0.69609   0.10169
  11   26218.5    381.4   0.036990890   0.46448   0.38444   0.55345   0.10184
  12   27868.4    358.8   0.069578114   0.82193   0.89372   0.14954  -0.02881
  13   27994.5    357.2   0.057849957   0.68031  -0.74665  -0.19962   0.28804
  14   28193.7    354.7   0.004984281   0.05820  -0.13466  -0.01597  -0.19953
  15   28253.9    353.9   0.065296750   0.76083   0.76667  -0.19848  -0.36559
  16   28843.7    346.7   0.045076990   0.51449  -0.25203  -0.56894   0.35677
  17   29106.7    343.6   1.011335916  11.43876   2.95155   1.42742   0.83042
  18   29768.0    335.9   0.069706750   0.77091  -0.80625  -0.29202  -0.18865
  19   29961.6    333.8   0.082229469   0.90352  -0.61282  -0.72646   0.01511
  20   30266.9    330.4   0.037200029   0.40462  -0.51692  -0.34563   0.13401
  21   30551.7    327.3   0.003756738   0.04048   0.00434  -0.15400   0.12941
  22   30925.5    323.4   0.005979002   0.06365   0.24921   0.02487  -0.03042
  23   31139.8    321.1   0.013677348   0.14460  -0.15425  -0.29586  -0.18241
  24   31584.5    316.6   0.016449374   0.17146  -0.25302  -0.29590   0.14100
  25   31989.3    312.6   0.008439366   0.08685   0.11047   0.26256  -0.07558
  26   32146.8    311.1   0.109427438   1.12064   0.62176   0.79337  -0.32344
  27   32191.5    310.6   0.016276411   0.16645  -0.14306  -0.34786  -0.15805
  28   32333.4    309.3   0.009830916   0.10010  -0.28712  -0.10745  -0.07818
  29   32698.6    305.8   0.002038214   0.02052   0.10422   0.09489   0.02557
  30   32842.1    304.5   0.022990865   0.23046  -0.45840  -0.14221   0.01040
  31   32886.7    304.1   0.012044810   0.12057   0.09579  -0.15327  -0.29649
  32   33372.4    299.6   0.425232793   4.19483   1.98186  -0.00139  -0.51676
  33   33627.6    297.4   0.089546290   0.87665  -0.86500   0.25817   0.24853
  34   33944.2    294.6   0.031981757   0.31018   0.48357   0.10622  -0.25506
  35   34146.4    292.9   0.052173830   0.50302   0.61486   0.25042  -0.24951
  36   34222.3    292.2   0.009700377   0.09332  -0.01302   0.20597   0.22521
  37   34425.5    290.5   0.194832904   1.86319  -1.26701  -0.47896   0.16876
  38   34925.7    286.3   0.041650574   0.39260   0.43646   0.09326  -0.43978
  39   35349.8    282.9   0.036230619   0.33741   0.37309  -0.25457   0.36526
  40   35524.2    281.5   0.025390996   0.23531   0.16442   0.43711  -0.13116
  41   36105.9    277.0   0.134913901   1.23014   0.64910   0.70394  -0.55971
  42   36177.6    276.4   0.044625455   0.40609  -0.42712  -0.39323   0.26272
  43   36779.3    271.9   0.009133133   0.08175  -0.00209   0.03295  -0.28401
  44   37032.8    270.0   0.230352829   2.04778  -0.76917   0.54815   1.07503
  45   37233.0    268.6   0.088215838   0.78000   0.41721  -0.55933  -0.54137
  46   37557.1    266.3   0.075650039   0.66312   0.09386  -0.60223  -0.54003
  47   37821.5    264.4   0.007765890   0.06760   0.11661   0.22466   0.05937
  48   38113.0    262.4   0.011917274   0.10294   0.20378  -0.15711  -0.19164
  49   38626.5    258.9   0.048349294   0.41208  -0.42949   0.04614   0.47485
  50   38664.7    258.6   0.071072847   0.60515   0.06561  -0.77499  -0.01535
  51   38874.7    257.2   0.126260122   1.06924  -0.75362  -0.70787  -0.01468
  52   38969.1    256.6   0.026363268   0.22272  -0.29445  -0.33167  -0.16127
  53   39060.6    256.0   0.125141430   1.05472  -0.19064  -0.88833  -0.47880
  54   39447.9    253.5   0.040543668   0.33836  -0.07096  -0.41787  -0.39838
  55   39750.2    251.6   0.020646642   0.17100  -0.16973  -0.32663  -0.18841
  56   39945.8    250.3   0.001047807   0.00864  -0.03697   0.00384   0.08517
  57   40107.9    249.3   0.029482091   0.24199   0.39416  -0.28999  -0.05035

FINAL SINGLE POINT ENERGY     -7807.709655360652

DIPOLE MOMENT
-------------
                                X             Y             Z
Electronic contribution:    101.55629     107.63286      34.89925
Nuclear contribution   :    -99.49114    -110.12208     -35.24101
                        -----------------------------------------
Total Dipole Moment    :      2.06515      -2.48922      -0.34176
                        -----------------------------------------
Magnitude (a.u.)       :      3.25236
Magnitude (Debye)      :      8.26685

Rotational constants in cm-1:     0.000959     0.000541     0.000435
Rotational constants in MHz :    28.742378    16.213600    13.039434

                             ****ORCA TERMINATED NORMALLY****
TOTAL RUN TIME: 0 days 0 hours 12 minutes 2 seconds 161 msec
