                         Program Version 4.2.0 -  RELEASE  -
|  1> # ORCA input file
|  2> # SCF done       -147.261515520791          0.000454041837
|  3> ! CAM-B3LYP def2-SVP def2/J RIJCOSX Grid4 TightSCF
|  4> %maxcore 5000
|  5> %tddft
|  6>     Mode sTDDFT
|  7>     Ethresh 5.0
|  8>     maxcore 5000
|  9> end
| 10>
| 11> %pal
| 12>   nprocs 6
| 13>   end
| 14> * xyz 0 1
| 15>    C        1.54034        -1.35792        -0.40041
| 16>    O        2.78720        -1.74709        -0.93342
| 17>    C        3.65755        -0.82207        -1.34359
| 18>    C        3.63074         0.58310        -1.33532
| 19>    C        2.66491         1.55363        -0.97502
| 20>    C        2.87242         2.87772        -1.22617
| 21>    C        1.95197         3.91978        -0.96326
| 22>    C        2.29808         5.25757        -1.30328
| 23>    N        3.52235         5.47483        -1.82881
| 24>    C        3.86545         6.69556        -2.12884
| 25>    C        2.99579         7.78065        -1.89923
| 26>    N        1.79944         7.60280        -1.41576
| 27>    C        1.39709         6.34972        -1.11350
| 28>    C        0.06282         6.17334        -0.63472
| 29>    C       -0.74568         7.33843        -0.56441
| 30>    C       -2.08859         7.53214        -0.42564
| 31>    C       -3.18255         6.60972        -0.37618
| 32>    C       -4.40034         7.17611        -0.30591
| 33>    C       -4.41354         8.62721        -0.28348
| 34>    O       -5.34221         9.38355        -0.22054
| 35>    S       -2.69539         9.18534        -0.37372
| 36>    C       -0.26451         4.85220        -0.25047
| 37>    N       -1.40138         4.44490         0.31735
| 38>    S       -1.32102         2.87618         0.63087
| 39>    N        0.15575         2.60772         0.06232
| 40>    C        0.66814         3.75253        -0.39552
| 41>    O        4.79655         1.03201        -1.86470
| 42>    C        5.56444         0.00118        -2.21765
| 43>    C        6.83028         0.28049        -2.82750
| 44>    C        7.03294         1.46930        -3.57014
| 45>    N        6.01195         2.34463        -3.68397
| 46>    C        6.20642         3.44950        -4.34343
| 47>    C        7.45550         3.74367        -4.92978
| 48>    N        8.44391         2.89618        -4.88603
| 49>    C        8.27797         1.73035        -4.22662
| 50>    C        9.36156         0.79969        -4.22971
| 51>    C       10.50785         1.15876        -4.99084
| 52>    C       11.57122         0.43699        -5.44291
| 53>    C       11.86336        -0.96521        -5.36454
| 54>    C       12.98803        -1.34478        -5.99380
| 55>    C       13.72992        -0.27824        -6.64544
| 56>    O       14.75371        -0.32701        -7.26588
| 57>    S       12.81870         1.26152        -6.37057
| 58>    C        9.17888        -0.33817        -3.41313
| 59>    N       10.08295        -1.27292        -3.10658
| 60>    S        9.45797        -2.29915        -2.04514
| 61>    N        8.01294        -1.63714        -1.90537
| 62>    C        7.93886        -0.57067        -2.70310
| 63>    C        4.89744        -1.18731        -1.92625
| 64>    C        5.25533        -2.58981        -2.27643
| 65>    F        4.16744        -3.31359        -2.58776
| 66>    F        6.05280        -2.67023        -3.35771
| 67>    F        5.87155        -3.26221        -1.29172
| 68>    H        1.02725        -2.29011        -0.16995
| 69>    H        0.95657        -0.79041        -1.12925
| 70>    H        1.66471        -0.77302         0.51445
| 71>    H        1.74295         1.24324        -0.51481
| 72>    H        3.79853         3.18688        -1.68900
| 73>    H        4.85239         6.83575        -2.54872
| 74>    H        3.28738         8.80027        -2.11116
| 75>    H       -0.15989         8.24127        -0.69668
| 76>    H       -2.99980         5.55119        -0.39319
| 77>    H       -5.33676         6.64757        -0.26961
| 78>    H        5.36614         4.12664        -4.41256
| 79>    H        7.63984         4.67636        -5.44528
| 80>    H       10.48127         2.19771        -5.29926
| 81>    H       11.20772        -1.62539        -4.82733
| 82>    H       13.36658        -2.35022        -6.05177
| 83> *
| 84>
| 85>                          ****END OF INPUT****

CARTESIAN COORDINATES (ANGSTROEM)
---------------------------------
  C      1.540340   -1.357920   -0.400410
  O      2.787200   -1.747090   -0.933420
  C      3.657550   -0.822070   -1.343590
  C      3.630740    0.583100   -1.335320
  C      2.664910    1.553630   -0.975020
  C      2.872420    2.877720   -1.226170
  C      1.951970    3.919780   -0.963260
  C      2.298080    5.257570   -1.303280
  N      3.522350    5.474830   -1.828810
  C      3.865450    6.695560   -2.128840
  C      2.995790    7.780650   -1.899230
  N      1.799440    7.602800   -1.415760
  C      1.397090    6.349720   -1.113500
  C      0.062820    6.173340   -0.634720
  C     -0.745680    7.338430   -0.564410
  C     -2.088590    7.532140   -0.425640
  C     -3.182550    6.609720   -0.376180
  C     -4.400340    7.176110   -0.305910
  C     -4.413540    8.627210   -0.283480
  O     -5.342210    9.383550   -0.220540
  S     -2.695390    9.185340   -0.373720
  C     -0.264510    4.852200   -0.250470
  N     -1.401380    4.444900    0.317350
  S     -1.321020    2.876180    0.630870
  N      0.155750    2.607720    0.062320
  C      0.668140    3.752530   -0.395520
  O      4.796550    1.032010   -1.864700
  C      5.564440    0.001180   -2.217650
  C      6.830280    0.280490   -2.827500
  C      7.032940    1.469300   -3.570140
  N      6.011950    2.344630   -3.683970
  C      6.206420    3.449500   -4.343430
  C      7.455500    3.743670   -4.929780
  N      8.443910    2.896180   -4.886030
  C      8.277970    1.730350   -4.226620
  C      9.361560    0.799690   -4.229710
  C     10.507850    1.158760   -4.990840
  C     11.571220    0.436990   -5.442910
  C     11.863360   -0.965210   -5.364540
  C     12.988030   -1.344780   -5.993800
  C     13.729920   -0.278240   -6.645440
  O     14.753710   -0.327010   -7.265880
  S     12.818700    1.261520   -6.370570
  C      9.178880   -0.338170   -3.413130
  N     10.082950   -1.272920   -3.106580
  S      9.457970   -2.299150   -2.045140
  N      8.012940   -1.637140   -1.905370
  C      7.938860   -0.570670   -2.703100
  C      4.897440   -1.187310   -1.926250
  C      5.255330   -2.589810   -2.276430
  F      4.167440   -3.313590   -2.587760
  F      6.052800   -2.670230   -3.357710
  F      5.871550   -3.262210   -1.291720
  H      1.027250   -2.290110   -0.169950
  H      0.956570   -0.790410   -1.129250
  H      1.664710   -0.773020    0.514450
  H      1.742950    1.243240   -0.514810
  H      3.798530    3.186880   -1.689000
  H      4.852390    6.835750   -2.548720
  H      3.287380    8.800270   -2.111160
  H     -0.159890    8.241270   -0.696680
  H     -2.999800    5.551190   -0.393190
  H     -5.336760    6.647570   -0.269610
  H      5.366140    4.126640   -4.412560
  H      7.639840    4.676360   -5.445280
  H     10.481270    2.197710   -5.299260
  H     11.207720   -1.625390   -4.827330
  H     13.366580   -2.350220   -6.051770

 Total Charge           Charge          ....    0
 Multiplicity           Mult            ....    1
 Number of Electrons    NEL             ....  398
 Basis Dimension        Dim             ....  833

ORBITAL ENERGIES
----------------

  NO   OCC          E(Eh)            E(eV)
   0   2.0000     -89.045943     -2423.0633
   1   2.0000     -89.044821     -2423.0328
   2   2.0000     -88.928917     -2419.8788
   3   2.0000     -88.919708     -2419.6283
   4   2.0000     -24.793265      -674.6590
   5   2.0000     -24.787157      -674.4928
   6   2.0000     -24.784868      -674.4305
   7   2.0000     -19.300819      -525.2020
   8   2.0000     -19.271670      -524.4088
   9   2.0000     -19.207975      -522.6756
  10   2.0000     -19.197591      -522.3930
  11   2.0000     -14.455937      -393.3660
  12   2.0000     -14.452522      -393.2731
  13   2.0000     -14.452164      -393.2634
  14   2.0000     -14.450313      -393.2130
  15   2.0000     -14.440509      -392.9462
  16   2.0000     -14.438531      -392.8924
  17   2.0000     -14.435980      -392.8230
  18   2.0000     -14.435527      -392.8107
  19   2.0000     -10.516798      -286.1766
  20   2.0000     -10.371519      -282.2234
  21   2.0000     -10.365828      -282.0685
  22   2.0000     -10.362098      -281.9670
  23   2.0000     -10.361490      -281.9505
  24   2.0000     -10.343628      -281.4644
  25   2.0000     -10.343337      -281.4565
  26   2.0000     -10.342709      -281.4394
  27   2.0000     -10.340788      -281.3872
  28   2.0000     -10.340668      -281.3839
  29   2.0000     -10.339859      -281.3619
  30   2.0000     -10.339291      -281.3464
  31   2.0000     -10.338617      -281.3281
  32   2.0000     -10.335512      -281.2436
  33   2.0000     -10.333946      -281.2010
  34   2.0000     -10.333777      -281.1964
  35   2.0000     -10.333327      -281.1841
  36   2.0000     -10.331835      -281.1435
  37   2.0000     -10.330972      -281.1201
  38   2.0000     -10.319122      -280.7976
  39   2.0000     -10.318254      -280.7740
  40   2.0000     -10.317108      -280.7428
  41   2.0000     -10.309122      -280.5255
  42   2.0000     -10.307373      -280.4779
  43   2.0000     -10.304472      -280.3989
  44   2.0000     -10.300906      -280.3019
  45   2.0000     -10.294513      -280.1279
  46   2.0000     -10.293819      -280.1091
  47   2.0000     -10.292661      -280.0775
  48   2.0000     -10.287285      -279.9313
  49   2.0000     -10.285266      -279.8763
  50   2.0000     -10.283620      -279.8315
  51   2.0000     -10.277394      -279.6621
  52   2.0000     -10.274229      -279.5760
  53   2.0000      -8.137219      -221.4250
  54   2.0000      -8.136222      -221.3979
  55   2.0000      -8.026985      -218.4254
  56   2.0000      -8.017807      -218.1756
  57   2.0000      -6.108201      -166.2126
  58   2.0000      -6.107351      -166.1895
  59   2.0000      -6.100364      -165.9994
  60   2.0000      -6.100243      -165.9961
  61   2.0000      -6.099522      -165.9764
  62   2.0000      -6.098948      -165.9608
  63   2.0000      -5.996253      -163.1663
  64   2.0000      -5.992788      -163.0720
  65   2.0000      -5.987819      -162.9368
  66   2.0000      -5.987083      -162.9168
  67   2.0000      -5.983620      -162.8226
  68   2.0000      -5.978632      -162.6869
  69   2.0000      -1.380084       -37.5540
  70   2.0000      -1.282805       -34.9069
  71   2.0000      -1.278053       -34.7776
  72   2.0000      -1.230284       -33.4777
  73   2.0000      -1.177043       -32.0290
  74   2.0000      -1.142800       -31.0972
  75   2.0000      -1.141391       -31.0588
  76   2.0000      -1.129405       -30.7327
  77   2.0000      -1.119139       -30.4533
  78   2.0000      -1.097250       -29.8577
  79   2.0000      -1.094039       -29.7703
  80   2.0000      -1.021168       -27.7874
  81   2.0000      -1.018185       -27.7062
  82   2.0000      -0.996257       -27.1095
  83   2.0000      -0.995101       -27.0781
  84   2.0000      -0.977380       -26.5959
  85   2.0000      -0.969881       -26.3918
  86   2.0000      -0.964081       -26.2340
  87   2.0000      -0.955598       -26.0032
  88   2.0000      -0.930337       -25.3158
  89   2.0000      -0.920721       -25.0541
  90   2.0000      -0.900580       -24.5060
  91   2.0000      -0.885394       -24.0928
  92   2.0000      -0.881130       -23.9768
  93   2.0000      -0.879904       -23.9434
  94   2.0000      -0.858988       -23.3743
  95   2.0000      -0.842490       -22.9253
  96   2.0000      -0.831242       -22.6192
  97   2.0000      -0.820622       -22.3303
  98   2.0000      -0.816365       -22.2144
  99   2.0000      -0.801218       -21.8022
 100   2.0000      -0.800715       -21.7886
 101   2.0000      -0.796474       -21.6732
 102   2.0000      -0.788776       -21.4637
 103   2.0000      -0.763430       -20.7740
 104   2.0000      -0.755436       -20.5565
 105   2.0000      -0.751386       -20.4463
 106   2.0000      -0.742235       -20.1972
 107   2.0000      -0.724594       -19.7172
 108   2.0000      -0.716261       -19.4904
 109   2.0000      -0.714457       -19.4414
 110   2.0000      -0.710755       -19.3406
 111   2.0000      -0.694524       -18.8990
 112   2.0000      -0.684656       -18.6304
 113   2.0000      -0.675397       -18.3785
 114   2.0000      -0.669777       -18.2256
 115   2.0000      -0.663914       -18.0660
 116   2.0000      -0.660537       -17.9741
 117   2.0000      -0.653713       -17.7884
 118   2.0000      -0.650378       -17.6977
 119   2.0000      -0.647484       -17.6189
 120   2.0000      -0.629663       -17.1340
 121   2.0000      -0.624944       -17.0056
 122   2.0000      -0.623841       -16.9756
 123   2.0000      -0.619554       -16.8589
 124   2.0000      -0.617391       -16.8001
 125   2.0000      -0.616266       -16.7695
 126   2.0000      -0.598946       -16.2982
 127   2.0000      -0.597372       -16.2553
 128   2.0000      -0.590258       -16.0617
 129   2.0000      -0.584441       -15.9035
 130   2.0000      -0.581285       -15.8176
 131   2.0000      -0.576609       -15.6903
 132   2.0000      -0.570587       -15.5265
 133   2.0000      -0.569241       -15.4898
 134   2.0000      -0.566713       -15.4210
 135   2.0000      -0.564706       -15.3664
 136   2.0000      -0.554592       -15.0912
 137   2.0000      -0.552059       -15.0223
 138   2.0000      -0.549294       -14.9470
 139   2.0000      -0.545694       -14.8491
 140   2.0000      -0.540622       -14.7111
 141   2.0000      -0.539157       -14.6712
 142   2.0000      -0.534714       -14.5503
 143   2.0000      -0.533858       -14.5270
 144   2.0000      -0.531623       -14.4662
 145   2.0000      -0.530935       -14.4475
 146   2.0000      -0.527201       -14.3459
 147   2.0000      -0.522288       -14.2122
 148   2.0000      -0.511961       -13.9312
 149   2.0000      -0.505697       -13.7607
 150   2.0000      -0.503717       -13.7068
 151   2.0000      -0.502930       -13.6854
 152   2.0000      -0.499924       -13.6036
 153   2.0000      -0.497730       -13.5439
 154   2.0000      -0.496877       -13.5207
 155   2.0000      -0.495172       -13.4743
 156   2.0000      -0.491484       -13.3739
 157   2.0000      -0.488710       -13.2985
 158   2.0000      -0.483432       -13.1549
 159   2.0000      -0.481398       -13.0995
 160   2.0000      -0.474899       -12.9227
 161   2.0000      -0.474646       -12.9158
 162   2.0000      -0.473318       -12.8796
 163   2.0000      -0.466144       -12.6844
 164   2.0000      -0.463956       -12.6249
 165   2.0000      -0.461490       -12.5578
 166   2.0000      -0.458248       -12.4696
 167   2.0000      -0.454339       -12.3632
 168   2.0000      -0.449720       -12.2375
 169   2.0000      -0.446404       -12.1473
 170   2.0000      -0.441241       -12.0068
 171   2.0000      -0.426447       -11.6042
 172   2.0000      -0.422923       -11.5083
 173   2.0000      -0.420712       -11.4482
 174   2.0000      -0.419688       -11.4203
 175   2.0000      -0.415803       -11.3146
 176   2.0000      -0.415280       -11.3003
 177   2.0000      -0.410096       -11.1593
 178   2.0000      -0.408810       -11.1243
 179   2.0000      -0.407438       -11.0870
 180   2.0000      -0.393209       -10.6998
 181   2.0000      -0.391106       -10.6425
 182   2.0000      -0.389435       -10.5971
 183   2.0000      -0.379129       -10.3166
 184   2.0000      -0.378649       -10.3036
 185   2.0000      -0.355572        -9.6756
 186   2.0000      -0.348371        -9.4797
 187   2.0000      -0.347350        -9.4519
 188   2.0000      -0.341616        -9.2958
 189   2.0000      -0.338915        -9.2223
 190   2.0000      -0.334676        -9.1070
 191   2.0000      -0.332486        -9.0474
 192   2.0000      -0.325908        -8.8684
 193   2.0000      -0.324727        -8.8363
 194   2.0000      -0.318885        -8.6773
 195   2.0000      -0.316810        -8.6208
 196   2.0000      -0.293468        -7.9857
 197   2.0000      -0.264799        -7.2056
 198   2.0000      -0.231646        -6.3034
 199   0.0000      -0.122997        -3.3469
 200   0.0000      -0.105977        -2.8838
 201   0.0000      -0.045064        -1.2263
 202   0.0000      -0.040247        -1.0952
 203   0.0000      -0.019680        -0.5355

MULLIKEN ATOMIC CHARGES
-----------------------
   0 C :    0.175086
   1 O :   -0.273480
   2 C :    0.157575
   3 C :    0.088429
   4 C :   -0.033094
   5 C :   -0.105763
   6 C :    0.118936
   7 C :   -0.063480
   8 N :   -0.016571
   9 C :    0.022930
  10 C :    0.032212
  11 N :   -0.021196
  12 C :   -0.040315
  13 C :    0.050631
  14 C :   -0.014024
  15 C :   -0.102417
  16 C :    0.112315
  17 C :   -0.029560
  18 C :    0.083966
  19 O :   -0.164250
  20 S :    0.005929
  21 C :    0.040603
  22 N :   -0.306784
  23 S :    0.535208
  24 N :   -0.300236
  25 C :    0.018122
  26 O :   -0.165310
  27 C :    0.047061
  28 C :    0.117182
  29 C :   -0.063763
  30 N :    0.013137
  31 C :    0.029573
  32 C :    0.032903
  33 N :   -0.021444
  34 C :   -0.059181
  35 C :    0.080756
  36 C :   -0.020716
  37 C :   -0.096581
  38 C :    0.117522
  39 C :   -0.025520
  40 C :    0.086065
  41 O :   -0.155351
  42 S :    0.016631
  43 C :    0.018781
  44 N :   -0.313035
  45 S :    0.555074
  46 N :   -0.258762
  47 C :   -0.006362
  48 C :   -0.170791
  49 C :    0.541854
  50 F :   -0.157329
  51 F :   -0.172094
  52 F :   -0.159450
  53 H :    0.045031
  54 H :    0.037958
  55 H :    0.040498
  56 H :   -0.004046
  57 H :    0.008777
  58 H :    0.009453
  59 H :    0.019161
  60 H :    0.009001
  61 H :   -0.005401
  62 H :    0.000144
  63 H :    0.019480
  64 H :    0.018113
  65 H :    0.011140
  66 H :    0.002707
  67 H :    0.006364
Sum of atomic charges:   -0.0000000

LOEWDIN ATOMIC CHARGES
----------------------
   0 C :    0.084987
   1 O :   -0.075188
   2 C :    0.038547
   3 C :   -0.010891
   4 C :   -0.016597
   5 C :   -0.023824
   6 C :   -0.014016
   7 C :   -0.016382
   8 N :   -0.028252
   9 C :    0.000474
  10 C :    0.014664
  11 N :   -0.030623
  12 C :    0.001119
  13 C :   -0.047604
  14 C :   -0.020565
  15 C :   -0.144985
  16 C :    0.004645
  17 C :   -0.077086
  18 C :   -0.059328
  19 O :   -0.152458
  20 S :    0.298098
  21 C :   -0.035549
  22 N :   -0.275588
  23 S :    0.659970
  24 N :   -0.285540
  25 C :   -0.041615
  26 O :    0.052213
  27 C :    0.073536
  28 C :   -0.049676
  29 C :   -0.001826
  30 N :   -0.026807
  31 C :    0.013759
  32 C :    0.012624
  33 N :   -0.029979
  34 C :   -0.004424
  35 C :   -0.019688
  36 C :   -0.025518
  37 C :   -0.132661
  38 C :    0.008072
  39 C :   -0.068631
  40 C :   -0.055667
  41 O :   -0.142685
  42 S :    0.305103
  43 C :   -0.040745
  44 N :   -0.283051
  45 S :    0.686646
  46 N :   -0.276016
  47 C :   -0.042243
  48 C :   -0.134595
  49 C :    0.169943
  50 F :   -0.057930
  51 F :   -0.066024
  52 F :   -0.059387
  53 H :    0.034301
  54 H :    0.021216
  55 H :    0.021132
  56 H :    0.027749
  57 H :    0.033788
  58 H :    0.024649
  59 H :    0.029589
  60 H :    0.036139
  61 H :    0.025022
  62 H :    0.034868
  63 H :    0.028402
  64 H :    0.028983
  65 H :    0.037353
  66 H :    0.028335
  67 H :    0.037719

  Mayer bond orders larger than 0.100000
B(  0-C ,  1-O ) :   0.9393 B(  0-C , 53-H ) :   0.9740 B(  0-C , 54-H ) :   0.9673
B(  0-C , 55-H ) :   0.9672 B(  1-O ,  2-C ) :   1.2500 B(  2-C ,  3-C ) :   1.2757
B(  2-C , 48-C ) :   1.2800 B(  3-C ,  4-C ) :   1.1674 B(  3-C , 26-O ) :   1.1050
B(  3-C , 27-C ) :   0.1126 B(  4-C ,  5-C ) :   1.5310 B(  4-C , 56-H ) :   0.9403
B(  5-C ,  6-C ) :   1.2088 B(  5-C , 57-H ) :   0.9740 B(  6-C ,  7-C ) :   1.2340
B(  6-C , 13-C ) :   0.1371 B(  6-C , 25-C ) :   1.1695 B(  7-C ,  8-N ) :   1.4717
B(  7-C , 12-C ) :   1.1338 B(  8-N ,  9-C ) :   1.6903 B(  9-C , 10-C ) :   1.1816
B(  9-C , 58-H ) :   0.9732 B( 10-C , 11-N ) :   1.7009 B( 10-C , 59-H ) :   0.9756
B( 11-N , 12-C ) :   1.4529 B( 12-C , 13-C ) :   1.2627 B( 13-C , 14-C ) :   1.2239
B( 13-C , 21-C ) :   1.1791 B( 14-C , 15-C ) :   1.6103 B( 14-C , 60-H ) :   0.9198
B( 15-C , 16-C ) :   1.0935 B( 15-C , 20-S ) :   1.0434 B( 16-C , 17-C ) :   1.6610
B( 16-C , 61-H ) :   0.9688 B( 17-C , 18-C ) :   0.9873 B( 17-C , 62-H ) :   0.9925
B( 18-C , 19-O ) :   2.1300 B( 18-C , 20-S ) :   0.9851 B( 19-O , 20-S ) :   0.1094
B( 21-C , 22-N ) :   1.4760 B( 21-C , 25-C ) :   1.1143 B( 22-N , 23-S ) :   1.2711
B( 22-N , 24-N ) :   0.1523 B( 23-S , 24-N ) :   1.2730 B( 24-N , 25-C ) :   1.4979
B( 26-O , 27-C ) :   1.2369 B( 27-C , 28-C ) :   0.9965 B( 27-C , 48-C ) :   1.4989
B( 28-C , 29-C ) :   1.2916 B( 28-C , 35-C ) :   0.1463 B( 28-C , 47-C ) :   1.2779
B( 29-C , 30-N ) :   1.4917 B( 29-C , 34-C ) :   1.1230 B( 30-N , 31-C ) :   1.6884
B( 31-C , 32-C ) :   1.1735 B( 31-C , 63-H ) :   0.9724 B( 32-C , 33-N ) :   1.7029
B( 32-C , 64-H ) :   0.9756 B( 33-N , 34-C ) :   1.4543 B( 34-C , 35-C ) :   1.2618
B( 35-C , 36-C ) :   1.2212 B( 35-C , 43-C ) :   1.1785 B( 36-C , 37-C ) :   1.6142
B( 36-C , 65-H ) :   0.9212 B( 37-C , 38-C ) :   1.0854 B( 37-C , 42-S ) :   1.0524
B( 38-C , 39-C ) :   1.6744 B( 38-C , 66-H ) :   0.9685 B( 39-C , 40-C ) :   0.9800
B( 39-C , 67-H ) :   0.9925 B( 40-C , 41-O ) :   2.1384 B( 40-C , 42-S ) :   0.9798
B( 41-O , 42-S ) :   0.1069 B( 43-C , 44-N ) :   1.4637 B( 43-C , 47-C ) :   1.0959
B( 44-N , 45-S ) :   1.2794 B( 44-N , 46-N ) :   0.1542 B( 45-S , 46-N ) :   1.2998
B( 46-N , 47-C ) :   1.5250 B( 48-C , 49-C ) :   0.9320 B( 49-C , 50-F ) :   1.1826
B( 49-C , 51-F ) :   1.1412 B( 49-C , 52-F ) :   1.1880

-----------------------------------------------------------------------------
         ABSORPTION SPECTRUM VIA TRANSITION ELECTRIC DIPOLE MOMENTS
-----------------------------------------------------------------------------
State   Energy  Wavelength   fosc         T2         TX        TY        TZ
        (cm-1)    (nm)                  (au**2)     (au)      (au)      (au)
-----------------------------------------------------------------------------
   0    9617.7   1039.7   0.880991004  30.15606  -4.49304   2.75065   1.55002
   1   13014.6    768.4   0.092163001   2.33132   0.62339   1.19298  -0.72076
   2   17087.1    585.2   0.116776462   2.24989   1.14315   0.32822  -0.91398
   3   20277.1    493.2   0.024819929   0.40297  -0.39946  -0.48577   0.08616
   4   22934.3    436.0   0.006879365   0.09875   0.29849   0.00016   0.09826
   5   23627.7    423.2   0.109886570   1.53108   1.07498  -0.48023  -0.38064
   6   24459.6    408.8   0.003966614   0.05339  -0.09955   0.07497  -0.19457
   7   25341.1    394.6   0.700275643   9.09745  -2.43849   1.72627   0.41378
   8   26048.5    383.9   0.038673364   0.48877   0.08307  -0.69404   0.01345
   9   26478.4    377.7   0.017481144   0.21735   0.35604  -0.04216  -0.29800
  10   26488.7    377.5   0.004229128   0.05256  -0.13903   0.06662   0.16969
  11   26668.0    375.0   0.164505948   2.03080   1.12222   0.18149  -0.85935
  12   27388.7    365.1   0.005043314   0.06062  -0.13123  -0.18942   0.08672
  13   27826.0    359.4   0.060909706   0.72063  -0.75353   0.29547   0.25597
  14   28380.1    352.4   0.025538820   0.29625   0.54153  -0.01644   0.05221
  15   29438.5    339.7   0.005337813   0.05969  -0.03182  -0.22697   0.08464
  16   29839.2    335.1   0.100635874   1.11030  -0.61254   0.84698   0.13311
  17   30484.2    328.0   0.006528551   0.07050   0.22671   0.02720  -0.13553
  18   30827.4    324.4   0.090164343   0.96288   0.10381  -0.79595   0.56441
  19   31568.4    316.8   0.059310653   0.61852   0.14881   0.75948  -0.13989
  20   31962.5    312.9   0.028035234   0.28876  -0.47805  -0.00939  -0.24525
  21   32233.1    310.2   0.070771201   0.72282   0.84601   0.07658   0.03486
  22   32805.4    304.8   0.001156319   0.01160   0.02641  -0.00009   0.10443
  23   33131.7    301.8   0.048120075   0.47814   0.61460  -0.31219  -0.05426
  24   33210.7    301.1   0.003653078   0.03621   0.11977  -0.04228  -0.14170
  25   33749.5    296.3   0.123041111   1.20021   0.88580  -0.06855  -0.64099
  26   34554.6    289.4   0.000903263   0.00861  -0.07964  -0.04114  -0.02389
  27   35224.6    283.9   0.009264000   0.08658   0.20305   0.11634  -0.17837
  28   35416.8    282.4   0.007317937   0.06802  -0.24786  -0.07017   0.04079
  29   35859.7    278.9   0.074358359   0.68265  -0.09664  -0.75613   0.31872
  30   36060.5    277.3   0.023450169   0.21409  -0.06586   0.44130  -0.12248
  31   36379.1    274.9   0.068531718   0.62018  -0.05534  -0.74239   0.25684
  32   36437.3    274.4   0.003037242   0.02744   0.14934   0.05371  -0.04748
  33   37003.7    270.2   0.311851742   2.77446   1.59430  -0.38698  -0.28798
  34   37057.9    269.8   0.483056994   4.29134  -0.09393  -1.92410   0.76180
  35   37561.8    266.2   0.003337749   0.02925  -0.09946  -0.13839   0.01452
  36   37676.9    265.4   0.055843935   0.48795   0.40919   0.52276  -0.21735
  37   37861.5    264.1   0.011825358   0.10282  -0.14360  -0.26846   0.10066
  38   38155.0    262.1   0.001861568   0.01606  -0.07584  -0.09364   0.03926
  39   38269.3    261.3   0.267171352   2.29834  -0.50810  -1.38680   0.34198
  40   38593.8    259.1   0.025976360   0.22158  -0.36974  -0.24735   0.15393
  41   38926.0    256.9   0.176444466   1.49226   0.97628   0.58910  -0.43828
  42   39033.3    256.2   0.077272882   0.65173  -0.08873  -0.75676   0.26677
  43   39231.8    254.9   0.005525846   0.04637   0.06182  -0.11266   0.17279
  44   39643.3    252.2   0.064194952   0.53310   0.11327   0.68616  -0.22237
  45   39699.3    251.9   0.002161384   0.01792  -0.13182  -0.01661   0.01649
  46   39725.2    251.7   0.031120106   0.25790   0.38021   0.28167  -0.18439
  47   39954.5    250.3   0.111757149   0.92084  -0.89014  -0.15280   0.32426
  48   40045.4    249.7   0.039943988   0.32838  -0.51826  -0.12250  -0.21162

FINAL SINGLE POINT ENERGY     -3932.453131960711

DIPOLE MOMENT
-------------
                                X             Y             Z
Electronic contribution:     12.41945     -25.59248       1.15005
Nuclear contribution   :    -12.62326      24.18524      -0.26935
                        -----------------------------------------
Total Dipole Moment    :     -0.20381      -1.40724       0.88069
                        -----------------------------------------
Magnitude (a.u.)       :      1.67257
Magnitude (Debye)      :      4.25133

Rotational constants in cm-1:     0.003053     0.000573     0.000491
Rotational constants in MHz :    91.521095    17.167442    14.724336

                             ****ORCA TERMINATED NORMALLY****
TOTAL RUN TIME: 0 days 0 hours 5 minutes 3 seconds 24 msec
