                         Program Version 4.2.0 -  RELEASE  -
|  1> # ORCA input file
|  2> # SCF done       -170.798516651392          0.001975784169
|  3> ! CAM-B3LYP def2-SVP def2/J RIJCOSX Grid4 TightSCF
|  4> %maxcore 5000
|  5> %tddft
|  6>     Mode sTDDFT
|  7>     Ethresh 5.0
|  8>     maxcore 5000
|  9> end
| 10>
| 11> %pal
| 12>   nprocs 6
| 13>   end
| 14> * xyz 0 1
| 15>    C        2.66064        -7.73882        -7.36400
| 16>    C        3.22472        -6.78499        -6.61224
| 17>    C        3.79019        -5.54052        -7.04722
| 18>    C        4.31307        -4.78602        -6.05532
| 19>    C        4.20594        -5.36341        -4.75919
| 20>    S        3.39547        -6.91046        -4.85034
| 21>    C        4.67208        -4.83621        -3.57489
| 22>    C        5.37474        -3.62544        -3.37857
| 23>    C        5.73055        -3.39982        -2.08370
| 24>    C        5.31887        -4.40650        -1.17848
| 25>    S        4.46146        -5.66575        -2.04016
| 26>    C        5.55118        -4.40075         0.18114
| 27>    C        5.11836        -5.33027         1.12120
| 28>    S        4.14248        -6.70830         0.71011
| 29>    C        3.98844        -7.22472         2.36622
| 30>    C        4.70843        -6.36060         3.21621
| 31>    C        5.34822        -5.29573         2.51995
| 32>    C        6.10696        -4.35414         3.22945
| 33>    C        6.22027        -4.48036         4.58762
| 34>    F        6.94706        -3.58708         5.28092
| 35>    C        5.58880        -5.53466         5.27676
| 36>    F        5.73132        -5.62120         6.61016
| 37>    C        4.84106        -6.46578         4.61124
| 38>    C        3.20196        -8.32876         2.72302
| 39>    C        2.56648        -9.13414         1.82331
| 40>    C        1.70287       -10.19501         2.15555
| 41>    S        1.24138       -10.50139         3.80881
| 42>    C        0.19612       -11.78923         3.31384
| 43>    C       -0.59025       -12.54069         4.28110
| 44>    O       -1.33521       -13.44994         4.00003
| 45>    O       -0.38792       -12.09602         5.53417
| 46>    C       -1.12248       -12.75395         6.55263
| 47>    C        0.21240       -11.97338         1.95737
| 48>    C        1.06638       -11.08609         1.27178
| 49>    C        1.31104       -11.10216        -0.14007
| 50>    C        0.70156       -11.89812        -1.04192
| 51>    C        1.06998       -11.88360        -2.42591
| 52>    C        0.51621       -12.62327        -3.39964
| 53>    C       -0.61962       -13.57981        -3.18409
| 54>    C        1.03965       -12.54420        -4.80531
| 55>    N        1.66408       -13.80777        -5.15355
| 56>    C        2.06292       -14.14575        -6.37982
| 57>    C        1.95735       -13.36642        -7.49914
| 58>    C        2.37794       -13.85248        -8.74139
| 59>    C        2.33189       -13.16003        -9.92957
| 60>    C        2.72682       -13.65838       -11.22527
| 61>    C        3.22327       -14.90400       -11.52798
| 62>    C        3.56444       -15.32816       -12.82738
| 63>    N        3.85677       -15.73864       -13.85972
| 64>    C        3.46468       -15.93999       -10.60491
| 65>    N        3.69308       -16.83175        -9.91616
| 66>    C        2.49480       -12.59271       -12.19820
| 67>    C        1.96895       -11.46632       -11.52102
| 68>    C        1.85621       -11.77587       -10.07753
| 69>    O        1.45840       -11.01612        -9.21241
| 70>    C        1.63903       -10.30215       -12.16961
| 71>    C        1.83910       -10.24404       -13.55370
| 72>    C        2.37242       -11.37140       -14.21929
| 73>    C        2.70545       -12.55028       -13.56328
| 74>    S        2.54240       -11.08691       -15.92611
| 75>    C        1.89973        -9.47938       -15.72379
| 76>    C        1.57536        -9.16890       -14.44649
| 77>   Br        1.71571        -8.36089       -17.21883
| 78>    H        2.58487        -7.62532        -8.43054
| 79>    H        2.26823        -8.64489        -6.94129
| 80>    H        3.78209        -5.26786        -8.08757
| 81>    H        4.77773        -3.82747        -6.20361
| 82>    H        5.60527        -2.95984        -4.19077
| 83>    H        6.27228        -2.53382        -1.74642
| 84>    H        6.12164        -3.56275         0.55852
| 85>    H        6.60568        -3.53853         2.73218
| 86>    H        4.37103        -7.26440         5.16093
| 87>    H        3.08868        -8.53393         3.77854
| 88>    H        2.71818        -8.93237         0.77165
| 89>    H       -0.77225       -12.34106         7.49500
| 90>    H       -0.94612       -13.83073         6.51288
| 91>    H       -2.19153       -12.56893         6.42755
| 92>    H       -0.38055       -12.73895         1.49179
| 93>    H        2.07018       -10.42213        -0.50169
| 94>    H       -0.07601       -12.57945        -0.73454
| 95>    H        1.87831       -11.21082        -2.68542
| 96>    H       -0.42718       -14.24419        -2.34375
| 97>    H       -0.78972       -14.18391        -4.07194
| 98>    H       -1.53697       -13.03250        -2.96730
| 99>    H        1.76749       -11.73030        -4.90352
|100>    H        0.21987       -12.35554        -5.50828
|101>    H        1.85329       -14.43307        -4.38596
|102>    H        2.49914       -15.13377        -6.46733
|103>    H        1.55357       -12.36910        -7.44781
|104>    H        2.76420       -14.86318        -8.75752
|105>    H        1.23496        -9.46052       -11.62866
|106>    H        3.10754       -13.38200       -14.11685
|107>    H        1.16559        -8.22195       -14.14559
|108> *
|109>
|110>                          ****END OF INPUT****

CARTESIAN COORDINATES (ANGSTROEM)
---------------------------------
  C      2.660640   -7.738820   -7.364000
  C      3.224720   -6.784990   -6.612240
  C      3.790190   -5.540520   -7.047220
  C      4.313070   -4.786020   -6.055320
  C      4.205940   -5.363410   -4.759190
  S      3.395470   -6.910460   -4.850340
  C      4.672080   -4.836210   -3.574890
  C      5.374740   -3.625440   -3.378570
  C      5.730550   -3.399820   -2.083700
  C      5.318870   -4.406500   -1.178480
  S      4.461460   -5.665750   -2.040160
  C      5.551180   -4.400750    0.181140
  C      5.118360   -5.330270    1.121200
  S      4.142480   -6.708300    0.710110
  C      3.988440   -7.224720    2.366220
  C      4.708430   -6.360600    3.216210
  C      5.348220   -5.295730    2.519950
  C      6.106960   -4.354140    3.229450
  C      6.220270   -4.480360    4.587620
  F      6.947060   -3.587080    5.280920
  C      5.588800   -5.534660    5.276760
  F      5.731320   -5.621200    6.610160
  C      4.841060   -6.465780    4.611240
  C      3.201960   -8.328760    2.723020
  C      2.566480   -9.134140    1.823310
  C      1.702870  -10.195010    2.155550
  S      1.241380  -10.501390    3.808810
  C      0.196120  -11.789230    3.313840
  C     -0.590250  -12.540690    4.281100
  O     -1.335210  -13.449940    4.000030
  O     -0.387920  -12.096020    5.534170
  C     -1.122480  -12.753950    6.552630
  C      0.212400  -11.973380    1.957370
  C      1.066380  -11.086090    1.271780
  C      1.311040  -11.102160   -0.140070
  C      0.701560  -11.898120   -1.041920
  C      1.069980  -11.883600   -2.425910
  C      0.516210  -12.623270   -3.399640
  C     -0.619620  -13.579810   -3.184090
  C      1.039650  -12.544200   -4.805310
  N      1.664080  -13.807770   -5.153550
  C      2.062920  -14.145750   -6.379820
  C      1.957350  -13.366420   -7.499140
  C      2.377940  -13.852480   -8.741390
  C      2.331890  -13.160030   -9.929570
  C      2.726820  -13.658380  -11.225270
  C      3.223270  -14.904000  -11.527980
  C      3.564440  -15.328160  -12.827380
  N      3.856770  -15.738640  -13.859720
  C      3.464680  -15.939990  -10.604910
  N      3.693080  -16.831750   -9.916160
  C      2.494800  -12.592710  -12.198200
  C      1.968950  -11.466320  -11.521020
  C      1.856210  -11.775870  -10.077530
  O      1.458400  -11.016120   -9.212410
  C      1.639030  -10.302150  -12.169610
  C      1.839100  -10.244040  -13.553700
  C      2.372420  -11.371400  -14.219290
  C      2.705450  -12.550280  -13.563280
  S      2.542400  -11.086910  -15.926110
  C      1.899730   -9.479380  -15.723790
  C      1.575360   -9.168900  -14.446490
  Br     1.715710   -8.360890  -17.218830
  H      2.584870   -7.625320   -8.430540
  H      2.268230   -8.644890   -6.941290
  H      3.782090   -5.267860   -8.087570
  H      4.777730   -3.827470   -6.203610
  H      5.605270   -2.959840   -4.190770
  H      6.272280   -2.533820   -1.746420
  H      6.121640   -3.562750    0.558520
  H      6.605680   -3.538530    2.732180
  H      4.371030   -7.264400    5.160930
  H      3.088680   -8.533930    3.778540
  H      2.718180   -8.932370    0.771650
  H     -0.772250  -12.341060    7.495000
  H     -0.946120  -13.830730    6.512880
  H     -2.191530  -12.568930    6.427550
  H     -0.380550  -12.738950    1.491790
  H      2.070180  -10.422130   -0.501690
  H     -0.076010  -12.579450   -0.734540
  H      1.878310  -11.210820   -2.685420
  H     -0.427180  -14.244190   -2.343750
  H     -0.789720  -14.183910   -4.071940
  H     -1.536970  -13.032500   -2.967300
  H      1.767490  -11.730300   -4.903520
  H      0.219870  -12.355540   -5.508280
  H      1.853290  -14.433070   -4.385960
  H      2.499140  -15.133770   -6.467330
  H      1.553570  -12.369100   -7.447810
  H      2.764200  -14.863180   -8.757520
  H      1.234960   -9.460520  -11.628660
  H      3.107540  -13.382000  -14.116850
  H      1.165590   -8.221950  -14.145590

 Total Charge           Charge          ....    0
 Multiplicity           Mult            ....    1
 Number of Electrons    NEL             ....  502
 Basis Dimension        Dim             .... 1070

ORBITAL ENERGIES
----------------

  NO   OCC          E(Eh)            E(eV)
   0   2.0000    -482.879857    -13139.8289
   1   2.0000     -88.969029     -2420.9703
   2   2.0000     -88.967368     -2420.9252
   3   2.0000     -88.957162     -2420.6474
   4   2.0000     -88.954939     -2420.5870
   5   2.0000     -88.948051     -2420.3995
   6   2.0000     -62.557583     -1702.2784
   7   2.0000     -56.391519     -1534.4912
   8   2.0000     -56.388829     -1534.4180
   9   2.0000     -56.388789     -1534.4170
  10   2.0000     -24.786337      -674.4705
  11   2.0000     -24.785244      -674.4408
  12   2.0000     -19.257485      -524.0228
  13   2.0000     -19.202292      -522.5209
  14   2.0000     -19.197560      -522.3922
  15   2.0000     -14.469181      -393.7264
  16   2.0000     -14.402750      -391.9188
  17   2.0000     -14.399087      -391.8191
  18   2.0000     -10.398517      -282.9580
  19   2.0000     -10.368239      -282.1341
  20   2.0000     -10.366302      -282.0814
  21   2.0000     -10.352470      -281.7050
  22   2.0000     -10.351202      -281.6705
  23   2.0000     -10.346506      -281.5427
  24   2.0000     -10.325939      -280.9831
  25   2.0000     -10.323693      -280.9220
  26   2.0000     -10.322146      -280.8799
  27   2.0000     -10.321698      -280.8677
  28   2.0000     -10.320316      -280.8301
  29   2.0000     -10.316487      -280.7259
  30   2.0000     -10.316254      -280.7195
  31   2.0000     -10.315439      -280.6974
  32   2.0000     -10.314502      -280.6719
  33   2.0000     -10.313375      -280.6412
  34   2.0000     -10.310440      -280.5613
  35   2.0000     -10.307096      -280.4703
  36   2.0000     -10.305401      -280.4242
  37   2.0000     -10.303721      -280.3785
  38   2.0000     -10.303605      -280.3753
  39   2.0000     -10.298388      -280.2334
  40   2.0000     -10.297997      -280.2227
  41   2.0000     -10.296588      -280.1844
  42   2.0000     -10.295515      -280.1552
  43   2.0000     -10.295108      -280.1441
  44   2.0000     -10.294171      -280.1186
  45   2.0000     -10.294039      -280.1150
  46   2.0000     -10.293718      -280.1063
  47   2.0000     -10.293074      -280.0888
  48   2.0000     -10.292248      -280.0663
  49   2.0000     -10.291681      -280.0509
  50   2.0000     -10.291429      -280.0440
  51   2.0000     -10.291012      -280.0327
  52   2.0000     -10.289730      -279.9978
  53   2.0000     -10.289630      -279.9951
  54   2.0000     -10.289499      -279.9915
  55   2.0000     -10.288306      -279.9590
  56   2.0000     -10.283894      -279.8390
  57   2.0000     -10.283423      -279.8262
  58   2.0000     -10.283094      -279.8172
  59   2.0000     -10.282702      -279.8065
  60   2.0000     -10.280330      -279.7420
  61   2.0000     -10.278394      -279.6893
  62   2.0000     -10.278332      -279.6876
  63   2.0000     -10.276840      -279.6470
  64   2.0000     -10.276378      -279.6345
  65   2.0000     -10.271769      -279.5091
  66   2.0000     -10.265396      -279.3356
  67   2.0000      -8.787020      -239.1070
  68   2.0000      -8.063581      -219.4212
  69   2.0000      -8.063371      -219.4155
  70   2.0000      -8.052468      -219.1188
  71   2.0000      -8.050850      -219.0748
  72   2.0000      -8.044776      -218.9095
  73   2.0000      -6.623261      -180.2281
  74   2.0000      -6.608769      -179.8337
  75   2.0000      -6.608612      -179.8295
  76   2.0000      -6.033047      -164.1676
  77   2.0000      -6.032636      -164.1564
  78   2.0000      -6.028812      -164.0523
  79   2.0000      -6.028623      -164.0472
  80   2.0000      -6.026185      -163.9808
  81   2.0000      -6.024582      -163.9372
  82   2.0000      -6.021732      -163.8597
  83   2.0000      -6.020617      -163.8293
  84   2.0000      -6.017625      -163.7479
  85   2.0000      -6.016447      -163.7159
  86   2.0000      -6.014606      -163.6658
  87   2.0000      -6.014565      -163.6646
  88   2.0000      -6.011844      -163.5906
  89   2.0000      -6.010651      -163.5581
  90   2.0000      -6.005367      -163.4143
  91   2.0000      -2.739152       -74.5361
  92   2.0000      -2.735078       -74.4252
  93   2.0000      -2.734939       -74.4215
  94   2.0000      -2.723425       -74.1082
  95   2.0000      -2.723417       -74.1080
  96   2.0000      -1.307459       -35.5778
  97   2.0000      -1.292589       -35.1731
  98   2.0000      -1.187036       -32.3009
  99   2.0000      -1.114632       -30.3307
 100   2.0000      -1.091518       -29.7017
 101   2.0000      -1.064413       -28.9642
 102   2.0000      -1.011817       -27.5329
 103   2.0000      -1.007390       -27.4125
 104   2.0000      -1.000895       -27.2357
 105   2.0000      -0.998922       -27.1821
 106   2.0000      -0.988444       -26.8969
 107   2.0000      -0.980480       -26.6802
 108   2.0000      -0.977406       -26.5966
 109   2.0000      -0.976060       -26.5600
 110   2.0000      -0.944767       -25.7084
 111   2.0000      -0.933798       -25.4099
 112   2.0000      -0.929118       -25.2826
 113   2.0000      -0.917104       -24.9557
 114   2.0000      -0.904400       -24.6100
 115   2.0000      -0.897157       -24.4129
 116   2.0000      -0.892302       -24.2808
 117   2.0000      -0.888986       -24.1905
 118   2.0000      -0.876699       -23.8562
 119   2.0000      -0.875585       -23.8259
 120   2.0000      -0.865014       -23.5382
 121   2.0000      -0.856853       -23.3162
 122   2.0000      -0.852587       -23.2001
 123   2.0000      -0.846424       -23.0324
 124   2.0000      -0.836656       -22.7666
 125   2.0000      -0.829538       -22.5729
 126   2.0000      -0.828095       -22.5336
 127   2.0000      -0.821108       -22.3435
 128   2.0000      -0.818350       -22.2684
 129   2.0000      -0.811865       -22.0920
 130   2.0000      -0.801852       -21.8195
 131   2.0000      -0.797704       -21.7066
 132   2.0000      -0.776894       -21.1404
 133   2.0000      -0.765696       -20.8356
 134   2.0000      -0.754136       -20.5211
 135   2.0000      -0.744455       -20.2577
 136   2.0000      -0.741015       -20.1640
 137   2.0000      -0.736550       -20.0426
 138   2.0000      -0.717687       -19.5293
 139   2.0000      -0.704523       -19.1710
 140   2.0000      -0.702023       -19.1030
 141   2.0000      -0.694110       -18.8877
 142   2.0000      -0.680639       -18.5211
 143   2.0000      -0.677051       -18.4235
 144   2.0000      -0.673043       -18.3144
 145   2.0000      -0.672067       -18.2879
 146   2.0000      -0.656216       -17.8566
 147   2.0000      -0.648363       -17.6428
 148   2.0000      -0.647543       -17.6205
 149   2.0000      -0.646992       -17.6055
 150   2.0000      -0.641029       -17.4433
 151   2.0000      -0.634950       -17.2779
 152   2.0000      -0.630640       -17.1606
 153   2.0000      -0.627551       -17.0765
 154   2.0000      -0.622846       -16.9485
 155   2.0000      -0.617602       -16.8058
 156   2.0000      -0.612303       -16.6616
 157   2.0000      -0.610287       -16.6068
 158   2.0000      -0.606652       -16.5078
 159   2.0000      -0.600435       -16.3387
 160   2.0000      -0.598957       -16.2985
 161   2.0000      -0.591692       -16.1008
 162   2.0000      -0.589940       -16.0531
 163   2.0000      -0.583241       -15.8708
 164   2.0000      -0.572895       -15.5893
 165   2.0000      -0.572510       -15.5788
 166   2.0000      -0.570944       -15.5362
 167   2.0000      -0.569175       -15.4880
 168   2.0000      -0.567962       -15.4550
 169   2.0000      -0.558937       -15.2094
 170   2.0000      -0.555703       -15.1214
 171   2.0000      -0.549184       -14.9441
 172   2.0000      -0.545357       -14.8399
 173   2.0000      -0.538880       -14.6637
 174   2.0000      -0.536503       -14.5990
 175   2.0000      -0.535789       -14.5796
 176   2.0000      -0.534889       -14.5551
 177   2.0000      -0.530545       -14.4369
 178   2.0000      -0.527005       -14.3405
 179   2.0000      -0.523007       -14.2317
 180   2.0000      -0.521168       -14.1817
 181   2.0000      -0.516020       -14.0416
 182   2.0000      -0.515183       -14.0189
 183   2.0000      -0.513421       -13.9709
 184   2.0000      -0.508918       -13.8484
 185   2.0000      -0.506396       -13.7797
 186   2.0000      -0.503173       -13.6920
 187   2.0000      -0.500509       -13.6195
 188   2.0000      -0.498960       -13.5774
 189   2.0000      -0.498830       -13.5739
 190   2.0000      -0.497950       -13.5499
 191   2.0000      -0.496983       -13.5236
 192   2.0000      -0.495121       -13.4729
 193   2.0000      -0.494021       -13.4430
 194   2.0000      -0.493435       -13.4270
 195   2.0000      -0.488651       -13.2969
 196   2.0000      -0.482735       -13.1359
 197   2.0000      -0.480701       -13.0805
 198   2.0000      -0.479749       -13.0546
 199   2.0000      -0.474208       -12.9039
 200   2.0000      -0.469957       -12.7882
 201   2.0000      -0.469012       -12.7625
 202   2.0000      -0.465744       -12.6735
 203   2.0000      -0.464774       -12.6471
 204   2.0000      -0.463416       -12.6102
 205   2.0000      -0.461815       -12.5666
 206   2.0000      -0.460099       -12.5199
 207   2.0000      -0.456152       -12.4125
 208   2.0000      -0.450541       -12.2598
 209   2.0000      -0.448272       -12.1981
 210   2.0000      -0.441863       -12.0237
 211   2.0000      -0.441449       -12.0124
 212   2.0000      -0.437379       -11.9017
 213   2.0000      -0.437038       -11.8924
 214   2.0000      -0.436148       -11.8682
 215   2.0000      -0.435079       -11.8391
 216   2.0000      -0.433657       -11.8004
 217   2.0000      -0.430792       -11.7224
 218   2.0000      -0.429209       -11.6794
 219   2.0000      -0.426791       -11.6136
 220   2.0000      -0.421912       -11.4808
 221   2.0000      -0.418762       -11.3951
 222   2.0000      -0.417723       -11.3668
 223   2.0000      -0.413969       -11.2647
 224   2.0000      -0.410678       -11.1751
 225   2.0000      -0.409092       -11.1320
 226   2.0000      -0.406887       -11.0720
 227   2.0000      -0.403538       -10.9808
 228   2.0000      -0.394064       -10.7230
 229   2.0000      -0.392409       -10.6780
 230   2.0000      -0.383340       -10.4312
 231   2.0000      -0.381436       -10.3794
 232   2.0000      -0.375370       -10.2143
 233   2.0000      -0.371576       -10.1111
 234   2.0000      -0.369435       -10.0528
 235   2.0000      -0.362790        -9.8720
 236   2.0000      -0.351775        -9.5723
 237   2.0000      -0.345653        -9.4057
 238   2.0000      -0.345251        -9.3948
 239   2.0000      -0.340137        -9.2556
 240   2.0000      -0.338303        -9.2057
 241   2.0000      -0.327964        -8.9243
 242   2.0000      -0.323127        -8.7927
 243   2.0000      -0.313556        -8.5323
 244   2.0000      -0.306374        -8.3369
 245   2.0000      -0.306257        -8.3337
 246   2.0000      -0.285700        -7.7743
 247   2.0000      -0.280077        -7.6213
 248   2.0000      -0.262834        -7.1521
 249   2.0000      -0.256253        -6.9730
 250   2.0000      -0.207305        -5.6411
 251   0.0000      -0.093161        -2.5350
 252   0.0000      -0.069592        -1.8937
 253   0.0000      -0.045619        -1.2413
 254   0.0000      -0.042686        -1.1615
 255   0.0000      -0.020389        -0.5548

MULLIKEN ATOMIC CHARGES
-----------------------
   0 C :   -0.017975
   1 C :   -0.066443
   2 C :    0.058289
   3 C :    0.028409
   4 C :   -0.060188
   5 S :    0.082402
   6 C :   -0.040009
   7 C :    0.031886
   8 C :    0.024283
   9 C :   -0.031955
  10 S :    0.069005
  11 C :   -0.030236
  12 C :   -0.069447
  13 S :    0.103025
  14 C :   -0.086066
  15 C :    0.135849
  16 C :    0.128837
  17 C :   -0.113423
  18 C :    0.219860
  19 F :   -0.181693
  20 C :    0.226662
  21 F :   -0.180115
  22 C :   -0.119328
  23 C :   -0.003097
  24 C :   -0.035463
  25 C :   -0.073686
  26 S :    0.149064
  27 C :   -0.125772
  28 C :    0.198268
  29 O :   -0.208287
  30 O :   -0.312888
  31 C :    0.189214
  32 C :   -0.008007
  33 C :    0.131335
  34 C :   -0.014358
  35 C :   -0.002672
  36 C :    0.034135
  37 C :   -0.261357
  38 C :    0.091728
  39 C :    0.218315
  40 N :   -0.131813
  41 C :    0.093302
  42 C :   -0.076268
  43 C :   -0.015577
  44 C :   -0.106310
  45 C :    0.344372
  46 C :   -0.374348
  47 C :   -0.185507
  48 N :    0.135623
  49 C :   -0.188404
  50 N :    0.125918
  51 C :    0.006664
  52 C :   -0.005141
  53 C :    0.143181
  54 O :   -0.179696
  55 C :   -0.085214
  56 C :    0.120130
  57 C :   -0.094185
  58 C :   -0.022287
  59 S :    0.181304
  60 C :   -0.124192
  61 C :    0.036390
  62 Br:    0.015050
  63 H :    0.029290
  64 H :    0.031334
  65 H :   -0.006325
  66 H :   -0.009428
  67 H :   -0.012507
  68 H :   -0.012020
  69 H :   -0.017320
  70 H :   -0.012984
  71 H :   -0.012388
  72 H :   -0.004807
  73 H :   -0.002890
  74 H :    0.033734
  75 H :    0.035079
  76 H :    0.032364
  77 H :   -0.005188
  78 H :   -0.022477
  79 H :   -0.016632
  80 H :   -0.023803
  81 H :    0.034544
  82 H :    0.010827
  83 H :    0.042743
  84 H :    0.024881
  85 H :    0.038294
  86 H :    0.142238
  87 H :    0.031276
  88 H :    0.022056
  89 H :   -0.001522
  90 H :   -0.021479
  91 H :   -0.009458
  92 H :   -0.008525
Sum of atomic charges:   -0.0000000

LOEWDIN ATOMIC CHARGES
----------------------
   0 C :   -0.050857
   1 C :   -0.143951
   2 C :   -0.021384
   3 C :   -0.029484
   4 C :   -0.165452
   5 S :    0.354436
   6 C :   -0.187102
   7 C :   -0.032457
   8 C :   -0.037942
   9 C :   -0.147758
  10 S :    0.371820
  11 C :   -0.082934
  12 C :   -0.163331
  13 S :    0.463967
  14 C :   -0.188209
  15 C :   -0.037160
  16 C :   -0.048555
  17 C :   -0.036639
  18 C :    0.056429
  19 F :   -0.059824
  20 C :    0.063661
  21 F :   -0.057726
  22 C :   -0.041344
  23 C :   -0.030643
  24 C :   -0.067617
  25 C :   -0.142854
  26 S :    0.451306
  27 C :   -0.224608
  28 C :    0.066707
  29 O :   -0.184668
  30 O :   -0.105129
  31 C :    0.081370
  32 C :   -0.003937
  33 C :   -0.073102
  34 C :   -0.005231
  35 C :   -0.035189
  36 C :   -0.031148
  37 C :   -0.059486
  38 C :   -0.055542
  39 C :    0.049545
  40 N :    0.035158
  41 C :    0.090891
  42 C :   -0.123211
  43 C :    0.080203
  44 C :   -0.135888
  45 C :    0.080510
  46 C :   -0.161718
  47 C :   -0.019129
  48 N :   -0.069696
  49 C :   -0.018430
  50 N :   -0.072658
  51 C :   -0.019420
  52 C :   -0.048089
  53 C :    0.084325
  54 O :   -0.173746
  55 C :    0.013544
  56 C :   -0.036193
  57 C :   -0.146543
  58 C :   -0.011608
  59 S :    0.428307
  60 C :   -0.274850
  61 C :   -0.072533
  62 Br:    0.129908
  63 H :    0.033247
  64 H :    0.030347
  65 H :    0.035742
  66 H :    0.033426
  67 H :    0.032252
  68 H :    0.033626
  69 H :    0.037979
  70 H :    0.038798
  71 H :    0.039834
  72 H :    0.027449
  73 H :    0.022767
  74 H :    0.025814
  75 H :    0.023715
  76 H :    0.023531
  77 H :    0.035581
  78 H :    0.027843
  79 H :    0.024063
  80 H :    0.027390
  81 H :    0.035277
  82 H :    0.028067
  83 H :    0.043668
  84 H :    0.028847
  85 H :    0.034452
  86 H :    0.089438
  87 H :    0.039263
  88 H :    0.028622
  89 H :    0.038826
  90 H :    0.036162
  91 H :    0.040369
  92 H :    0.036493

  Mayer bond orders larger than 0.100000
B(  0-C ,  1-C ) :   1.8483 B(  0-C , 63-H ) :   0.9551 B(  0-C , 64-H ) :   0.9469
B(  1-C ,  2-C ) :   1.0806 B(  1-C ,  5-S ) :   0.9992 B(  2-C ,  3-C ) :   1.6560
B(  2-C , 65-H ) :   0.9934 B(  3-C ,  4-C ) :   1.1577 B(  3-C , 66-H ) :   0.9917
B(  4-C ,  5-S ) :   1.0586 B(  4-C ,  6-C ) :   1.5345 B(  6-C ,  7-C ) :   1.1869
B(  6-C , 10-S ) :   1.0284 B(  7-C ,  8-C ) :   1.5798 B(  7-C , 67-H ) :   0.9919
B(  8-C ,  9-C ) :   1.1641 B(  8-C , 68-H ) :   0.9995 B(  9-C , 10-S ) :   1.0526
B(  9-C , 11-C ) :   1.5102 B( 11-C , 12-C ) :   1.2681 B( 11-C , 69-H ) :   0.9604
B( 12-C , 13-S ) :   1.1262 B( 12-C , 16-C ) :   1.2663 B( 13-S , 14-C ) :   1.1090
B( 14-C , 15-C ) :   1.2856 B( 14-C , 23-C ) :   1.2492 B( 15-C , 16-C ) :   1.2350
B( 15-C , 22-C ) :   1.1790 B( 16-C , 17-C ) :   1.1872 B( 17-C , 18-C ) :   1.4843
B( 17-C , 22-C ) :   0.1129 B( 17-C , 70-H ) :   0.9968 B( 18-C , 19-F ) :   1.1245
B( 18-C , 20-C ) :   1.1750 B( 20-C , 21-F ) :   1.1262 B( 20-C , 22-C ) :   1.4880
B( 22-C , 71-H ) :   0.9993 B( 23-C , 24-C ) :   1.5744 B( 23-C , 72-H ) :   0.9648
B( 24-C , 25-C ) :   1.2120 B( 24-C , 73-H ) :   0.9659 B( 25-C , 26-S ) :   1.1204
B( 25-C , 33-C ) :   1.3762 B( 26-S , 27-C ) :   1.0915 B( 27-C , 28-C ) :   0.9756
B( 27-C , 32-C ) :   1.5611 B( 28-C , 29-O ) :   2.1281 B( 28-C , 30-O ) :   1.2254
B( 30-O , 31-C ) :   0.9242 B( 31-C , 74-H ) :   0.9814 B( 31-C , 75-H ) :   0.9748
B( 31-C , 76-H ) :   0.9786 B( 32-C , 33-C ) :   1.2190 B( 32-C , 77-H ) :   0.9999
B( 33-C , 34-C ) :   1.0737 B( 34-C , 35-C ) :   1.7112 B( 34-C , 78-H ) :   0.9805
B( 35-C , 36-C ) :   1.1017 B( 35-C , 79-H ) :   0.9722 B( 36-C , 37-C ) :   1.7696
B( 36-C , 80-H ) :   0.9785 B( 37-C , 38-C ) :   1.0631 B( 37-C , 39-C ) :   1.0448
B( 38-C , 81-H ) :   0.9489 B( 38-C , 82-H ) :   0.9532 B( 38-C , 83-H ) :   0.9478
B( 39-C , 40-N ) :   0.9518 B( 39-C , 84-H ) :   0.9413 B( 39-C , 85-H ) :   0.9289
B( 40-N , 41-C ) :   1.3415 B( 40-N , 86-H ) :   0.9293 B( 41-C , 42-C ) :   1.4465
B( 41-C , 87-H ) :   0.9639 B( 42-C , 43-C ) :   1.2665 B( 42-C , 88-H ) :   0.9679
B( 43-C , 44-C ) :   1.4524 B( 43-C , 89-H ) :   0.9520 B( 44-C , 45-C ) :   1.1058
B( 44-C , 53-C ) :   0.9802 B( 45-C , 46-C ) :   1.5895 B( 45-C , 51-C ) :   0.9905
B( 46-C , 47-C ) :   1.1458 B( 46-C , 49-C ) :   1.1552 B( 47-C , 48-N ) :   2.9632
B( 49-C , 50-N ) :   2.9527 B( 51-C , 52-C ) :   1.2824 B( 51-C , 58-C ) :   1.4193
B( 52-C , 53-C ) :   0.9396 B( 52-C , 55-C ) :   1.4263 B( 53-C , 54-O ) :   2.1654
B( 55-C , 56-C ) :   1.2407 B( 55-C , 90-H ) :   1.0157 B( 56-C , 57-C ) :   1.3177
B( 56-C , 61-C ) :   1.1606 B( 57-C , 58-C ) :   1.3226 B( 57-C , 59-S ) :   1.0824
B( 58-C , 91-H ) :   0.9780 B( 59-S , 60-C ) :   1.0871 B( 60-C , 61-C ) :   1.6198
B( 60-C , 62-Br) :   1.0141 B( 61-C , 92-H ) :   0.9994

-----------------------------------------------------------------------------
         ABSORPTION SPECTRUM VIA TRANSITION ELECTRIC DIPOLE MOMENTS
-----------------------------------------------------------------------------
State   Energy  Wavelength   fosc         T2         TX        TY        TZ
        (cm-1)    (nm)                  (au**2)     (au)      (au)      (au)
-----------------------------------------------------------------------------
   0   11540.1    866.5   0.656467095  18.72748   1.13816   2.20437  -3.54582
   1   19318.2    517.6   0.007082358   0.12069   0.16398   0.13504   0.27489
   2   20893.7    478.6   0.000922617   0.01454  -0.01884  -0.04454  -0.11045
   3   23236.4    430.4   2.403698567  34.05552   2.38005   3.21670   4.24778
   4   24543.6    407.4   0.030084338   0.40353  -0.15442   0.16749   0.59299
   5   24736.5    404.3   0.394759457   5.25376  -1.18045  -0.25027   1.94876
   6   25978.9    384.9   0.000944718   0.01197  -0.04942  -0.07714   0.05983
   7   26636.3    375.4   0.017245523   0.21315  -0.19129  -0.41019  -0.09111
   8   26779.9    373.4   0.001873969   0.02304   0.02882   0.04614   0.14170
   9   27672.2    361.4   0.220236258   2.62012   0.41218   0.50763  -1.48072
  10   28638.2    349.2   0.161722387   1.85909   0.19003   0.09390  -1.34691
  11   30264.9    330.4   0.032157159   0.34980  -0.31241  -0.47955   0.14910
  12   30389.6    329.1   0.014639785   0.15859   0.15285   0.35368  -0.10072
  13   30521.2    327.6   0.044284012   0.47766  -0.08854   0.41900  -0.54246
  14   30588.2    326.9   0.890996581   9.58953   0.33003  -1.86659   2.44877
  15   31343.2    319.0   0.000288329   0.00303   0.00634   0.00977   0.05378
  16   31678.6    315.7   0.037683070   0.39161  -0.00266  -0.11903   0.61436
  17   32019.9    312.3   0.134074088   1.37848   0.29691   0.57189  -0.98146
  18   32202.3    310.5   0.279427736   2.85666   0.44301  -1.17931   1.12678
  19   32461.7    308.1   0.004609884   0.04675  -0.03759   0.10805  -0.18347
  20   32607.8    306.7   0.023423747   0.23649  -0.24736  -0.27969  -0.31157
  21   33625.4    297.4   0.000527796   0.00517  -0.01961   0.06510  -0.02335
  22   33784.8    296.0   0.032746906   0.31910   0.30481   0.40119   0.25541
  23   35243.3    283.7   0.345552777   3.22785   0.58656  -1.69267   0.13668
  24   35304.5    283.2   0.000685322   0.00639  -0.04343   0.06219  -0.02524
  25   35922.9    278.4   0.025554239   0.23419   0.13030   0.33821   0.32067
  26   36273.5    275.7   0.000188492   0.00171   0.01708   0.02407   0.02897
  27   36335.0    275.2   0.025858172   0.23429   0.10570   0.45618  -0.12252
  28   36375.0    274.9   0.029641619   0.26827  -0.10901  -0.40754   0.30050
  29   37144.2    269.2   0.000596061   0.00528  -0.00721  -0.03368  -0.06400
  30   37264.6    268.4   0.022570769   0.19940   0.09100   0.02517   0.43645
  31   37647.2    265.6   0.369244452   3.22891   0.26837   0.64250   1.65653
  32   37704.9    265.2   0.003063110   0.02674   0.03713   0.05834   0.14820
  33   38287.4    261.2   0.174074072   1.49676  -0.42957  -0.30694   1.10364
  34   38591.5    259.1   0.158638023   1.35329  -0.08260  -0.55829  -1.01724
  35   38788.1    257.8   0.001956142   0.01660  -0.02509   0.00919   0.12605
  36   39962.5    250.2   0.002968157   0.02445  -0.00094   0.00231   0.15635

FINAL SINGLE POINT ENERGY     -7036.009360801530

DIPOLE MOMENT
-------------
                                X             Y             Z
Electronic contribution:     16.93174      39.13624    -141.98090
Nuclear contribution   :    -17.47134     -36.34698     143.37258
                        -----------------------------------------
Total Dipole Moment    :     -0.53960       2.78927       1.39168
                        -----------------------------------------
Magnitude (a.u.)       :      3.16353
Magnitude (Debye)      :      8.04106

Rotational constants in cm-1:     0.001186     0.000291     0.000245
Rotational constants in MHz :    35.546815     8.727180     7.333585

                             ****ORCA TERMINATED NORMALLY****
TOTAL RUN TIME: 0 days 0 hours 8 minutes 1 seconds 548 msec
