                         Program Version 4.2.0 -  RELEASE  -
|  1> # ORCA input file
|  2> # SCF done       -178.092705891423          0.000519670941
|  3> ! CAM-B3LYP def2-SVP def2/J RIJCOSX Grid4 TightSCF
|  4> %maxcore 5000
|  5> %tddft
|  6>     Mode sTDDFT
|  7>     Ethresh 5.0
|  8>     maxcore 5000
|  9> end
| 10>
| 11> %pal
| 12>   nprocs 6
| 13>   end
| 14> * xyz 0 1
| 15>    C       11.93462       -10.77115         2.99726
| 16>    C       11.77955        -9.89905         1.99108
| 17>    C       12.74738        -8.98094         1.46447
| 18>    C       12.29622        -8.22128         0.44039
| 19>    C       10.94545        -8.47338         0.07617
| 20>    S       10.26357        -9.72276         1.09229
| 21>    C       10.21801        -7.86096        -0.92196
| 22>    C       10.63319        -6.84697        -1.81316
| 23>    C        9.66564        -6.45797        -2.69048
| 24>    C        8.43599        -7.14022        -2.54479
| 25>    S        8.54941        -8.29978        -1.24050
| 26>    C        7.30778        -6.93915        -3.31498
| 27>    C        6.08920        -7.59781        -3.21360
| 28>    S        5.77383        -8.83151        -2.02874
| 29>    C        4.15022        -9.11020        -2.59692
| 30>    C        3.85872        -8.25301        -3.68214
| 31>    C        4.94337        -7.39940        -4.02745
| 32>    C        4.80443        -6.48490        -5.08013
| 33>    C        3.61723        -6.42950        -5.76040
| 34>    F        3.46920        -5.55501        -6.77063
| 35>    C        2.54419        -7.27401        -5.41919
| 36>    F        1.39564        -7.18711        -6.11199
| 37>    C        2.65309        -8.17658        -4.39648
| 38>    C        3.32087       -10.07040        -2.01481
| 39>    C        3.66133       -10.82586        -0.92248
| 40>    C        2.85151       -11.80996        -0.34829
| 41>    S        1.31608       -12.26263        -1.02756
| 42>    C        1.01149       -13.46435         0.19030
| 43>    C        2.07319       -13.50420         1.11002
| 44>    C        3.11546       -12.57769         0.80529
| 45>    C        4.25158       -12.50257         1.62792
| 46>    C        4.33598       -13.32640         2.71490
| 47>    F        5.41497       -13.27082         3.51498
| 48>    C        3.30585       -14.24221         3.01888
| 49>    F        3.43372       -15.03053         4.10028
| 50>    C        2.19050       -14.33900         2.23753
| 51>    C       -0.15088       -14.26369         0.17063
| 52>    C       -1.09871       -14.22140        -0.79909
| 53>    C       -2.24226       -15.07202        -0.81127
| 54>    C       -3.15636       -15.13615        -1.79707
| 55>    C       -3.11058       -14.28612        -3.03001
| 56>    C       -4.28573       -16.13564        -1.73053
| 57>    N       -5.57276       -15.49879        -1.85533
| 58>    C       -6.38371       -15.61689        -2.90356
| 59>    C       -7.54903       -14.91741        -3.06416
| 60>    C       -8.40344       -15.00456        -4.17005
| 61>    C       -8.47912       -15.90659        -5.20840
| 62>    C       -9.14704       -15.45772        -6.45306
| 63>    O       -9.78891       -14.44006        -6.60892
| 64>    C       -8.82610       -16.48027        -7.47007
| 65>    C       -9.10249       -16.48695        -8.80528
| 66>    C       -8.65321       -17.56921        -9.59656
| 67>    C       -7.91971       -18.62391        -8.98139
| 68>    C       -7.46541       -19.69428        -9.77576
| 69>    C       -7.73984       -19.69998       -11.11481
| 70>    C       -8.46110       -18.67381       -11.73833
| 71>    C       -8.90837       -17.62640       -10.98144
| 72>    F       -7.30557       -20.72343       -11.87611
| 73>    C       -7.65717       -18.59328        -7.59099
| 74>    C       -8.10990       -17.53952        -6.84605
| 75>    C       -8.00840       -17.24827        -5.41391
| 76>    C       -7.73357       -18.20067        -4.45653
| 77>    C       -7.84999       -17.97746        -3.07570
| 78>    N       -7.91900       -17.82655        -1.93809
| 79>    C       -7.35314       -19.52474        -4.74198
| 80>    N       -7.01155       -20.60981        -4.90480
| 81>    H       12.87202       -10.84526         3.51962
| 82>    H       11.13574       -11.41554         3.31527
| 83>    H       13.73906        -8.93199         1.87766
| 84>    H       12.88591        -7.48276        -0.07296
| 85>    H       11.62542        -6.43436        -1.78659
| 86>    H        9.79837        -5.70025        -3.44268
| 87>    H        7.39099        -6.18803        -4.08869
| 88>    H        5.60631        -5.82399        -5.36513
| 89>    H        1.81551        -8.80974        -4.15495
| 90>    H        2.34682       -10.21813        -2.46152
| 91>    H        4.62433       -10.65482        -0.46089
| 92>    H        5.05245       -11.81242         1.41957
| 93>    H        1.42111       -15.04795         2.49478
| 94>    H       -0.26179       -14.96675         0.98517
| 95>    H       -0.96955       -13.52700        -1.61693
| 96>    H       -2.34796       -15.73450         0.03908
| 97>    H       -2.91026       -13.24560        -2.78422
| 98>    H       -4.05277       -14.33510        -3.57084
| 99>    H       -2.31828       -14.62911        -3.69641
|100>    H       -4.24738       -16.68642        -0.78566
|101>    H       -4.18497       -16.85560        -2.54944
|102>    H       -5.86182       -14.90235        -1.09320
|103>    H       -6.02900       -16.27008        -3.69015
|104>    H       -7.80564       -14.18712        -2.30866
|105>    H       -9.08915       -14.17027        -4.29153
|106>    H       -9.65539       -15.67627        -9.25568
|107>    H       -6.91049       -20.50410        -9.32824
|108>    H       -8.64747       -18.73192       -12.79898
|109>    H       -9.46623       -16.82331       -11.43929
|110>    H       -7.09432       -19.40354        -7.15537
|111> *
|112>
|113>                          ****END OF INPUT****

CARTESIAN COORDINATES (ANGSTROEM)
---------------------------------
  C     11.934620  -10.771150    2.997260
  C     11.779550   -9.899050    1.991080
  C     12.747380   -8.980940    1.464470
  C     12.296220   -8.221280    0.440390
  C     10.945450   -8.473380    0.076170
  S     10.263570   -9.722760    1.092290
  C     10.218010   -7.860960   -0.921960
  C     10.633190   -6.846970   -1.813160
  C      9.665640   -6.457970   -2.690480
  C      8.435990   -7.140220   -2.544790
  S      8.549410   -8.299780   -1.240500
  C      7.307780   -6.939150   -3.314980
  C      6.089200   -7.597810   -3.213600
  S      5.773830   -8.831510   -2.028740
  C      4.150220   -9.110200   -2.596920
  C      3.858720   -8.253010   -3.682140
  C      4.943370   -7.399400   -4.027450
  C      4.804430   -6.484900   -5.080130
  C      3.617230   -6.429500   -5.760400
  F      3.469200   -5.555010   -6.770630
  C      2.544190   -7.274010   -5.419190
  F      1.395640   -7.187110   -6.111990
  C      2.653090   -8.176580   -4.396480
  C      3.320870  -10.070400   -2.014810
  C      3.661330  -10.825860   -0.922480
  C      2.851510  -11.809960   -0.348290
  S      1.316080  -12.262630   -1.027560
  C      1.011490  -13.464350    0.190300
  C      2.073190  -13.504200    1.110020
  C      3.115460  -12.577690    0.805290
  C      4.251580  -12.502570    1.627920
  C      4.335980  -13.326400    2.714900
  F      5.414970  -13.270820    3.514980
  C      3.305850  -14.242210    3.018880
  F      3.433720  -15.030530    4.100280
  C      2.190500  -14.339000    2.237530
  C     -0.150880  -14.263690    0.170630
  C     -1.098710  -14.221400   -0.799090
  C     -2.242260  -15.072020   -0.811270
  C     -3.156360  -15.136150   -1.797070
  C     -3.110580  -14.286120   -3.030010
  C     -4.285730  -16.135640   -1.730530
  N     -5.572760  -15.498790   -1.855330
  C     -6.383710  -15.616890   -2.903560
  C     -7.549030  -14.917410   -3.064160
  C     -8.403440  -15.004560   -4.170050
  C     -8.479120  -15.906590   -5.208400
  C     -9.147040  -15.457720   -6.453060
  O     -9.788910  -14.440060   -6.608920
  C     -8.826100  -16.480270   -7.470070
  C     -9.102490  -16.486950   -8.805280
  C     -8.653210  -17.569210   -9.596560
  C     -7.919710  -18.623910   -8.981390
  C     -7.465410  -19.694280   -9.775760
  C     -7.739840  -19.699980  -11.114810
  C     -8.461100  -18.673810  -11.738330
  C     -8.908370  -17.626400  -10.981440
  F     -7.305570  -20.723430  -11.876110
  C     -7.657170  -18.593280   -7.590990
  C     -8.109900  -17.539520   -6.846050
  C     -8.008400  -17.248270   -5.413910
  C     -7.733570  -18.200670   -4.456530
  C     -7.849990  -17.977460   -3.075700
  N     -7.919000  -17.826550   -1.938090
  C     -7.353140  -19.524740   -4.741980
  N     -7.011550  -20.609810   -4.904800
  H     12.872020  -10.845260    3.519620
  H     11.135740  -11.415540    3.315270
  H     13.739060   -8.931990    1.877660
  H     12.885910   -7.482760   -0.072960
  H     11.625420   -6.434360   -1.786590
  H      9.798370   -5.700250   -3.442680
  H      7.390990   -6.188030   -4.088690
  H      5.606310   -5.823990   -5.365130
  H      1.815510   -8.809740   -4.154950
  H      2.346820  -10.218130   -2.461520
  H      4.624330  -10.654820   -0.460890
  H      5.052450  -11.812420    1.419570
  H      1.421110  -15.047950    2.494780
  H     -0.261790  -14.966750    0.985170
  H     -0.969550  -13.527000   -1.616930
  H     -2.347960  -15.734500    0.039080
  H     -2.910260  -13.245600   -2.784220
  H     -4.052770  -14.335100   -3.570840
  H     -2.318280  -14.629110   -3.696410
  H     -4.247380  -16.686420   -0.785660
  H     -4.184970  -16.855600   -2.549440
  H     -5.861820  -14.902350   -1.093200
  H     -6.029000  -16.270080   -3.690150
  H     -7.805640  -14.187120   -2.308660
  H     -9.089150  -14.170270   -4.291530
  H     -9.655390  -15.676270   -9.255680
  H     -6.910490  -20.504100   -9.328240
  H     -8.647470  -18.731920  -12.798980
  H     -9.466230  -16.823310  -11.439290
  H     -7.094320  -19.403540   -7.155370

 Total Charge           Charge          ....    0
 Multiplicity           Mult            ....    1
 Number of Electrons    NEL             ....  486
 Basis Dimension        Dim             .... 1090

ORBITAL ENERGIES
----------------

  NO   OCC          E(Eh)            E(eV)
   0   2.0000     -88.968540     -2420.9571
   1   2.0000     -88.966357     -2420.8976
   2   2.0000     -88.954534     -2420.5759
   3   2.0000     -88.947189     -2420.3761
   4   2.0000     -24.786819      -674.4836
   5   2.0000     -24.785919      -674.4591
   6   2.0000     -24.785901      -674.4586
   7   2.0000     -24.784845      -674.4299
   8   2.0000     -24.775270      -674.1694
   9   2.0000     -19.191771      -522.2346
  10   2.0000     -14.469180      -393.7264
  11   2.0000     -14.403780      -391.9468
  12   2.0000     -14.398565      -391.8049
  13   2.0000     -10.368405      -282.1387
  14   2.0000     -10.367733      -282.1204
  15   2.0000     -10.367067      -282.1022
  16   2.0000     -10.365909      -282.0707
  17   2.0000     -10.357798      -281.8500
  18   2.0000     -10.349688      -281.6293
  19   2.0000     -10.343964      -281.4736
  20   2.0000     -10.327558      -281.0271
  21   2.0000     -10.325847      -280.9806
  22   2.0000     -10.320212      -280.8272
  23   2.0000     -10.320156      -280.8257
  24   2.0000     -10.315255      -280.6924
  25   2.0000     -10.315158      -280.6897
  26   2.0000     -10.314298      -280.6663
  27   2.0000     -10.314016      -280.6587
  28   2.0000     -10.312217      -280.6097
  29   2.0000     -10.307072      -280.4697
  30   2.0000     -10.306413      -280.4518
  31   2.0000     -10.306156      -280.4448
  32   2.0000     -10.303474      -280.3718
  33   2.0000     -10.302055      -280.3332
  34   2.0000     -10.296683      -280.1870
  35   2.0000     -10.295139      -280.1450
  36   2.0000     -10.294273      -280.1214
  37   2.0000     -10.294050      -280.1153
  38   2.0000     -10.293307      -280.0951
  39   2.0000     -10.292788      -280.0810
  40   2.0000     -10.292236      -280.0660
  41   2.0000     -10.292217      -280.0655
  42   2.0000     -10.291967      -280.0587
  43   2.0000     -10.291751      -280.0528
  44   2.0000     -10.290998      -280.0323
  45   2.0000     -10.290529      -280.0195
  46   2.0000     -10.290368      -280.0152
  47   2.0000     -10.289923      -280.0030
  48   2.0000     -10.289554      -279.9930
  49   2.0000     -10.289419      -279.9893
  50   2.0000     -10.289261      -279.9850
  51   2.0000     -10.287824      -279.9459
  52   2.0000     -10.286737      -279.9164
  53   2.0000     -10.286402      -279.9072
  54   2.0000     -10.286186      -279.9014
  55   2.0000     -10.284775      -279.8630
  56   2.0000     -10.283883      -279.8387
  57   2.0000     -10.283168      -279.8192
  58   2.0000     -10.279164      -279.7103
  59   2.0000     -10.278072      -279.6806
  60   2.0000     -10.277823      -279.6738
  61   2.0000     -10.277533      -279.6659
  62   2.0000     -10.274579      -279.5855
  63   2.0000     -10.273531      -279.5570
  64   2.0000     -10.269988      -279.4606
  65   2.0000     -10.268770      -279.4274
  66   2.0000      -8.063059      -219.4070
  67   2.0000      -8.061261      -219.3581
  68   2.0000      -8.050412      -219.0629
  69   2.0000      -8.043994      -218.8882
  70   2.0000      -6.032127      -164.1425
  71   2.0000      -6.030223      -164.0907
  72   2.0000      -6.028132      -164.0338
  73   2.0000      -6.026424      -163.9873
  74   2.0000      -6.025630      -163.9657
  75   2.0000      -6.023871      -163.9179
  76   2.0000      -6.020146      -163.8165
  77   2.0000      -6.015987      -163.7033
  78   2.0000      -6.013779      -163.6433
  79   2.0000      -6.011483      -163.5808
  80   2.0000      -6.009845      -163.5362
  81   2.0000      -6.004577      -163.3928
  82   2.0000      -1.307915       -35.5902
  83   2.0000      -1.306972       -35.5645
  84   2.0000      -1.293121       -35.1876
  85   2.0000      -1.292064       -35.1589
  86   2.0000      -1.289541       -35.0902
  87   2.0000      -1.106813       -30.1179
  88   2.0000      -1.067641       -29.0520
  89   2.0000      -1.007673       -27.4202
  90   2.0000      -1.003653       -27.3108
  91   2.0000      -1.003490       -27.3063
  92   2.0000      -0.998736       -27.1770
  93   2.0000      -0.986919       -26.8554
  94   2.0000      -0.980066       -26.6690
  95   2.0000      -0.977412       -26.5967
  96   2.0000      -0.961365       -26.1601
  97   2.0000      -0.946875       -25.7658
  98   2.0000      -0.943386       -25.6708
  99   2.0000      -0.930753       -25.3271
 100   2.0000      -0.919500       -25.0209
 101   2.0000      -0.913993       -24.8710
 102   2.0000      -0.903334       -24.5810
 103   2.0000      -0.894645       -24.3445
 104   2.0000      -0.884523       -24.0691
 105   2.0000      -0.877893       -23.8887
 106   2.0000      -0.871559       -23.7163
 107   2.0000      -0.865691       -23.5566
 108   2.0000      -0.859894       -23.3989
 109   2.0000      -0.856920       -23.3180
 110   2.0000      -0.852688       -23.2028
 111   2.0000      -0.836326       -22.7576
 112   2.0000      -0.835204       -22.7271
 113   2.0000      -0.831393       -22.6233
 114   2.0000      -0.827621       -22.5207
 115   2.0000      -0.821086       -22.3429
 116   2.0000      -0.817879       -22.2556
 117   2.0000      -0.804110       -21.8809
 118   2.0000      -0.798813       -21.7368
 119   2.0000      -0.786269       -21.3955
 120   2.0000      -0.767524       -20.8854
 121   2.0000      -0.758471       -20.6391
 122   2.0000      -0.744903       -20.2698
 123   2.0000      -0.739138       -20.1130
 124   2.0000      -0.736810       -20.0496
 125   2.0000      -0.735441       -20.0124
 126   2.0000      -0.729943       -19.8627
 127   2.0000      -0.717422       -19.5220
 128   2.0000      -0.705892       -19.2083
 129   2.0000      -0.697096       -18.9690
 130   2.0000      -0.695576       -18.9276
 131   2.0000      -0.694227       -18.8909
 132   2.0000      -0.675306       -18.3760
 133   2.0000      -0.671723       -18.2785
 134   2.0000      -0.670099       -18.2343
 135   2.0000      -0.664813       -18.0905
 136   2.0000      -0.656731       -17.8706
 137   2.0000      -0.653228       -17.7752
 138   2.0000      -0.645638       -17.5687
 139   2.0000      -0.634440       -17.2640
 140   2.0000      -0.631046       -17.1716
 141   2.0000      -0.628131       -17.0923
 142   2.0000      -0.625872       -17.0308
 143   2.0000      -0.620408       -16.8822
 144   2.0000      -0.618457       -16.8291
 145   2.0000      -0.615938       -16.7605
 146   2.0000      -0.610966       -16.6252
 147   2.0000      -0.610733       -16.6189
 148   2.0000      -0.608918       -16.5695
 149   2.0000      -0.607396       -16.5281
 150   2.0000      -0.604192       -16.4409
 151   2.0000      -0.598519       -16.2865
 152   2.0000      -0.590762       -16.0755
 153   2.0000      -0.585499       -15.9322
 154   2.0000      -0.579652       -15.7731
 155   2.0000      -0.577920       -15.7260
 156   2.0000      -0.573437       -15.6040
 157   2.0000      -0.572288       -15.5728
 158   2.0000      -0.571725       -15.5574
 159   2.0000      -0.558157       -15.1882
 160   2.0000      -0.555959       -15.1284
 161   2.0000      -0.552760       -15.0414
 162   2.0000      -0.549610       -14.9556
 163   2.0000      -0.547523       -14.8989
 164   2.0000      -0.543990       -14.8027
 165   2.0000      -0.539999       -14.6941
 166   2.0000      -0.538407       -14.6508
 167   2.0000      -0.537087       -14.6149
 168   2.0000      -0.535434       -14.5699
 169   2.0000      -0.534420       -14.5423
 170   2.0000      -0.533853       -14.5269
 171   2.0000      -0.530853       -14.4452
 172   2.0000      -0.524650       -14.2765
 173   2.0000      -0.519750       -14.1431
 174   2.0000      -0.518598       -14.1118
 175   2.0000      -0.518328       -14.1044
 176   2.0000      -0.513387       -13.9700
 177   2.0000      -0.511252       -13.9119
 178   2.0000      -0.510378       -13.8881
 179   2.0000      -0.509074       -13.8526
 180   2.0000      -0.505559       -13.7570
 181   2.0000      -0.502380       -13.6704
 182   2.0000      -0.500821       -13.6280
 183   2.0000      -0.498070       -13.5532
 184   2.0000      -0.497316       -13.5327
 185   2.0000      -0.496153       -13.5010
 186   2.0000      -0.492590       -13.4040
 187   2.0000      -0.488034       -13.2801
 188   2.0000      -0.485563       -13.2128
 189   2.0000      -0.484276       -13.1778
 190   2.0000      -0.481353       -13.0983
 191   2.0000      -0.478325       -13.0159
 192   2.0000      -0.476383       -12.9630
 193   2.0000      -0.475582       -12.9412
 194   2.0000      -0.471030       -12.8174
 195   2.0000      -0.469762       -12.7829
 196   2.0000      -0.468621       -12.7518
 197   2.0000      -0.468132       -12.7385
 198   2.0000      -0.462387       -12.5822
 199   2.0000      -0.461533       -12.5589
 200   2.0000      -0.459922       -12.5151
 201   2.0000      -0.457250       -12.4424
 202   2.0000      -0.450542       -12.2599
 203   2.0000      -0.446927       -12.1615
 204   2.0000      -0.443458       -12.0671
 205   2.0000      -0.442013       -12.0278
 206   2.0000      -0.438566       -11.9340
 207   2.0000      -0.438370       -11.9286
 208   2.0000      -0.436520       -11.8783
 209   2.0000      -0.434312       -11.8182
 210   2.0000      -0.433862       -11.8060
 211   2.0000      -0.431815       -11.7503
 212   2.0000      -0.427960       -11.6454
 213   2.0000      -0.424736       -11.5576
 214   2.0000      -0.423487       -11.5237
 215   2.0000      -0.419033       -11.4025
 216   2.0000      -0.418028       -11.3751
 217   2.0000      -0.415592       -11.3088
 218   2.0000      -0.413049       -11.2396
 219   2.0000      -0.411556       -11.1990
 220   2.0000      -0.404535       -11.0080
 221   2.0000      -0.402528       -10.9534
 222   2.0000      -0.395098       -10.7512
 223   2.0000      -0.391553       -10.6547
 224   2.0000      -0.384379       -10.4595
 225   2.0000      -0.382262       -10.4019
 226   2.0000      -0.374590       -10.1931
 227   2.0000      -0.367565       -10.0020
 228   2.0000      -0.347629        -9.4595
 229   2.0000      -0.345546        -9.4028
 230   2.0000      -0.341026        -9.2798
 231   2.0000      -0.337135        -9.1739
 232   2.0000      -0.327357        -8.9078
 233   2.0000      -0.317067        -8.6278
 234   2.0000      -0.315320        -8.5803
 235   2.0000      -0.313963        -8.5434
 236   2.0000      -0.312159        -8.4943
 237   2.0000      -0.301330        -8.1996
 238   2.0000      -0.287091        -7.8122
 239   2.0000      -0.278405        -7.5758
 240   2.0000      -0.258379        -7.0309
 241   2.0000      -0.243276        -6.6199
 242   2.0000      -0.199782        -5.4363
 243   0.0000      -0.097852        -2.6627
 244   0.0000      -0.069814        -1.8997
 245   0.0000      -0.058004        -1.5784
 246   0.0000      -0.037164        -1.0113
 247   0.0000      -0.027191        -0.7399

MULLIKEN ATOMIC CHARGES
-----------------------
   0 C :   -0.022921
   1 C :   -0.067740
   2 C :    0.056879
   3 C :    0.026973
   4 C :   -0.061381
   5 S :    0.088124
   6 C :   -0.038033
   7 C :    0.033726
   8 C :    0.023487
   9 C :   -0.033944
  10 S :    0.066670
  11 C :   -0.027538
  12 C :   -0.070176
  13 S :    0.102718
  14 C :   -0.075167
  15 C :    0.135855
  16 C :    0.126414
  17 C :   -0.115031
  18 C :    0.222009
  19 F :   -0.182020
  20 C :    0.227208
  21 F :   -0.180801
  22 C :   -0.118766
  23 C :   -0.012304
  24 C :   -0.031587
  25 C :   -0.072074
  26 S :    0.112779
  27 C :   -0.091966
  28 C :    0.134963
  29 C :    0.123447
  30 C :   -0.113183
  31 C :    0.221097
  32 F :   -0.182477
  33 C :    0.228252
  34 F :   -0.181398
  35 C :   -0.118323
  36 C :    0.002270
  37 C :   -0.015343
  38 C :    0.016194
  39 C :   -0.216562
  40 C :    0.088003
  41 C :    0.209986
  42 N :   -0.114635
  43 C :    0.087315
  44 C :   -0.029013
  45 C :    0.048826
  46 C :   -0.166797
  47 C :    0.133787
  48 O :   -0.163103
  49 C :    0.021814
  50 C :   -0.092346
  51 C :    0.103168
  52 C :    0.102843
  53 C :   -0.100445
  54 C :    0.300800
  55 C :   -0.031500
  56 C :   -0.013550
  57 F :   -0.195799
  58 C :   -0.095675
  59 C :    0.031470
  60 C :    0.286760
  61 C :   -0.373443
  62 C :   -0.211051
  63 N :    0.140193
  64 C :   -0.169414
  65 N :    0.136131
  66 H :    0.024906
  67 H :    0.029041
  68 H :   -0.008020
  69 H :   -0.008201
  70 H :   -0.014648
  71 H :   -0.011191
  72 H :   -0.016888
  73 H :   -0.013036
  74 H :   -0.014903
  75 H :   -0.012057
  76 H :   -0.006651
  77 H :   -0.010345
  78 H :   -0.014052
  79 H :   -0.016018
  80 H :   -0.011020
  81 H :   -0.028568
  82 H :    0.035150
  83 H :    0.010318
  84 H :    0.036631
  85 H :    0.023741
  86 H :    0.035763
  87 H :    0.133404
  88 H :    0.039831
  89 H :   -0.016428
  90 H :    0.023736
  91 H :   -0.017106
  92 H :   -0.005872
  93 H :   -0.000352
  94 H :   -0.012463
  95 H :   -0.009352
Sum of atomic charges:   -0.0000000

LOEWDIN ATOMIC CHARGES
----------------------
   0 C :   -0.064162
   1 C :   -0.141020
   2 C :   -0.024642
   3 C :   -0.027762
   4 C :   -0.168577
   5 S :    0.359724
   6 C :   -0.185512
   7 C :   -0.034812
   8 C :   -0.036890
   9 C :   -0.151269
  10 S :    0.374708
  11 C :   -0.080171
  12 C :   -0.166126
  13 S :    0.460310
  14 C :   -0.182446
  15 C :   -0.039537
  16 C :   -0.046515
  17 C :   -0.036719
  18 C :    0.057350
  19 F :   -0.059748
  20 C :    0.062226
  21 F :   -0.058617
  22 C :   -0.040567
  23 C :   -0.042090
  24 C :   -0.061050
  25 C :   -0.161088
  26 S :    0.459662
  27 C :   -0.183510
  28 C :   -0.040034
  29 C :   -0.049294
  30 C :   -0.036208
  31 C :    0.057145
  32 F :   -0.060053
  33 C :    0.063032
  34 F :   -0.058823
  35 C :   -0.042661
  36 C :   -0.032241
  37 C :   -0.044366
  38 C :   -0.041292
  39 C :   -0.054969
  40 C :   -0.055146
  41 C :    0.050308
  42 N :    0.057250
  43 C :    0.109254
  44 C :   -0.131179
  45 C :    0.080251
  46 C :   -0.141762
  47 C :    0.078903
  48 O :   -0.164445
  49 C :   -0.055582
  50 C :    0.027357
  51 C :   -0.020492
  52 C :    0.000740
  53 C :   -0.043726
  54 C :    0.089880
  55 C :   -0.041570
  56 C :    0.002266
  57 F :   -0.069877
  58 C :    0.005082
  59 C :   -0.016822
  60 C :    0.067934
  61 C :   -0.176877
  62 C :   -0.016575
  63 N :   -0.067747
  64 C :   -0.023356
  65 N :   -0.073495
  66 H :    0.030910
  67 H :    0.029275
  68 H :    0.035081
  69 H :    0.033691
  70 H :    0.031704
  71 H :    0.033693
  72 H :    0.037971
  73 H :    0.038869
  74 H :    0.038863
  75 H :    0.025319
  76 H :    0.025190
  77 H :    0.040573
  78 H :    0.038605
  79 H :    0.032272
  80 H :    0.017419
  81 H :    0.025476
  82 H :    0.036899
  83 H :    0.027835
  84 H :    0.041175
  85 H :    0.033958
  86 H :    0.038340
  87 H :    0.091709
  88 H :    0.037760
  89 H :    0.028673
  90 H :    0.046004
  91 H :    0.037475
  92 H :    0.041709
  93 H :    0.040053
  94 H :    0.034225
  95 H :    0.037314

  Mayer bond orders larger than 0.100000
B(  0-C ,  1-C ) :   1.8569 B(  0-C , 66-H ) :   0.9514 B(  0-C , 67-H ) :   0.9421
B(  1-C ,  2-C ) :   1.0846 B(  1-C ,  5-S ) :   1.0063 B(  2-C ,  3-C ) :   1.6507
B(  2-C , 68-H ) :   0.9929 B(  3-C ,  4-C ) :   1.1599 B(  3-C , 69-H ) :   0.9931
B(  4-C ,  5-S ) :   1.0570 B(  4-C ,  6-C ) :   1.5271 B(  6-C ,  7-C ) :   1.1904
B(  6-C , 10-S ) :   1.0331 B(  7-C ,  8-C ) :   1.5732 B(  7-C , 70-H ) :   0.9922
B(  8-C ,  9-C ) :   1.1687 B(  8-C , 71-H ) :   1.0003 B(  9-C , 10-S ) :   1.0521
B(  9-C , 11-C ) :   1.4993 B( 11-C , 12-C ) :   1.2784 B( 11-C , 72-H ) :   0.9618
B( 12-C , 13-S ) :   1.1169 B( 12-C , 16-C ) :   1.2599 B( 13-S , 14-C ) :   1.1073
B( 14-C , 15-C ) :   1.2676 B( 14-C , 23-C ) :   1.2789 B( 15-C , 16-C ) :   1.2407
B( 15-C , 22-C ) :   1.1853 B( 16-C , 17-C ) :   1.1913 B( 17-C , 18-C ) :   1.4782
B( 17-C , 22-C ) :   0.1132 B( 17-C , 73-H ) :   0.9970 B( 18-C , 19-F ) :   1.1250
B( 18-C , 20-C ) :   1.1794 B( 20-C , 21-F ) :   1.1260 B( 20-C , 22-C ) :   1.4801
B( 22-C , 74-H ) :   0.9986 B( 23-C , 24-C ) :   1.5233 B( 23-C , 75-H ) :   0.9631
B( 24-C , 25-C ) :   1.2592 B( 24-C , 76-H ) :   0.9638 B( 25-C , 26-S ) :   1.1293
B( 25-C , 29-C ) :   1.2965 B( 26-S , 27-C ) :   1.1120 B( 27-C , 28-C ) :   1.3286
B( 27-C , 36-C ) :   1.1795 B( 28-C , 29-C ) :   1.2128 B( 28-C , 35-C ) :   1.1624
B( 29-C , 30-C ) :   1.1738 B( 30-C , 31-C ) :   1.4989 B( 30-C , 35-C ) :   0.1133
B( 30-C , 77-H ) :   0.9986 B( 31-C , 32-F ) :   1.1231 B( 31-C , 33-C ) :   1.1593
B( 33-C , 34-F ) :   1.1248 B( 33-C , 35-C ) :   1.5044 B( 35-C , 78-H ) :   0.9986
B( 36-C , 37-C ) :   1.6407 B( 36-C , 79-H ) :   0.9753 B( 37-C , 38-C ) :   1.1259
B( 37-C , 80-H ) :   0.9692 B( 38-C , 39-C ) :   1.7470 B( 38-C , 81-H ) :   0.9785
B( 39-C , 40-C ) :   1.0676 B( 39-C , 41-C ) :   1.0525 B( 40-C , 82-H ) :   0.9465
B( 40-C , 83-H ) :   0.9528 B( 40-C , 84-H ) :   0.9455 B( 41-C , 42-N ) :   0.9688
B( 41-C , 85-H ) :   0.9386 B( 41-C , 86-H ) :   0.9281 B( 42-N , 43-C ) :   1.3734
B( 42-N , 87-H ) :   0.9342 B( 43-C , 44-C ) :   1.4136 B( 43-C , 88-H ) :   0.9524
B( 44-C , 45-C ) :   1.3475 B( 44-C , 89-H ) :   0.9566 B( 45-C , 46-C ) :   1.4802
B( 45-C , 90-H ) :   0.9294 B( 46-C , 47-C ) :   0.9768 B( 46-C , 60-C ) :   1.1106
B( 47-C , 48-O ) :   2.2438 B( 47-C , 49-C ) :   0.9132 B( 49-C , 50-C ) :   1.4801
B( 49-C , 59-C ) :   1.2223 B( 50-C , 51-C ) :   1.1790 B( 50-C , 91-H ) :   1.0158
B( 51-C , 52-C ) :   1.2639 B( 51-C , 56-C ) :   1.2384 B( 52-C , 53-C ) :   1.2039
B( 52-C , 58-C ) :   1.1953 B( 53-C , 54-C ) :   1.4387 B( 53-C , 92-H ) :   1.0065
B( 54-C , 55-C ) :   1.2594 B( 54-C , 57-F ) :   1.0830 B( 55-C , 56-C ) :   1.4555
B( 55-C , 93-H ) :   0.9928 B( 56-C , 94-H ) :   0.9967 B( 58-C , 59-C ) :   1.4674
B( 58-C , 95-H ) :   0.9941 B( 59-C , 60-C ) :   0.9879 B( 60-C , 61-C ) :   1.5698
B( 61-C , 62-C ) :   1.1846 B( 61-C , 64-C ) :   1.1310 B( 62-C , 63-N ) :   2.9659
B( 64-C , 65-N ) :   2.9769

-----------------------------------------------------------------------------
         ABSORPTION SPECTRUM VIA TRANSITION ELECTRIC DIPOLE MOMENTS
-----------------------------------------------------------------------------
State   Energy  Wavelength   fosc         T2         TX        TY        TZ
        (cm-1)    (nm)                  (au**2)     (au)      (au)      (au)
-----------------------------------------------------------------------------
   0    9590.6   1042.7   0.928540175  31.87356  -5.11355  -2.34459  -0.47758
   1   16277.9    614.3   0.015957875   0.32274  -0.04917   0.45108  -0.34184
   2   19179.6    521.4   0.549624743   9.43415   0.20226   2.65879  -1.52450
   3   20170.3    495.8   0.228743022   3.73345   0.62391  -0.81146   1.63882
   4   22006.1    454.4   0.067749284   1.01353  -0.04574   1.00569   0.00504
   5   22292.9    448.6   0.370097469   5.46545  -1.01583  -0.89204  -1.90730
   6   25667.5    389.6   0.344472315   4.41821   0.96975  -0.99780   1.57550
   7   26504.6    377.3   0.006303514   0.07830  -0.23680   0.08353  -0.12347
   8   27441.7    364.4   0.308998860   3.70699   0.55448  -1.03034   1.52903
   9   27691.0    361.1   0.264505078   3.14463  -1.11268   0.18910  -1.36778
  10   28876.0    346.3   0.042448688   0.48395   0.53964   0.14428   0.41464
  11   28961.8    345.3   0.101441683   1.15310  -0.86568  -0.16767  -0.61284
  12   29336.8    340.9   0.069783598   0.78310   0.04582  -0.46857  -0.74929
  13   29601.6    337.8   0.008311642   0.09244   0.08196  -0.28176   0.07958
  14   29625.9    337.5   0.010117146   0.11242  -0.10795   0.07669  -0.30804
  15   30042.7    332.9   0.104842491   1.14888  -0.57769   0.36531  -0.82565
  16   30200.0    331.1   0.072933816   0.79506  -0.04857  -0.58051   0.67506
  17   31115.1    321.4   0.176284615   1.86517   0.53082  -0.02341   1.25812
  18   31519.2    317.3   0.003904614   0.04078   0.03527   0.18974  -0.05947
  19   32162.2    310.9   0.007909562   0.08096  -0.04922   0.21351   0.18153
  20   32595.6    306.8   0.622870605   6.29092   0.80871  -0.19763   2.36598
  21   32714.2    305.7   0.036032433   0.36260  -0.43981   0.30090  -0.28041
  22   33146.0    301.7   0.219615270   2.18126   0.88924  -0.36929   1.11989
  23   33472.3    298.8   0.276225570   2.71678  -1.48823  -0.31038  -0.63688
  24   33758.3    296.2   0.091966010   0.89685  -0.19434   0.46317  -0.80284
  25   34099.5    293.3   0.180827999   1.74579   0.74822  -0.41919   1.00511
  26   34647.9    288.6   0.013413480   0.12745  -0.29660   0.19661   0.02875
  27   34756.2    287.7   0.127463715   1.20734  -0.52693   0.10425  -0.95855
  28   34923.9    286.3   0.031354635   0.29557   0.13528  -0.16697  -0.49939
  29   35710.6    280.0   0.701040790   6.46282  -0.37004  -0.15052  -2.51062
  30   36304.3    275.4   0.096309559   0.87335   0.78082  -0.10511   0.50261
  31   36958.7    270.6   0.001050753   0.00936  -0.00178  -0.08212   0.05112
  32   37234.0    268.6   0.160847638   1.42217  -0.00335   0.77587  -0.90564
  33   37402.2    267.4   0.011732029   0.10326  -0.31719   0.05110  -0.00642
  34   37633.4    265.7   0.018002731   0.15749  -0.25805  -0.03036  -0.29995
  35   37711.8    265.2   0.008741008   0.07631   0.16694   0.15387  -0.15737
  36   37836.9    264.3   0.052730027   0.45879  -0.46328  -0.34898   0.34982
  37   37909.3    263.8   0.019510484   0.16943  -0.34203  -0.14787  -0.17488
  38   38991.3    256.5   0.025378060   0.21427   0.42004   0.13601   0.13907
  39   39704.9    251.9   0.001344540   0.01115  -0.07131   0.07386  -0.02467
  40   39956.3    250.3   0.136630099   1.12574   0.34354  -0.97474  -0.23999
  41   40201.5    248.7   0.005142221   0.04211  -0.09530  -0.13854   0.11762

FINAL SINGLE POINT ENERGY     -4365.107018689150

DIPOLE MOMENT
-------------
                                X             Y             Z
Electronic contribution:     16.11809      12.14560      -4.81644
Nuclear contribution   :    -12.06087      -9.48981       5.42124
                        -----------------------------------------
Total Dipole Moment    :      4.05722       2.65579       0.60480
                        -----------------------------------------
Magnitude (a.u.)       :      4.88672
Magnitude (Debye)      :     12.42106

Rotational constants in cm-1:     0.001350     0.000246     0.000222
Rotational constants in MHz :    40.476330     7.387263     6.668841

                             ****ORCA TERMINATED NORMALLY****
TOTAL RUN TIME: 0 days 0 hours 9 minutes 2 seconds 338 msec
