                         Program Version 4.2.0 -  RELEASE  -
|  1> # ORCA input file
|  2> # SCF done       -152.481526209146          0.000277240903
|  3> ! CAM-B3LYP def2-SVP def2/J RIJCOSX Grid4 TightSCF
|  4> %maxcore 5000
|  5> %tddft
|  6>     Mode sTDDFT
|  7>     Ethresh 5.0
|  8>     maxcore 5000
|  9> end
| 10>
| 11> %pal
| 12>   nprocs 6
| 13>   end
| 14> * xyz 0 1
| 15>    C        0.21186         0.39160         7.62859
| 16>    C        1.03144        -0.48822         8.21885
| 17>    C        1.76997        -0.32709         9.43830
| 18>    C        2.51945        -1.39548         9.78628
| 19>    C        2.45303        -2.48676         8.87552
| 20>    S        1.36371        -2.09572         7.55440
| 21>    C        3.12275        -3.67849         8.96541
| 22>    C        3.97647        -4.10776        10.01259
| 23>    C        4.51532        -5.33702         9.82186
| 24>    C        4.13273        -5.97908         8.61298
| 25>    S        3.03243        -4.92624         7.72886
| 26>    C        4.57108        -7.21075         8.22269
| 27>    C        4.27887        -7.97832         7.07820
| 28>    N        4.92273        -9.19090         6.90637
| 29>    C        4.56556        -9.81866         5.76353
| 30>    C        3.63864        -9.00762         5.13447
| 31>    C        3.44959        -7.85901         5.95538
| 32>    N        2.52407        -7.06207         5.35871
| 33>    C        2.13655        -7.64826         4.18060
| 34>    C        2.79385        -8.83861         3.99521
| 35>    N        2.71361        -9.70559         2.89446
| 36>    C        3.80018       -10.38200         2.44572
| 37>    S        3.66401       -11.98622         1.79981
| 38>    C        5.39616       -12.05530         1.62570
| 39>    N        5.94582       -13.20043         1.07015
| 40>    O        7.16221       -13.25512         0.95780
| 41>    O        5.16906       -14.08575         0.73386
| 42>    C        6.02430       -10.90757         2.05001
| 43>    C        5.12775        -9.93232         2.49572
| 44>    C        5.42622        -8.58674         2.93266
| 45>    C        6.42241        -8.20962         3.74953
| 46>    C        6.44899        -6.89704         4.31952
| 47>    C        5.76689        -5.77234         3.90879
| 48>    C        5.80955        -4.72407         4.82441
| 49>    C        6.53183        -5.05021         5.96239
| 50>    S        7.20081        -6.63747         5.87532
| 51>    C        6.54882        -4.10449         7.01746
| 52>    C        5.81796        -2.93612         6.85339
| 53>   Ge        5.10892        -2.89724         5.01558
| 54>    C        6.14075        -1.60356         3.91781
| 55>    C        3.16348        -2.71597         4.68772
| 56>    C        5.85380        -2.12801         7.98743
| 57>    C        6.59929        -2.66106         9.01805
| 58>    S        7.29912        -4.19761         8.56883
| 59>    C        6.80144        -2.13077        10.31882
| 60>    C        7.58515        -2.63132        11.33636
| 61>    C        7.53788        -1.86605        12.50259
| 62>    C        6.70132        -0.76941        12.37442
| 63>    S        5.97372        -0.67212        10.81275
| 64>    C        6.55931         0.09297        13.49607
| 65>    C        7.27326        -0.21141        14.64064
| 66>   Ge        8.32586        -1.84163        14.30856
| 67>    C        7.80385        -3.39193        15.43415
| 68>    C       10.28646        -1.53497        14.30078
| 69>    C        7.03802         0.72151        15.66533
| 70>    C        6.16693         1.70014        15.29706
| 71>    S        5.60123         1.51615        13.67933
| 72>    H        0.03720         1.35746         8.06834
| 73>    H       -0.29589         0.16481         6.70916
| 74>    H        1.70652         0.58730        10.00097
| 75>    H        3.13700        -1.43740        10.66558
| 76>    H        4.16343        -3.49315        10.87456
| 77>    H        5.18889        -5.81620        10.51089
| 78>    H        5.27547        -7.67554         8.90364
| 79>    H        5.60477        -9.54039         7.55970
| 80>    H        4.98344       -10.76332         5.48095
| 81>    H        2.18348        -6.18376         5.71102
| 82>    H        1.40521        -7.17949         3.55168
| 83>    H        1.80459       -10.06879         2.64508
| 84>    H        7.08948       -10.77748         1.99091
| 85>    H        4.68649        -7.85278         2.64786
| 86>    H        7.14816        -8.92520         4.10897
| 87>    H        5.25380        -5.71123         2.96537
| 88>    H        7.20693        -1.74882         4.06147
| 89>    H        5.88839        -0.58578         4.19935
| 90>    H        5.91076        -1.73680         2.86537
| 91>    H        2.84007        -1.70417         4.90835
| 92>    H        2.59219        -3.40074         5.30311
| 93>    H        2.96068        -2.92276         3.64114
| 94>    H        5.34142        -1.18503         8.07657
| 95>    H        8.17198        -3.52653        11.22014
| 96>    H        6.72692        -3.52667        15.42156
| 97>    H        8.12313        -3.23389        16.45956
| 98>    H        8.27332        -4.29753        15.06236
| 99>    H       10.53288        -0.68738        13.66922
|100>    H       10.80202        -2.41233        13.92288
|101>    H       10.63932        -1.33342        15.30737
|102>    H        7.49524         0.67137        16.63835
|103>    H        5.81314         2.53034        15.87654
|104> *
|105>
|106>                          ****END OF INPUT****

CARTESIAN COORDINATES (ANGSTROEM)
---------------------------------
  C      0.211860    0.391600    7.628590
  C      1.031440   -0.488220    8.218850
  C      1.769970   -0.327090    9.438300
  C      2.519450   -1.395480    9.786280
  C      2.453030   -2.486760    8.875520
  S      1.363710   -2.095720    7.554400
  C      3.122750   -3.678490    8.965410
  C      3.976470   -4.107760   10.012590
  C      4.515320   -5.337020    9.821860
  C      4.132730   -5.979080    8.612980
  S      3.032430   -4.926240    7.728860
  C      4.571080   -7.210750    8.222690
  C      4.278870   -7.978320    7.078200
  N      4.922730   -9.190900    6.906370
  C      4.565560   -9.818660    5.763530
  C      3.638640   -9.007620    5.134470
  C      3.449590   -7.859010    5.955380
  N      2.524070   -7.062070    5.358710
  C      2.136550   -7.648260    4.180600
  C      2.793850   -8.838610    3.995210
  N      2.713610   -9.705590    2.894460
  C      3.800180  -10.382000    2.445720
  S      3.664010  -11.986220    1.799810
  C      5.396160  -12.055300    1.625700
  N      5.945820  -13.200430    1.070150
  O      7.162210  -13.255120    0.957800
  O      5.169060  -14.085750    0.733860
  C      6.024300  -10.907570    2.050010
  C      5.127750   -9.932320    2.495720
  C      5.426220   -8.586740    2.932660
  C      6.422410   -8.209620    3.749530
  C      6.448990   -6.897040    4.319520
  C      5.766890   -5.772340    3.908790
  C      5.809550   -4.724070    4.824410
  C      6.531830   -5.050210    5.962390
  S      7.200810   -6.637470    5.875320
  C      6.548820   -4.104490    7.017460
  C      5.817960   -2.936120    6.853390
  Ge     5.108920   -2.897240    5.015580
  C      6.140750   -1.603560    3.917810
  C      3.163480   -2.715970    4.687720
  C      5.853800   -2.128010    7.987430
  C      6.599290   -2.661060    9.018050
  S      7.299120   -4.197610    8.568830
  C      6.801440   -2.130770   10.318820
  C      7.585150   -2.631320   11.336360
  C      7.537880   -1.866050   12.502590
  C      6.701320   -0.769410   12.374420
  S      5.973720   -0.672120   10.812750
  C      6.559310    0.092970   13.496070
  C      7.273260   -0.211410   14.640640
  Ge     8.325860   -1.841630   14.308560
  C      7.803850   -3.391930   15.434150
  C     10.286460   -1.534970   14.300780
  C      7.038020    0.721510   15.665330
  C      6.166930    1.700140   15.297060
  S      5.601230    1.516150   13.679330
  H      0.037200    1.357460    8.068340
  H     -0.295890    0.164810    6.709160
  H      1.706520    0.587300   10.000970
  H      3.137000   -1.437400   10.665580
  H      4.163430   -3.493150   10.874560
  H      5.188890   -5.816200   10.510890
  H      5.275470   -7.675540    8.903640
  H      5.604770   -9.540390    7.559700
  H      4.983440  -10.763320    5.480950
  H      2.183480   -6.183760    5.711020
  H      1.405210   -7.179490    3.551680
  H      1.804590  -10.068790    2.645080
  H      7.089480  -10.777480    1.990910
  H      4.686490   -7.852780    2.647860
  H      7.148160   -8.925200    4.108970
  H      5.253800   -5.711230    2.965370
  H      7.206930   -1.748820    4.061470
  H      5.888390   -0.585780    4.199350
  H      5.910760   -1.736800    2.865370
  H      2.840070   -1.704170    4.908350
  H      2.592190   -3.400740    5.303110
  H      2.960680   -2.922760    3.641140
  H      5.341420   -1.185030    8.076570
  H      8.171980   -3.526530   11.220140
  H      6.726920   -3.526670   15.421560
  H      8.123130   -3.233890   16.459560
  H      8.273320   -4.297530   15.062360
  H     10.532880   -0.687380   13.669220
  H     10.802020   -2.412330   13.922880
  H     10.639320   -1.333420   15.307370
  H      7.495240    0.671370   16.638350
  H      5.813140    2.530340   15.876540

 Total Charge           Charge          ....    0
 Multiplicity           Mult            ....    1
 Number of Electrons    NEL             ....  504
 Basis Dimension        Dim             .... 1022

ORBITAL ENERGIES
----------------

  NO   OCC          E(Eh)            E(eV)
   0   2.0000    -398.766762    -10850.9952
   1   2.0000    -398.760877    -10850.8351
   2   2.0000     -88.966189     -2420.8931
   3   2.0000     -88.954319     -2420.5701
   4   2.0000     -88.950409     -2420.4637
   5   2.0000     -88.949177     -2420.4302
   6   2.0000     -88.948839     -2420.4210
   7   2.0000     -88.941290     -2420.2155
   8   2.0000     -88.928864     -2419.8774
   9   2.0000     -49.826304     -1355.8427
  10   2.0000     -49.820403     -1355.6821
  11   2.0000     -44.363506     -1207.1924
  12   2.0000     -44.362783     -1207.1727
  13   2.0000     -44.362485     -1207.1646
  14   2.0000     -44.357609     -1207.0319
  15   2.0000     -44.356891     -1207.0124
  16   2.0000     -44.356609     -1207.0047
  17   2.0000     -19.215209      -522.8724
  18   2.0000     -19.214393      -522.8502
  19   2.0000     -14.627359      -398.0307
  20   2.0000     -14.464498      -393.5990
  21   2.0000     -14.456059      -393.3694
  22   2.0000     -14.452588      -393.2749
  23   2.0000     -10.351020      -281.6656
  24   2.0000     -10.321130      -280.8522
  25   2.0000     -10.301983      -280.3312
  26   2.0000     -10.301807      -280.3264
  27   2.0000     -10.301130      -280.3080
  28   2.0000     -10.298636      -280.2401
  29   2.0000     -10.298500      -280.2364
  30   2.0000     -10.298029      -280.2236
  31   2.0000     -10.296654      -280.1862
  32   2.0000     -10.295311      -280.1496
  33   2.0000     -10.294261      -280.1211
  34   2.0000     -10.294234      -280.1203
  35   2.0000     -10.293725      -280.1065
  36   2.0000     -10.293404      -280.0978
  37   2.0000     -10.293195      -280.0921
  38   2.0000     -10.292716      -280.0790
  39   2.0000     -10.292571      -280.0751
  40   2.0000     -10.290938      -280.0306
  41   2.0000     -10.288461      -279.9633
  42   2.0000     -10.283434      -279.8265
  43   2.0000     -10.283419      -279.8261
  44   2.0000     -10.277962      -279.6776
  45   2.0000     -10.276725      -279.6439
  46   2.0000     -10.274454      -279.5821
  47   2.0000     -10.272373      -279.5255
  48   2.0000     -10.270277      -279.4684
  49   2.0000     -10.269640      -279.4511
  50   2.0000     -10.268287      -279.4143
  51   2.0000     -10.268090      -279.4089
  52   2.0000     -10.266287      -279.3599
  53   2.0000     -10.264314      -279.3062
  54   2.0000     -10.260648      -279.2064
  55   2.0000     -10.258134      -279.1380
  56   2.0000     -10.256789      -279.1014
  57   2.0000     -10.256557      -279.0951
  58   2.0000     -10.255432      -279.0645
  59   2.0000     -10.254520      -279.0397
  60   2.0000     -10.252602      -278.9875
  61   2.0000     -10.251319      -278.9526
  62   2.0000     -10.251232      -278.9502
  63   2.0000     -10.249222      -278.8955
  64   2.0000     -10.248379      -278.8726
  65   2.0000      -8.062045      -219.3794
  66   2.0000      -8.049309      -219.0328
  67   2.0000      -8.046192      -218.9480
  68   2.0000      -8.043845      -218.8841
  69   2.0000      -8.043702      -218.8803
  70   2.0000      -8.036013      -218.6710
  71   2.0000      -8.025231      -218.3776
  72   2.0000      -6.286212      -171.0565
  73   2.0000      -6.280212      -170.8933
  74   2.0000      -6.031670      -164.1301
  75   2.0000      -6.027416      -164.0143
  76   2.0000      -6.023414      -163.9054
  77   2.0000      -6.018580      -163.7739
  78   2.0000      -6.015423      -163.6880
  79   2.0000      -6.014612      -163.6659
  80   2.0000      -6.013164      -163.6265
  81   2.0000      -6.012909      -163.6196
  82   2.0000      -6.011392      -163.5783
  83   2.0000      -6.011205      -163.5732
  84   2.0000      -6.009250      -163.5200
  85   2.0000      -6.009067      -163.5150
  86   2.0000      -6.008546      -163.5009
  87   2.0000      -6.005910      -163.4291
  88   2.0000      -6.005897      -163.4288
  89   2.0000      -6.005875      -163.4282
  90   2.0000      -6.002067      -163.3246
  91   2.0000      -5.996883      -163.1835
  92   2.0000      -5.995080      -163.1344
  93   2.0000      -5.991184      -163.0284
  94   2.0000      -5.985782      -162.8814
  95   2.0000      -4.462369      -121.4272
  96   2.0000      -4.461362      -121.3998
  97   2.0000      -4.460445      -121.3749
  98   2.0000      -4.456471      -121.2667
  99   2.0000      -4.455231      -121.2330
 100   2.0000      -4.454473      -121.2124
 101   2.0000      -1.293710       -35.2036
 102   2.0000      -1.286405       -35.0049
 103   2.0000      -1.284499       -34.9530
 104   2.0000      -1.284239       -34.9459
 105   2.0000      -1.283243       -34.9188
 106   2.0000      -1.282716       -34.9045
 107   2.0000      -1.280437       -34.8425
 108   2.0000      -1.278568       -34.7916
 109   2.0000      -1.278267       -34.7834
 110   2.0000      -1.277133       -34.7526
 111   2.0000      -1.276757       -34.7423
 112   2.0000      -1.111993       -30.2589
 113   2.0000      -1.088241       -29.6125
 114   2.0000      -1.063541       -28.9404
 115   2.0000      -1.050588       -28.5880
 116   2.0000      -0.991303       -26.9747
 117   2.0000      -0.982810       -26.7436
 118   2.0000      -0.981181       -26.6993
 119   2.0000      -0.979715       -26.6594
 120   2.0000      -0.966318       -26.2948
 121   2.0000      -0.957989       -26.0682
 122   2.0000      -0.952243       -25.9119
 123   2.0000      -0.900889       -24.5144
 124   2.0000      -0.889636       -24.2082
 125   2.0000      -0.879357       -23.9285
 126   2.0000      -0.874511       -23.7966
 127   2.0000      -0.860831       -23.4244
 128   2.0000      -0.853883       -23.2353
 129   2.0000      -0.849228       -23.1087
 130   2.0000      -0.835353       -22.7311
 131   2.0000      -0.833225       -22.6732
 132   2.0000      -0.829220       -22.5642
 133   2.0000      -0.825313       -22.4579
 134   2.0000      -0.823534       -22.4095
 135   2.0000      -0.814995       -22.1771
 136   2.0000      -0.812897       -22.1200
 137   2.0000      -0.805233       -21.9115
 138   2.0000      -0.802055       -21.8250
 139   2.0000      -0.787488       -21.4286
 140   2.0000      -0.784440       -21.3457
 141   2.0000      -0.779582       -21.2135
 142   2.0000      -0.765826       -20.8392
 143   2.0000      -0.763062       -20.7640
 144   2.0000      -0.761572       -20.7234
 145   2.0000      -0.755837       -20.5674
 146   2.0000      -0.737042       -20.0559
 147   2.0000      -0.725970       -19.7547
 148   2.0000      -0.712330       -19.3835
 149   2.0000      -0.708209       -19.2713
 150   2.0000      -0.694321       -18.8934
 151   2.0000      -0.674968       -18.3668
 152   2.0000      -0.669424       -18.2160
 153   2.0000      -0.668935       -18.2026
 154   2.0000      -0.663309       -18.0496
 155   2.0000      -0.651670       -17.7328
 156   2.0000      -0.641622       -17.4594
 157   2.0000      -0.633606       -17.2413
 158   2.0000      -0.629275       -17.1234
 159   2.0000      -0.620482       -16.8842
 160   2.0000      -0.612842       -16.6763
 161   2.0000      -0.610776       -16.6201
 162   2.0000      -0.608885       -16.5686
 163   2.0000      -0.607770       -16.5383
 164   2.0000      -0.604196       -16.4410
 165   2.0000      -0.603673       -16.4268
 166   2.0000      -0.596175       -16.2228
 167   2.0000      -0.594736       -16.1836
 168   2.0000      -0.591044       -16.0831
 169   2.0000      -0.588678       -16.0188
 170   2.0000      -0.582848       -15.8601
 171   2.0000      -0.575333       -15.6556
 172   2.0000      -0.573310       -15.6006
 173   2.0000      -0.562724       -15.3125
 174   2.0000      -0.561147       -15.2696
 175   2.0000      -0.549354       -14.9487
 176   2.0000      -0.547217       -14.8905
 177   2.0000      -0.537054       -14.6140
 178   2.0000      -0.536023       -14.5859
 179   2.0000      -0.533283       -14.5114
 180   2.0000      -0.532296       -14.4845
 181   2.0000      -0.521506       -14.1909
 182   2.0000      -0.519325       -14.1316
 183   2.0000      -0.515286       -14.0217
 184   2.0000      -0.509312       -13.8591
 185   2.0000      -0.504187       -13.7196
 186   2.0000      -0.498829       -13.5738
 187   2.0000      -0.497753       -13.5445
 188   2.0000      -0.494039       -13.4435
 189   2.0000      -0.491180       -13.3657
 190   2.0000      -0.490682       -13.3521
 191   2.0000      -0.485117       -13.2007
 192   2.0000      -0.484062       -13.1720
 193   2.0000      -0.482716       -13.1354
 194   2.0000      -0.481644       -13.1062
 195   2.0000      -0.477800       -13.0016
 196   2.0000      -0.476564       -12.9680
 197   2.0000      -0.474836       -12.9210
 198   2.0000      -0.472666       -12.8619
 199   2.0000      -0.472537       -12.8584
 200   2.0000      -0.470597       -12.8056
 201   2.0000      -0.470050       -12.7907
 202   2.0000      -0.468939       -12.7605
 203   2.0000      -0.468079       -12.7371
 204   2.0000      -0.465602       -12.6697
 205   2.0000      -0.463319       -12.6076
 206   2.0000      -0.457626       -12.4526
 207   2.0000      -0.454488       -12.3672
 208   2.0000      -0.453371       -12.3369
 209   2.0000      -0.448788       -12.2121
 210   2.0000      -0.448401       -12.2016
 211   2.0000      -0.445104       -12.1119
 212   2.0000      -0.439975       -11.9723
 213   2.0000      -0.437121       -11.8947
 214   2.0000      -0.435397       -11.8478
 215   2.0000      -0.431290       -11.7360
 216   2.0000      -0.430276       -11.7084
 217   2.0000      -0.424825       -11.5601
 218   2.0000      -0.419807       -11.4235
 219   2.0000      -0.416896       -11.3443
 220   2.0000      -0.411275       -11.1914
 221   2.0000      -0.408015       -11.1027
 222   2.0000      -0.404984       -11.0202
 223   2.0000      -0.394524       -10.7355
 224   2.0000      -0.392384       -10.6773
 225   2.0000      -0.384279       -10.4568
 226   2.0000      -0.377390       -10.2693
 227   2.0000      -0.368779       -10.0350
 228   2.0000      -0.368050       -10.0152
 229   2.0000      -0.365277        -9.9397
 230   2.0000      -0.364478        -9.9179
 231   2.0000      -0.359897        -9.7933
 232   2.0000      -0.358777        -9.7628
 233   2.0000      -0.356851        -9.7104
 234   2.0000      -0.352408        -9.5895
 235   2.0000      -0.343966        -9.3598
 236   2.0000      -0.341780        -9.3003
 237   2.0000      -0.334130        -9.0922
 238   2.0000      -0.329929        -8.9778
 239   2.0000      -0.326810        -8.8929
 240   2.0000      -0.319946        -8.7062
 241   2.0000      -0.315053        -8.5730
 242   2.0000      -0.313042        -8.5183
 243   2.0000      -0.310452        -8.4478
 244   2.0000      -0.304442        -8.2843
 245   2.0000      -0.296193        -8.0598
 246   2.0000      -0.292813        -7.9678
 247   2.0000      -0.275005        -7.4833
 248   2.0000      -0.259520        -7.0619
 249   2.0000      -0.243264        -6.6196
 250   2.0000      -0.214723        -5.8429
 251   2.0000      -0.197582        -5.3765
 252   0.0000      -0.049135        -1.3370
 253   0.0000      -0.041875        -1.1395
 254   0.0000      -0.036575        -0.9952
 255   0.0000      -0.010422        -0.2836
 256   0.0000       0.014796         0.4026

MULLIKEN ATOMIC CHARGES
-----------------------
   0 C :   -0.042084
   1 C :   -0.055360
   2 C :    0.040847
   3 C :    0.030207
   4 C :   -0.082035
   5 S :    0.043751
   6 C :   -0.024503
   7 C :    0.050330
   8 C :    0.042151
   9 C :   -0.050204
  10 S :    0.004197
  11 C :   -0.023224
  12 C :   -0.001169
  13 N :   -0.042207
  14 C :   -0.051440
  15 C :    0.075666
  16 C :    0.056202
  17 N :   -0.033046
  18 C :   -0.016173
  19 C :    0.016753
  20 N :   -0.028554
  21 C :   -0.096613
  22 S :    0.152842
  23 C :   -0.031547
  24 N :    0.283119
  25 O :   -0.270869
  26 O :   -0.284251
  27 C :    0.002143
  28 C :    0.030431
  29 C :    0.012733
  30 C :    0.087322
  31 C :   -0.092690
  32 C :   -0.026049
  33 C :   -0.091998
  34 C :   -0.097322
  35 S :    0.112823
  36 C :   -0.073737
  37 C :   -0.087568
  38 Ge:    0.429220
  39 C :   -0.176289
  40 C :   -0.171597
  41 C :   -0.045667
  42 C :   -0.026284
  43 S :    0.103817
  44 C :   -0.048181
  45 C :   -0.070192
  46 C :   -0.087879
  47 C :   -0.084663
  48 S :    0.124372
  49 C :   -0.124124
  50 C :   -0.106386
  51 Ge:    0.446380
  52 C :   -0.195104
  53 C :   -0.191864
  54 C :    0.020921
  55 C :   -0.080855
  56 S :    0.124833
  57 H :    0.013154
  58 H :    0.012026
  59 H :   -0.017941
  60 H :   -0.014691
  61 H :   -0.011474
  62 H :   -0.022722
  63 H :   -0.044881
  64 H :    0.120240
  65 H :   -0.002069
  66 H :    0.129514
  67 H :   -0.023319
  68 H :    0.136355
  69 H :    0.004332
  70 H :    0.009620
  71 H :   -0.030271
  72 H :   -0.025253
  73 H :    0.053077
  74 H :    0.040421
  75 H :    0.038393
  76 H :    0.050019
  77 H :    0.035196
  78 H :    0.032974
  79 H :   -0.016373
  80 H :   -0.024816
  81 H :    0.054575
  82 H :    0.042833
  83 H :    0.040986
  84 H :    0.055848
  85 H :    0.041737
  86 H :    0.041715
  87 H :   -0.019195
  88 H :    0.020658
Sum of atomic charges:   -0.0000000

LOEWDIN ATOMIC CHARGES
----------------------
   0 C :   -0.097751
   1 C :   -0.137597
   2 C :   -0.047085
   3 C :   -0.025857
   4 C :   -0.196711
   5 S :    0.347651
   6 C :   -0.162586
   7 C :   -0.045269
   8 C :   -0.030499
   9 C :   -0.170407
  10 S :    0.362736
  11 C :   -0.058863
  12 C :   -0.066890
  13 N :    0.110530
  14 C :   -0.010219
  15 C :   -0.085758
  16 C :   -0.009807
  17 N :    0.068093
  18 C :   -0.009976
  19 C :   -0.053853
  20 N :    0.008768
  21 C :   -0.098628
  22 S :    0.435092
  23 C :   -0.226051
  24 N :    0.274714
  25 O :   -0.236428
  26 O :   -0.249688
  27 C :    0.001160
  28 C :   -0.112577
  29 C :   -0.014189
  30 C :   -0.042138
  31 C :   -0.170002
  32 C :   -0.058468
  33 C :   -0.165277
  34 C :   -0.193522
  35 S :    0.424289
  36 C :   -0.185841
  37 C :   -0.166513
  38 Ge:    0.504446
  39 C :   -0.200083
  40 C :   -0.206459
  41 C :   -0.058082
  42 C :   -0.188475
  43 S :    0.430859
  44 C :   -0.182474
  45 C :   -0.073162
  46 C :   -0.169939
  47 C :   -0.196314
  48 S :    0.435250
  49 C :   -0.197137
  50 C :   -0.178015
  51 Ge:    0.513372
  52 C :   -0.203476
  53 C :   -0.201782
  54 C :   -0.063837
  55 C :   -0.192089
  56 S :    0.423982
  57 H :    0.025922
  58 H :    0.021895
  59 H :    0.031191
  60 H :    0.022812
  61 H :    0.030763
  62 H :    0.027600
  63 H :    0.031228
  64 H :    0.089033
  65 H :    0.021823
  66 H :    0.066494
  67 H :    0.020455
  68 H :    0.086855
  69 H :    0.044086
  70 H :    0.030008
  71 H :    0.020765
  72 H :    0.025081
  73 H :    0.039638
  74 H :    0.034106
  75 H :    0.033161
  76 H :    0.033012
  77 H :    0.015237
  78 H :    0.032862
  79 H :    0.024490
  80 H :    0.021707
  81 H :    0.039860
  82 H :    0.035483
  83 H :    0.034676
  84 H :    0.040952
  85 H :    0.035058
  86 H :    0.035075
  87 H :    0.027297
  88 H :    0.020205

  Mayer bond orders larger than 0.100000
B(  0-C ,  1-C ) :   1.8608 B(  0-C , 57-H ) :   0.9492 B(  0-C , 58-H ) :   0.9420
B(  1-C ,  2-C ) :   1.0784 B(  1-C ,  5-S ) :   1.0106 B(  2-C ,  3-C ) :   1.6533
B(  2-C , 59-H ) :   0.9933 B(  3-C ,  4-C ) :   1.1523 B(  3-C , 60-H ) :   0.9868
B(  4-C ,  5-S ) :   1.0223 B(  4-C ,  6-C ) :   1.5669 B(  6-C ,  7-C ) :   1.1784
B(  6-C , 10-S ) :   1.0398 B(  7-C ,  8-C ) :   1.6030 B(  7-C , 61-H ) :   0.9862
B(  8-C ,  9-C ) :   1.1283 B(  8-C , 62-H ) :   0.9982 B(  9-C , 10-S ) :   0.9980
B(  9-C , 11-C ) :   1.6385 B( 11-C , 12-C ) :   1.1432 B( 11-C , 63-H ) :   0.9295
B( 12-C , 13-N ) :   1.1929 B( 12-C , 14-C ) :   0.1208 B( 12-C , 16-C ) :   1.2280
B( 13-N , 14-C ) :   1.2651 B( 13-N , 64-H ) :   0.9342 B( 14-C , 15-C ) :   1.3426
B( 14-C , 65-H ) :   0.9904 B( 15-C , 16-C ) :   1.3399 B( 15-C , 19-C ) :   1.1419
B( 16-C , 17-N ) :   1.2020 B( 17-N , 18-C ) :   1.1677 B( 17-N , 66-H ) :   0.9248
B( 18-C , 19-C ) :   1.5508 B( 18-C , 67-H ) :   1.0046 B( 19-C , 20-N ) :   1.0156
B( 20-N , 21-C ) :   1.2357 B( 20-N , 68-H ) :   0.9134 B( 21-C , 22-S ) :   1.1386
B( 21-C , 28-C ) :   1.3576 B( 22-S , 23-C ) :   1.0680 B( 23-C , 24-N ) :   1.0004
B( 23-C , 27-C ) :   1.4307 B( 24-N , 25-O ) :   1.5164 B( 24-N , 26-O ) :   1.4937
B( 25-O , 26-O ) :   0.2448 B( 27-C , 28-C ) :   1.2777 B( 27-C , 69-H ) :   1.0128
B( 28-C , 29-C ) :   1.0643 B( 29-C , 30-C ) :   1.7915 B( 29-C , 70-H ) :   0.9344
B( 30-C , 31-C ) :   1.0947 B( 30-C , 71-H ) :   0.9537 B( 31-C , 32-C ) :   1.5020
B( 31-C , 35-S ) :   1.1076 B( 32-C , 33-C ) :   1.2497 B( 32-C , 72-H ) :   0.9957
B( 33-C , 34-C ) :   1.5253 B( 33-C , 38-Ge) :   0.8863 B( 34-C , 35-S ) :   1.1029
B( 34-C , 36-C ) :   1.1516 B( 36-C , 37-C ) :   1.5403 B( 36-C , 43-S ) :   1.0918
B( 37-C , 38-Ge) :   0.8805 B( 37-C , 41-C ) :   1.2441 B( 38-Ge, 39-C ) :   1.0244
B( 38-Ge, 40-C ) :   1.0099 B( 39-C , 73-H ) :   0.9575 B( 39-C , 74-H ) :   0.9610
B( 39-C , 75-H ) :   0.9592 B( 40-C , 76-H ) :   0.9572 B( 40-C , 77-H ) :   0.9593
B( 40-C , 78-H ) :   0.9536 B( 41-C , 42-C ) :   1.4826 B( 41-C , 79-H ) :   0.9954
B( 42-C , 43-S ) :   1.1113 B( 42-C , 44-C ) :   1.1552 B( 44-C , 45-C ) :   1.4897
B( 44-C , 48-S ) :   1.1118 B( 45-C , 46-C ) :   1.2343 B( 45-C , 80-H ) :   0.9977
B( 46-C , 47-C ) :   1.5509 B( 46-C , 51-Ge) :   0.8831 B( 47-C , 48-S ) :   1.0873
B( 47-C , 49-C ) :   1.1461 B( 49-C , 50-C ) :   1.5474 B( 49-C , 56-S ) :   1.1164
B( 50-C , 51-Ge) :   0.8894 B( 50-C , 54-C ) :   1.2449 B( 51-Ge, 52-C ) :   1.0068
B( 51-Ge, 53-C ) :   1.0103 B( 52-C , 81-H ) :   0.9605 B( 52-C , 82-H ) :   0.9616
B( 52-C , 83-H ) :   0.9611 B( 53-C , 84-H ) :   0.9597 B( 53-C , 85-H ) :   0.9608
B( 53-C , 86-H ) :   0.9613 B( 54-C , 55-C ) :   1.5632 B( 54-C , 87-H ) :   0.9971
B( 55-C , 56-S ) :   1.1472 B( 55-C , 88-H ) :   0.9718

-----------------------------------------------------------------------------
         ABSORPTION SPECTRUM VIA TRANSITION ELECTRIC DIPOLE MOMENTS
-----------------------------------------------------------------------------
State   Energy  Wavelength   fosc         T2         TX        TY        TZ
        (cm-1)    (nm)                  (au**2)     (au)      (au)      (au)
-----------------------------------------------------------------------------
   0   17107.4    584.5   0.213228083   4.10332   0.51033  -1.80085  -0.77449
   1   18008.5    555.3   0.516559692   9.44321  -1.46225   2.64437   0.55886
   2   19666.4    508.5   0.137996760   2.31005   0.47383  -1.44161   0.08536
   3   21649.7    461.9   0.585976068   8.91055   0.15169  -1.83956  -2.34596
   4   22322.4    448.0   1.670950977  24.64332  -0.11425  -3.62559  -3.38901
   5   25038.6    399.4   0.012374065   0.16270  -0.23498   0.28547  -0.16122
   6   25898.0    386.1   0.010220151   0.12992   0.34971  -0.08478   0.02071
   7   27409.6    364.8   0.132775295   1.59474  -0.57827   0.84703  -0.73681
   8   28445.2    351.6   0.002081165   0.02409  -0.12721  -0.06482  -0.06084
   9   28811.4    347.1   0.056441691   0.64493   0.21474   0.53616  -0.55799
  10   29468.0    339.4   0.016349775   0.18266  -0.06340  -0.20180  -0.37137
  11   30164.2    331.5   0.185670613   2.02641  -0.34320   0.96595   0.98770
  12   30461.4    328.3   0.091648136   0.99049   0.67806  -0.72782   0.03164
  13   31129.4    321.2   0.119212920   1.26075   0.70431  -0.79690   0.36005
  14   31731.9    315.1   0.004235388   0.04394   0.03849  -0.05002   0.19990
  15   32259.7    310.0   0.064779472   0.66108   0.74729  -0.13548  -0.29032
  16   33302.1    300.3   0.005526363   0.05463  -0.10694   0.18577   0.09319
  17   33618.8    297.5   0.043940999   0.43029  -0.45781  -0.22201  -0.41402
  18   33944.5    294.6   0.023158465   0.22460   0.08889   0.44232  -0.14509
  19   34367.4    291.0   0.123975429   1.18758   0.83090   0.17464   0.68314
  20   34602.0    289.0   0.013214418   0.12573  -0.11917  -0.32153   0.09024
  21   34748.7    287.8   0.034533255   0.32717   0.00448  -0.46967  -0.32643
  22   36234.8    276.0   0.031628088   0.28736  -0.41396   0.21917  -0.26069
  23   36400.2    274.7   0.059330738   0.53660   0.45459   0.03665   0.57324
  24   36561.4    273.5   0.089234263   0.80350  -0.22190   0.57848   0.64778
  25   37275.6    268.3   0.074116010   0.65458  -0.37219   0.67408   0.24835
  26   37492.7    266.7   0.022689949   0.19923   0.18777   0.40186   0.04990
  27   37767.3    264.8   0.004618440   0.04026   0.16047  -0.11796  -0.02435
  28   37964.3    263.4   0.021979776   0.19060   0.17021  -0.29708  -0.27088
  29   38244.3    261.5   0.002386807   0.02055  -0.02555  -0.14096  -0.00491
  30   38702.0    258.4   0.005981832   0.05088  -0.05867   0.00164  -0.21780
  31   38871.2    257.3   0.049142152   0.41620  -0.13802  -0.56551  -0.27812
  32   39027.9    256.2   0.011275526   0.09511   0.07011  -0.24499  -0.17371
  33   39119.7    255.6   0.016607861   0.13976   0.13708  -0.06334  -0.34199
  34   39180.2    255.2   0.023946197   0.20121  -0.01811   0.30947   0.32420
  35   39498.5    253.2   0.098094783   0.81760  -0.60111  -0.41484  -0.53308
  36   39699.3    251.9   0.011067070   0.09178   0.01119   0.26036   0.15448
  37   39920.6    250.5   0.005196330   0.04285  -0.07639   0.19104  -0.02284

FINAL SINGLE POINT ENERGY     -8926.708609467474

DIPOLE MOMENT
-------------
                                X             Y             Z
Electronic contribution:     22.44975      13.75889      13.73519
Nuclear contribution   :    -23.05252     -11.81329     -11.29601
                        -----------------------------------------
Total Dipole Moment    :     -0.60277       1.94560       2.43918
                        -----------------------------------------
Magnitude (a.u.)       :      3.17778
Magnitude (Debye)      :      8.07728

Rotational constants in cm-1:     0.002257     0.000517     0.000471
Rotational constants in MHz :    67.675120    15.506013    14.106984

                             ****ORCA TERMINATED NORMALLY****
TOTAL RUN TIME: 0 days 0 hours 9 minutes 38 seconds 314 msec
