                         Program Version 4.2.0 -  RELEASE  -
|  1> # ORCA input file
|  2> # SCF done       -157.026679331504          0.000614637263
|  3> ! CAM-B3LYP def2-SVP def2/J RIJCOSX Grid4 TightSCF
|  4> %maxcore 5000
|  5> %tddft
|  6>     Mode sTDDFT
|  7>     Ethresh 5.0
|  8>     maxcore 5000
|  9> end
| 10>
| 11> %pal
| 12>   nprocs 6
| 13>   end
| 14> * xyz 0 1
| 15>    C       -6.87290       -22.60721        -4.30036
| 16>    C       -7.65771       -21.99555        -5.19649
| 17>    C       -9.00052       -22.33964        -5.57068
| 18>    C       -9.54257       -21.53826        -6.51232
| 19>    C       -8.68168       -20.49682        -6.96338
| 20>    S       -7.14180       -20.57978        -6.12654
| 21>    C       -8.95087       -19.54471        -7.91280
| 22>    C      -10.13752       -19.36800        -8.67068
| 23>    C      -10.09333       -18.33802        -9.55237
| 24>    C       -8.86318       -17.62625        -9.55480
| 25>    S       -7.76484       -18.32998        -8.36174
| 26>    C       -8.52046       -16.56903       -10.33956
| 27>    N       -7.30651       -15.96215       -10.26129
| 28>    C       -6.83888       -14.96807       -11.04336
| 29>    S       -7.75161       -14.32875       -12.38066
| 30>    C       -6.41384       -13.27899       -12.77522
| 31>    N       -6.52443       -12.36076       -13.79401
| 32>    O       -5.56698       -11.59211       -13.95255
| 33>    O       -7.54510       -12.33508       -14.46454
| 34>    C       -5.33927       -13.45408       -11.93520
| 35>    C       -5.56758       -14.39095       -10.92663
| 36>    C       -4.57852       -14.57753        -9.89368
| 37>    C       -4.77747       -14.81542        -8.58859
| 38>    C       -3.69180       -14.64306        -7.64679
| 39>    C       -2.40948       -14.97381        -7.83341
| 40>    C       -1.91861       -15.88591        -8.91220
| 41>    C       -1.34070       -14.40623        -6.92770
| 42>    N       -0.18127       -13.94418        -7.66505
| 43>    C       -0.27952       -13.18987        -8.80637
| 44>    C       -1.31826       -12.47543        -9.25906
| 45>    C       -1.19288       -11.78472       -10.56254
| 46>    S       -1.84134       -12.85230       -11.95708
| 47>    C       -2.10040       -11.42838       -13.08104
| 48>    C       -1.88850       -10.14214       -12.27792
| 49>    C       -1.97391       -10.50007       -10.77177
| 50>    C       -2.95435        -9.04060       -12.52769
| 51>    O       -2.60747        -7.87380       -12.53769
| 52>    N       -4.23640        -9.41537       -12.61040
| 53>    N       -0.63722        -9.48490       -12.59579
| 54>    C        0.57517        -9.94202       -12.96564
| 55>    C        1.05244       -11.21263       -12.97323
| 56>    C        2.37153       -11.62411       -13.29054
| 57>    N        3.28984       -11.01009       -14.11497
| 58>    C        3.10181        -9.82842       -14.90998
| 59>    C        4.47229       -11.76961       -14.24349
| 60>    O        5.39726       -11.42908       -14.95721
| 61>    C        4.26447       -12.91341       -13.39205
| 62>    C        2.95960       -12.79461       -12.82661
| 63>    C        2.75542       -13.89010       -11.92760
| 64>    O        1.84268       -14.19654       -11.17488
| 65>    N        3.94433       -14.64078       -12.03246
| 66>    C        4.12760       -15.85625       -11.29096
| 67>    C        4.84940       -14.06517       -12.89816
| 68>    C        6.13814       -14.63391       -13.16818
| 69>    C        7.01365       -14.08459       -14.01181
| 70>    H       -7.22575       -23.46609        -3.75739
| 71>    H       -5.87502       -22.26557        -4.09557
| 72>    H       -9.49732       -23.17721        -5.11425
| 73>    H      -10.53579       -21.65287        -6.90855
| 74>    H      -10.98670       -20.01389        -8.53954
| 75>    H      -10.89725       -18.05985       -10.20995
| 76>    H       -9.21449       -16.17045       -11.06421
| 77>    H       -6.65090       -16.33583        -9.58089
| 78>    H       -4.41021       -12.92363       -12.03754
| 79>    H       -3.57901       -14.32572       -10.21884
| 80>    H       -5.77036       -14.94761        -8.17533
| 81>    H       -3.96128       -14.09200        -6.75217
| 82>    H       -2.73635       -16.45891        -9.34028
| 83>    H       -1.18200       -16.57444        -8.49817
| 84>    H       -1.43175       -15.32748        -9.71219
| 85>    H       -0.99787       -15.15967        -6.21179
| 86>    H       -1.75475       -13.56633        -6.35850
| 87>    H        0.59223       -14.58889        -7.68403
| 88>    H        0.63545       -13.18505        -9.38508
| 89>    H       -2.27848       -12.45795        -8.76877
| 90>    H       -0.13621       -11.62663       -10.77607
| 91>    H       -3.10250       -11.51375       -13.49751
| 92>    H       -1.38858       -11.49179       -13.90332
| 93>    H       -3.01966       -10.65130       -10.49366
| 94>    H       -1.56357        -9.68916       -10.16894
| 95>    H       -4.54131       -10.34256       -12.87650
| 96>    H       -4.89528        -8.67505       -12.80135
| 97>    H       -0.78137        -8.47795       -12.62326
| 98>    H        1.24377        -9.13382       -13.22830
| 99>    H        0.45478       -12.04340       -12.63475
|100>    H        3.22177        -8.91955       -14.31417
|101>    H        2.11816        -9.83199       -15.38171
|102>    H        3.87799        -9.83812       -15.67737
|103>    H        3.20955       -16.01323       -10.72291
|104>    H        4.96906       -15.77660       -10.59828
|105>    H        4.28564       -16.70711       -11.95768
|106>    H        6.37866       -15.55296       -12.65005
|107>    H        6.78909       -13.17094       -14.53539
|108>    H        7.97294       -14.53684       -14.19553
|109> *
|110>
|111>                          ****END OF INPUT****

CARTESIAN COORDINATES (ANGSTROEM)
---------------------------------
  C     -6.872900  -22.607210   -4.300360
  C     -7.657710  -21.995550   -5.196490
  C     -9.000520  -22.339640   -5.570680
  C     -9.542570  -21.538260   -6.512320
  C     -8.681680  -20.496820   -6.963380
  S     -7.141800  -20.579780   -6.126540
  C     -8.950870  -19.544710   -7.912800
  C    -10.137520  -19.368000   -8.670680
  C    -10.093330  -18.338020   -9.552370
  C     -8.863180  -17.626250   -9.554800
  S     -7.764840  -18.329980   -8.361740
  C     -8.520460  -16.569030  -10.339560
  N     -7.306510  -15.962150  -10.261290
  C     -6.838880  -14.968070  -11.043360
  S     -7.751610  -14.328750  -12.380660
  C     -6.413840  -13.278990  -12.775220
  N     -6.524430  -12.360760  -13.794010
  O     -5.566980  -11.592110  -13.952550
  O     -7.545100  -12.335080  -14.464540
  C     -5.339270  -13.454080  -11.935200
  C     -5.567580  -14.390950  -10.926630
  C     -4.578520  -14.577530   -9.893680
  C     -4.777470  -14.815420   -8.588590
  C     -3.691800  -14.643060   -7.646790
  C     -2.409480  -14.973810   -7.833410
  C     -1.918610  -15.885910   -8.912200
  C     -1.340700  -14.406230   -6.927700
  N     -0.181270  -13.944180   -7.665050
  C     -0.279520  -13.189870   -8.806370
  C     -1.318260  -12.475430   -9.259060
  C     -1.192880  -11.784720  -10.562540
  S     -1.841340  -12.852300  -11.957080
  C     -2.100400  -11.428380  -13.081040
  C     -1.888500  -10.142140  -12.277920
  C     -1.973910  -10.500070  -10.771770
  C     -2.954350   -9.040600  -12.527690
  O     -2.607470   -7.873800  -12.537690
  N     -4.236400   -9.415370  -12.610400
  N     -0.637220   -9.484900  -12.595790
  C      0.575170   -9.942020  -12.965640
  C      1.052440  -11.212630  -12.973230
  C      2.371530  -11.624110  -13.290540
  N      3.289840  -11.010090  -14.114970
  C      3.101810   -9.828420  -14.909980
  C      4.472290  -11.769610  -14.243490
  O      5.397260  -11.429080  -14.957210
  C      4.264470  -12.913410  -13.392050
  C      2.959600  -12.794610  -12.826610
  C      2.755420  -13.890100  -11.927600
  O      1.842680  -14.196540  -11.174880
  N      3.944330  -14.640780  -12.032460
  C      4.127600  -15.856250  -11.290960
  C      4.849400  -14.065170  -12.898160
  C      6.138140  -14.633910  -13.168180
  C      7.013650  -14.084590  -14.011810
  H     -7.225750  -23.466090   -3.757390
  H     -5.875020  -22.265570   -4.095570
  H     -9.497320  -23.177210   -5.114250
  H    -10.535790  -21.652870   -6.908550
  H    -10.986700  -20.013890   -8.539540
  H    -10.897250  -18.059850  -10.209950
  H     -9.214490  -16.170450  -11.064210
  H     -6.650900  -16.335830   -9.580890
  H     -4.410210  -12.923630  -12.037540
  H     -3.579010  -14.325720  -10.218840
  H     -5.770360  -14.947610   -8.175330
  H     -3.961280  -14.092000   -6.752170
  H     -2.736350  -16.458910   -9.340280
  H     -1.182000  -16.574440   -8.498170
  H     -1.431750  -15.327480   -9.712190
  H     -0.997870  -15.159670   -6.211790
  H     -1.754750  -13.566330   -6.358500
  H      0.592230  -14.588890   -7.684030
  H      0.635450  -13.185050   -9.385080
  H     -2.278480  -12.457950   -8.768770
  H     -0.136210  -11.626630  -10.776070
  H     -3.102500  -11.513750  -13.497510
  H     -1.388580  -11.491790  -13.903320
  H     -3.019660  -10.651300  -10.493660
  H     -1.563570   -9.689160  -10.168940
  H     -4.541310  -10.342560  -12.876500
  H     -4.895280   -8.675050  -12.801350
  H     -0.781370   -8.477950  -12.623260
  H      1.243770   -9.133820  -13.228300
  H      0.454780  -12.043400  -12.634750
  H      3.221770   -8.919550  -14.314170
  H      2.118160   -9.831990  -15.381710
  H      3.877990   -9.838120  -15.677370
  H      3.209550  -16.013230  -10.722910
  H      4.969060  -15.776600  -10.598280
  H      4.285640  -16.707110  -11.957680
  H      6.378660  -15.552960  -12.650050
  H      6.789090  -13.170940  -14.535390
  H      7.972940  -14.536840  -14.195530

 Total Charge           Charge          ....    0
 Multiplicity           Mult            ....    1
 Number of Electrons    NEL             ....  426
 Basis Dimension        Dim             ....  981

ORBITAL ENERGIES
----------------

  NO   OCC          E(Eh)            E(eV)
   0   2.0000     -88.983291     -2421.3584
   1   2.0000     -88.952324     -2420.5158
   2   2.0000     -88.940411     -2420.1916
   3   2.0000     -88.904085     -2419.2031
   4   2.0000     -19.239266      -523.5270
   5   2.0000     -19.233981      -523.3832
   6   2.0000     -19.186285      -522.0854
   7   2.0000     -19.172174      -521.7014
   8   2.0000     -19.158560      -521.3309
   9   2.0000     -14.647911      -398.5899
  10   2.0000     -14.489279      -394.2733
  11   2.0000     -14.435028      -392.7971
  12   2.0000     -14.430112      -392.6633
  13   2.0000     -14.428925      -392.6310
  14   2.0000     -14.424307      -392.5053
  15   2.0000     -14.409617      -392.1056
  16   2.0000     -10.373730      -282.2835
  17   2.0000     -10.371195      -282.2146
  18   2.0000     -10.353978      -281.7461
  19   2.0000     -10.343608      -281.4639
  20   2.0000     -10.335921      -281.2547
  21   2.0000     -10.334457      -281.2149
  22   2.0000     -10.328253      -281.0460
  23   2.0000     -10.321759      -280.8693
  24   2.0000     -10.317842      -280.7627
  25   2.0000     -10.315318      -280.6941
  26   2.0000     -10.314885      -280.6823
  27   2.0000     -10.312034      -280.6047
  28   2.0000     -10.308559      -280.5102
  29   2.0000     -10.307008      -280.4680
  30   2.0000     -10.299568      -280.2655
  31   2.0000     -10.295763      -280.1620
  32   2.0000     -10.293686      -280.1054
  33   2.0000     -10.292308      -280.0680
  34   2.0000     -10.292198      -280.0649
  35   2.0000     -10.291275      -280.0398
  36   2.0000     -10.291232      -280.0386
  37   2.0000     -10.290024      -280.0058
  38   2.0000     -10.289905      -280.0026
  39   2.0000     -10.286881      -279.9203
  40   2.0000     -10.285751      -279.8895
  41   2.0000     -10.281479      -279.7733
  42   2.0000     -10.278212      -279.6844
  43   2.0000     -10.277108      -279.6543
  44   2.0000     -10.271600      -279.5045
  45   2.0000     -10.269197      -279.4390
  46   2.0000     -10.268756      -279.4271
  47   2.0000     -10.266599      -279.3684
  48   2.0000     -10.258946      -279.1601
  49   2.0000     -10.255640      -279.0702
  50   2.0000     -10.250709      -278.9360
  51   2.0000     -10.247400      -278.8459
  52   2.0000     -10.234059      -278.4829
  53   2.0000     -10.231891      -278.4239
  54   2.0000     -10.225475      -278.2493
  55   2.0000      -8.078675      -219.8319
  56   2.0000      -8.048669      -219.0154
  57   2.0000      -8.037224      -218.7040
  58   2.0000      -7.997904      -217.6340
  59   2.0000      -6.048403      -164.5854
  60   2.0000      -6.044155      -164.4698
  61   2.0000      -6.039871      -164.3532
  62   2.0000      -6.018551      -163.7731
  63   2.0000      -6.014651      -163.6670
  64   2.0000      -6.009204      -163.5187
  65   2.0000      -6.007060      -163.4604
  66   2.0000      -6.003196      -163.3553
  67   2.0000      -5.997657      -163.2046
  68   2.0000      -5.968326      -162.4064
  69   2.0000      -5.964357      -162.2984
  70   2.0000      -5.957746      -162.1185
  71   2.0000      -1.311447       -35.6863
  72   2.0000      -1.129831       -30.7443
  73   2.0000      -1.128238       -30.7009
  74   2.0000      -1.110625       -30.2216
  75   2.0000      -1.097597       -29.8671
  76   2.0000      -1.095910       -29.8212
  77   2.0000      -1.038912       -28.2702
  78   2.0000      -1.031689       -28.0737
  79   2.0000      -1.027522       -27.9603
  80   2.0000      -1.009820       -27.4786
  81   2.0000      -1.003984       -27.3198
  82   2.0000      -0.993795       -27.0425
  83   2.0000      -0.987966       -26.8839
  84   2.0000      -0.971491       -26.4356
  85   2.0000      -0.929169       -25.2840
  86   2.0000      -0.921648       -25.0793
  87   2.0000      -0.903103       -24.5747
  88   2.0000      -0.898049       -24.4372
  89   2.0000      -0.885698       -24.1011
  90   2.0000      -0.875099       -23.8127
  91   2.0000      -0.872441       -23.7403
  92   2.0000      -0.866289       -23.5729
  93   2.0000      -0.854427       -23.2501
  94   2.0000      -0.849644       -23.1200
  95   2.0000      -0.849105       -23.1053
  96   2.0000      -0.835559       -22.7367
  97   2.0000      -0.825233       -22.4557
  98   2.0000      -0.825023       -22.4500
  99   2.0000      -0.812820       -22.1179
 100   2.0000      -0.800061       -21.7708
 101   2.0000      -0.795274       -21.6405
 102   2.0000      -0.775307       -21.0972
 103   2.0000      -0.768833       -20.9210
 104   2.0000      -0.761460       -20.7204
 105   2.0000      -0.750386       -20.4190
 106   2.0000      -0.746063       -20.3014
 107   2.0000      -0.739424       -20.1207
 108   2.0000      -0.726845       -19.7785
 109   2.0000      -0.707759       -19.2591
 110   2.0000      -0.698236       -19.0000
 111   2.0000      -0.694234       -18.8911
 112   2.0000      -0.690088       -18.7782
 113   2.0000      -0.683137       -18.5891
 114   2.0000      -0.673462       -18.3258
 115   2.0000      -0.664630       -18.0855
 116   2.0000      -0.658586       -17.9210
 117   2.0000      -0.652526       -17.7561
 118   2.0000      -0.650960       -17.7135
 119   2.0000      -0.639286       -17.3959
 120   2.0000      -0.631167       -17.1749
 121   2.0000      -0.629595       -17.1321
 122   2.0000      -0.626368       -17.0443
 123   2.0000      -0.624774       -17.0010
 124   2.0000      -0.621195       -16.9036
 125   2.0000      -0.620273       -16.8785
 126   2.0000      -0.617193       -16.7947
 127   2.0000      -0.603622       -16.4254
 128   2.0000      -0.599748       -16.3200
 129   2.0000      -0.592965       -16.1354
 130   2.0000      -0.591390       -16.0925
 131   2.0000      -0.590293       -16.0627
 132   2.0000      -0.584085       -15.8937
 133   2.0000      -0.579340       -15.7647
 134   2.0000      -0.571820       -15.5600
 135   2.0000      -0.564320       -15.3559
 136   2.0000      -0.558692       -15.2028
 137   2.0000      -0.557596       -15.1729
 138   2.0000      -0.550841       -14.9891
 139   2.0000      -0.549232       -14.9454
 140   2.0000      -0.543987       -14.8026
 141   2.0000      -0.541615       -14.7381
 142   2.0000      -0.538281       -14.6474
 143   2.0000      -0.536932       -14.6107
 144   2.0000      -0.534165       -14.5354
 145   2.0000      -0.533527       -14.5180
 146   2.0000      -0.527876       -14.3642
 147   2.0000      -0.522004       -14.2045
 148   2.0000      -0.516807       -14.0630
 149   2.0000      -0.514965       -14.0129
 150   2.0000      -0.511438       -13.9169
 151   2.0000      -0.507132       -13.7998
 152   2.0000      -0.501395       -13.6436
 153   2.0000      -0.499688       -13.5972
 154   2.0000      -0.498256       -13.5582
 155   2.0000      -0.497251       -13.5309
 156   2.0000      -0.495263       -13.4768
 157   2.0000      -0.494109       -13.4454
 158   2.0000      -0.490501       -13.3472
 159   2.0000      -0.488701       -13.2982
 160   2.0000      -0.487562       -13.2672
 161   2.0000      -0.485770       -13.2185
 162   2.0000      -0.475721       -12.9450
 163   2.0000      -0.475305       -12.9337
 164   2.0000      -0.472466       -12.8564
 165   2.0000      -0.467594       -12.7239
 166   2.0000      -0.465926       -12.6785
 167   2.0000      -0.462415       -12.5830
 168   2.0000      -0.459264       -12.4972
 169   2.0000      -0.454701       -12.3731
 170   2.0000      -0.451867       -12.2959
 171   2.0000      -0.449499       -12.2315
 172   2.0000      -0.447604       -12.1799
 173   2.0000      -0.444629       -12.0990
 174   2.0000      -0.442563       -12.0428
 175   2.0000      -0.438128       -11.9221
 176   2.0000      -0.436743       -11.8844
 177   2.0000      -0.435228       -11.8432
 178   2.0000      -0.432562       -11.7706
 179   2.0000      -0.429750       -11.6941
 180   2.0000      -0.427314       -11.6278
 181   2.0000      -0.426094       -11.5946
 182   2.0000      -0.422585       -11.4991
 183   2.0000      -0.420641       -11.4462
 184   2.0000      -0.415159       -11.2971
 185   2.0000      -0.409084       -11.1317
 186   2.0000      -0.403624       -10.9832
 187   2.0000      -0.402817       -10.9612
 188   2.0000      -0.391158       -10.6439
 189   2.0000      -0.388025       -10.5587
 190   2.0000      -0.386219       -10.5096
 191   2.0000      -0.383984       -10.4487
 192   2.0000      -0.381873       -10.3913
 193   2.0000      -0.379650       -10.3308
 194   2.0000      -0.366750        -9.9798
 195   2.0000      -0.365565        -9.9475
 196   2.0000      -0.346106        -9.4180
 197   2.0000      -0.344135        -9.3644
 198   2.0000      -0.341863        -9.3026
 199   2.0000      -0.338431        -9.2092
 200   2.0000      -0.333210        -9.0671
 201   2.0000      -0.328280        -8.9329
 202   2.0000      -0.325885        -8.8678
 203   2.0000      -0.324010        -8.8168
 204   2.0000      -0.307669        -8.3721
 205   2.0000      -0.298999        -8.1362
 206   2.0000      -0.292354        -7.9554
 207   2.0000      -0.283741        -7.7210
 208   2.0000      -0.280562        -7.6345
 209   2.0000      -0.268273        -7.3001
 210   2.0000      -0.252274        -6.8647
 211   2.0000      -0.220437        -5.9984
 212   2.0000      -0.213233        -5.8024
 213   0.0000      -0.073504        -2.0001
 214   0.0000      -0.043901        -1.1946
 215   0.0000      -0.036045        -0.9808
 216   0.0000      -0.008121        -0.2210
 217   0.0000       0.022600         0.6150

MULLIKEN ATOMIC CHARGES
-----------------------
   0 C :   -0.028298
   1 C :   -0.063368
   2 C :    0.052789
   3 C :    0.030180
   4 C :   -0.067945
   5 S :    0.072943
   6 C :   -0.048655
   7 C :    0.028579
   8 C :    0.038991
   9 C :   -0.037980
  10 S :    0.038886
  11 C :    0.020089
  12 N :   -0.022265
  13 C :   -0.130482
  14 S :    0.144950
  15 C :   -0.031940
  16 N :    0.308078
  17 O :   -0.314142
  18 O :   -0.261622
  19 C :    0.058477
  20 C :    0.116674
  21 C :   -0.029566
  22 C :   -0.017979
  23 C :   -0.006686
  24 C :   -0.222961
  25 C :    0.099931
  26 C :    0.210490
  27 N :   -0.169665
  28 C :    0.061722
  29 C :   -0.057828
  30 C :   -0.109203
  31 S :   -0.086281
  32 C :    0.016703
  33 C :   -0.211283
  34 C :    0.216842
  35 C :    0.084290
  36 O :   -0.251329
  37 N :   -0.054631
  38 N :   -0.083690
  39 C :    0.064661
  40 C :   -0.112507
  41 C :    0.108153
  42 N :   -0.277310
  43 C :    0.119669
  44 C :    0.154551
  45 O :   -0.209736
  46 C :   -0.056609
  47 C :   -0.058781
  48 C :    0.140744
  49 O :   -0.240450
  50 N :   -0.277132
  51 C :    0.120890
  52 C :    0.102430
  53 C :   -0.036022
  54 C :    0.002820
  55 H :    0.020266
  56 H :    0.021067
  57 H :   -0.010941
  58 H :   -0.012368
  59 H :   -0.011688
  60 H :   -0.009920
  61 H :    0.020765
  62 H :    0.149077
  63 H :   -0.046871
  64 H :    0.012459
  65 H :   -0.015947
  66 H :   -0.013027
  67 H :    0.015718
  68 H :    0.002310
  69 H :    0.053572
  70 H :    0.017084
  71 H :    0.004571
  72 H :    0.121643
  73 H :    0.022378
  74 H :   -0.026579
  75 H :    0.048654
  76 H :    0.050934
  77 H :    0.058798
  78 H :    0.007005
  79 H :    0.012070
  80 H :    0.125292
  81 H :    0.136852
  82 H :    0.139999
  83 H :   -0.000593
  84 H :    0.014389
  85 H :    0.033605
  86 H :    0.029541
  87 H :    0.053508
  88 H :    0.044060
  89 H :    0.028079
  90 H :    0.028836
  91 H :   -0.031301
  92 H :    0.049349
  93 H :    0.019171
Sum of atomic charges:   -0.0000000

LOEWDIN ATOMIC CHARGES
----------------------
   0 C :   -0.076641
   1 C :   -0.139078
   2 C :   -0.030871
   3 C :   -0.026527
   4 C :   -0.180379
   5 S :    0.345431
   6 C :   -0.176936
   7 C :   -0.036257
   8 C :   -0.031771
   9 C :   -0.178161
  10 S :    0.337354
  11 C :   -0.019310
  12 N :    0.055953
  13 C :   -0.089239
  14 S :    0.436938
  15 C :   -0.233386
  16 N :    0.287131
  17 O :   -0.266542
  18 O :   -0.226007
  19 C :    0.014759
  20 C :   -0.102076
  21 C :   -0.019219
  22 C :   -0.041354
  23 C :   -0.059168
  24 C :   -0.027662
  25 C :   -0.054464
  26 C :    0.040103
  27 N :   -0.029453
  28 C :    0.039191
  29 C :   -0.156370
  30 C :   -0.094237
  31 S :    0.232228
  32 C :   -0.131659
  33 C :   -0.024187
  34 C :   -0.026747
  35 C :    0.071409
  36 O :   -0.218950
  37 N :    0.013547
  38 N :    0.021375
  39 C :    0.061271
  40 C :   -0.152177
  41 C :    0.095559
  42 N :   -0.015971
  43 C :    0.025537
  44 C :    0.085342
  45 O :   -0.202762
  46 C :   -0.122572
  47 C :   -0.150810
  48 C :    0.074000
  49 O :   -0.244065
  50 N :   -0.011472
  51 C :    0.024407
  52 C :    0.057930
  53 C :   -0.052881
  54 C :    0.002959
  55 H :    0.028951
  56 H :    0.026249
  57 H :    0.033755
  58 H :    0.032120
  59 H :    0.032814
  60 H :    0.034368
  61 H :    0.030285
  62 H :    0.088418
  63 H :    0.022329
  64 H :    0.031553
  65 H :    0.017281
  66 H :    0.025421
  67 H :    0.028770
  68 H :    0.026931
  69 H :    0.039342
  70 H :    0.030459
  71 H :    0.023296
  72 H :    0.075707
  73 H :    0.029260
  74 H :    0.014180
  75 H :    0.025858
  76 H :    0.016536
  77 H :    0.030616
  78 H :    0.021805
  79 H :    0.031890
  80 H :    0.058270
  81 H :    0.087956
  82 H :    0.073979
  83 H :    0.031196
  84 H :    0.029429
  85 H :    0.020353
  86 H :    0.025650
  87 H :    0.038696
  88 H :    0.035283
  89 H :    0.022666
  90 H :    0.023702
  91 H :    0.026488
  92 H :    0.030495
  93 H :    0.024579

  Mayer bond orders larger than 0.100000
B(  0-C ,  1-C ) :   1.8685 B(  0-C , 55-H ) :   0.9507 B(  0-C , 56-H ) :   0.9417
B(  1-C ,  2-C ) :   1.0771 B(  1-C ,  5-S ) :   1.0068 B(  2-C ,  3-C ) :   1.6677
B(  2-C , 57-H ) :   0.9934 B(  3-C ,  4-C ) :   1.1488 B(  3-C , 58-H ) :   0.9907
B(  4-C ,  5-S ) :   1.0387 B(  4-C ,  6-C ) :   1.5774 B(  6-C ,  7-C ) :   1.1652
B(  6-C , 10-S ) :   1.0309 B(  7-C ,  8-C ) :   1.6339 B(  7-C , 59-H ) :   0.9908
B(  8-C ,  9-C ) :   1.1399 B(  8-C , 60-H ) :   0.9945 B(  9-C , 10-S ) :   1.0100
B(  9-C , 11-C ) :   1.6233 B( 11-C , 12-N ) :   1.1250 B( 11-C , 61-H ) :   0.9614
B( 12-N , 13-C ) :   1.2687 B( 12-N , 62-H ) :   0.8939 B( 13-C , 14-S ) :   1.1361
B( 13-C , 20-C ) :   1.3093 B( 14-S , 15-C ) :   1.0398 B( 15-C , 16-N ) :   1.0501
B( 15-C , 19-C ) :   1.3890 B( 16-N , 17-O ) :   1.3981 B( 16-N , 18-O ) :   1.5122
B( 17-O , 18-O ) :   0.2150 B( 19-C , 20-C ) :   1.3127 B( 19-C , 63-H ) :   0.9840
B( 20-C , 21-C ) :   1.0711 B( 21-C , 22-C ) :   1.7619 B( 21-C , 64-H ) :   0.9483
B( 22-C , 23-C ) :   1.0756 B( 22-C , 65-H ) :   0.9552 B( 23-C , 24-C ) :   1.8716
B( 23-C , 66-H ) :   0.9417 B( 24-C , 25-C ) :   1.0684 B( 24-C , 26-C ) :   1.0066
B( 25-C , 67-H ) :   0.9464 B( 25-C , 68-H ) :   0.9463 B( 25-C , 69-H ) :   0.9307
B( 26-C , 27-N ) :   1.0434 B( 26-C , 70-H ) :   0.9380 B( 26-C , 71-H ) :   0.9412
B( 27-N , 28-C ) :   1.1919 B( 27-N , 72-H ) :   0.9395 B( 28-C , 29-C ) :   1.7508
B( 28-C , 73-H ) :   0.9424 B( 29-C , 30-C ) :   1.0360 B( 29-C , 74-H ) :   0.9639
B( 30-C , 31-S ) :   0.9815 B( 30-C , 34-C ) :   0.9754 B( 30-C , 75-H ) :   0.9287
B( 31-S , 32-C ) :   1.0037 B( 32-C , 33-C ) :   0.9886 B( 32-C , 76-H ) :   0.9419
B( 32-C , 77-H ) :   0.9268 B( 33-C , 34-C ) :   1.0213 B( 33-C , 35-C ) :   0.8749
B( 33-C , 38-N ) :   1.0022 B( 34-C , 78-H ) :   0.9295 B( 34-C , 79-H ) :   0.9214
B( 35-C , 36-O ) :   2.0544 B( 35-C , 37-N ) :   1.3230 B( 36-O , 82-H ) :   0.1059
B( 37-N , 80-H ) :   0.9126 B( 37-N , 81-H ) :   0.9357 B( 38-N , 39-C ) :   1.3143
B( 38-N , 82-H ) :   0.8787 B( 39-C , 40-C ) :   1.5071 B( 39-C , 83-H ) :   0.9654
B( 40-C , 41-C ) :   1.2552 B( 40-C , 84-H ) :   0.9155 B( 41-C , 42-N ) :   1.1720
B( 41-C , 47-C ) :   1.3202 B( 42-N , 43-C ) :   0.9730 B( 42-N , 44-C ) :   1.0430
B( 43-C , 85-H ) :   0.9689 B( 43-C , 86-H ) :   0.9692 B( 43-C , 87-H ) :   0.9495
B( 44-C , 45-O ) :   2.0585 B( 44-C , 46-C ) :   0.9870 B( 46-C , 47-C ) :   1.2103
B( 46-C , 52-C ) :   1.4040 B( 47-C , 48-C ) :   1.0364 B( 48-C , 49-O ) :   2.0213
B( 48-C , 50-N ) :   1.0471 B( 50-N , 51-C ) :   0.9774 B( 50-N , 52-C ) :   1.1525
B( 51-C , 88-H ) :   0.9505 B( 51-C , 89-H ) :   0.9727 B( 51-C , 90-H ) :   0.9725
B( 52-C , 53-C ) :   1.1228 B( 53-C , 54-C ) :   1.8957 B( 53-C , 91-H ) :   0.9542
B( 54-C , 92-H ) :   0.9298 B( 54-C , 93-H ) :   0.9452

-----------------------------------------------------------------------------
         ABSORPTION SPECTRUM VIA TRANSITION ELECTRIC DIPOLE MOMENTS
-----------------------------------------------------------------------------
State   Energy  Wavelength   fosc         T2         TX        TY        TZ
        (cm-1)    (nm)                  (au**2)     (au)      (au)      (au)
-----------------------------------------------------------------------------
   0   17921.4    558.0   1.323439841  24.31124   0.85970   3.70972  -3.13212
   1   20567.5    486.2   0.000512114   0.00820  -0.06442   0.06154  -0.01610
   2   22004.4    454.5   0.558443544   8.35499  -1.61845   2.32782  -0.56290
   3   24716.9    404.6   0.064296629   0.85639  -0.10892  -0.80286   0.44715
   4   25775.1    388.0   0.006665046   0.08513  -0.20646   0.11124  -0.17358
   5   26994.5    370.4   0.026596378   0.32436  -0.56396  -0.03163  -0.07282
   6   27523.9    363.3   0.000007955   0.00010   0.00436  -0.00793   0.00364
   7   29167.5    342.8   0.001583606   0.01787   0.10366  -0.01447   0.08318
   8   30153.1    331.6   0.208021964   2.27118  -1.02067   0.37766  -1.04249
   9   30771.0    325.0   0.009215712   0.09860  -0.01584  -0.25402   0.18391
  10   31321.4    319.3   0.010256341   0.10780  -0.29746  -0.04504  -0.13149
  11   31544.8    317.0   0.013768740   0.14370   0.24786   0.03304  -0.28490
  12   31699.4    315.5   0.007730273   0.08028   0.19245  -0.06348   0.19803
  13   32228.5    310.3   0.001193954   0.01220  -0.08987  -0.00187   0.06416
  14   32695.9    305.8   0.225635346   2.27190   1.39194   0.16016   0.55567
  15   33271.9    300.6   0.017919475   0.17731  -0.32057   0.12059   0.24495
  16   33597.7    297.6   0.007199253   0.07054  -0.04030   0.15237  -0.21378
  17   33944.2    294.6   0.267376874   2.59319   0.53320  -0.80353   1.28966
  18   34568.6    289.3   0.002427718   0.02312   0.14669   0.01853  -0.03548
  19   35026.8    285.5   0.048633233   0.45710  -0.47130  -0.35776   0.32708
  20   35211.6    284.0   0.061935950   0.57907  -0.09573   0.35048  -0.66863
  21   35591.2    281.0   0.270594188   2.50295   1.39215  -0.63846  -0.39653
  22   35918.1    278.4   0.006968075   0.06387  -0.15784  -0.02998  -0.19507
  23   36285.8    275.6   0.020721719   0.18800  -0.02852  -0.07395   0.42629
  24   36339.8    275.2   0.094051229   0.85203   0.79102  -0.46484  -0.10123
  25   37294.6    268.1   0.012343056   0.10896  -0.27631   0.16135   0.08108
  26   38001.8    263.1   0.001871417   0.01621  -0.08523  -0.05024   0.08014
  27   38505.2    259.7   0.000022370   0.00019  -0.00296  -0.01302  -0.00361
  28   39026.0    256.2   0.000925773   0.00781   0.00845  -0.05915   0.06511
  29   40117.5    249.3   0.016785424   0.13774  -0.11588  -0.30699   0.17341

FINAL SINGLE POINT ENERGY     -3858.297385160909

DIPOLE MOMENT
-------------
                                X             Y             Z
Electronic contribution:    -40.35234      -6.82026     -11.07464
Nuclear contribution   :     37.93636       4.35315      13.43917
                        -----------------------------------------
Total Dipole Moment    :     -2.41598      -2.46710       2.36453
                        -----------------------------------------
Magnitude (a.u.)       :      4.18504
Magnitude (Debye)      :     10.63752

Rotational constants in cm-1:     0.001960     0.000596     0.000497
Rotational constants in MHz :    58.772973    17.882295    14.907957

                             ****ORCA TERMINATED NORMALLY****
TOTAL RUN TIME: 0 days 0 hours 6 minutes 57 seconds 362 msec
