                         Program Version 4.2.0 -  RELEASE  -
|  1> # ORCA input file
|  2> # SCF done       -174.299059173842          0.000749328364
|  3> ! CAM-B3LYP def2-SVP def2/J RIJCOSX Grid4 TightSCF
|  4> %maxcore 5000
|  5> %tddft
|  6>     Mode sTDDFT
|  7>     Ethresh 5.0
|  8>     maxcore 5000
|  9> end
| 10>
| 11> %pal
| 12>   nprocs 6
| 13>   end
| 14> * xyz 0 1
| 15>    C       -7.84079       -14.93747         9.34158
| 16>    C       -7.13535       -14.66207        10.44653
| 17>    C       -7.62197       -14.13044        11.68835
| 18>    C       -6.67210       -13.95833        12.63243
| 19>    C       -5.36120       -14.33878        12.22452
| 20>    S       -5.38745       -14.92296        10.57193
| 21>    C       -4.20972       -14.28765        12.96902
| 22>    C       -4.05884       -13.84617        14.30922
| 23>    C       -2.78921       -13.93182        14.77671
| 24>    C       -1.84925       -14.44740        13.84022
| 25>    S       -2.65833       -14.80748        12.32517
| 26>    C       -0.52024       -14.64981        14.08332
| 27>    C        0.44988       -15.17281        13.20497
| 28>    C        1.78019       -15.39675        13.50933
| 29>    C        2.50865       -15.92675        12.44211
| 30>   Cl        4.20254       -16.19748        12.53042
| 31>    C        1.76496       -16.13360        11.29766
| 32>    S        0.11618       -15.63479        11.55648
| 33>    C        2.18347       -16.65555        10.03359
| 34>    C        2.96046       -17.74736         9.74183
| 35>   Cl        3.52641       -18.84882        10.92771
| 36>    C        3.20888       -17.94994         8.36816
| 37>    C        2.60137       -17.00731         7.58794
| 38>    S        1.70051       -15.86621         8.54477
| 39>    N        2.68320       -16.83357         6.23237
| 40>    C        2.98184       -17.87391         5.34194
| 41>    C        2.63189       -19.18175         5.47988
| 42>    S        3.20496       -20.14288         4.18118
| 43>    C        3.91940       -18.77120         3.42158
| 44>    C        3.74136       -17.62837         4.14650
| 45>    N        4.20150       -16.36571         3.85354
| 46>    C        5.05767       -16.03032         2.83904
| 47>    C        5.54186       -14.78981         2.66978
| 48>    C        6.47027       -14.36740         1.64581
| 49>    C        7.11973       -15.27163         0.79230
| 50>    C        8.02152       -14.80711        -0.13220
| 51>    C        8.30063       -13.43426        -0.24357
| 52>    C        7.65913       -12.52757         0.58680
| 53>    C        6.75942       -13.00184         1.52004
| 54>    C        9.30049       -13.24922        -1.27325
| 55>    C        9.64250       -14.50900        -1.79594
| 56>    C        8.84647       -15.60034        -1.11895
| 57>    C        7.95303       -16.34994        -2.12437
| 58>    C        7.00671       -15.42327        -2.87791
| 59>    C        9.76976       -16.60243        -0.40166
| 60>    C       10.69121       -15.93461         0.61160
| 61>    C       10.59475       -14.63187        -2.77531
| 62>    C       11.24194       -13.48553        -3.26343
| 63>    C       10.87729       -12.23557        -2.74313
| 64>    C        9.91904       -12.10605        -1.75790
| 65>    C       12.27981       -13.54186        -4.26536
| 66>    C       12.79740       -14.65834        -4.81312
| 67>    C       13.84511       -14.68613        -5.78338
| 68>    C       14.52923       -13.66387        -6.39423
| 69>    C       15.50911       -14.11699        -7.29232
| 70>   Cl       16.43770       -13.03874        -8.25384
| 71>    C       15.60500       -15.48690        -7.38265
| 72>    S       14.43012       -16.22965        -6.33986
| 73>    C       16.48426       -16.29321        -8.18136
| 74>    C       17.83915       -16.18279        -8.37256
| 75>   Cl       18.82789       -15.03021        -7.57356
| 76>    C       18.37565       -17.16599        -9.23531
| 77>    C       17.42917       -18.02562        -9.68494
| 78>    S       15.86846       -17.65701        -9.07229
| 79>    H       -8.90201       -14.76426         9.31013
| 80>    H       -7.37601       -15.33654         8.45899
| 81>    H       -8.66552       -13.90253        11.81513
| 82>    H       -6.86000       -13.57202        13.61861
| 83>    H       -4.89223       -13.48423        14.88409
| 84>    H       -2.48301       -13.64742        15.76811
| 85>    H       -0.15897       -14.39365        15.07117
| 86>    H        2.21332       -15.17361        14.46680
| 87>    H        3.81838       -18.74896         7.99227
| 88>    H        2.15795       -16.05505         5.85858
| 89>    H        2.07251       -19.63185         6.27435
| 90>    H        4.43715       -18.90827         2.49563
| 91>    H        4.02974       -15.65968         4.55582
| 92>    H        5.30429       -16.84076         2.17340
| 93>    H        5.22395       -14.01709         3.35975
| 94>    H        6.92631       -16.33020         0.87485
| 95>    H        7.86398       -11.46971         0.51273
| 96>    H        6.26094       -12.30380         2.17808
| 97>    H        7.37151       -17.10004        -1.58370
| 98>    H        8.59187       -16.87403        -2.83858
| 99>    H        6.34903       -14.90232        -2.18562
|100>    H        6.39462       -15.99546        -3.57163
|101>    H        7.56625       -14.68127        -3.44308
|102>    H       10.37124       -17.12290        -1.15010
|103>    H        9.15234       -17.34671         0.10606
|104>    H       11.33138       -15.20313         0.12367
|105>    H       11.32221       -16.67875         1.09213
|106>    H       10.11190       -15.42568         1.37870
|107>    H       10.84709       -15.60551        -3.16571
|108>    H       11.37112       -11.35180        -3.12218
|109>    H        9.66173       -11.13203        -1.36884
|110>    H       12.67225       -12.58268        -4.57610
|111>    H       12.43271       -15.63265        -4.52046
|112>    H       14.33972       -12.62123        -6.22160
|113>    H       19.41851       -17.21980        -9.48621
|114>    H       17.55183       -18.86244       -10.34246
|115> *
|116>
|117>                          ****END OF INPUT****

CARTESIAN COORDINATES (ANGSTROEM)
---------------------------------
  C     -7.840790  -14.937470    9.341580
  C     -7.135350  -14.662070   10.446530
  C     -7.621970  -14.130440   11.688350
  C     -6.672100  -13.958330   12.632430
  C     -5.361200  -14.338780   12.224520
  S     -5.387450  -14.922960   10.571930
  C     -4.209720  -14.287650   12.969020
  C     -4.058840  -13.846170   14.309220
  C     -2.789210  -13.931820   14.776710
  C     -1.849250  -14.447400   13.840220
  S     -2.658330  -14.807480   12.325170
  C     -0.520240  -14.649810   14.083320
  C      0.449880  -15.172810   13.204970
  C      1.780190  -15.396750   13.509330
  C      2.508650  -15.926750   12.442110
  Cl     4.202540  -16.197480   12.530420
  C      1.764960  -16.133600   11.297660
  S      0.116180  -15.634790   11.556480
  C      2.183470  -16.655550   10.033590
  C      2.960460  -17.747360    9.741830
  Cl     3.526410  -18.848820   10.927710
  C      3.208880  -17.949940    8.368160
  C      2.601370  -17.007310    7.587940
  S      1.700510  -15.866210    8.544770
  N      2.683200  -16.833570    6.232370
  C      2.981840  -17.873910    5.341940
  C      2.631890  -19.181750    5.479880
  S      3.204960  -20.142880    4.181180
  C      3.919400  -18.771200    3.421580
  C      3.741360  -17.628370    4.146500
  N      4.201500  -16.365710    3.853540
  C      5.057670  -16.030320    2.839040
  C      5.541860  -14.789810    2.669780
  C      6.470270  -14.367400    1.645810
  C      7.119730  -15.271630    0.792300
  C      8.021520  -14.807110   -0.132200
  C      8.300630  -13.434260   -0.243570
  C      7.659130  -12.527570    0.586800
  C      6.759420  -13.001840    1.520040
  C      9.300490  -13.249220   -1.273250
  C      9.642500  -14.509000   -1.795940
  C      8.846470  -15.600340   -1.118950
  C      7.953030  -16.349940   -2.124370
  C      7.006710  -15.423270   -2.877910
  C      9.769760  -16.602430   -0.401660
  C     10.691210  -15.934610    0.611600
  C     10.594750  -14.631870   -2.775310
  C     11.241940  -13.485530   -3.263430
  C     10.877290  -12.235570   -2.743130
  C      9.919040  -12.106050   -1.757900
  C     12.279810  -13.541860   -4.265360
  C     12.797400  -14.658340   -4.813120
  C     13.845110  -14.686130   -5.783380
  C     14.529230  -13.663870   -6.394230
  C     15.509110  -14.116990   -7.292320
  Cl    16.437700  -13.038740   -8.253840
  C     15.605000  -15.486900   -7.382650
  S     14.430120  -16.229650   -6.339860
  C     16.484260  -16.293210   -8.181360
  C     17.839150  -16.182790   -8.372560
  Cl    18.827890  -15.030210   -7.573560
  C     18.375650  -17.165990   -9.235310
  C     17.429170  -18.025620   -9.684940
  S     15.868460  -17.657010   -9.072290
  H     -8.902010  -14.764260    9.310130
  H     -7.376010  -15.336540    8.458990
  H     -8.665520  -13.902530   11.815130
  H     -6.860000  -13.572020   13.618610
  H     -4.892230  -13.484230   14.884090
  H     -2.483010  -13.647420   15.768110
  H     -0.158970  -14.393650   15.071170
  H      2.213320  -15.173610   14.466800
  H      3.818380  -18.748960    7.992270
  H      2.157950  -16.055050    5.858580
  H      2.072510  -19.631850    6.274350
  H      4.437150  -18.908270    2.495630
  H      4.029740  -15.659680    4.555820
  H      5.304290  -16.840760    2.173400
  H      5.223950  -14.017090    3.359750
  H      6.926310  -16.330200    0.874850
  H      7.863980  -11.469710    0.512730
  H      6.260940  -12.303800    2.178080
  H      7.371510  -17.100040   -1.583700
  H      8.591870  -16.874030   -2.838580
  H      6.349030  -14.902320   -2.185620
  H      6.394620  -15.995460   -3.571630
  H      7.566250  -14.681270   -3.443080
  H     10.371240  -17.122900   -1.150100
  H      9.152340  -17.346710    0.106060
  H     11.331380  -15.203130    0.123670
  H     11.322210  -16.678750    1.092130
  H     10.111900  -15.425680    1.378700
  H     10.847090  -15.605510   -3.165710
  H     11.371120  -11.351800   -3.122180
  H      9.661730  -11.132030   -1.368840
  H     12.672250  -12.582680   -4.576100
  H     12.432710  -15.632650   -4.520460
  H     14.339720  -12.621230   -6.221600
  H     19.418510  -17.219800   -9.486210
  H     17.551830  -18.862440  -10.342460

 Total Charge           Charge          ....    0
 Multiplicity           Mult            ....    1
 Number of Electrons    NEL             ....  536
 Basis Dimension        Dim             .... 1120

ORBITAL ENERGIES
----------------

  NO   OCC          E(Eh)            E(eV)
   0   2.0000    -101.575315     -2764.0048
   1   2.0000    -101.575251     -2764.0031
   2   2.0000    -101.574938     -2763.9946
   3   2.0000    -101.573338     -2763.9511
   4   2.0000     -88.956350     -2420.6253
   5   2.0000     -88.955139     -2420.5924
   6   2.0000     -88.953646     -2420.5518
   7   2.0000     -88.952997     -2420.5341
   8   2.0000     -88.951225     -2420.4859
   9   2.0000     -88.941651     -2420.2254
  10   2.0000     -88.936119     -2420.0748
  11   2.0000     -14.453954      -393.3121
  12   2.0000     -14.445452      -393.0807
  13   2.0000     -10.341678      -281.4114
  14   2.0000     -10.319310      -280.8027
  15   2.0000     -10.319082      -280.7965
  16   2.0000     -10.317970      -280.7662
  17   2.0000     -10.317775      -280.7609
  18   2.0000     -10.315887      -280.7095
  19   2.0000     -10.315833      -280.7081
  20   2.0000     -10.310585      -280.5653
  21   2.0000     -10.308025      -280.4956
  22   2.0000     -10.305686      -280.4320
  23   2.0000     -10.304842      -280.4090
  24   2.0000     -10.304650      -280.4038
  25   2.0000     -10.304518      -280.4002
  26   2.0000     -10.303331      -280.3679
  27   2.0000     -10.302298      -280.3398
  28   2.0000     -10.301048      -280.3058
  29   2.0000     -10.300726      -280.2970
  30   2.0000     -10.297884      -280.2197
  31   2.0000     -10.294141      -280.1178
  32   2.0000     -10.291485      -280.0455
  33   2.0000     -10.287995      -279.9506
  34   2.0000     -10.284449      -279.8541
  35   2.0000     -10.283358      -279.8244
  36   2.0000     -10.282082      -279.7897
  37   2.0000     -10.282007      -279.7876
  38   2.0000     -10.281515      -279.7742
  39   2.0000     -10.275795      -279.6186
  40   2.0000     -10.274443      -279.5818
  41   2.0000     -10.272736      -279.5353
  42   2.0000     -10.271970      -279.5145
  43   2.0000     -10.271592      -279.5042
  44   2.0000     -10.271084      -279.4904
  45   2.0000     -10.270981      -279.4876
  46   2.0000     -10.270675      -279.4793
  47   2.0000     -10.268491      -279.4198
  48   2.0000     -10.263986      -279.2973
  49   2.0000     -10.263661      -279.2884
  50   2.0000     -10.263485      -279.2836
  51   2.0000     -10.263344      -279.2798
  52   2.0000     -10.263219      -279.2764
  53   2.0000     -10.262658      -279.2611
  54   2.0000     -10.260628      -279.2059
  55   2.0000     -10.259948      -279.1874
  56   2.0000     -10.258977      -279.1610
  57   2.0000     -10.258386      -279.1449
  58   2.0000     -10.258181      -279.1393
  59   2.0000     -10.257974      -279.1337
  60   2.0000     -10.257380      -279.1175
  61   2.0000     -10.256834      -279.1026
  62   2.0000     -10.241004      -278.6719
  63   2.0000     -10.239843      -278.6403
  64   2.0000      -9.530189      -259.3296
  65   2.0000      -9.530133      -259.3281
  66   2.0000      -9.529792      -259.3188
  67   2.0000      -9.528163      -259.2745
  68   2.0000      -8.052522      -219.1203
  69   2.0000      -8.051097      -219.0815
  70   2.0000      -8.049425      -219.0360
  71   2.0000      -8.048198      -219.0026
  72   2.0000      -8.047102      -218.9728
  73   2.0000      -8.037618      -218.7147
  74   2.0000      -8.032865      -218.5854
  75   2.0000      -7.300523      -198.6573
  76   2.0000      -7.300469      -198.6559
  77   2.0000      -7.300146      -198.6471
  78   2.0000      -7.298533      -198.6032
  79   2.0000      -7.290337      -198.3802
  80   2.0000      -7.290313      -198.3795
  81   2.0000      -7.289970      -198.3702
  82   2.0000      -7.289930      -198.3691
  83   2.0000      -7.289895      -198.3681
  84   2.0000      -7.289520      -198.3579
  85   2.0000      -7.288316      -198.3252
  86   2.0000      -7.287907      -198.3140
  87   2.0000      -6.022097      -163.8696
  88   2.0000      -6.020434      -163.8243
  89   2.0000      -6.018607      -163.7746
  90   2.0000      -6.018069      -163.7600
  91   2.0000      -6.017507      -163.7447
  92   2.0000      -6.016581      -163.7195
  93   2.0000      -6.016143      -163.7076
  94   2.0000      -6.014704      -163.6684
  95   2.0000      -6.013838      -163.6448
  96   2.0000      -6.013469      -163.6348
  97   2.0000      -6.013218      -163.6280
  98   2.0000      -6.012277      -163.6024
  99   2.0000      -6.011487      -163.5809
 100   2.0000      -6.010164      -163.5449
 101   2.0000      -6.009020      -163.5138
 102   2.0000      -6.007473      -163.4717
 103   2.0000      -6.003367      -163.3599
 104   2.0000      -6.002716      -163.3422
 105   2.0000      -5.998780      -163.2351
 106   2.0000      -5.998385      -163.2243
 107   2.0000      -5.993338      -163.0870
 108   2.0000      -1.068374       -29.0719
 109   2.0000      -1.041593       -28.3432
 110   2.0000      -1.006227       -27.3808
 111   2.0000      -1.002166       -27.2703
 112   2.0000      -0.989934       -26.9375
 113   2.0000      -0.984625       -26.7930
 114   2.0000      -0.980762       -26.6879
 115   2.0000      -0.979502       -26.6536
 116   2.0000      -0.966954       -26.3122
 117   2.0000      -0.964282       -26.2395
 118   2.0000      -0.940989       -25.6056
 119   2.0000      -0.936930       -25.4952
 120   2.0000      -0.935783       -25.4640
 121   2.0000      -0.929455       -25.2918
 122   2.0000      -0.925180       -25.1754
 123   2.0000      -0.912832       -24.8394
 124   2.0000      -0.887698       -24.1555
 125   2.0000      -0.887395       -24.1472
 126   2.0000      -0.875604       -23.8264
 127   2.0000      -0.864397       -23.5214
 128   2.0000      -0.856386       -23.3034
 129   2.0000      -0.843485       -22.9524
 130   2.0000      -0.842484       -22.9252
 131   2.0000      -0.837794       -22.7975
 132   2.0000      -0.831478       -22.6257
 133   2.0000      -0.824428       -22.4338
 134   2.0000      -0.823948       -22.4208
 135   2.0000      -0.821035       -22.3415
 136   2.0000      -0.819366       -22.2961
 137   2.0000      -0.813135       -22.1265
 138   2.0000      -0.807584       -21.9755
 139   2.0000      -0.807109       -21.9625
 140   2.0000      -0.802330       -21.8325
 141   2.0000      -0.800335       -21.7782
 142   2.0000      -0.786773       -21.4092
 143   2.0000      -0.782458       -21.2918
 144   2.0000      -0.761648       -20.7255
 145   2.0000      -0.757072       -20.6010
 146   2.0000      -0.754316       -20.5260
 147   2.0000      -0.734917       -19.9981
 148   2.0000      -0.723149       -19.6779
 149   2.0000      -0.707676       -19.2569
 150   2.0000      -0.702288       -19.1102
 151   2.0000      -0.688696       -18.7404
 152   2.0000      -0.679316       -18.4851
 153   2.0000      -0.676230       -18.4012
 154   2.0000      -0.672864       -18.3096
 155   2.0000      -0.668537       -18.1918
 156   2.0000      -0.667254       -18.1569
 157   2.0000      -0.665104       -18.0984
 158   2.0000      -0.655966       -17.8497
 159   2.0000      -0.652702       -17.7609
 160   2.0000      -0.647688       -17.6245
 161   2.0000      -0.645262       -17.5585
 162   2.0000      -0.639811       -17.4101
 163   2.0000      -0.636025       -17.3071
 164   2.0000      -0.626195       -17.0396
 165   2.0000      -0.620613       -16.8877
 166   2.0000      -0.619855       -16.8671
 167   2.0000      -0.617973       -16.8159
 168   2.0000      -0.598911       -16.2972
 169   2.0000      -0.593648       -16.1540
 170   2.0000      -0.592968       -16.1355
 171   2.0000      -0.589205       -16.0331
 172   2.0000      -0.586373       -15.9560
 173   2.0000      -0.585267       -15.9259
 174   2.0000      -0.580909       -15.8073
 175   2.0000      -0.579705       -15.7746
 176   2.0000      -0.569685       -15.5019
 177   2.0000      -0.561967       -15.2919
 178   2.0000      -0.552563       -15.0360
 179   2.0000      -0.547654       -14.9024
 180   2.0000      -0.542512       -14.7625
 181   2.0000      -0.538536       -14.6543
 182   2.0000      -0.536675       -14.6037
 183   2.0000      -0.529862       -14.4183
 184   2.0000      -0.525781       -14.3072
 185   2.0000      -0.522270       -14.2117
 186   2.0000      -0.519457       -14.1351
 187   2.0000      -0.516008       -14.0413
 188   2.0000      -0.511779       -13.9262
 189   2.0000      -0.511424       -13.9165
 190   2.0000      -0.510362       -13.8876
 191   2.0000      -0.509700       -13.8697
 192   2.0000      -0.504746       -13.7348
 193   2.0000      -0.503505       -13.7011
 194   2.0000      -0.502214       -13.6659
 195   2.0000      -0.499924       -13.6036
 196   2.0000      -0.497783       -13.5454
 197   2.0000      -0.495625       -13.4867
 198   2.0000      -0.494077       -13.4445
 199   2.0000      -0.489693       -13.3252
 200   2.0000      -0.487958       -13.2780
 201   2.0000      -0.485240       -13.2041
 202   2.0000      -0.484398       -13.1811
 203   2.0000      -0.481727       -13.1085
 204   2.0000      -0.479479       -13.0473
 205   2.0000      -0.475933       -12.9508
 206   2.0000      -0.474266       -12.9054
 207   2.0000      -0.471691       -12.8354
 208   2.0000      -0.470576       -12.8050
 209   2.0000      -0.465099       -12.6560
 210   2.0000      -0.465067       -12.6551
 211   2.0000      -0.464441       -12.6381
 212   2.0000      -0.461117       -12.5476
 213   2.0000      -0.459731       -12.5099
 214   2.0000      -0.459003       -12.4901
 215   2.0000      -0.458330       -12.4718
 216   2.0000      -0.453682       -12.3453
 217   2.0000      -0.452797       -12.3212
 218   2.0000      -0.449848       -12.2410
 219   2.0000      -0.445575       -12.1247
 220   2.0000      -0.439049       -11.9471
 221   2.0000      -0.433369       -11.7926
 222   2.0000      -0.430853       -11.7241
 223   2.0000      -0.430325       -11.7097
 224   2.0000      -0.428261       -11.6536
 225   2.0000      -0.426863       -11.6155
 226   2.0000      -0.426024       -11.5927
 227   2.0000      -0.423320       -11.5191
 228   2.0000      -0.421204       -11.4615
 229   2.0000      -0.419061       -11.4032
 230   2.0000      -0.418431       -11.3861
 231   2.0000      -0.416268       -11.3272
 232   2.0000      -0.413077       -11.2404
 233   2.0000      -0.412781       -11.2323
 234   2.0000      -0.411130       -11.1874
 235   2.0000      -0.408356       -11.1119
 236   2.0000      -0.402551       -10.9540
 237   2.0000      -0.401065       -10.9135
 238   2.0000      -0.392537       -10.6815
 239   2.0000      -0.388561       -10.5733
 240   2.0000      -0.386046       -10.5049
 241   2.0000      -0.383376       -10.4322
 242   2.0000      -0.382560       -10.4100
 243   2.0000      -0.379884       -10.3372
 244   2.0000      -0.376489       -10.2448
 245   2.0000      -0.375194       -10.2095
 246   2.0000      -0.373726       -10.1696
 247   2.0000      -0.362162        -9.8549
 248   2.0000      -0.354272        -9.6402
 249   2.0000      -0.353593        -9.6217
 250   2.0000      -0.345810        -9.4100
 251   2.0000      -0.336058        -9.1446
 252   2.0000      -0.334737        -9.1086
 253   2.0000      -0.325844        -8.8667
 254   2.0000      -0.318670        -8.6714
 255   2.0000      -0.313670        -8.5354
 256   2.0000      -0.312993        -8.5170
 257   2.0000      -0.308028        -8.3819
 258   2.0000      -0.306812        -8.3488
 259   2.0000      -0.306523        -8.3409
 260   2.0000      -0.300499        -8.1770
 261   2.0000      -0.299620        -8.1531
 262   2.0000      -0.287831        -7.8323
 263   2.0000      -0.282930        -7.6989
 264   2.0000      -0.254213        -6.9175
 265   2.0000      -0.248579        -6.7642
 266   2.0000      -0.226139        -6.1536
 267   2.0000      -0.213019        -5.7966
 268   0.0000      -0.064576        -1.7572
 269   0.0000      -0.039943        -1.0869
 270   0.0000      -0.004418        -0.1202
 271   0.0000      -0.003115        -0.0848
 272   0.0000       0.013655         0.3716

MULLIKEN ATOMIC CHARGES
-----------------------
   0 C :   -0.029275
   1 C :   -0.064827
   2 C :    0.051091
   3 C :    0.032402
   4 C :   -0.068125
   5 S :    0.080071
   6 C :   -0.041280
   7 C :    0.032345
   8 C :    0.035523
   9 C :   -0.032794
  10 S :    0.062264
  11 C :    0.006412
  12 C :   -0.051270
  13 C :   -0.018383
  14 C :    0.126948
  15 Cl:   -0.077042
  16 C :   -0.145569
  17 S :    0.125044
  18 C :   -0.150606
  19 C :    0.112765
  20 Cl:   -0.072477
  21 C :   -0.034550
  22 C :   -0.028478
  23 S :    0.111846
  24 N :   -0.080813
  25 C :    0.116032
  26 C :   -0.161256
  27 S :    0.114200
  28 C :   -0.237576
  29 C :    0.133054
  30 N :   -0.041119
  31 C :    0.086633
  32 C :   -0.041496
  33 C :    0.132012
  34 C :   -0.096441
  35 C :    0.015788
  36 C :    0.096529
  37 C :   -0.045809
  38 C :   -0.032260
  39 C :    0.109445
  40 C :    0.011516
  41 C :   -0.143031
  42 C :    0.070257
  43 C :    0.024433
  44 C :    0.067484
  45 C :    0.026922
  46 C :   -0.087130
  47 C :    0.119066
  48 C :   -0.021855
  49 C :   -0.046914
  50 C :   -0.014487
  51 C :    0.090432
  52 C :   -0.066082
  53 C :   -0.016315
  54 C :    0.108075
  55 Cl:   -0.072435
  56 C :   -0.151522
  57 S :    0.139812
  58 C :   -0.161732
  59 C :    0.098085
  60 Cl:   -0.074012
  61 C :    0.039530
  62 C :   -0.064527
  63 S :    0.137609
  64 H :    0.020136
  65 H :    0.021503
  66 H :   -0.011281
  67 H :   -0.012773
  68 H :   -0.015348
  69 H :   -0.014309
  70 H :   -0.015416
  71 H :   -0.021192
  72 H :   -0.015416
  73 H :    0.135960
  74 H :    0.026227
  75 H :    0.012334
  76 H :    0.105199
  77 H :    0.002039
  78 H :   -0.040249
  79 H :   -0.059014
  80 H :   -0.039631
  81 H :   -0.037075
  82 H :   -0.007387
  83 H :   -0.004169
  84 H :    0.022495
  85 H :    0.006436
  86 H :    0.022465
  87 H :   -0.005113
  88 H :   -0.005925
  89 H :    0.021596
  90 H :    0.007142
  91 H :    0.022861
  92 H :   -0.046695
  93 H :   -0.031330
  94 H :   -0.038645
  95 H :   -0.026275
  96 H :   -0.024764
  97 H :   -0.021122
  98 H :   -0.009049
  99 H :    0.033647
Sum of atomic charges:   -0.0000000

LOEWDIN ATOMIC CHARGES
----------------------
   0 C :   -0.076913
   1 C :   -0.139104
   2 C :   -0.030735
   3 C :   -0.026435
   4 C :   -0.175661
   5 S :    0.350632
   6 C :   -0.180427
   7 C :   -0.034524
   8 C :   -0.032351
   9 C :   -0.151062
  10 S :    0.359915
  11 C :   -0.074519
  12 C :   -0.167533
  13 C :   -0.074704
  14 C :   -0.162034
  15 Cl:    0.137283
  16 C :   -0.223979
  17 S :    0.430520
  18 C :   -0.241117
  19 C :   -0.147667
  20 Cl:    0.143677
  21 C :   -0.132713
  22 C :   -0.110740
  23 S :    0.398374
  24 N :   -0.018410
  25 C :   -0.045040
  26 C :   -0.199957
  27 S :    0.437702
  28 C :   -0.249277
  29 C :   -0.019129
  30 N :    0.020090
  31 C :    0.041428
  32 C :   -0.092960
  33 C :   -0.011248
  34 C :   -0.032541
  35 C :    0.007305
  36 C :   -0.030608
  37 C :   -0.016566
  38 C :   -0.031184
  39 C :   -0.012927
  40 C :    0.003142
  41 C :   -0.035690
  42 C :   -0.012014
  43 C :   -0.057904
  44 C :   -0.012296
  45 C :   -0.057597
  46 C :   -0.017078
  47 C :   -0.029394
  48 C :   -0.017953
  49 C :   -0.022699
  50 C :   -0.004589
  51 C :   -0.050103
  52 C :   -0.159756
  53 C :   -0.075792
  54 C :   -0.156772
  55 Cl:    0.139419
  56 C :   -0.228115
  57 S :    0.437954
  58 C :   -0.224867
  59 C :   -0.164697
  60 Cl:    0.140088
  61 C :   -0.075539
  62 C :   -0.178668
  63 S :    0.439491
  64 H :    0.028662
  65 H :    0.026232
  66 H :    0.033428
  67 H :    0.032051
  68 H :    0.031067
  69 H :    0.032849
  70 H :    0.039369
  71 H :    0.031379
  72 H :    0.031823
  73 H :    0.079278
  74 H :    0.027621
  75 H :    0.017667
  76 H :    0.076676
  77 H :    0.025483
  78 H :    0.020996
  79 H :    0.017699
  80 H :    0.025443
  81 H :    0.022824
  82 H :    0.017865
  83 H :    0.018904
  84 H :    0.025913
  85 H :    0.022747
  86 H :    0.025907
  87 H :    0.018586
  88 H :    0.018272
  89 H :    0.025673
  90 H :    0.023122
  91 H :    0.026212
  92 H :    0.021334
  93 H :    0.024902
  94 H :    0.025868
  95 H :    0.027130
  96 H :    0.023474
  97 H :    0.030468
  98 H :    0.033640
  99 H :    0.026003

  Mayer bond orders larger than 0.100000
B(  0-C ,  1-C ) :   1.8678 B(  0-C , 64-H ) :   0.9505 B(  0-C , 65-H ) :   0.9409
B(  1-C ,  2-C ) :   1.0787 B(  1-C ,  5-S ) :   1.0070 B(  2-C ,  3-C ) :   1.6658
B(  2-C , 66-H ) :   0.9927 B(  3-C ,  4-C ) :   1.1475 B(  3-C , 67-H ) :   0.9911
B(  4-C ,  5-S ) :   1.0433 B(  4-C ,  6-C ) :   1.5726 B(  6-C ,  7-C ) :   1.1619
B(  6-C , 10-S ) :   1.0292 B(  7-C ,  8-C ) :   1.6208 B(  7-C , 68-H ) :   0.9907
B(  8-C ,  9-C ) :   1.1271 B(  8-C , 69-H ) :   0.9989 B(  9-C , 10-S ) :   1.0307
B(  9-C , 11-C ) :   1.5915 B( 11-C , 12-C ) :   1.1699 B( 11-C , 70-H ) :   0.9680
B( 12-C , 13-C ) :   1.4394 B( 12-C , 16-C ) :   0.1003 B( 12-C , 17-S ) :   1.0959
B( 13-C , 14-C ) :   1.2520 B( 13-C , 71-H ) :   1.0109 B( 14-C , 15-Cl) :   1.0403
B( 14-C , 16-C ) :   1.5368 B( 16-C , 17-S ) :   1.1241 B( 16-C , 18-C ) :   1.0551
B( 18-C , 19-C ) :   1.6039 B( 18-C , 23-S ) :   1.0696 B( 19-C , 20-Cl) :   1.0492
B( 19-C , 21-C ) :   1.1994 B( 21-C , 22-C ) :   1.4964 B( 21-C , 72-H ) :   1.0105
B( 22-C , 23-S ) :   1.1208 B( 22-C , 24-N ) :   1.1428 B( 24-N , 25-C ) :   1.0145
B( 24-N , 73-H ) :   0.9114 B( 25-C , 26-C ) :   1.5456 B( 25-C , 29-C ) :   1.2626
B( 26-C , 27-S ) :   1.1728 B( 26-C , 74-H ) :   0.9764 B( 27-S , 28-C ) :   1.1264
B( 28-C , 29-C ) :   1.5080 B( 28-C , 75-H ) :   0.9750 B( 29-C , 30-N ) :   1.1549
B( 30-N , 31-C ) :   1.1380 B( 30-N , 76-H ) :   0.9110 B( 31-C , 32-C ) :   1.6877
B( 31-C , 77-H ) :   0.9628 B( 32-C , 33-C ) :   1.0890 B( 32-C , 78-H ) :   0.9729
B( 33-C , 34-C ) :   1.3001 B( 33-C , 38-C ) :   1.3442 B( 34-C , 35-C ) :   1.4179
B( 34-C , 79-H ) :   0.9939 B( 35-C , 36-C ) :   1.3598 B( 35-C , 41-C ) :   0.9175
B( 36-C , 37-C ) :   1.3448 B( 36-C , 39-C ) :   0.9936 B( 37-C , 38-C ) :   1.3778
B( 37-C , 80-H ) :   0.9904 B( 38-C , 81-H ) :   0.9916 B( 39-C , 40-C ) :   1.3534
B( 39-C , 49-C ) :   1.3466 B( 40-C , 41-C ) :   0.9153 B( 40-C , 46-C ) :   1.4193
B( 41-C , 42-C ) :   1.0361 B( 41-C , 44-C ) :   1.0401 B( 42-C , 43-C ) :   1.1010
B( 42-C , 82-H ) :   0.9389 B( 42-C , 83-H ) :   0.9395 B( 43-C , 84-H ) :   0.9645
B( 43-C , 85-H ) :   0.9639 B( 43-C , 86-H ) :   0.9644 B( 44-C , 45-C ) :   1.1019
B( 44-C , 87-H ) :   0.9383 B( 44-C , 88-H ) :   0.9384 B( 45-C , 89-H ) :   0.9639
B( 45-C , 90-H ) :   0.9640 B( 45-C , 91-H ) :   0.9642 B( 46-C , 47-C ) :   1.2918
B( 46-C , 92-H ) :   0.9986 B( 47-C , 48-C ) :   1.3391 B( 47-C , 50-C ) :   1.0742
B( 48-C , 49-C ) :   1.3719 B( 48-C , 93-H ) :   0.9926 B( 49-C , 94-H ) :   0.9912
B( 50-C , 51-C ) :   1.7159 B( 50-C , 95-H ) :   0.9847 B( 51-C , 52-C ) :   1.0920
B( 51-C , 96-H ) :   0.9524 B( 52-C , 53-C ) :   1.5029 B( 52-C , 56-C ) :   0.1076
B( 52-C , 57-S ) :   1.1215 B( 53-C , 54-C ) :   1.2359 B( 53-C , 97-H ) :   1.0044
B( 54-C , 55-Cl) :   1.0478 B( 54-C , 56-C ) :   1.5728 B( 56-C , 57-S ) :   1.1263
B( 56-C , 58-C ) :   1.0393 B( 58-C , 59-C ) :   1.5704 B( 58-C , 63-S ) :   1.1445
B( 59-C , 60-Cl) :   1.0508 B( 59-C , 61-C ) :   1.2388 B( 61-C , 62-C ) :   1.5719
B( 61-C , 98-H ) :   1.0000 B( 62-C , 63-S ) :   1.1588 B( 62-C , 99-H ) :   0.9702

-----------------------------------------------------------------------------
         ABSORPTION SPECTRUM VIA TRANSITION ELECTRIC DIPOLE MOMENTS
-----------------------------------------------------------------------------
State   Energy  Wavelength   fosc         T2         TX        TY        TZ
        (cm-1)    (nm)                  (au**2)     (au)      (au)      (au)
-----------------------------------------------------------------------------
   0   18673.5    535.5   1.231425592  21.70995   4.58897  -0.76886   0.24530
   1   26098.5    383.2   2.058640758  25.96815   3.32633  -0.03078  -3.86041
   2   26465.3    377.9   0.196314659   2.44203  -1.42272  -0.37456  -0.52688
   3   27933.7    358.0   0.004725768   0.05570  -0.07110  -0.06598  -0.21514
   4   29946.7    333.9   0.373947840   4.11091  -0.40109  -0.66846  -1.87168
   5   31643.8    316.0   0.130440331   1.35706  -0.43806   1.05321   0.23645
   6   31717.4    315.3   0.103597822   1.07530   0.24714  -0.67478  -0.74759
   7   32378.3    308.8   0.304947597   3.10061   0.58746  -1.57871  -0.51301
   8   33808.3    295.8   0.034719252   0.33808   0.40031  -0.26716  -0.32627
   9   34094.4    293.3   0.338146799   3.26511  -0.08263   0.61500   1.69707
  10   34611.3    288.9   0.068047827   0.64725   0.14926   0.65859   0.43730
  11   34823.2    287.2   0.273869008   2.58910  -0.68973  -1.29799   0.65467
  12   35353.3    282.9   0.069564072   0.64778   0.08478  -0.17005  -0.78210
  13   36625.8    273.0   0.003586320   0.03224  -0.03414  -0.05517  -0.16741
  14   37313.9    268.0   0.058583791   0.51687  -0.29909   0.23644   0.60952
  15   37455.3    267.0   0.013355919   0.11739  -0.01482   0.19200   0.28339
  16   38055.0    262.8   0.052791978   0.45670  -0.11109  -0.64408   0.17182
  17   38381.6    260.5   0.059973631   0.51441   0.58057  -0.18295   0.37932
  18   38767.6    257.9   0.019823578   0.16834  -0.22662  -0.14916   0.30779
  19   39237.5    254.9   0.052716995   0.44231  -0.24622   0.08222   0.61231
  20   39624.5    252.4   0.103661491   0.86125  -0.81336  -0.32251  -0.30933
  21   39972.2    250.2   0.019066240   0.15703  -0.16224  -0.08438   0.35155
  22   40065.8    249.6   0.033381967   0.27429   0.17533   0.44274   0.21803

FINAL SINGLE POINT ENERGY     -6698.616525639556

DIPOLE MOMENT
-------------
                                X             Y             Z
Electronic contribution:     31.25838     -11.54748      21.85295
Nuclear contribution   :    -33.49432      11.76080     -21.16810
                        -----------------------------------------
Total Dipole Moment    :     -2.23593       0.21332       0.68485
                        -----------------------------------------
Magnitude (a.u.)       :      2.34817
Magnitude (Debye)      :      5.96858

Rotational constants in cm-1:     0.002135     0.000141     0.000139
Rotational constants in MHz :    64.002399     4.217645     4.158708

                             ****ORCA TERMINATED NORMALLY****
TOTAL RUN TIME: 0 days 0 hours 7 minutes 39 seconds 99 msec
