                         Program Version 4.2.0 -  RELEASE  -
|  1> # ORCA input file
|  2> # SCF done       -152.511753812319          0.000543010639
|  3> ! CAM-B3LYP def2-SVP def2/J RIJCOSX Grid4 TightSCF
|  4> %maxcore 5000
|  5> %tddft
|  6>     Mode sTDDFT
|  7>     Ethresh 5.0
|  8>     maxcore 5000
|  9> end
| 10>
| 11> %pal
| 12>   nprocs 6
| 13>   end
| 14> * xyz 0 1
| 15>    C        9.40107        -4.95291         3.55587
| 16>    C        9.48897        -4.86680         2.22117
| 17>    C       10.49991        -4.20701         1.44674
| 18>    C       10.32392        -4.29364         0.10895
| 19>    C        9.16832        -5.02263        -0.28491
| 20>    S        8.30354        -5.59699         1.12559
| 21>    C        8.73850        -5.27928        -1.56685
| 22>    C        9.34072        -4.88406        -2.78421
| 23>    C        8.66962        -5.30374        -3.89074
| 24>    C        7.49940        -6.05367        -3.61770
| 25>    S        7.28067        -6.20477        -1.88648
| 26>    C        6.65479        -6.58748        -4.56395
| 27>    C        5.49322        -7.32824        -4.34890
| 28>    S        4.89247        -7.72584        -2.77079
| 29>    C        3.53785        -8.62574        -3.38927
| 30>    C        3.52448        -8.58137        -4.79517
| 31>    C        4.63321        -7.86113        -5.33802
| 32>    C        4.77300        -7.72438        -6.72723
| 33>    C        3.82478        -8.26493        -7.55057
| 34>    F        3.94571        -8.13986        -8.88495
| 35>    C        2.70529        -8.93365        -7.01865
| 36>    F        1.76865        -9.41551        -7.85751
| 37>    C        2.54721        -9.09156        -5.67116
| 38>    C        2.68711        -9.24425        -2.44184
| 39>    C        1.78870       -10.23890        -2.64777
| 40>    C        0.97618       -10.75965        -1.59631
| 41>    C        0.10693       -11.78106        -1.71185
| 42>    C       -0.13644       -12.52625        -2.99047
| 43>    C       -0.71486       -12.23130        -0.53577
| 44>    N       -2.12118       -12.06353        -0.82489
| 45>    C       -3.09187       -12.99788        -0.66664
| 46>    C       -2.98235       -14.18438        -0.02739
| 47>    C       -4.07281       -15.08717         0.10105
| 48>    S       -3.88314       -16.54384         1.02636
| 49>    C       -5.51899       -17.07616         0.76319
| 50>    C       -6.17475       -16.13874        -0.02454
| 51>    C       -5.36882       -15.02270        -0.40283
| 52>    N       -5.87232       -14.03352        -1.19269
| 53>    C       -7.10868       -14.15695        -1.56987
| 54>    O       -7.68091       -13.24298        -2.36042
| 55>    C       -6.85225       -12.16058        -2.76005
| 56>    C       -7.64480       -11.28506        -3.71391
| 57>    C       -7.93283       -15.28389        -1.16697
| 58>    O       -9.19387       -15.29640        -1.60218
| 59>    C       -9.97749       -16.41180        -1.19494
| 60>    C      -11.36442       -16.25924        -1.79217
| 61>    N       -7.47335       -16.24141        -0.42155
| 62>    C       -6.11531       -18.26321         1.27381
| 63>    C       -5.56182       -19.22543         2.02986
| 64>    C       -4.13141       -19.22958         2.46526
| 65>    C       -6.38587       -20.39748         2.48790
| 66>    N       -5.78100       -21.63625         2.04472
| 67>    C       -6.10499       -22.83211         2.63793
| 68>    C       -5.99604       -24.02604         2.06516
| 69>    H       10.14300        -4.49498         4.18582
| 70>    H        8.59487        -5.47600         4.03633
| 71>    H       11.31514        -3.69754         1.92915
| 72>    H       10.98580        -3.85863        -0.61879
| 73>    H       10.24696        -4.30625        -2.80993
| 74>    H        8.97741        -5.09999        -4.90144
| 75>    H        6.92837        -6.40935        -5.59508
| 76>    H        5.60651        -7.19587        -7.15969
| 77>    H        1.66045        -9.57713        -5.30378
| 78>    H        2.82242        -8.89225        -1.42530
| 79>    H        1.68683       -10.69000        -3.62063
| 80>    H        1.08825       -10.28169        -0.63090
| 81>    H       -0.40457       -11.84829        -3.79988
| 82>    H       -0.94154       -13.24589        -2.86456
| 83>    H        0.76096       -13.06546        -3.29329
| 84>    H       -0.44200       -11.66220         0.36238
| 85>    H       -0.52634       -13.28972        -0.34130
| 86>    H       -2.36037       -11.22392        -1.32545
| 87>    H       -4.05135       -12.73392        -1.08622
| 88>    H       -2.05950       -14.49872         0.43801
| 89>    H       -5.94975       -12.55916        -3.24034
| 90>    H       -6.54221       -11.59936        -1.86929
| 91>    H       -7.94407       -11.86101        -4.58523
| 92>    H       -7.03712       -10.44328        -4.03357
| 93>    H       -8.53950       -10.91418        -3.22171
| 94>    H      -10.01432       -16.44103        -0.09928
| 95>    H       -9.49236       -17.33325        -1.53848
| 96>    H      -11.81934       -15.33510        -1.44632
| 97>    H      -11.98714       -17.09768        -1.49364
| 98>    H      -11.30195       -16.22870        -2.87651
| 99>    H       -7.15818       -18.34371         0.99184
|100>    H       -3.89952       -20.15870         2.97865
|101>    H       -3.92973       -18.39205         3.13397
|102>    H       -3.46423       -19.12625         1.61004
|103>    H       -7.42217       -20.29142         2.12890
|104>    H       -6.41012       -20.41982         3.58417
|105>    H       -5.63607       -21.68791         1.04547
|106>    H       -6.41054       -22.73842         3.67251
|107>    H       -5.69084       -24.13513         1.03840
|108>    H       -6.18633       -24.92804         2.61469
|109> *
|110>
|111>                          ****END OF INPUT****

CARTESIAN COORDINATES (ANGSTROEM)
---------------------------------
  C      9.401070   -4.952910    3.555870
  C      9.488970   -4.866800    2.221170
  C     10.499910   -4.207010    1.446740
  C     10.323920   -4.293640    0.108950
  C      9.168320   -5.022630   -0.284910
  S      8.303540   -5.596990    1.125590
  C      8.738500   -5.279280   -1.566850
  C      9.340720   -4.884060   -2.784210
  C      8.669620   -5.303740   -3.890740
  C      7.499400   -6.053670   -3.617700
  S      7.280670   -6.204770   -1.886480
  C      6.654790   -6.587480   -4.563950
  C      5.493220   -7.328240   -4.348900
  S      4.892470   -7.725840   -2.770790
  C      3.537850   -8.625740   -3.389270
  C      3.524480   -8.581370   -4.795170
  C      4.633210   -7.861130   -5.338020
  C      4.773000   -7.724380   -6.727230
  C      3.824780   -8.264930   -7.550570
  F      3.945710   -8.139860   -8.884950
  C      2.705290   -8.933650   -7.018650
  F      1.768650   -9.415510   -7.857510
  C      2.547210   -9.091560   -5.671160
  C      2.687110   -9.244250   -2.441840
  C      1.788700  -10.238900   -2.647770
  C      0.976180  -10.759650   -1.596310
  C      0.106930  -11.781060   -1.711850
  C     -0.136440  -12.526250   -2.990470
  C     -0.714860  -12.231300   -0.535770
  N     -2.121180  -12.063530   -0.824890
  C     -3.091870  -12.997880   -0.666640
  C     -2.982350  -14.184380   -0.027390
  C     -4.072810  -15.087170    0.101050
  S     -3.883140  -16.543840    1.026360
  C     -5.518990  -17.076160    0.763190
  C     -6.174750  -16.138740   -0.024540
  C     -5.368820  -15.022700   -0.402830
  N     -5.872320  -14.033520   -1.192690
  C     -7.108680  -14.156950   -1.569870
  O     -7.680910  -13.242980   -2.360420
  C     -6.852250  -12.160580   -2.760050
  C     -7.644800  -11.285060   -3.713910
  C     -7.932830  -15.283890   -1.166970
  O     -9.193870  -15.296400   -1.602180
  C     -9.977490  -16.411800   -1.194940
  C    -11.364420  -16.259240   -1.792170
  N     -7.473350  -16.241410   -0.421550
  C     -6.115310  -18.263210    1.273810
  C     -5.561820  -19.225430    2.029860
  C     -4.131410  -19.229580    2.465260
  C     -6.385870  -20.397480    2.487900
  N     -5.781000  -21.636250    2.044720
  C     -6.104990  -22.832110    2.637930
  C     -5.996040  -24.026040    2.065160
  H     10.143000   -4.494980    4.185820
  H      8.594870   -5.476000    4.036330
  H     11.315140   -3.697540    1.929150
  H     10.985800   -3.858630   -0.618790
  H     10.246960   -4.306250   -2.809930
  H      8.977410   -5.099990   -4.901440
  H      6.928370   -6.409350   -5.595080
  H      5.606510   -7.195870   -7.159690
  H      1.660450   -9.577130   -5.303780
  H      2.822420   -8.892250   -1.425300
  H      1.686830  -10.690000   -3.620630
  H      1.088250  -10.281690   -0.630900
  H     -0.404570  -11.848290   -3.799880
  H     -0.941540  -13.245890   -2.864560
  H      0.760960  -13.065460   -3.293290
  H     -0.442000  -11.662200    0.362380
  H     -0.526340  -13.289720   -0.341300
  H     -2.360370  -11.223920   -1.325450
  H     -4.051350  -12.733920   -1.086220
  H     -2.059500  -14.498720    0.438010
  H     -5.949750  -12.559160   -3.240340
  H     -6.542210  -11.599360   -1.869290
  H     -7.944070  -11.861010   -4.585230
  H     -7.037120  -10.443280   -4.033570
  H     -8.539500  -10.914180   -3.221710
  H    -10.014320  -16.441030   -0.099280
  H     -9.492360  -17.333250   -1.538480
  H    -11.819340  -15.335100   -1.446320
  H    -11.987140  -17.097680   -1.493640
  H    -11.301950  -16.228700   -2.876510
  H     -7.158180  -18.343710    0.991840
  H     -3.899520  -20.158700    2.978650
  H     -3.929730  -18.392050    3.133970
  H     -3.464230  -19.126250    1.610040
  H     -7.422170  -20.291420    2.128900
  H     -6.410120  -20.419820    3.584170
  H     -5.636070  -21.687910    1.045470
  H     -6.410540  -22.738420    3.672510
  H     -5.690840  -24.135130    1.038400
  H     -6.186330  -24.928040    2.614690

 Total Charge           Charge          ....    0
 Multiplicity           Mult            ....    1
 Number of Electrons    NEL             ....  418
 Basis Dimension        Dim             ....  972

ORBITAL ENERGIES
----------------

  NO   OCC          E(Eh)            E(eV)
   0   2.0000     -88.964311     -2420.8420
   1   2.0000     -88.947684     -2420.3895
   2   2.0000     -88.940782     -2420.2017
   3   2.0000     -88.937105     -2420.1017
   4   2.0000     -24.782037      -674.3535
   5   2.0000     -24.781869      -674.3489
   6   2.0000     -19.245680      -523.7016
   7   2.0000     -19.244174      -523.6606
   8   2.0000     -14.422407      -392.4536
   9   2.0000     -14.402052      -391.8998
  10   2.0000     -14.398932      -391.8149
  11   2.0000     -14.392983      -391.6530
  12   2.0000     -10.362854      -281.9876
  13   2.0000     -10.362498      -281.9779
  14   2.0000     -10.362395      -281.9751
  15   2.0000     -10.361902      -281.9617
  16   2.0000     -10.315732      -280.7053
  17   2.0000     -10.313033      -280.6319
  18   2.0000     -10.310415      -280.5607
  19   2.0000     -10.309234      -280.5285
  20   2.0000     -10.308731      -280.5148
  21   2.0000     -10.308577      -280.5106
  22   2.0000     -10.307411      -280.4789
  23   2.0000     -10.301514      -280.3184
  24   2.0000     -10.301323      -280.3132
  25   2.0000     -10.293836      -280.1095
  26   2.0000     -10.291538      -280.0470
  27   2.0000     -10.289160      -279.9823
  28   2.0000     -10.288920      -279.9758
  29   2.0000     -10.287406      -279.9346
  30   2.0000     -10.286986      -279.9231
  31   2.0000     -10.286730      -279.9162
  32   2.0000     -10.286679      -279.9148
  33   2.0000     -10.284906      -279.8665
  34   2.0000     -10.284179      -279.8467
  35   2.0000     -10.282805      -279.8094
  36   2.0000     -10.282298      -279.7956
  37   2.0000     -10.281364      -279.7701
  38   2.0000     -10.280801      -279.7548
  39   2.0000     -10.278757      -279.6992
  40   2.0000     -10.276269      -279.6315
  41   2.0000     -10.274839      -279.5926
  42   2.0000     -10.272993      -279.5424
  43   2.0000     -10.271003      -279.4882
  44   2.0000     -10.268141      -279.4103
  45   2.0000     -10.264074      -279.2996
  46   2.0000     -10.262012      -279.2436
  47   2.0000     -10.256653      -279.0977
  48   2.0000     -10.252710      -278.9904
  49   2.0000     -10.250150      -278.9208
  50   2.0000     -10.247598      -278.8513
  51   2.0000     -10.242509      -278.7128
  52   2.0000     -10.240139      -278.6484
  53   2.0000     -10.216407      -278.0026
  54   2.0000      -8.059113      -219.2996
  55   2.0000      -8.043663      -218.8792
  56   2.0000      -8.037557      -218.7130
  57   2.0000      -8.031729      -218.5545
  58   2.0000      -6.028103      -164.0330
  59   2.0000      -6.024002      -163.9214
  60   2.0000      -6.021903      -163.8643
  61   2.0000      -6.013445      -163.6342
  62   2.0000      -6.009299      -163.5213
  63   2.0000      -6.007381      -163.4691
  64   2.0000      -6.004595      -163.3933
  65   2.0000      -6.003435      -163.3618
  66   2.0000      -6.000901      -163.2928
  67   2.0000      -5.998086      -163.2162
  68   2.0000      -5.996848      -163.1825
  69   2.0000      -5.994194      -163.1103
  70   2.0000      -1.302704       -35.4484
  71   2.0000      -1.288075       -35.0503
  72   2.0000      -1.172747       -31.9121
  73   2.0000      -1.150363       -31.3030
  74   2.0000      -1.046551       -28.4781
  75   2.0000      -1.020155       -27.7598
  76   2.0000      -1.001210       -27.2443
  77   2.0000      -0.995959       -27.1014
  78   2.0000      -0.992649       -27.0113
  79   2.0000      -0.978001       -26.6128
  80   2.0000      -0.971243       -26.4289
  81   2.0000      -0.949930       -25.8489
  82   2.0000      -0.939464       -25.5641
  83   2.0000      -0.916702       -24.9447
  84   2.0000      -0.899567       -24.4785
  85   2.0000      -0.884048       -24.0562
  86   2.0000      -0.879041       -23.9199
  87   2.0000      -0.866889       -23.5893
  88   2.0000      -0.860003       -23.4019
  89   2.0000      -0.851244       -23.1635
  90   2.0000      -0.847865       -23.0716
  91   2.0000      -0.846753       -23.0413
  92   2.0000      -0.840133       -22.8612
  93   2.0000      -0.831599       -22.6290
  94   2.0000      -0.821805       -22.3625
  95   2.0000      -0.812497       -22.1092
  96   2.0000      -0.807181       -21.9645
  97   2.0000      -0.801068       -21.7982
  98   2.0000      -0.789995       -21.4969
  99   2.0000      -0.783648       -21.3242
 100   2.0000      -0.775440       -21.1008
 101   2.0000      -0.756582       -20.5877
 102   2.0000      -0.754413       -20.5286
 103   2.0000      -0.746306       -20.3080
 104   2.0000      -0.731885       -19.9156
 105   2.0000      -0.726402       -19.7664
 106   2.0000      -0.721814       -19.6416
 107   2.0000      -0.707314       -19.2470
 108   2.0000      -0.700865       -19.0715
 109   2.0000      -0.686817       -18.6892
 110   2.0000      -0.683358       -18.5951
 111   2.0000      -0.668728       -18.1970
 112   2.0000      -0.667379       -18.1603
 113   2.0000      -0.659837       -17.9551
 114   2.0000      -0.654079       -17.7984
 115   2.0000      -0.650798       -17.7091
 116   2.0000      -0.639239       -17.3946
 117   2.0000      -0.636443       -17.3185
 118   2.0000      -0.627265       -17.0688
 119   2.0000      -0.623529       -16.9671
 120   2.0000      -0.619549       -16.8588
 121   2.0000      -0.614238       -16.7143
 122   2.0000      -0.606666       -16.5082
 123   2.0000      -0.603942       -16.4341
 124   2.0000      -0.601501       -16.3677
 125   2.0000      -0.599127       -16.3031
 126   2.0000      -0.595746       -16.2111
 127   2.0000      -0.593018       -16.1368
 128   2.0000      -0.584215       -15.8973
 129   2.0000      -0.576421       -15.6852
 130   2.0000      -0.568751       -15.4765
 131   2.0000      -0.567906       -15.4535
 132   2.0000      -0.562515       -15.3068
 133   2.0000      -0.558590       -15.2000
 134   2.0000      -0.558353       -15.1936
 135   2.0000      -0.554014       -15.0755
 136   2.0000      -0.550236       -14.9727
 137   2.0000      -0.541938       -14.7469
 138   2.0000      -0.541577       -14.7371
 139   2.0000      -0.535218       -14.5640
 140   2.0000      -0.533954       -14.5296
 141   2.0000      -0.530833       -14.4447
 142   2.0000      -0.527147       -14.3444
 143   2.0000      -0.520230       -14.1562
 144   2.0000      -0.515719       -14.0334
 145   2.0000      -0.513821       -13.9818
 146   2.0000      -0.508521       -13.8376
 147   2.0000      -0.506970       -13.7954
 148   2.0000      -0.502381       -13.6705
 149   2.0000      -0.500079       -13.6078
 150   2.0000      -0.494880       -13.4664
 151   2.0000      -0.492645       -13.4056
 152   2.0000      -0.491849       -13.3839
 153   2.0000      -0.488933       -13.3046
 154   2.0000      -0.483938       -13.1686
 155   2.0000      -0.483356       -13.1528
 156   2.0000      -0.480282       -13.0691
 157   2.0000      -0.478299       -13.0152
 158   2.0000      -0.474793       -12.9198
 159   2.0000      -0.468405       -12.7460
 160   2.0000      -0.466412       -12.6917
 161   2.0000      -0.465393       -12.6640
 162   2.0000      -0.464765       -12.6469
 163   2.0000      -0.463766       -12.6197
 164   2.0000      -0.462991       -12.5986
 165   2.0000      -0.462259       -12.5787
 166   2.0000      -0.459177       -12.4948
 167   2.0000      -0.458562       -12.4781
 168   2.0000      -0.454977       -12.3806
 169   2.0000      -0.453431       -12.3385
 170   2.0000      -0.448719       -12.2103
 171   2.0000      -0.441946       -12.0260
 172   2.0000      -0.439805       -11.9677
 173   2.0000      -0.436390       -11.8748
 174   2.0000      -0.432207       -11.7609
 175   2.0000      -0.429933       -11.6991
 176   2.0000      -0.427661       -11.6372
 177   2.0000      -0.422820       -11.5055
 178   2.0000      -0.420472       -11.4416
 179   2.0000      -0.419626       -11.4186
 180   2.0000      -0.417795       -11.3688
 181   2.0000      -0.416449       -11.3321
 182   2.0000      -0.413133       -11.2419
 183   2.0000      -0.412018       -11.2116
 184   2.0000      -0.410374       -11.1669
 185   2.0000      -0.407924       -11.1002
 186   2.0000      -0.402260       -10.9460
 187   2.0000      -0.396560       -10.7909
 188   2.0000      -0.389345       -10.5946
 189   2.0000      -0.387797       -10.5525
 190   2.0000      -0.382801       -10.4166
 191   2.0000      -0.375437       -10.2162
 192   2.0000      -0.373592       -10.1659
 193   2.0000      -0.370350       -10.0777
 194   2.0000      -0.368325       -10.0226
 195   2.0000      -0.364822        -9.9273
 196   2.0000      -0.339716        -9.2441
 197   2.0000      -0.333399        -9.0723
 198   2.0000      -0.333118        -9.0646
 199   2.0000      -0.322059        -8.7637
 200   2.0000      -0.317617        -8.6428
 201   2.0000      -0.308218        -8.3870
 202   2.0000      -0.302922        -8.2429
 203   2.0000      -0.286732        -7.8024
 204   2.0000      -0.269529        -7.3343
 205   2.0000      -0.259280        -7.0554
 206   2.0000      -0.246687        -6.7127
 207   2.0000      -0.206499        -5.6191
 208   2.0000      -0.201747        -5.4898
 209   0.0000      -0.081304        -2.2124
 210   0.0000      -0.029618        -0.8059
 211   0.0000      -0.021407        -0.5825
 212   0.0000       0.006379         0.1736
 213   0.0000       0.016365         0.4453

MULLIKEN ATOMIC CHARGES
-----------------------
   0 C :   -0.026025
   1 C :   -0.065617
   2 C :    0.051622
   3 C :    0.031053
   4 C :   -0.066705
   5 S :    0.082598
   6 C :   -0.038122
   7 C :    0.031313
   8 C :    0.025187
   9 C :   -0.035208
  10 S :    0.065524
  11 C :   -0.024036
  12 C :   -0.091290
  13 S :    0.136950
  14 C :   -0.118425
  15 C :    0.137649
  16 C :    0.125291
  17 C :   -0.117460
  18 C :    0.221641
  19 F :   -0.183469
  20 C :    0.226457
  21 F :   -0.184316
  22 C :   -0.124515
  23 C :    0.043161
  24 C :   -0.022211
  25 C :    0.009253
  26 C :   -0.250785
  27 C :    0.095807
  28 C :    0.256313
  29 N :   -0.168129
  30 C :    0.065706
  31 C :   -0.049278
  32 C :   -0.143219
  33 S :    0.093866
  34 C :   -0.186230
  35 C :    0.053743
  36 C :    0.038042
  37 N :   -0.059892
  38 C :    0.086408
  39 O :   -0.281549
  40 C :    0.155321
  41 C :    0.025016
  42 C :    0.079732
  43 O :   -0.279943
  44 C :    0.166563
  45 C :    0.016260
  46 N :   -0.048084
  47 C :    0.014921
  48 C :   -0.256721
  49 C :    0.108030
  50 C :    0.233948
  51 N :   -0.201846
  52 C :    0.046873
  53 C :   -0.084923
  54 H :    0.021712
  55 H :    0.023933
  56 H :   -0.009612
  57 H :   -0.010932
  58 H :   -0.015033
  59 H :   -0.013544
  60 H :   -0.019106
  61 H :   -0.014451
  62 H :   -0.020924
  63 H :   -0.017850
  64 H :   -0.010961
  65 H :   -0.031531
  66 H :    0.023885
  67 H :    0.020840
  68 H :    0.034288
  69 H :    0.001303
  70 H :    0.027030
  71 H :    0.116560
  72 H :    0.006489
  73 H :   -0.045503
  74 H :    0.017798
  75 H :    0.016686
  76 H :    0.025199
  77 H :    0.012981
  78 H :    0.024978
  79 H :    0.017246
  80 H :    0.016127
  81 H :    0.023434
  82 H :    0.015994
  83 H :    0.025578
  84 H :   -0.027154
  85 H :    0.012280
  86 H :    0.022803
  87 H :    0.024402
  88 H :   -0.009530
  89 H :    0.005212
  90 H :    0.105162
  91 H :   -0.006175
  92 H :   -0.010302
  93 H :    0.004441
Sum of atomic charges:   -0.0000000

LOEWDIN ATOMIC CHARGES
----------------------
   0 C :   -0.072283
   1 C :   -0.139680
   2 C :   -0.028966
   3 C :   -0.026896
   4 C :   -0.173099
   5 S :    0.354022
   6 C :   -0.182388
   7 C :   -0.037527
   8 C :   -0.034755
   9 C :   -0.153878
  10 S :    0.367553
  11 C :   -0.077619
  12 C :   -0.178908
  13 S :    0.475267
  14 C :   -0.184645
  15 C :   -0.043256
  16 C :   -0.044392
  17 C :   -0.038380
  18 C :    0.056747
  19 F :   -0.061602
  20 C :    0.061322
  21 F :   -0.062389
  22 C :   -0.042556
  23 C :   -0.042814
  24 C :   -0.036506
  25 C :   -0.049201
  26 C :   -0.044187
  27 C :   -0.055975
  28 C :    0.048414
  29 N :   -0.010109
  30 C :    0.042286
  31 C :   -0.156165
  32 C :   -0.166519
  33 S :    0.459476
  34 C :   -0.212341
  35 C :   -0.048541
  36 C :   -0.077287
  37 N :   -0.091056
  38 C :    0.036768
  39 O :   -0.080658
  40 C :    0.083856
  41 C :   -0.062043
  42 C :    0.040231
  43 O :   -0.078882
  44 C :    0.086168
  45 C :   -0.063176
  46 N :   -0.091112
  47 C :   -0.053890
  48 C :   -0.059317
  49 C :   -0.066320
  50 C :    0.042470
  51 N :   -0.045834
  52 C :    0.020955
  53 C :   -0.161221
  54 H :    0.029478
  55 H :    0.027155
  56 H :    0.034116
  57 H :    0.032803
  58 H :    0.031153
  59 H :    0.032887
  60 H :    0.037037
  61 H :    0.038284
  62 H :    0.037173
  63 H :    0.027523
  64 H :    0.023181
  65 H :    0.023828
  66 H :    0.033001
  67 H :    0.033389
  68 H :    0.038883
  69 H :    0.020913
  70 H :    0.033091
  71 H :    0.074910
  72 H :    0.026268
  73 H :    0.015429
  74 H :    0.014512
  75 H :    0.014045
  76 H :    0.029738
  77 H :    0.029707
  78 H :    0.029646
  79 H :    0.017048
  80 H :    0.016737
  81 H :    0.028650
  82 H :    0.030887
  83 H :    0.029102
  84 H :    0.030796
  85 H :    0.028855
  86 H :    0.027646
  87 H :    0.025884
  88 H :    0.009907
  89 H :    0.024660
  90 H :    0.070780
  91 H :    0.021111
  92 H :    0.011747
  93 H :    0.018881

  Mayer bond orders larger than 0.100000
B(  0-C ,  1-C ) :   1.8610 B(  0-C , 54-H ) :   0.9508 B(  0-C , 55-H ) :   0.9415
B(  1-C ,  2-C ) :   1.0827 B(  1-C ,  5-S ) :   1.0066 B(  2-C ,  3-C ) :   1.6566
B(  2-C , 56-H ) :   0.9926 B(  3-C ,  4-C ) :   1.1559 B(  3-C , 57-H ) :   0.9920
B(  4-C ,  5-S ) :   1.0495 B(  4-C ,  6-C ) :   1.5459 B(  6-C ,  7-C ) :   1.1785
B(  6-C , 10-S ) :   1.0314 B(  7-C ,  8-C ) :   1.5900 B(  7-C , 58-H ) :   0.9919
B(  8-C ,  9-C ) :   1.1531 B(  8-C , 59-H ) :   1.0000 B(  9-C , 10-S ) :   1.0413
B(  9-C , 11-C ) :   1.5396 B( 11-C , 12-C ) :   1.2394 B( 11-C , 60-H ) :   0.9610
B( 12-C , 13-S ) :   1.1304 B( 12-C , 16-C ) :   1.2797 B( 13-S , 14-C ) :   1.1408
B( 14-C , 15-C ) :   1.3326 B( 14-C , 23-C ) :   1.1380 B( 15-C , 16-C ) :   1.2297
B( 15-C , 22-C ) :   1.1643 B( 16-C , 17-C ) :   1.1860 B( 17-C , 18-C ) :   1.4865
B( 17-C , 22-C ) :   0.1123 B( 17-C , 61-H ) :   0.9969 B( 18-C , 19-F ) :   1.1250
B( 18-C , 20-C ) :   1.1698 B( 20-C , 21-F ) :   1.1237 B( 20-C , 22-C ) :   1.4921
B( 22-C , 62-H ) :   0.9962 B( 23-C , 24-C ) :   1.6658 B( 23-C , 63-H ) :   0.9561
B( 24-C , 25-C ) :   1.1230 B( 24-C , 64-H ) :   0.9666 B( 25-C , 26-C ) :   1.7465
B( 25-C , 65-H ) :   0.9772 B( 26-C , 27-C ) :   1.0653 B( 26-C , 28-C ) :   1.0648
B( 27-C , 66-H ) :   0.9470 B( 27-C , 67-H ) :   0.9535 B( 27-C , 68-H ) :   0.9448
B( 28-C , 29-N ) :   0.9744 B( 28-C , 69-H ) :   0.9342 B( 28-C , 70-H ) :   0.9200
B( 29-N , 30-C ) :   1.2082 B( 29-N , 71-H ) :   0.9433 B( 30-C , 31-C ) :   1.6507
B( 30-C , 72-H ) :   0.9381 B( 31-C , 32-C ) :   1.1623 B( 31-C , 73-H ) :   0.9371
B( 32-C , 33-S ) :   1.1455 B( 32-C , 34-C ) :   0.1277 B( 32-C , 36-C ) :   1.3768
B( 33-S , 34-C ) :   1.0852 B( 34-C , 35-C ) :   1.4143 B( 34-C , 47-C ) :   1.1521
B( 35-C , 36-C ) :   1.2214 B( 35-C , 46-N ) :   1.3441 B( 36-C , 37-N ) :   1.3005
B( 37-N , 38-C ) :   1.6805 B( 38-C , 39-O ) :   1.2421 B( 38-C , 42-C ) :   1.0628
B( 39-O , 40-C ) :   0.9233 B( 40-C , 41-C ) :   1.0939 B( 40-C , 74-H ) :   0.9542
B( 40-C , 75-H ) :   0.9566 B( 41-C , 76-H ) :   0.9682 B( 41-C , 77-H ) :   0.9605
B( 41-C , 78-H ) :   0.9672 B( 42-C , 43-O ) :   1.2551 B( 42-C , 46-N ) :   1.6694
B( 43-O , 44-C ) :   0.9144 B( 44-C , 45-C ) :   1.0913 B( 44-C , 79-H ) :   0.9572
B( 44-C , 80-H ) :   0.9571 B( 45-C , 81-H ) :   0.9684 B( 45-C , 82-H ) :   0.9616
B( 45-C , 83-H ) :   0.9686 B( 47-C , 48-C ) :   1.7389 B( 47-C , 84-H ) :   0.9586
B( 48-C , 49-C ) :   1.0873 B( 48-C , 50-C ) :   1.0618 B( 49-C , 85-H ) :   0.9409
B( 49-C , 86-H ) :   0.9394 B( 49-C , 87-H ) :   0.9391 B( 50-C , 51-N ) :   0.9836
B( 50-C , 88-H ) :   0.9333 B( 50-C , 89-H ) :   0.9211 B( 51-N , 52-C ) :   1.1590
B( 51-N , 90-H ) :   0.9447 B( 52-C , 53-C ) :   1.9049 B( 52-C , 91-H ) :   0.9597
B( 53-C , 92-H ) :   0.9590 B( 53-C , 93-H ) :   0.9521

-----------------------------------------------------------------------------
         ABSORPTION SPECTRUM VIA TRANSITION ELECTRIC DIPOLE MOMENTS
-----------------------------------------------------------------------------
State   Energy  Wavelength   fosc         T2         TX        TY        TZ
        (cm-1)    (nm)                  (au**2)     (au)      (au)      (au)
-----------------------------------------------------------------------------
   0   14318.4    698.4   1.262133965  29.01937   3.96957   2.81689   2.30804
   1   17463.5    572.6   0.031426944   0.59244   0.09574   0.19214  -0.73916
   2   21410.5    467.1   0.306294385   4.70964  -1.09961  -1.67707   0.82941
   3   21911.1    456.4   0.009955082   0.14957  -0.16649  -0.09298  -0.33647
   4   25781.3    387.9   0.756575412   9.66101  -0.48474  -0.52795   3.02445
   5   28514.5    350.7   0.037832397   0.43679  -0.46224  -0.42235   0.21152
   6   29360.5    340.6   0.321597881   3.60600   0.95960   0.88372  -1.37993
   7   30598.4    326.8   0.000335441   0.00361  -0.04827  -0.01338   0.03317
   8   30737.6    325.3   0.059987722   0.64249  -0.44192  -0.31695   0.58885
   9   30903.4    323.6   0.036451501   0.38832  -0.21044  -0.27292   0.51918
  10   31501.1    317.4   0.023215656   0.24262   0.04049   0.15961  -0.46423
  11   32536.6    307.3   0.079310233   0.80248  -0.68415  -0.41185  -0.40596
  12   32772.9    305.1   0.190855802   1.91719   1.26066   0.57097   0.04377
  13   33478.6    298.7   0.070279833   0.69110   0.67293  -0.05652   0.48483
  14   33752.5    296.3   0.157525615   1.53646   0.27552   0.99387  -0.68758
  15   34003.7    294.1   0.007418105   0.07182  -0.10119   0.13102   0.21075
  16   34322.2    291.4   0.020256863   0.19430  -0.00323   0.39741  -0.19066
  17   35082.4    285.0   0.116151217   1.08996  -0.04632  -0.27746   1.00540
  18   35325.9    283.1   0.060379077   0.56269  -0.39143   0.34624  -0.53813
  19   35754.7    279.7   0.715158525   6.58484  -0.00116   2.32545  -1.08494
  20   36217.0    276.1   0.052714518   0.47917  -0.21982   0.60007  -0.26602
  21   37050.9    269.9   0.002026571   0.01801   0.06186  -0.07243  -0.09452
  22   37830.4    264.3   0.104940346   0.91322   0.52209   0.31962   0.73381
  23   39672.1    252.1   0.052414274   0.43495   0.39674   0.33991  -0.40251

FINAL SINGLE POINT ENERGY     -3783.111905707465

DIPOLE MOMENT
-------------
                                X             Y             Z
Electronic contribution:     86.81808      74.86314     -39.76953
Nuclear contribution   :    -85.03526     -72.17897      39.83432
                        -----------------------------------------
Total Dipole Moment    :      1.78282       2.68417       0.06479
                        -----------------------------------------
Magnitude (a.u.)       :      3.22295
Magnitude (Debye)      :      8.19209

Rotational constants in cm-1:     0.001866     0.000314     0.000288
Rotational constants in MHz :    55.953222     9.417810     8.621066

                             ****ORCA TERMINATED NORMALLY****
TOTAL RUN TIME: 0 days 0 hours 6 minutes 11 seconds 576 msec
