                         Program Version 4.2.0 -  RELEASE  -
|  1> # ORCA input file
|  2> # SCF done       -207.205194483644          0.000888066532
|  3> ! CAM-B3LYP def2-SVP def2/J RIJCOSX Grid4 TightSCF
|  4> %maxcore 5000
|  5> %tddft
|  6>     Mode sTDDFT
|  7>     Ethresh 5.0
|  8>     maxcore 5000
|  9> end
| 10>
| 11> %pal
| 12>   nprocs 6
| 13>   end
| 14> * xyz 0 1
| 15>    C       -5.36665        -5.13733        -6.58389
| 16>    C       -4.32057        -4.36257        -6.26488
| 17>    C       -3.97617        -3.08202        -6.81200
| 18>    C       -2.85943        -2.53181        -6.28529
| 19>    C       -2.23043        -3.32311        -5.28476
| 20>    S       -3.12064        -4.81250        -5.04136
| 21>    C       -1.09913        -3.01400        -4.56584
| 22>    C       -0.30988        -1.84205        -4.64779
| 23>    C        0.73304        -1.81991        -3.77552
| 24>    C        0.83155        -2.96682        -2.94894
| 25>    S       -0.44712        -4.09756        -3.34692
| 26>    C        1.75999        -3.15083        -1.95169
| 27>    C        1.87850        -4.23467        -1.08083
| 28>    S        0.88655        -5.65765        -1.18308
| 29>    C        1.58721        -6.37663         0.23268
| 30>    C        2.60072        -5.55625         0.75108
| 31>    C        2.77064        -4.34677         0.00970
| 32>    C        3.75296        -3.42134         0.39550
| 33>    C        4.55234        -3.70741         1.46675
| 34>    F        5.50072        -2.83077         1.84603
| 35>    C        4.41672        -4.92132         2.17146
| 36>    F        5.25372        -5.17857         3.19399
| 37>    C        3.46540        -5.83790         1.82738
| 38>    C        1.08418        -7.62258         0.69576
| 39>    C        1.05999        -8.02009         1.98727
| 40>    C        0.57291        -9.29211         2.45467
| 41>    C        0.07378        -9.39637         3.77290
| 42>    O        0.07719        -8.24702         4.50768
| 43>    C       -0.40980        -8.28780         5.82595
| 44>    C       -0.39276       -10.61404         4.23126
| 45>    C       -0.35216       -11.75936         3.43536
| 46>    C        0.17347       -11.66323         2.12695
| 47>    C        0.60926       -10.43853         1.65664
| 48>    O        0.19235       -12.81937         1.41228
| 49>    C        0.81579       -12.85067         0.14437
| 50>    C        0.72096       -14.29256        -0.36846
| 51>    C        1.07109       -14.37662        -1.85961
| 52>    C        2.51432       -14.02582        -2.20547
| 53>    C        1.55461       -15.21968         0.52431
| 54>    C        1.31873       -16.69712         0.23621
| 55>    C       -0.78074       -13.05050         3.91838
| 56>    C       -1.66165       -13.27631         4.90842
| 57>    C       -2.02286       -14.58337         5.37738
| 58>    S       -3.62042       -14.85093         6.02000
| 59>    C       -3.27150       -16.50523         6.31339
| 60>    C       -2.00054       -16.84054         5.95725
| 61>    C       -1.28182       -15.74182         5.41979
| 62>    C        0.16375       -15.86796         5.05348
| 63>    C        0.78307       -17.00716         5.85900
| 64>    C        0.00728       -18.31084         5.56336
| 65>    O        0.72675       -19.38126         6.14280
| 66>    C        0.66145       -20.59028         5.42639
| 67>    C       -1.40505       -18.20171         6.15343
| 68>    N        2.17147       -17.17658         5.51560
| 69>    C        3.05284       -17.66969         6.36844
| 70>    C        4.35601       -18.06864         6.18204
| 71>    C        5.16993       -18.22899         7.40587
| 72>    O        4.77699       -18.16151         8.55250
| 73>    C        6.55268       -18.44991         6.94216
| 74>    C        7.69252       -18.59671         7.67568
| 75>    C        8.92616       -18.76483         7.00644
| 76>    C        8.94732       -18.77397         5.58232
| 77>    C       10.17895       -18.93561         4.91850
| 78>    C       11.32286       -19.08157         5.65268
| 79>    C       11.32266       -19.07593         7.05361
| 80>    C       10.13532       -18.91911         7.71371
| 81>    F       12.50127       -19.23768         5.01948
| 82>    C        7.74599       -18.62439         4.84930
| 83>    C        6.56289       -18.46865         5.51945
| 84>    C        5.18679       -18.31651         5.03712
| 85>    C        4.81089       -18.51804         3.72609
| 86>    C        3.48671       -18.57727         3.27600
| 87>    N        2.41054       -18.64606         2.86850
| 88>    C        5.70224       -18.75735         2.66162
| 89>    N        6.35767       -18.93869         1.73595
| 90>    H       -6.07237        -4.82473        -7.33341
| 91>    H       -5.53328        -6.08662        -6.10904
| 92>    H       -4.58459        -2.63014        -7.57517
| 93>    H       -2.45919        -1.57682        -6.57647
| 94>    H       -0.53782        -1.04953        -5.33753
| 95>    H        1.43571        -1.00956        -3.68906
| 96>    H        2.46505        -2.34294        -1.80875
| 97>    H        3.89757        -2.49662        -0.13849
| 98>    H        3.40478        -6.77054         2.36186
| 99>    H        0.61686        -8.24190        -0.05944
|100>    H        1.35011        -7.32738         2.76300
|101>    H       -0.30292        -7.27397         6.20873
|102>    H        0.17252        -8.97297         6.45062
|103>    H       -1.46576        -8.57496         5.85568
|104>    H       -0.77190       -10.71249         5.23514
|105>    H        1.02020       -10.35000         0.66413
|106>    H        1.86359       -12.53623         0.23565
|107>    H        0.29957       -12.17361        -0.54973
|108>    H       -0.32966       -14.58733        -0.26066
|109>    H        0.40402       -13.70380        -2.40481
|110>    H        0.86132       -15.38925        -2.20686
|111>    H        2.75983       -13.01425        -1.89256
|112>    H        2.65803       -14.09001        -3.28170
|113>    H        3.20945       -14.71466        -1.73390
|114>    H        1.27925       -15.00972         1.56041
|115>    H        2.61506       -14.98613         0.41495
|116>    H        0.25563       -16.92724         0.27460
|117>    H        1.82714       -17.31442         0.97363
|118>    H        1.69472       -16.97077        -0.74622
|119>    H       -0.37795       -13.88867         3.37111
|120>    H       -2.19112       -12.45356         5.36969
|121>    H       -4.02630       -17.13613         6.73861
|122>    H        0.68412       -14.92866         5.25484
|123>    H        0.27068       -16.09274         3.98691
|124>    H        0.72057       -16.80131         6.93214
|125>    H       -0.03947       -18.44439         4.47277
|126>    H        1.29684       -21.29328         5.96117
|127>    H        1.03608       -20.46233         4.40433
|128>    H       -0.35974       -20.98341         5.38783
|129>    H       -1.33246       -18.41547         7.22440
|130>    H       -2.05455       -18.96185         5.71322
|131>    H        2.35673       -17.23105         4.52081
|132>    H        2.73992       -17.66729         7.40890
|133>    H        7.65498       -18.58338         8.75464
|134>    H       10.21665       -18.94678         3.84025
|135>    H       12.25664       -19.19437         7.57974
|136>    H       10.10926       -18.91057         8.79312
|137>    H        7.80034       -18.63026         3.77260
|138> *
|139>
|140>                          ****END OF INPUT****

CARTESIAN COORDINATES (ANGSTROEM)
---------------------------------
  C     -5.366650   -5.137330   -6.583890
  C     -4.320570   -4.362570   -6.264880
  C     -3.976170   -3.082020   -6.812000
  C     -2.859430   -2.531810   -6.285290
  C     -2.230430   -3.323110   -5.284760
  S     -3.120640   -4.812500   -5.041360
  C     -1.099130   -3.014000   -4.565840
  C     -0.309880   -1.842050   -4.647790
  C      0.733040   -1.819910   -3.775520
  C      0.831550   -2.966820   -2.948940
  S     -0.447120   -4.097560   -3.346920
  C      1.759990   -3.150830   -1.951690
  C      1.878500   -4.234670   -1.080830
  S      0.886550   -5.657650   -1.183080
  C      1.587210   -6.376630    0.232680
  C      2.600720   -5.556250    0.751080
  C      2.770640   -4.346770    0.009700
  C      3.752960   -3.421340    0.395500
  C      4.552340   -3.707410    1.466750
  F      5.500720   -2.830770    1.846030
  C      4.416720   -4.921320    2.171460
  F      5.253720   -5.178570    3.193990
  C      3.465400   -5.837900    1.827380
  C      1.084180   -7.622580    0.695760
  C      1.059990   -8.020090    1.987270
  C      0.572910   -9.292110    2.454670
  C      0.073780   -9.396370    3.772900
  O      0.077190   -8.247020    4.507680
  C     -0.409800   -8.287800    5.825950
  C     -0.392760  -10.614040    4.231260
  C     -0.352160  -11.759360    3.435360
  C      0.173470  -11.663230    2.126950
  C      0.609260  -10.438530    1.656640
  O      0.192350  -12.819370    1.412280
  C      0.815790  -12.850670    0.144370
  C      0.720960  -14.292560   -0.368460
  C      1.071090  -14.376620   -1.859610
  C      2.514320  -14.025820   -2.205470
  C      1.554610  -15.219680    0.524310
  C      1.318730  -16.697120    0.236210
  C     -0.780740  -13.050500    3.918380
  C     -1.661650  -13.276310    4.908420
  C     -2.022860  -14.583370    5.377380
  S     -3.620420  -14.850930    6.020000
  C     -3.271500  -16.505230    6.313390
  C     -2.000540  -16.840540    5.957250
  C     -1.281820  -15.741820    5.419790
  C      0.163750  -15.867960    5.053480
  C      0.783070  -17.007160    5.859000
  C      0.007280  -18.310840    5.563360
  O      0.726750  -19.381260    6.142800
  C      0.661450  -20.590280    5.426390
  C     -1.405050  -18.201710    6.153430
  N      2.171470  -17.176580    5.515600
  C      3.052840  -17.669690    6.368440
  C      4.356010  -18.068640    6.182040
  C      5.169930  -18.228990    7.405870
  O      4.776990  -18.161510    8.552500
  C      6.552680  -18.449910    6.942160
  C      7.692520  -18.596710    7.675680
  C      8.926160  -18.764830    7.006440
  C      8.947320  -18.773970    5.582320
  C     10.178950  -18.935610    4.918500
  C     11.322860  -19.081570    5.652680
  C     11.322660  -19.075930    7.053610
  C     10.135320  -18.919110    7.713710
  F     12.501270  -19.237680    5.019480
  C      7.745990  -18.624390    4.849300
  C      6.562890  -18.468650    5.519450
  C      5.186790  -18.316510    5.037120
  C      4.810890  -18.518040    3.726090
  C      3.486710  -18.577270    3.276000
  N      2.410540  -18.646060    2.868500
  C      5.702240  -18.757350    2.661620
  N      6.357670  -18.938690    1.735950
  H     -6.072370   -4.824730   -7.333410
  H     -5.533280   -6.086620   -6.109040
  H     -4.584590   -2.630140   -7.575170
  H     -2.459190   -1.576820   -6.576470
  H     -0.537820   -1.049530   -5.337530
  H      1.435710   -1.009560   -3.689060
  H      2.465050   -2.342940   -1.808750
  H      3.897570   -2.496620   -0.138490
  H      3.404780   -6.770540    2.361860
  H      0.616860   -8.241900   -0.059440
  H      1.350110   -7.327380    2.763000
  H     -0.302920   -7.273970    6.208730
  H      0.172520   -8.972970    6.450620
  H     -1.465760   -8.574960    5.855680
  H     -0.771900  -10.712490    5.235140
  H      1.020200  -10.350000    0.664130
  H      1.863590  -12.536230    0.235650
  H      0.299570  -12.173610   -0.549730
  H     -0.329660  -14.587330   -0.260660
  H      0.404020  -13.703800   -2.404810
  H      0.861320  -15.389250   -2.206860
  H      2.759830  -13.014250   -1.892560
  H      2.658030  -14.090010   -3.281700
  H      3.209450  -14.714660   -1.733900
  H      1.279250  -15.009720    1.560410
  H      2.615060  -14.986130    0.414950
  H      0.255630  -16.927240    0.274600
  H      1.827140  -17.314420    0.973630
  H      1.694720  -16.970770   -0.746220
  H     -0.377950  -13.888670    3.371110
  H     -2.191120  -12.453560    5.369690
  H     -4.026300  -17.136130    6.738610
  H      0.684120  -14.928660    5.254840
  H      0.270680  -16.092740    3.986910
  H      0.720570  -16.801310    6.932140
  H     -0.039470  -18.444390    4.472770
  H      1.296840  -21.293280    5.961170
  H      1.036080  -20.462330    4.404330
  H     -0.359740  -20.983410    5.387830
  H     -1.332460  -18.415470    7.224400
  H     -2.054550  -18.961850    5.713220
  H      2.356730  -17.231050    4.520810
  H      2.739920  -17.667290    7.408900
  H      7.654980  -18.583380    8.754640
  H     10.216650  -18.946780    3.840250
  H     12.256640  -19.194370    7.579740
  H     10.109260  -18.910570    8.793120
  H      7.800340  -18.630260    3.772600

 Total Charge           Charge          ....    0
 Multiplicity           Mult            ....    1
 Number of Electrons    NEL             ....  558
 Basis Dimension        Dim             .... 1306

ORBITAL ENERGIES
----------------

  NO   OCC          E(Eh)            E(eV)
   0   2.0000     -88.959546     -2420.7123
   1   2.0000     -88.947146     -2420.3749
   2   2.0000     -88.942411     -2420.2460
   3   2.0000     -88.935836     -2420.0671
   4   2.0000     -24.778565      -674.2590
   5   2.0000     -24.777595      -674.2326
   6   2.0000     -24.775829      -674.1846
   7   2.0000     -19.240748      -523.5674
   8   2.0000     -19.238399      -523.5035
   9   2.0000     -19.220547      -523.0177
  10   2.0000     -19.197423      -522.3884
  11   2.0000     -14.466276      -393.6474
  12   2.0000     -14.423294      -392.4778
  13   2.0000     -14.404478      -391.9658
  14   2.0000     -10.361503      -281.9508
  15   2.0000     -10.357740      -281.8484
  16   2.0000     -10.356577      -281.8168
  17   2.0000     -10.350757      -281.6584
  18   2.0000     -10.349980      -281.6373
  19   2.0000     -10.337048      -281.2854
  20   2.0000     -10.329180      -281.0713
  21   2.0000     -10.328236      -281.0456
  22   2.0000     -10.326465      -280.9974
  23   2.0000     -10.323253      -280.9100
  24   2.0000     -10.323132      -280.9067
  25   2.0000     -10.322466      -280.8886
  26   2.0000     -10.320370      -280.8315
  27   2.0000     -10.313462      -280.6436
  28   2.0000     -10.309642      -280.5396
  29   2.0000     -10.308043      -280.4961
  30   2.0000     -10.307220      -280.4737
  31   2.0000     -10.304705      -280.4053
  32   2.0000     -10.303990      -280.3858
  33   2.0000     -10.302990      -280.3586
  34   2.0000     -10.301204      -280.3100
  35   2.0000     -10.297134      -280.1993
  36   2.0000     -10.296956      -280.1944
  37   2.0000     -10.295696      -280.1601
  38   2.0000     -10.292250      -280.0664
  39   2.0000     -10.292096      -280.0622
  40   2.0000     -10.289978      -280.0045
  41   2.0000     -10.289517      -279.9920
  42   2.0000     -10.289360      -279.9877
  43   2.0000     -10.287141      -279.9273
  44   2.0000     -10.286968      -279.9226
  45   2.0000     -10.283742      -279.8348
  46   2.0000     -10.283730      -279.8345
  47   2.0000     -10.283349      -279.8242
  48   2.0000     -10.282809      -279.8095
  49   2.0000     -10.282612      -279.8041
  50   2.0000     -10.282149      -279.7915
  51   2.0000     -10.281719      -279.7798
  52   2.0000     -10.281687      -279.7789
  53   2.0000     -10.281256      -279.7672
  54   2.0000     -10.280582      -279.7489
  55   2.0000     -10.278396      -279.6894
  56   2.0000     -10.278058      -279.6802
  57   2.0000     -10.275483      -279.6101
  58   2.0000     -10.275020      -279.5975
  59   2.0000     -10.274288      -279.5776
  60   2.0000     -10.274083      -279.5720
  61   2.0000     -10.274078      -279.5719
  62   2.0000     -10.273640      -279.5600
  63   2.0000     -10.273307      -279.5509
  64   2.0000     -10.272494      -279.5288
  65   2.0000     -10.268834      -279.4292
  66   2.0000     -10.267644      -279.3968
  67   2.0000     -10.267428      -279.3909
  68   2.0000     -10.266255      -279.3590
  69   2.0000     -10.264978      -279.3242
  70   2.0000     -10.258453      -279.1467
  71   2.0000     -10.254282      -279.0332
  72   2.0000     -10.247994      -278.8621
  73   2.0000     -10.246698      -278.8268
  74   2.0000     -10.235382      -278.5189
  75   2.0000      -8.054467      -219.1732
  76   2.0000      -8.043186      -218.8662
  77   2.0000      -8.038386      -218.7356
  78   2.0000      -8.032505      -218.5756
  79   2.0000      -6.023461      -163.9067
  80   2.0000      -6.019351      -163.7949
  81   2.0000      -6.017229      -163.7371
  82   2.0000      -6.012429      -163.6065
  83   2.0000      -6.008202      -163.4915
  84   2.0000      -6.008179      -163.4909
  85   2.0000      -6.005486      -163.4176
  86   2.0000      -6.004057      -163.3787
  87   2.0000      -6.002336      -163.3319
  88   2.0000      -5.999279      -163.2487
  89   2.0000      -5.998409      -163.2250
  90   2.0000      -5.993041      -163.0789
  91   2.0000      -1.297624       -35.3101
  92   2.0000      -1.293030       -35.1851
  93   2.0000      -1.282802       -34.9068
  94   2.0000      -1.144826       -31.1523
  95   2.0000      -1.143558       -31.1178
  96   2.0000      -1.124445       -30.5977
  97   2.0000      -1.113307       -30.2946
  98   2.0000      -1.066516       -29.0214
  99   2.0000      -1.016784       -27.6681
 100   2.0000      -0.996918       -27.1275
 101   2.0000      -0.996196       -27.1079
 102   2.0000      -0.987868       -26.8812
 103   2.0000      -0.987584       -26.8735
 104   2.0000      -0.982958       -26.7476
 105   2.0000      -0.966165       -26.2907
 106   2.0000      -0.966035       -26.2872
 107   2.0000      -0.950113       -25.8539
 108   2.0000      -0.933552       -25.4033
 109   2.0000      -0.921999       -25.0889
 110   2.0000      -0.913840       -24.8669
 111   2.0000      -0.908880       -24.7319
 112   2.0000      -0.899198       -24.4684
 113   2.0000      -0.893965       -24.3260
 114   2.0000      -0.887417       -24.1478
 115   2.0000      -0.877864       -23.8879
 116   2.0000      -0.876596       -23.8534
 117   2.0000      -0.867093       -23.5948
 118   2.0000      -0.852622       -23.2010
 119   2.0000      -0.846449       -23.0330
 120   2.0000      -0.843707       -22.9584
 121   2.0000      -0.841781       -22.9060
 122   2.0000      -0.838268       -22.8104
 123   2.0000      -0.828275       -22.5385
 124   2.0000      -0.826407       -22.4877
 125   2.0000      -0.823811       -22.4170
 126   2.0000      -0.822108       -22.3707
 127   2.0000      -0.818088       -22.2613
 128   2.0000      -0.816816       -22.2267
 129   2.0000      -0.803876       -21.8746
 130   2.0000      -0.799030       -21.7427
 131   2.0000      -0.788763       -21.4633
 132   2.0000      -0.775840       -21.1117
 133   2.0000      -0.768567       -20.9138
 134   2.0000      -0.763375       -20.7725
 135   2.0000      -0.752426       -20.4746
 136   2.0000      -0.750232       -20.4148
 137   2.0000      -0.735380       -20.0107
 138   2.0000      -0.728808       -19.8319
 139   2.0000      -0.726306       -19.7638
 140   2.0000      -0.721934       -19.6448
 141   2.0000      -0.719294       -19.5730
 142   2.0000      -0.712291       -19.3824
 143   2.0000      -0.701736       -19.0952
 144   2.0000      -0.697333       -18.9754
 145   2.0000      -0.691474       -18.8160
 146   2.0000      -0.690398       -18.7867
 147   2.0000      -0.684224       -18.6187
 148   2.0000      -0.679600       -18.4929
 149   2.0000      -0.671670       -18.2771
 150   2.0000      -0.668976       -18.2038
 151   2.0000      -0.661512       -18.0007
 152   2.0000      -0.655094       -17.8260
 153   2.0000      -0.650495       -17.7009
 154   2.0000      -0.646664       -17.5966
 155   2.0000      -0.642190       -17.4749
 156   2.0000      -0.631707       -17.1896
 157   2.0000      -0.626350       -17.0439
 158   2.0000      -0.621805       -16.9202
 159   2.0000      -0.620612       -16.8877
 160   2.0000      -0.619013       -16.8442
 161   2.0000      -0.613870       -16.7043
 162   2.0000      -0.612450       -16.6656
 163   2.0000      -0.610078       -16.6011
 164   2.0000      -0.602679       -16.3997
 165   2.0000      -0.600673       -16.3451
 166   2.0000      -0.596898       -16.2424
 167   2.0000      -0.595823       -16.2132
 168   2.0000      -0.590058       -16.0563
 169   2.0000      -0.588406       -16.0113
 170   2.0000      -0.586603       -15.9623
 171   2.0000      -0.582157       -15.8413
 172   2.0000      -0.577914       -15.7258
 173   2.0000      -0.569912       -15.5081
 174   2.0000      -0.565852       -15.3976
 175   2.0000      -0.563323       -15.3288
 176   2.0000      -0.557464       -15.1694
 177   2.0000      -0.556018       -15.1300
 178   2.0000      -0.553330       -15.0569
 179   2.0000      -0.550887       -14.9904
 180   2.0000      -0.550205       -14.9718
 181   2.0000      -0.548303       -14.9201
 182   2.0000      -0.547066       -14.8864
 183   2.0000      -0.541996       -14.7485
 184   2.0000      -0.539754       -14.6874
 185   2.0000      -0.538052       -14.6411
 186   2.0000      -0.533303       -14.5119
 187   2.0000      -0.532276       -14.4840
 188   2.0000      -0.528965       -14.3939
 189   2.0000      -0.528272       -14.3750
 190   2.0000      -0.526423       -14.3247
 191   2.0000      -0.525665       -14.3041
 192   2.0000      -0.523659       -14.2495
 193   2.0000      -0.522433       -14.2161
 194   2.0000      -0.515702       -14.0330
 195   2.0000      -0.514107       -13.9896
 196   2.0000      -0.511899       -13.9295
 197   2.0000      -0.508185       -13.8284
 198   2.0000      -0.505700       -13.7608
 199   2.0000      -0.503962       -13.7135
 200   2.0000      -0.503237       -13.6938
 201   2.0000      -0.502134       -13.6637
 202   2.0000      -0.500008       -13.6059
 203   2.0000      -0.497383       -13.5345
 204   2.0000      -0.497181       -13.5290
 205   2.0000      -0.494153       -13.4466
 206   2.0000      -0.489046       -13.3076
 207   2.0000      -0.488736       -13.2992
 208   2.0000      -0.488380       -13.2895
 209   2.0000      -0.485648       -13.2152
 210   2.0000      -0.483518       -13.1572
 211   2.0000      -0.482297       -13.1240
 212   2.0000      -0.480663       -13.0795
 213   2.0000      -0.479707       -13.0535
 214   2.0000      -0.476803       -12.9745
 215   2.0000      -0.476052       -12.9540
 216   2.0000      -0.473598       -12.8873
 217   2.0000      -0.472880       -12.8677
 218   2.0000      -0.469109       -12.7651
 219   2.0000      -0.465009       -12.6535
 220   2.0000      -0.463007       -12.5991
 221   2.0000      -0.460717       -12.5367
 222   2.0000      -0.458281       -12.4705
 223   2.0000      -0.456662       -12.4264
 224   2.0000      -0.455190       -12.3863
 225   2.0000      -0.454955       -12.3800
 226   2.0000      -0.454413       -12.3652
 227   2.0000      -0.451526       -12.2866
 228   2.0000      -0.447785       -12.1849
 229   2.0000      -0.446156       -12.1405
 230   2.0000      -0.440938       -11.9985
 231   2.0000      -0.438692       -11.9374
 232   2.0000      -0.435118       -11.8402
 233   2.0000      -0.434018       -11.8102
 234   2.0000      -0.430283       -11.7086
 235   2.0000      -0.430067       -11.7027
 236   2.0000      -0.428868       -11.6701
 237   2.0000      -0.427314       -11.6278
 238   2.0000      -0.423802       -11.5322
 239   2.0000      -0.423293       -11.5184
 240   2.0000      -0.421308       -11.4644
 241   2.0000      -0.419496       -11.4151
 242   2.0000      -0.417898       -11.3716
 243   2.0000      -0.417117       -11.3503
 244   2.0000      -0.415895       -11.3171
 245   2.0000      -0.410372       -11.1668
 246   2.0000      -0.409403       -11.1404
 247   2.0000      -0.406932       -11.0732
 248   2.0000      -0.406478       -11.0608
 249   2.0000      -0.405290       -11.0285
 250   2.0000      -0.402492       -10.9524
 251   2.0000      -0.401558       -10.9269
 252   2.0000      -0.394434       -10.7331
 253   2.0000      -0.393831       -10.7167
 254   2.0000      -0.384730       -10.4690
 255   2.0000      -0.384346       -10.4586
 256   2.0000      -0.381185       -10.3726
 257   2.0000      -0.376464       -10.2441
 258   2.0000      -0.375627       -10.2213
 259   2.0000      -0.373561       -10.1651
 260   2.0000      -0.368775       -10.0349
 261   2.0000      -0.367852       -10.0098
 262   2.0000      -0.361873        -9.8471
 263   2.0000      -0.340639        -9.2693
 264   2.0000      -0.335121        -9.1191
 265   2.0000      -0.334635        -9.1059
 266   2.0000      -0.328284        -8.9331
 267   2.0000      -0.325333        -8.8528
 268   2.0000      -0.317106        -8.6289
 269   2.0000      -0.309242        -8.4149
 270   2.0000      -0.308566        -8.3965
 271   2.0000      -0.305817        -8.3217
 272   2.0000      -0.302437        -8.2297
 273   2.0000      -0.293475        -7.9859
 274   2.0000      -0.280260        -7.6263
 275   2.0000      -0.279020        -7.5925
 276   2.0000      -0.265412        -7.2222
 277   2.0000      -0.242101        -6.5879
 278   2.0000      -0.200366        -5.4522
 279   0.0000      -0.075476        -2.0538
 280   0.0000      -0.068618        -1.8672
 281   0.0000      -0.037382        -1.0172
 282   0.0000      -0.032220        -0.8767
 283   0.0000      -0.013996        -0.3809

MULLIKEN ATOMIC CHARGES
-----------------------
   0 C :   -0.029891
   1 C :   -0.063340
   2 C :    0.049387
   3 C :    0.031808
   4 C :   -0.070246
   5 S :    0.080139
   6 C :   -0.036971
   7 C :    0.027670
   8 C :    0.026171
   9 C :   -0.037947
  10 S :    0.064573
  11 C :   -0.020296
  12 C :   -0.101455
  13 S :    0.141369
  14 C :   -0.123249
  15 C :    0.122541
  16 C :    0.126992
  17 C :   -0.116959
  18 C :    0.224342
  19 F :   -0.184855
  20 C :    0.222019
  21 F :   -0.185718
  22 C :   -0.115515
  23 C :    0.032696
  24 C :   -0.009469
  25 C :    0.034062
  26 C :    0.237513
  27 O :   -0.316814
  28 C :    0.181973
  29 C :   -0.161936
  30 C :    0.033023
  31 C :    0.236588
  32 C :   -0.156819
  33 O :   -0.320253
  34 C :    0.216398
  35 C :   -0.079153
  36 C :    0.015543
  37 C :   -0.006046
  38 C :   -0.019971
  39 C :    0.035110
  40 C :   -0.000888
  41 C :    0.028033
  42 C :   -0.163185
  43 S :    0.115857
  44 C :   -0.139417
  45 C :   -0.076962
  46 C :   -0.057506
  47 C :    0.187950
  48 C :   -0.013669
  49 C :    0.094880
  50 O :   -0.383773
  51 C :    0.182698
  52 C :    0.224573
  53 N :   -0.036502
  54 C :    0.050378
  55 C :   -0.165192
  56 C :    0.133307
  57 O :   -0.167887
  58 C :    0.011008
  59 C :   -0.085334
  60 C :    0.104141
  61 C :    0.102510
  62 C :   -0.101170
  63 C :    0.301695
  64 C :   -0.031344
  65 C :   -0.014707
  66 F :   -0.193578
  67 C :   -0.090675
  68 C :    0.028061
  69 C :    0.348893
  70 C :   -0.378487
  71 C :   -0.151132
  72 N :    0.071450
  73 C :   -0.175320
  74 N :    0.137965
  75 H :    0.019980
  76 H :    0.021083
  77 H :   -0.011739
  78 H :   -0.012375
  79 H :   -0.016843
  80 H :   -0.013162
  81 H :   -0.019198
  82 H :   -0.016357
  83 H :   -0.009395
  84 H :   -0.009908
  85 H :    0.006255
  86 H :    0.037257
  87 H :    0.022846
  88 H :    0.020734
  89 H :   -0.044171
  90 H :   -0.030791
  91 H :    0.008846
  92 H :    0.007911
  93 H :   -0.002480
  94 H :   -0.003000
  95 H :    0.005472
  96 H :    0.007249
  97 H :    0.014944
  98 H :    0.020685
  99 H :   -0.000987
 100 H :   -0.004498
 101 H :   -0.000874
 102 H :    0.012560
 103 H :    0.004164
 104 H :    0.000200
 105 H :   -0.013560
 106 H :    0.008887
 107 H :    0.026481
 108 H :    0.031655
 109 H :    0.022907
 110 H :    0.005510
 111 H :    0.030890
 112 H :    0.023699
 113 H :    0.001170
 114 H :    0.018690
 115 H :    0.011733
 116 H :    0.138461
 117 H :    0.032553
 118 H :   -0.015155
 119 H :   -0.001703
 120 H :    0.000884
 121 H :   -0.009930
 122 H :   -0.007264
Sum of atomic charges:   -0.0000000

LOEWDIN ATOMIC CHARGES
----------------------
   0 C :   -0.077019
   1 C :   -0.139164
   2 C :   -0.031995
   3 C :   -0.026591
   4 C :   -0.176505
   5 S :    0.351359
   6 C :   -0.180865
   7 C :   -0.040201
   8 C :   -0.034159
   9 C :   -0.157233
  10 S :    0.364646
  11 C :   -0.074889
  12 C :   -0.183263
  13 S :    0.472587
  14 C :   -0.180808
  15 C :   -0.045271
  16 C :   -0.043888
  17 C :   -0.041581
  18 C :    0.058078
  19 F :   -0.062663
  20 C :    0.057576
  21 F :   -0.063069
  22 C :   -0.038571
  23 C :   -0.048158
  24 C :   -0.013767
  25 C :   -0.040058
  26 C :    0.048631
  27 O :   -0.105460
  28 C :    0.076217
  29 C :   -0.058535
  30 C :   -0.044422
  31 C :    0.051012
  32 C :   -0.058488
  33 O :   -0.096444
  34 C :    0.088524
  35 C :   -0.040296
  36 C :   -0.032138
  37 C :   -0.059015
  38 C :   -0.036641
  39 C :   -0.060445
  40 C :   -0.008570
  41 C :   -0.049691
  42 C :   -0.174482
  43 S :    0.431566
  44 C :   -0.195623
  45 C :   -0.069244
  46 C :   -0.068145
  47 C :   -0.024005
  48 C :    0.028657
  49 C :    0.063690
  50 O :   -0.168048
  51 C :    0.069280
  52 C :   -0.029703
  53 N :    0.080697
  54 C :    0.133712
  55 C :   -0.177703
  56 C :    0.080657
  57 O :   -0.169273
  58 C :   -0.055517
  59 C :    0.029162
  60 C :   -0.019137
  61 C :    0.000295
  62 C :   -0.042122
  63 C :    0.090440
  64 C :   -0.038893
  65 C :    0.002369
  66 F :   -0.068145
  67 C :    0.011036
  68 C :   -0.018801
  69 C :    0.088169
  70 C :   -0.181516
  71 C :    0.002184
  72 N :   -0.087145
  73 C :   -0.022083
  74 N :   -0.068312
  75 H :    0.028576
  76 H :    0.026093
  77 H :    0.033178
  78 H :    0.032148
  79 H :    0.030399
  80 H :    0.032675
  81 H :    0.037029
  82 H :    0.037355
  83 H :    0.041138
  84 H :    0.026100
  85 H :    0.030354
  86 H :    0.029242
  87 H :    0.014565
  88 H :    0.014607
  89 H :    0.025850
  90 H :    0.027508
  91 H :    0.010853
  92 H :    0.010939
  93 H :    0.024442
  94 H :    0.019410
  95 H :    0.022892
  96 H :    0.018752
  97 H :    0.027000
  98 H :    0.023736
  99 H :    0.015893
 100 H :    0.016419
 101 H :    0.020078
 102 H :    0.022584
 103 H :    0.018410
 104 H :    0.029692
 105 H :    0.023481
 106 H :    0.020133
 107 H :    0.037886
 108 H :    0.034475
 109 H :    0.033267
 110 H :    0.015842
 111 H :    0.024790
 112 H :    0.012234
 113 H :    0.005610
 114 H :    0.037952
 115 H :    0.034483
 116 H :    0.078557
 117 H :    0.045201
 118 H :    0.038299
 119 H :    0.042822
 120 H :    0.040713
 121 H :    0.034935
 122 H :    0.038623

  Mayer bond orders larger than 0.100000
B(  0-C ,  1-C ) :   1.8609 B(  0-C , 75-H ) :   0.9510 B(  0-C , 76-H ) :   0.9415
B(  1-C ,  2-C ) :   1.0815 B(  1-C ,  5-S ) :   1.0072 B(  2-C ,  3-C ) :   1.6562
B(  2-C , 77-H ) :   0.9935 B(  3-C ,  4-C ) :   1.1566 B(  3-C , 78-H ) :   0.9916
B(  4-C ,  5-S ) :   1.0457 B(  4-C ,  6-C ) :   1.5504 B(  6-C ,  7-C ) :   1.1760
B(  6-C , 10-S ) :   1.0320 B(  7-C ,  8-C ) :   1.5927 B(  7-C , 79-H ) :   0.9919
B(  8-C ,  9-C ) :   1.1510 B(  8-C , 80-H ) :   0.9991 B(  9-C , 10-S ) :   1.0367
B(  9-C , 11-C ) :   1.5482 B( 11-C , 12-C ) :   1.2361 B( 11-C , 81-H ) :   0.9597
B( 12-C , 13-S ) :   1.1249 B( 12-C , 16-C ) :   1.2887 B( 13-S , 14-C ) :   1.1464
B( 14-C , 15-C ) :   1.3488 B( 14-C , 23-C ) :   1.1313 B( 15-C , 16-C ) :   1.2256
B( 15-C , 22-C ) :   1.1605 B( 16-C , 17-C ) :   1.1825 B( 17-C , 18-C ) :   1.4912
B( 17-C , 22-C ) :   0.1127 B( 17-C , 82-H ) :   0.9965 B( 18-C , 19-F ) :   1.1218
B( 18-C , 20-C ) :   1.1646 B( 20-C , 21-F ) :   1.1194 B( 20-C , 22-C ) :   1.4948
B( 22-C , 83-H ) :   0.9987 B( 23-C , 24-C ) :   1.6805 B( 23-C , 84-H ) :   0.9502
B( 24-C , 25-C ) :   1.0990 B( 24-C , 85-H ) :   0.9644 B( 25-C , 26-C ) :   1.3273
B( 25-C , 32-C ) :   1.3039 B( 26-C , 27-O ) :   1.1551 B( 26-C , 29-C ) :   1.3023
B( 27-O , 28-C ) :   0.9684 B( 28-C , 86-H ) :   0.9783 B( 28-C , 87-H ) :   0.9677
B( 28-C , 88-H ) :   0.9682 B( 29-C , 30-C ) :   1.3172 B( 29-C , 89-H ) :   0.9950
B( 30-C , 31-C ) :   1.3280 B( 30-C , 40-C ) :   1.0883 B( 31-C , 32-C ) :   1.3007
B( 31-C , 33-O ) :   1.1517 B( 32-C , 90-H ) :   0.9977 B( 33-O , 34-C ) :   0.9527
B( 34-C , 35-C ) :   1.0222 B( 34-C , 91-H ) :   0.9375 B( 34-C , 92-H ) :   0.9464
B( 35-C , 36-C ) :   1.0541 B( 35-C , 38-C ) :   1.0505 B( 35-C , 93-H ) :   0.9168
B( 36-C , 37-C ) :   1.0917 B( 36-C , 94-H ) :   0.9421 B( 36-C , 95-H ) :   0.9447
B( 37-C , 96-H ) :   0.9718 B( 37-C , 97-H ) :   0.9648 B( 37-C , 98-H ) :   0.9699
B( 38-C , 39-C ) :   1.1081 B( 38-C , 99-H ) :   0.9428 B( 38-C ,100-H ) :   0.9385
B( 39-C ,101-H ) :   0.9647 B( 39-C ,102-H ) :   0.9543 B( 39-C ,103-H ) :   0.9614
B( 40-C , 41-C ) :   1.7225 B( 40-C ,104-H ) :   0.9676 B( 41-C , 42-C ) :   1.0761
B( 41-C ,105-H ) :   0.9544 B( 42-C , 43-S ) :   1.1374 B( 42-C , 46-C ) :   1.5495
B( 43-S , 44-C ) :   1.1557 B( 44-C , 45-C ) :   1.5771 B( 44-C ,106-H ) :   0.9727
B( 45-C , 46-C ) :   1.2919 B( 45-C , 52-C ) :   1.0002 B( 46-C , 47-C ) :   1.0447
B( 47-C , 48-C ) :   1.0234 B( 47-C ,107-H ) :   0.9126 B( 47-C ,108-H ) :   0.8858
B( 48-C , 49-C ) :   0.9944 B( 48-C , 53-N ) :   0.9832 B( 48-C ,109-H ) :   0.9188
B( 49-C , 50-O ) :   1.0316 B( 49-C , 52-C ) :   1.0625 B( 49-C ,110-H ) :   0.9044
B( 50-O , 51-C ) :   0.9695 B( 51-C ,111-H ) :   0.9818 B( 51-C ,112-H ) :   0.9652
B( 51-C ,113-H ) :   0.9665 B( 52-C ,114-H ) :   0.8998 B( 52-C ,115-H ) :   0.9102
B( 53-N , 54-C ) :   1.4458 B( 53-N ,116-H ) :   0.8986 B( 54-C , 55-C ) :   1.4263
B( 54-C ,117-H ) :   0.9145 B( 55-C , 56-C ) :   0.9952 B( 55-C , 69-C ) :   1.1010
B( 56-C , 57-O ) :   2.2327 B( 56-C , 58-C ) :   0.9253 B( 58-C , 59-C ) :   1.4863
B( 58-C , 68-C ) :   1.2212 B( 59-C , 60-C ) :   1.1784 B( 59-C ,118-H ) :   1.0153
B( 60-C , 61-C ) :   1.2610 B( 60-C , 65-C ) :   1.2372 B( 61-C , 62-C ) :   1.2046
B( 61-C , 67-C ) :   1.1994 B( 62-C , 63-C ) :   1.4384 B( 62-C ,119-H ) :   1.0062
B( 63-C , 64-C ) :   1.2585 B( 63-C , 66-F ) :   1.0862 B( 64-C , 65-C ) :   1.4559
B( 64-C ,120-H ) :   0.9933 B( 65-C ,121-H ) :   0.9971 B( 67-C , 68-C ) :   1.4667
B( 67-C ,122-H ) :   0.9893 B( 68-C , 69-C ) :   0.9922 B( 69-C , 70-C ) :   1.5532
B( 70-C , 71-C ) :   1.2179 B( 70-C , 73-C ) :   1.1274 B( 71-C , 72-N ) :   2.7600
B( 73-C , 74-N ) :   2.9683

-----------------------------------------------------------------------------
         ABSORPTION SPECTRUM VIA TRANSITION ELECTRIC DIPOLE MOMENTS
-----------------------------------------------------------------------------
State   Energy  Wavelength   fosc         T2         TX        TY        TZ
        (cm-1)    (nm)                  (au**2)     (au)      (au)      (au)
-----------------------------------------------------------------------------
   0   14037.4    712.4   1.221486331  28.64683   2.33794  -2.40624   4.17023
   1   21327.4    468.9   0.000937335   0.01447  -0.04240  -0.10745  -0.03353
   2   21648.5    461.9   0.006378222   0.09699   0.24148   0.05075   0.19001
   3   23889.3    418.6   1.228900537  16.93512   2.96426   2.84988  -0.16262
   4   25726.4    388.7   0.170430605   2.18094   0.59271   1.24265  -0.53427
   5   27251.1    367.0   0.121262089   1.46493   0.72527  -0.27464  -0.92924
   6   27645.3    361.7   0.071159894   0.84740   0.39367  -0.21453  -0.80399
   7   27925.3    358.1   0.188304859   2.21993  -0.98014  -0.75653  -0.82880
   8   28836.4    346.8   0.000303599   0.00347  -0.05240  -0.01001   0.02491
   9   29851.2    335.0   0.221204451   2.43954   1.36049  -0.30932  -0.70209
  10   30883.3    323.8   0.019849937   0.21160  -0.30183  -0.33573  -0.08823
  11   31099.9    321.5   0.030550223   0.32339  -0.23615  -0.33208  -0.39668
  12   31538.9    317.1   0.028947569   0.30216  -0.30388  -0.17292   0.42417
  13   31829.1    314.2   0.015978371   0.16527   0.10760   0.10095   0.37881
  14   32353.0    309.1   0.126324019   1.28543  -0.47476  -0.95385   0.38755
  15   32612.0    306.6   0.157527394   1.59021  -0.06126  -0.90618   0.87481
  16   32853.1    304.4   0.057713073   0.57833  -0.28694  -0.03311  -0.70349
  17   33810.5    295.8   0.000316470   0.00308  -0.04422   0.02559  -0.02170
  18   33967.9    294.4   0.011258442   0.10912  -0.18853  -0.26320   0.06557
  19   34609.2    288.9   0.014749896   0.14031   0.27804   0.06266   0.24305
  20   35109.3    284.8   0.092335322   0.86581   0.18311  -0.46284   0.78616
  21   35413.6    282.4   0.118698162   1.10344  -1.00904   0.04476  -0.28857
  22   35491.3    281.8   0.037736222   0.35004   0.47715   0.26954   0.22295
  23   35508.8    281.6   0.031430640   0.29140  -0.08344  -0.53306  -0.01697
  24   35896.0    278.6   1.116142918  10.23646  -2.88496   0.33221  -1.34279
  25   37131.2    269.3   0.013535990   0.12001  -0.18616  -0.25503   0.14255
  26   37338.1    267.8   0.034179182   0.30136   0.44571   0.31916   0.02894
  27   37702.9    265.2   0.299502110   2.61518  -1.17528  -0.00515  -1.11080
  28   37735.5    265.0   0.025540290   0.22282   0.35694   0.28961   0.10744
  29   38087.3    262.6   0.001428432   0.01235   0.05529   0.04428   0.08561
  30   38278.7    261.2   0.132827029   1.14237  -0.38437   0.56911  -0.81899
  31   38611.1    259.0   0.002200837   0.01877   0.10239  -0.02094   0.08856
  32   38977.7    256.6   0.202803757   1.71292  -0.73719  -1.03858   0.30136
  33   39873.6    250.8   0.091748466   0.75751  -0.42209  -0.71484   0.26143

FINAL SINGLE POINT ENERGY     -4706.372346598115

DIPOLE MOMENT
-------------
                                X             Y             Z
Electronic contribution:     46.68165      59.09713      13.67156
Nuclear contribution   :    -48.46963     -58.24803     -13.59390
                        -----------------------------------------
Total Dipole Moment    :     -1.78798       0.84910       0.07766
                        -----------------------------------------
Magnitude (a.u.)       :      1.98088
Magnitude (Debye)      :      5.03500

Rotational constants in cm-1:     0.000955     0.000263     0.000237
Rotational constants in MHz :    28.640482     7.877758     7.116149

                             ****ORCA TERMINATED NORMALLY****
TOTAL RUN TIME: 0 days 0 hours 12 minutes 17 seconds 324 msec
