                         Program Version 4.2.0 -  RELEASE  -
|  1> # ORCA input file
|  2> # SCF done       -163.778257980915          0.000879489310
|  3> ! CAM-B3LYP def2-SVP def2/J RIJCOSX Grid4 TightSCF
|  4> %maxcore 5000
|  5> %tddft
|  6>     Mode sTDDFT
|  7>     Ethresh 5.0
|  8>     maxcore 5000
|  9> end
| 10>
| 11> %pal
| 12>   nprocs 6
| 13>   end
| 14> * xyz 0 1
| 15>    C       11.83519       -13.14508        -1.87106
| 16>    C       10.88982       -12.48992        -2.55642
| 17>    C       10.80011       -12.30927        -3.97831
| 18>    C        9.73150       -11.59235        -4.38555
| 19>    C        8.88684       -11.14511        -3.32833
| 20>    S        9.51372       -11.68756        -1.78227
| 21>    C        7.74799       -10.38980        -3.43665
| 22>    C        7.14570        -9.87368        -4.61420
| 23>    C        6.02976        -9.13544        -4.39677
| 24>    C        5.67028        -9.01210        -3.02558
| 25>    S        6.81797        -9.91000        -2.02551
| 26>    C        4.63054        -8.30054        -2.51656
| 27>    N        4.37504        -8.21983        -1.17904
| 28>    C        3.38368        -7.52897        -0.56075
| 29>    S        3.67870        -7.01142         1.07774
| 30>    C        2.17677        -6.13953         1.06654
| 31>    N        1.81604        -5.46892         2.23482
| 32>    O        0.76162        -4.85894         2.24262
| 33>    O        2.59614        -5.54915         3.17256
| 34>    C        1.50532        -6.24524        -0.12161
| 35>    C        2.15693        -7.06770        -1.06117
| 36>    C        1.50937        -7.41528        -2.30215
| 37>    C        1.62466        -8.59424        -2.94947
| 38>    C        0.92565        -8.88746        -4.15260
| 39>    S        1.04595       -10.44829        -4.93648
| 40>    C       -0.02187       -10.03275        -6.25384
| 41>    C       -0.45515        -8.71580        -6.08375
| 42>    C        0.08183        -8.10463        -4.91203
| 43>    O       -0.36084        -6.83562        -4.78343
| 44>    C       -1.17601        -6.63140        -5.85452
| 45>    N       -1.79083        -5.36586        -5.98043
| 46>    O       -2.51798        -5.21049        -6.94441
| 47>    O       -1.55573        -4.53497        -5.12815
| 48>    C       -1.27662        -7.72423        -6.67549
| 49>    C       -0.30384       -10.98836        -7.25374
| 50>    C       -1.06674       -10.75640        -8.34963
| 51>    N       -1.31356       -11.71712        -9.27942
| 52>    C       -2.02651       -11.57053       -10.42063
| 53>    S       -2.72544       -10.04600       -10.85929
| 54>    C       -3.35072       -10.76972       -12.31057
| 55>    N       -4.08428        -9.95137       -13.17095
| 56>    O       -4.52457       -10.45017       -14.19181
| 57>    O       -4.22732        -8.78772       -12.83005
| 58>    C       -3.03912       -12.09545       -12.43939
| 59>    C       -2.27543       -12.58817       -11.36273
| 60>    C       -1.80337       -13.92499       -11.19576
| 61>    C       -1.99177       -14.95943       -12.05537
| 62>    C       -1.53293       -16.28309       -11.86505
| 63>    C       -0.84026       -16.82650       -10.81460
| 64>    C       -0.44619       -18.19156       -10.72516
| 65>    C        0.21960       -18.52676        -9.59058
| 66>    C        0.40660       -17.44755        -8.69165
| 67>    S       -0.30125       -15.99069        -9.36364
| 68>    C        1.02650       -17.44049        -7.46835
| 69>    C        1.63329       -18.53737        -6.79301
| 70>    C        2.16166       -18.22671        -5.58978
| 71>    C        2.01751       -16.84883        -5.21240
| 72>    S        1.16340       -15.98358        -6.50033
| 73>    C        2.43747       -16.25583        -4.08780
| 74>    H       12.65521       -13.61774        -2.38217
| 75>    H       11.80807       -13.22066        -0.79949
| 76>    H       11.54721       -12.72599        -4.63025
| 77>    H        9.51150       -11.36042        -5.41254
| 78>    H        7.56385       -10.06374        -5.58615
| 79>    H        5.44562        -8.66469        -5.16718
| 80>    H        3.97353        -7.75308        -3.17211
| 81>    H        5.09558        -8.60238        -0.57565
| 82>    H        0.55465        -5.77264        -0.29195
| 83>    H        0.81021        -6.68037        -2.67579
| 84>    H        2.25236        -9.38544        -2.56507
| 85>    H       -1.86923        -7.76444        -7.56565
| 86>    H        0.13580       -11.96730        -7.11405
| 87>    H       -1.51300        -9.79425        -8.54215
| 88>    H       -0.91899       -12.63518        -9.10283
| 89>    H       -3.35962       -12.67474       -13.28516
| 90>    H       -1.24881       -14.11590       -10.29103
| 91>    H       -2.53813       -14.78600       -12.97143
| 92>    H       -1.76753       -16.98054       -12.65940
| 93>    H       -0.67788       -18.88322       -11.51618
| 94>    H        0.58099       -19.51512        -9.37053
| 95>    H        1.65082       -19.51995        -7.22976
| 96>    H        2.65686       -18.92289        -4.93646
| 97>    H        2.95280       -16.82023        -3.33095
| 98>    H        2.27588       -15.20926        -3.90410
| 99> *
|100>
|101>                          ****END OF INPUT****

CARTESIAN COORDINATES (ANGSTROEM)
---------------------------------
  C     11.835190  -13.145080   -1.871060
  C     10.889820  -12.489920   -2.556420
  C     10.800110  -12.309270   -3.978310
  C      9.731500  -11.592350   -4.385550
  C      8.886840  -11.145110   -3.328330
  S      9.513720  -11.687560   -1.782270
  C      7.747990  -10.389800   -3.436650
  C      7.145700   -9.873680   -4.614200
  C      6.029760   -9.135440   -4.396770
  C      5.670280   -9.012100   -3.025580
  S      6.817970   -9.910000   -2.025510
  C      4.630540   -8.300540   -2.516560
  N      4.375040   -8.219830   -1.179040
  C      3.383680   -7.528970   -0.560750
  S      3.678700   -7.011420    1.077740
  C      2.176770   -6.139530    1.066540
  N      1.816040   -5.468920    2.234820
  O      0.761620   -4.858940    2.242620
  O      2.596140   -5.549150    3.172560
  C      1.505320   -6.245240   -0.121610
  C      2.156930   -7.067700   -1.061170
  C      1.509370   -7.415280   -2.302150
  C      1.624660   -8.594240   -2.949470
  C      0.925650   -8.887460   -4.152600
  S      1.045950  -10.448290   -4.936480
  C     -0.021870  -10.032750   -6.253840
  C     -0.455150   -8.715800   -6.083750
  C      0.081830   -8.104630   -4.912030
  O     -0.360840   -6.835620   -4.783430
  C     -1.176010   -6.631400   -5.854520
  N     -1.790830   -5.365860   -5.980430
  O     -2.517980   -5.210490   -6.944410
  O     -1.555730   -4.534970   -5.128150
  C     -1.276620   -7.724230   -6.675490
  C     -0.303840  -10.988360   -7.253740
  C     -1.066740  -10.756400   -8.349630
  N     -1.313560  -11.717120   -9.279420
  C     -2.026510  -11.570530  -10.420630
  S     -2.725440  -10.046000  -10.859290
  C     -3.350720  -10.769720  -12.310570
  N     -4.084280   -9.951370  -13.170950
  O     -4.524570  -10.450170  -14.191810
  O     -4.227320   -8.787720  -12.830050
  C     -3.039120  -12.095450  -12.439390
  C     -2.275430  -12.588170  -11.362730
  C     -1.803370  -13.924990  -11.195760
  C     -1.991770  -14.959430  -12.055370
  C     -1.532930  -16.283090  -11.865050
  C     -0.840260  -16.826500  -10.814600
  C     -0.446190  -18.191560  -10.725160
  C      0.219600  -18.526760   -9.590580
  C      0.406600  -17.447550   -8.691650
  S     -0.301250  -15.990690   -9.363640
  C      1.026500  -17.440490   -7.468350
  C      1.633290  -18.537370   -6.793010
  C      2.161660  -18.226710   -5.589780
  C      2.017510  -16.848830   -5.212400
  S      1.163400  -15.983580   -6.500330
  C      2.437470  -16.255830   -4.087800
  H     12.655210  -13.617740   -2.382170
  H     11.808070  -13.220660   -0.799490
  H     11.547210  -12.725990   -4.630250
  H      9.511500  -11.360420   -5.412540
  H      7.563850  -10.063740   -5.586150
  H      5.445620   -8.664690   -5.167180
  H      3.973530   -7.753080   -3.172110
  H      5.095580   -8.602380   -0.575650
  H      0.554650   -5.772640   -0.291950
  H      0.810210   -6.680370   -2.675790
  H      2.252360   -9.385440   -2.565070
  H     -1.869230   -7.764440   -7.565650
  H      0.135800  -11.967300   -7.114050
  H     -1.513000   -9.794250   -8.542150
  H     -0.918990  -12.635180   -9.102830
  H     -3.359620  -12.674740  -13.285160
  H     -1.248810  -14.115900  -10.291030
  H     -2.538130  -14.786000  -12.971430
  H     -1.767530  -16.980540  -12.659400
  H     -0.677880  -18.883220  -11.516180
  H      0.580990  -19.515120   -9.370530
  H      1.650820  -19.519950   -7.229760
  H      2.656860  -18.922890   -4.936460
  H      2.952800  -16.820230   -3.330950
  H      2.275880  -15.209260   -3.904100

 Total Charge           Charge          ....    0
 Multiplicity           Mult            ....    1
 Number of Electrons    NEL             ....  468
 Basis Dimension        Dim             ....  979

ORBITAL ENERGIES
----------------

  NO   OCC          E(Eh)            E(eV)
   0   2.0000     -88.987602     -2421.4757
   1   2.0000     -88.981655     -2421.3139
   2   2.0000     -88.977062     -2421.1889
   3   2.0000     -88.959330     -2420.7064
   4   2.0000     -88.951803     -2420.5016
   5   2.0000     -88.950605     -2420.4690
   6   2.0000     -88.939173     -2420.1579
   7   2.0000     -19.317515      -525.6563
   8   2.0000     -19.247079      -523.7396
   9   2.0000     -19.245127      -523.6865
  10   2.0000     -19.233831      -523.3791
  11   2.0000     -19.233044      -523.3577
  12   2.0000     -19.227576      -523.2089
  13   2.0000     -19.227218      -523.1992
  14   2.0000     -14.658973      -398.8909
  15   2.0000     -14.645539      -398.5254
  16   2.0000     -14.639331      -398.3564
  17   2.0000     -14.495379      -394.4393
  18   2.0000     -14.484600      -394.1460
  19   2.0000     -10.392717      -282.8002
  20   2.0000     -10.373087      -282.2661
  21   2.0000     -10.366490      -282.0865
  22   2.0000     -10.354024      -281.7473
  23   2.0000     -10.349998      -281.6378
  24   2.0000     -10.341461      -281.4054
  25   2.0000     -10.334385      -281.2129
  26   2.0000     -10.334037      -281.2034
  27   2.0000     -10.331125      -281.1242
  28   2.0000     -10.322917      -280.9008
  29   2.0000     -10.321689      -280.8674
  30   2.0000     -10.320398      -280.8323
  31   2.0000     -10.319320      -280.8030
  32   2.0000     -10.318496      -280.7805
  33   2.0000     -10.316793      -280.7342
  34   2.0000     -10.314271      -280.6656
  35   2.0000     -10.311516      -280.5906
  36   2.0000     -10.309865      -280.5457
  37   2.0000     -10.309781      -280.5434
  38   2.0000     -10.307364      -280.4776
  39   2.0000     -10.305098      -280.4160
  40   2.0000     -10.303729      -280.3787
  41   2.0000     -10.303123      -280.3622
  42   2.0000     -10.301335      -280.3136
  43   2.0000     -10.300596      -280.2935
  44   2.0000     -10.296518      -280.1825
  45   2.0000     -10.295831      -280.1638
  46   2.0000     -10.295644      -280.1587
  47   2.0000     -10.295274      -280.1487
  48   2.0000     -10.293605      -280.1032
  49   2.0000     -10.293002      -280.0868
  50   2.0000     -10.292579      -280.0753
  51   2.0000     -10.291144      -280.0363
  52   2.0000     -10.290210      -280.0108
  53   2.0000     -10.289670      -279.9962
  54   2.0000     -10.287168      -279.9281
  55   2.0000     -10.286707      -279.9155
  56   2.0000     -10.285253      -279.8760
  57   2.0000     -10.282102      -279.7902
  58   2.0000     -10.269864      -279.4572
  59   2.0000      -8.082884      -219.9465
  60   2.0000      -8.076572      -219.7747
  61   2.0000      -8.073042      -219.6787
  62   2.0000      -8.054749      -219.1809
  63   2.0000      -8.048495      -219.0107
  64   2.0000      -8.047053      -218.9714
  65   2.0000      -8.035871      -218.6672
  66   2.0000      -6.052639      -164.7007
  67   2.0000      -6.048239      -164.5809
  68   2.0000      -6.045879      -164.5167
  69   2.0000      -6.044219      -164.4716
  70   2.0000      -6.042769      -164.4321
  71   2.0000      -6.041885      -164.4080
  72   2.0000      -6.038626      -164.3194
  73   2.0000      -6.038373      -164.3125
  74   2.0000      -6.034287      -164.2013
  75   2.0000      -6.024502      -163.9350
  76   2.0000      -6.020614      -163.8292
  77   2.0000      -6.018345      -163.7675
  78   2.0000      -6.016936      -163.7291
  79   2.0000      -6.015730      -163.6963
  80   2.0000      -6.014454      -163.6616
  81   2.0000      -6.013042      -163.6232
  82   2.0000      -6.008990      -163.5129
  83   2.0000      -6.007570      -163.4743
  84   2.0000      -6.005712      -163.4237
  85   2.0000      -6.001858      -163.3188
  86   2.0000      -5.996330      -163.1684
  87   2.0000      -1.329772       -36.1849
  88   2.0000      -1.313974       -35.7550
  89   2.0000      -1.307571       -35.5808
  90   2.0000      -1.236723       -33.6529
  91   2.0000      -1.146351       -31.1938
  92   2.0000      -1.133167       -30.8350
  93   2.0000      -1.126651       -30.6577
  94   2.0000      -1.101834       -29.9824
  95   2.0000      -1.089332       -29.6422
  96   2.0000      -1.008590       -27.4451
  97   2.0000      -1.004238       -27.3267
  98   2.0000      -1.003483       -27.3061
  99   2.0000      -1.001178       -27.2434
 100   2.0000      -0.991655       -26.9843
 101   2.0000      -0.980332       -26.6762
 102   2.0000      -0.969662       -26.3859
 103   2.0000      -0.945705       -25.7339
 104   2.0000      -0.927827       -25.2475
 105   2.0000      -0.919688       -25.0260
 106   2.0000      -0.910515       -24.7764
 107   2.0000      -0.899443       -24.4751
 108   2.0000      -0.896056       -24.3829
 109   2.0000      -0.891964       -24.2716
 110   2.0000      -0.881579       -23.9890
 111   2.0000      -0.873614       -23.7723
 112   2.0000      -0.867073       -23.5943
 113   2.0000      -0.857190       -23.3253
 114   2.0000      -0.856429       -23.3046
 115   2.0000      -0.847881       -23.0720
 116   2.0000      -0.843289       -22.9471
 117   2.0000      -0.834874       -22.7181
 118   2.0000      -0.827612       -22.5205
 119   2.0000      -0.822715       -22.3872
 120   2.0000      -0.819916       -22.3110
 121   2.0000      -0.799474       -21.7548
 122   2.0000      -0.793169       -21.5832
 123   2.0000      -0.790065       -21.4988
 124   2.0000      -0.775025       -21.0895
 125   2.0000      -0.759919       -20.6785
 126   2.0000      -0.744546       -20.2601
 127   2.0000      -0.736953       -20.0535
 128   2.0000      -0.732866       -19.9423
 129   2.0000      -0.728851       -19.8331
 130   2.0000      -0.717334       -19.5196
 131   2.0000      -0.697913       -18.9912
 132   2.0000      -0.689535       -18.7632
 133   2.0000      -0.686843       -18.6900
 134   2.0000      -0.680800       -18.5255
 135   2.0000      -0.672539       -18.3007
 136   2.0000      -0.671118       -18.2620
 137   2.0000      -0.661062       -17.9884
 138   2.0000      -0.655319       -17.8321
 139   2.0000      -0.644521       -17.5383
 140   2.0000      -0.644442       -17.5362
 141   2.0000      -0.641089       -17.4449
 142   2.0000      -0.634917       -17.2770
 143   2.0000      -0.632334       -17.2067
 144   2.0000      -0.626978       -17.0609
 145   2.0000      -0.626805       -17.0562
 146   2.0000      -0.625438       -17.0190
 147   2.0000      -0.624469       -16.9927
 148   2.0000      -0.620481       -16.8842
 149   2.0000      -0.619608       -16.8604
 150   2.0000      -0.616583       -16.7781
 151   2.0000      -0.613244       -16.6872
 152   2.0000      -0.609591       -16.5878
 153   2.0000      -0.600746       -16.3471
 154   2.0000      -0.600556       -16.3419
 155   2.0000      -0.595197       -16.1961
 156   2.0000      -0.589838       -16.0503
 157   2.0000      -0.584180       -15.8964
 158   2.0000      -0.582879       -15.8609
 159   2.0000      -0.578430       -15.7399
 160   2.0000      -0.573695       -15.6110
 161   2.0000      -0.572325       -15.5738
 162   2.0000      -0.567807       -15.4508
 163   2.0000      -0.565451       -15.3867
 164   2.0000      -0.561494       -15.2790
 165   2.0000      -0.547175       -14.8894
 166   2.0000      -0.546600       -14.8737
 167   2.0000      -0.544157       -14.8073
 168   2.0000      -0.538686       -14.6584
 169   2.0000      -0.535087       -14.5605
 170   2.0000      -0.529215       -14.4007
 171   2.0000      -0.522338       -14.2135
 172   2.0000      -0.520314       -14.1585
 173   2.0000      -0.517296       -14.0763
 174   2.0000      -0.513556       -13.9746
 175   2.0000      -0.512297       -13.9403
 176   2.0000      -0.510541       -13.8925
 177   2.0000      -0.506114       -13.7721
 178   2.0000      -0.504856       -13.7378
 179   2.0000      -0.498516       -13.5653
 180   2.0000      -0.496737       -13.5169
 181   2.0000      -0.496517       -13.5109
 182   2.0000      -0.492824       -13.4104
 183   2.0000      -0.489572       -13.3219
 184   2.0000      -0.486641       -13.2422
 185   2.0000      -0.486238       -13.2312
 186   2.0000      -0.483127       -13.1465
 187   2.0000      -0.478358       -13.0168
 188   2.0000      -0.474017       -12.8986
 189   2.0000      -0.472461       -12.8563
 190   2.0000      -0.470685       -12.8080
 191   2.0000      -0.465564       -12.6686
 192   2.0000      -0.463697       -12.6178
 193   2.0000      -0.456221       -12.4144
 194   2.0000      -0.452634       -12.3168
 195   2.0000      -0.449742       -12.2381
 196   2.0000      -0.449121       -12.2212
 197   2.0000      -0.442260       -12.0345
 198   2.0000      -0.436869       -11.8878
 199   2.0000      -0.436500       -11.8778
 200   2.0000      -0.431964       -11.7543
 201   2.0000      -0.430331       -11.7099
 202   2.0000      -0.427122       -11.6226
 203   2.0000      -0.425353       -11.5744
 204   2.0000      -0.422728       -11.5030
 205   2.0000      -0.406589       -11.0638
 206   2.0000      -0.402522       -10.9532
 207   2.0000      -0.393225       -10.7002
 208   2.0000      -0.390177       -10.6173
 209   2.0000      -0.386924       -10.5287
 210   2.0000      -0.384224       -10.4553
 211   2.0000      -0.381702       -10.3866
 212   2.0000      -0.380530       -10.3548
 213   2.0000      -0.376054       -10.2329
 214   2.0000      -0.375131       -10.2078
 215   2.0000      -0.374860       -10.2005
 216   2.0000      -0.373519       -10.1640
 217   2.0000      -0.367065        -9.9883
 218   2.0000      -0.362451        -9.8628
 219   2.0000      -0.356167        -9.6918
 220   2.0000      -0.352195        -9.5837
 221   2.0000      -0.349866        -9.5203
 222   2.0000      -0.343180        -9.3384
 223   2.0000      -0.340528        -9.2662
 224   2.0000      -0.336542        -9.1578
 225   2.0000      -0.334558        -9.1038
 226   2.0000      -0.327975        -8.9247
 227   2.0000      -0.322962        -8.7882
 228   2.0000      -0.313842        -8.5401
 229   2.0000      -0.295278        -8.0349
 230   2.0000      -0.281391        -7.6570
 231   2.0000      -0.247313        -6.7297
 232   2.0000      -0.225958        -6.1486
 233   2.0000      -0.218856        -5.9554
 234   0.0000      -0.086176        -2.3450
 235   0.0000      -0.076429        -2.0797
 236   0.0000      -0.065467        -1.7814
 237   0.0000      -0.050730        -1.3804
 238   0.0000      -0.039592        -1.0773

MULLIKEN ATOMIC CHARGES
-----------------------
   0 C :   -0.032357
   1 C :   -0.062636
   2 C :    0.049828
   3 C :    0.029747
   4 C :   -0.070340
   5 S :    0.069893
   6 C :   -0.047529
   7 C :    0.023379
   8 C :    0.040827
   9 C :   -0.048282
  10 S :    0.037429
  11 C :    0.010241
  12 N :   -0.024348
  13 C :   -0.127404
  14 S :    0.164033
  15 C :   -0.009440
  16 N :    0.280256
  17 O :   -0.255197
  18 O :   -0.272872
  19 C :    0.004926
  20 C :    0.102698
  21 C :   -0.060277
  22 C :    0.044078
  23 C :   -0.219330
  24 S :    0.157030
  25 C :   -0.151535
  26 C :    0.121600
  27 C :    0.189747
  28 O :   -0.190594
  29 C :    0.238677
  30 N :    0.276907
  31 O :   -0.248178
  32 O :   -0.231658
  33 C :   -0.111206
  34 C :    0.043660
  35 C :    0.057406
  36 N :   -0.015458
  37 C :   -0.117801
  38 S :    0.141454
  39 C :   -0.002903
  40 N :    0.277356
  41 O :   -0.254575
  42 O :   -0.268334
  43 C :    0.005995
  44 C :    0.134435
  45 C :   -0.024558
  46 C :    0.015998
  47 C :   -0.014377
  48 C :   -0.009749
  49 C :    0.038222
  50 C :    0.029207
  51 C :   -0.023894
  52 S :    0.000277
  53 C :   -0.056344
  54 C :    0.028323
  55 C :    0.057138
  56 C :   -0.063494
  57 S :    0.062148
  58 C :   -0.024548
  59 H :    0.019338
  60 H :    0.021813
  61 H :   -0.012109
  62 H :   -0.012961
  63 H :   -0.014302
  64 H :   -0.011273
  65 H :    0.043121
  66 H :    0.141867
  67 H :    0.012983
  68 H :    0.018938
  69 H :   -0.006002
  70 H :    0.017796
  71 H :   -0.017598
  72 H :    0.018088
  73 H :    0.143687
  74 H :    0.010160
  75 H :   -0.043667
  76 H :   -0.020106
  77 H :   -0.014257
  78 H :   -0.009850
  79 H :   -0.012971
  80 H :   -0.007899
  81 H :   -0.006533
  82 H :    0.025859
  83 H :    0.022182
Sum of atomic charges:   -0.0000000

LOEWDIN ATOMIC CHARGES
----------------------
   0 C :   -0.080324
   1 C :   -0.138630
   2 C :   -0.033523
   3 C :   -0.026439
   4 C :   -0.184171
   5 S :    0.342849
   6 C :   -0.175655
   7 C :   -0.040673
   8 C :   -0.029542
   9 C :   -0.186590
  10 S :    0.331301
  11 C :   -0.005205
  12 N :    0.035018
  13 C :   -0.103611
  14 S :    0.444557
  15 C :   -0.214868
  16 N :    0.274039
  17 O :   -0.220272
  18 O :   -0.239006
  19 C :    0.008549
  20 C :   -0.108508
  21 C :   -0.027995
  22 C :   -0.050959
  23 C :   -0.210633
  24 S :    0.461354
  25 C :   -0.160691
  26 C :   -0.087581
  27 C :    0.024705
  28 O :    0.003846
  29 C :    0.026195
  30 N :    0.271601
  31 O :   -0.209062
  32 O :   -0.193624
  33 C :   -0.014468
  34 C :   -0.095067
  35 C :    0.032796
  36 N :    0.053038
  37 C :   -0.100917
  38 S :    0.448760
  39 C :   -0.210233
  40 N :    0.273519
  41 O :   -0.221167
  42 O :   -0.234677
  43 C :    0.007964
  44 C :   -0.102482
  45 C :   -0.040769
  46 C :   -0.033129
  47 C :   -0.062398
  48 C :   -0.140902
  49 C :   -0.028287
  50 C :   -0.037589
  51 C :   -0.181182
  52 S :    0.361955
  53 C :   -0.172131
  54 C :   -0.025607
  55 C :   -0.026058
  56 C :   -0.139141
  57 S :    0.337480
  58 C :   -0.069807
  59 H :    0.028410
  60 H :    0.026170
  61 H :    0.033205
  62 H :    0.031696
  63 H :    0.031928
  64 H :    0.033987
  65 H :    0.040987
  66 H :    0.082994
  67 H :    0.047783
  68 H :    0.035820
  69 H :    0.029743
  70 H :    0.043309
  71 H :    0.030934
  72 H :    0.024249
  73 H :    0.099877
  74 H :    0.044836
  75 H :   -0.002815
  76 H :    0.029838
  77 H :    0.035813
  78 H :    0.034858
  79 H :    0.032418
  80 H :    0.034210
  81 H :    0.035616
  82 H :    0.031390
  83 H :    0.026790

  Mayer bond orders larger than 0.100000
B(  0-C ,  1-C ) :   1.8693 B(  0-C , 59-H ) :   0.9501 B(  0-C , 60-H ) :   0.9415
B(  1-C ,  2-C ) :   1.0778 B(  1-C ,  5-S ) :   1.0069 B(  2-C ,  3-C ) :   1.6690
B(  2-C , 61-H ) :   0.9927 B(  3-C ,  4-C ) :   1.1457 B(  3-C , 62-H ) :   0.9919
B(  4-C ,  5-S ) :   1.0369 B(  4-C ,  6-C ) :   1.5811 B(  6-C ,  7-C ) :   1.1599
B(  6-C , 10-S ) :   1.0311 B(  7-C ,  8-C ) :   1.6359 B(  7-C , 63-H ) :   0.9921
B(  8-C ,  9-C ) :   1.1362 B(  8-C , 64-H ) :   0.9962 B(  9-C , 10-S ) :   1.0036
B(  9-C , 11-C ) :   1.6282 B( 11-C , 12-N ) :   1.1365 B( 11-C , 65-H ) :   0.9570
B( 12-N , 13-C ) :   1.1970 B( 12-N , 66-H ) :   0.8997 B( 13-C , 14-S ) :   1.1354
B( 13-C , 20-C ) :   1.3767 B( 14-S , 15-C ) :   1.0744 B( 15-C , 16-N ) :   0.9803
B( 15-C , 19-C ) :   1.4790 B( 16-N , 17-O ) :   1.5309 B( 16-N , 18-O ) :   1.5016
B( 17-O , 18-O ) :   0.2542 B( 19-C , 20-C ) :   1.2316 B( 19-C , 67-H ) :   1.0083
B( 20-C , 21-C ) :   1.0598 B( 21-C , 22-C ) :   1.7070 B( 21-C , 68-H ) :   0.9628
B( 22-C , 23-C ) :   1.1293 B( 22-C , 69-H ) :   0.9528 B( 23-C , 24-S ) :   1.0952
B( 23-C , 25-C ) :   0.1073 B( 23-C , 27-C ) :   1.4686 B( 24-S , 25-C ) :   1.1459
B( 25-C , 26-C ) :   1.3482 B( 25-C , 34-C ) :   1.1899 B( 26-C , 27-C ) :   1.2332
B( 26-C , 33-C ) :   1.0856 B( 27-C , 28-O ) :   1.0994 B( 28-O , 29-C ) :   1.1190
B( 29-C , 30-N ) :   0.9212 B( 29-C , 33-C ) :   1.5693 B( 30-N , 31-O ) :   1.5223
B( 30-N , 32-O ) :   1.5055 B( 31-O , 32-O ) :   0.2797 B( 33-C , 70-H ) :   1.0113
B( 34-C , 35-C ) :   1.6402 B( 34-C , 71-H ) :   0.9477 B( 35-C , 36-N ) :   1.1430
B( 35-C , 72-H ) :   0.9644 B( 36-N , 37-C ) :   1.2333 B( 36-N , 73-H ) :   0.9134
B( 37-C , 38-S ) :   1.1290 B( 37-C , 44-C ) :   1.3263 B( 38-S , 39-C ) :   1.0632
B( 39-C , 40-N ) :   0.9801 B( 39-C , 43-C ) :   1.4973 B( 40-N , 41-O ) :   1.5262
B( 40-N , 42-O ) :   1.5048 B( 41-O , 42-O ) :   0.2543 B( 43-C , 44-C ) :   1.2223
B( 43-C , 74-H ) :   1.0009 B( 44-C , 45-C ) :   1.1281 B( 45-C , 46-C ) :   1.6726
B( 45-C , 75-H ) :   0.9401 B( 46-C , 47-C ) :   1.1858 B( 46-C , 76-H ) :   0.9706
B( 47-C , 48-C ) :   1.5947 B( 47-C , 77-H ) :   0.9612 B( 48-C , 49-C ) :   1.1384
B( 48-C , 52-S ) :   1.0281 B( 49-C , 50-C ) :   1.6133 B( 49-C , 78-H ) :   0.9980
B( 50-C , 51-C ) :   1.1656 B( 50-C , 79-H ) :   0.9915 B( 51-C , 52-S ) :   1.0271
B( 51-C , 53-C ) :   1.5669 B( 53-C , 54-C ) :   1.1481 B( 53-C , 57-S ) :   1.0417
B( 54-C , 55-C ) :   1.6645 B( 54-C , 80-H ) :   0.9928 B( 55-C , 56-C ) :   1.0795
B( 55-C , 81-H ) :   0.9929 B( 56-C , 57-S ) :   1.0042 B( 56-C , 58-C ) :   1.8686
B( 58-C , 82-H ) :   0.9500 B( 58-C , 83-H ) :   0.9423

-----------------------------------------------------------------------------
         ABSORPTION SPECTRUM VIA TRANSITION ELECTRIC DIPOLE MOMENTS
-----------------------------------------------------------------------------
State   Energy  Wavelength   fosc         T2         TX        TY        TZ
        (cm-1)    (nm)                  (au**2)     (au)      (au)      (au)
-----------------------------------------------------------------------------
   0   15156.9    659.8   0.332599557   7.22415  -1.30197  -2.04777  -1.15571
   1   17730.7    564.0   0.738451455  13.71107   2.74466  -2.34416   0.82632
   2   18774.9    532.6   0.548115406   9.61105   0.94787  -0.46994   2.91406
   3   19414.3    515.1   0.981630407  16.64572   3.23714  -2.34596  -0.81433
   4   20777.6    481.3   0.158255146   2.50749  -0.78016  -0.44171  -1.30527
   5   21752.0    459.7   0.187180964   2.83294   0.84795  -0.15621   1.44552
   6   23553.0    424.6   0.601187351   8.40310  -1.02961  -0.29817  -2.69334
   7   24234.3    412.6   0.052998034   0.71995  -0.47243   0.66122   0.24405
   8   24615.8    406.2   0.043808168   0.58589   0.30279   0.18228   0.67896
   9   25322.0    394.9   0.240943668   3.13252  -1.07310  -0.13400  -1.40108
  10   26586.9    376.1   0.265390092   3.28619  -0.29989   1.18422   1.33935
  11   27290.7    366.4   0.012044060   0.14529  -0.06539  -0.26348  -0.26756
  12   28144.4    355.3   0.009820527   0.11487  -0.00280  -0.21674  -0.26055
  13   28447.8    351.5   0.291530528   3.37373  -0.93523   0.01132  -1.58081
  14   28800.2    347.2   0.149868464   1.71313   0.01605  -0.89366  -0.95616
  15   29455.0    339.5   0.016041467   0.17929  -0.24699  -0.07681  -0.33525
  16   30278.4    330.3   0.074210314   0.80688  -0.59881   0.55339  -0.37690
  17   31106.3    321.5   0.066529369   0.70411   0.27972   0.56341   0.55537
  18   31238.1    320.1   0.136994119   1.44375   0.30847   0.83232   0.80984
  19   32233.5    310.2   0.105890848   1.08150   0.12348  -0.62566  -0.82146
  20   32520.5    307.5   0.116496875   1.17932   0.13716  -1.06011   0.19149
  21   32946.6    303.5   0.213730758   2.13566  -0.15453  -0.34004  -1.41285
  22   33601.8    297.6   0.009317008   0.09128   0.15174  -0.14190   0.21937
  23   34086.8    293.4   0.000255509   0.00247   0.04460  -0.02146  -0.00427
  24   34349.0    291.1   0.079490112   0.76186   0.43495  -0.36678   0.66192
  25   34571.5    289.3   0.035483259   0.33789  -0.18076   0.35590   0.42256
  26   34846.0    287.0   0.041188873   0.38914   0.01029  -0.61699   0.09138
  27   35407.0    282.4   0.181074287   1.68362  -0.79969   0.93201  -0.41889
  28   35520.7    281.5   0.060968085   0.56506   0.33903  -0.32604   0.58636
  29   36279.3    275.6   0.284268398   2.57956  -0.40948   1.52963   0.26854
  30   36560.4    273.5   0.019644273   0.17689   0.18529  -0.24530   0.28702
  31   36620.4    273.1   0.299505535   2.69251  -0.72764   1.37320  -0.52664
  32   36952.0    270.6   0.031981426   0.28493  -0.33907   0.38887   0.13688
  33   37140.5    269.2   0.012578699   0.11150  -0.17339   0.07529  -0.27525
  34   37524.1    266.5   0.062789402   0.55087  -0.43398   0.54158  -0.26312
  35   37789.7    264.6   0.001110730   0.00968   0.04453  -0.03709  -0.07948
  36   38114.0    262.4   0.025279440   0.21835   0.02440   0.25762   0.38909
  37   38627.5    258.9   0.084401467   0.71933  -0.02930   0.39962   0.74751
  38   38702.0    258.4   0.024812300   0.21106  -0.16339   0.22713   0.36439
  39   39077.5    255.9   0.048892188   0.41190  -0.28556   0.51737   0.25036
  40   39331.0    254.3   0.062014071   0.51908  -0.37338  -0.19656  -0.58397
  41   39525.5    253.0   0.007748923   0.06454   0.21176   0.03636   0.13557
  42   39868.0    250.8   0.009415360   0.07775   0.10566   0.13980   0.21689
  43   40139.8    249.1   0.131977079   1.08243  -0.25075  -0.48341  -0.88649

FINAL SINGLE POINT ENERGY     -5122.766901021085

DIPOLE MOMENT
-------------
                                X             Y             Z
Electronic contribution:    -20.46775      36.80309      11.85222
Nuclear contribution   :     23.37974     -42.38675     -13.37429
                        -----------------------------------------
Total Dipole Moment    :      2.91200      -5.58366      -1.52207
                        -----------------------------------------
Magnitude (a.u.)       :      6.47871
Magnitude (Debye)      :     16.46756

Rotational constants in cm-1:     0.000985     0.000536     0.000392
Rotational constants in MHz :    29.518022    16.069556    11.748932

                             ****ORCA TERMINATED NORMALLY****
TOTAL RUN TIME: 0 days 0 hours 9 minutes 34 seconds 229 msec
