                         Program Version 4.2.0 -  RELEASE  -
|  1> # ORCA input file
|  2> # SCF done       -159.015356080429          0.000354424634
|  3> ! CAM-B3LYP def2-SVP def2/J RIJCOSX Grid4 TightSCF
|  4> %maxcore 5000
|  5> %tddft
|  6>     Mode sTDDFT
|  7>     Ethresh 5.0
|  8>     maxcore 5000
|  9> end
| 10>
| 11> %pal
| 12>   nprocs 6
| 13>   end
| 14> * xyz 0 1
| 15>    C       -9.92757       -14.44521        -4.79781
| 16>    C       -8.62826       -14.52738        -5.10986
| 17>    C       -8.04690       -14.76820        -6.40077
| 18>    C       -6.69771       -14.80003        -6.41050
| 19>    C       -6.09642       -14.58808        -5.13579
| 20>    S       -7.33327       -14.34455        -3.91593
| 21>    C       -4.75810       -14.56776        -4.84081
| 22>    C       -3.66229       -14.76600        -5.72147
| 23>    C       -2.44553       -14.69790        -5.12810
| 24>    C       -2.49324       -14.43818        -3.72913
| 25>    S       -4.17478       -14.27330        -3.20931
| 26>    C       -1.43276       -14.32969        -2.88722
| 27>    N       -1.55852       -14.09246        -1.54731
| 28>    C       -0.56100       -13.83868        -0.66220
| 29>    S       -0.83336       -14.19007         1.02010
| 30>    C        0.79876       -13.70895         1.37207
| 31>    N        1.21434       -13.74831         2.69941
| 32>    O        2.36200       -13.41509         2.94819
| 33>    O        0.39127       -14.11870         3.52498
| 34>    C        1.49431       -13.30652         0.26040
| 35>    C        0.73012       -13.35612        -0.91603
| 36>    C        1.17577       -12.88146        -2.20691
| 37>    C        2.45461       -12.85895        -2.61051
| 38>    C        2.90925       -12.42871        -3.90542
| 39>    C        4.21768       -12.61180        -4.30700
| 40>    O        5.18119       -13.14267        -3.53415
| 41>    S        4.55808       -12.12154        -5.95112
| 42>    C        2.90848       -11.63610        -6.14022
| 43>    C        2.16437       -11.84535        -4.97269
| 44>    N        0.87886       -11.42575        -5.18815
| 45>    C        0.79645       -10.94539        -6.46625
| 46>    C        2.04651       -11.07590        -7.08883
| 47>    S        1.99830       -10.52201        -8.72287
| 48>    C        0.29218       -10.12373        -8.53461
| 49>    C       -0.20570       -10.40076        -7.28990
| 50>    N       -0.34051        -9.60721        -9.63900
| 51>    C       -1.46867        -8.86204        -9.68941
| 52>    S       -2.22473        -8.22282        -8.26697
| 53>    C       -3.32324        -7.31744        -9.26920
| 54>    N       -4.28198        -6.54565        -8.62373
| 55>    O       -5.05895        -5.90158        -9.30993
| 56>    O       -4.27467        -6.57155        -7.39989
| 57>    C       -3.11302        -7.51019       -10.60921
| 58>    C       -2.07381        -8.41792       -10.87934
| 59>    C       -1.72363        -8.83307       -12.20862
| 60>    C       -1.13758       -10.00971       -12.54298
| 61>    C       -0.81053       -10.39785       -13.86022
| 62>    C       -0.24587       -11.60560       -14.16173
| 63>    C        0.10644       -12.10170       -15.44555
| 64>    C        0.64497       -13.34755       -15.43882
| 65>    C        0.76025       -13.92351       -14.14728
| 66>    S        0.15581       -12.80781       -12.93676
| 67>    C        1.25130       -15.15970       -13.81062
| 68>    C        1.75432       -16.16169       -14.68877
| 69>    C        2.16522       -17.28951       -14.07027
| 70>    C        2.02187       -17.27095       -12.64192
| 71>    S        1.32706       -15.71790       -12.14954
| 72>    C        2.34264       -18.23774       -11.77243
| 73>    H      -10.68224       -14.56277        -5.55528
| 74>    H      -10.25776       -14.25974        -3.79222
| 75>    H       -8.67270       -14.90605        -7.26466
| 76>    H       -6.10044       -14.96744        -7.28933
| 77>    H       -3.81255       -14.95606        -6.76882
| 78>    H       -1.50699       -14.82389        -5.63836
| 79>    H       -0.43064       -14.46282        -3.26333
| 80>    H       -2.49175       -14.20228        -1.16622
| 81>    H        2.50743       -12.95304         0.31523
| 82>    H        0.39404       -12.52722        -2.86184
| 83>    H        3.23315       -13.24160        -1.96719
| 84>    H        6.02397       -13.16920        -4.00146
| 85>    H        0.14209       -11.37780        -4.50633
| 86>    H       -1.22600       -10.25316        -6.99328
| 87>    H        0.16965        -9.68075       -10.51236
| 88>    H       -3.71044        -7.02945       -11.36248
| 89>    H       -2.01709        -8.15443       -12.99827
| 90>    H       -0.94135       -10.75541       -11.78282
| 91>    H       -1.01272        -9.71205       -14.67127
| 92>    H       -0.05739       -11.51337       -16.33130
| 93>    H        0.96430       -13.87321       -16.32087
| 94>    H        1.78937       -16.00578       -15.75246
| 95>    H        2.57104       -18.15230       -14.56798
| 96>    H        2.76269       -19.16677       -12.11506
| 97>    H        2.19340       -18.11995       -10.71486
| 98> *
| 99>
|100>                          ****END OF INPUT****

CARTESIAN COORDINATES (ANGSTROEM)
---------------------------------
  C     -9.927570  -14.445210   -4.797810
  C     -8.628260  -14.527380   -5.109860
  C     -8.046900  -14.768200   -6.400770
  C     -6.697710  -14.800030   -6.410500
  C     -6.096420  -14.588080   -5.135790
  S     -7.333270  -14.344550   -3.915930
  C     -4.758100  -14.567760   -4.840810
  C     -3.662290  -14.766000   -5.721470
  C     -2.445530  -14.697900   -5.128100
  C     -2.493240  -14.438180   -3.729130
  S     -4.174780  -14.273300   -3.209310
  C     -1.432760  -14.329690   -2.887220
  N     -1.558520  -14.092460   -1.547310
  C     -0.561000  -13.838680   -0.662200
  S     -0.833360  -14.190070    1.020100
  C      0.798760  -13.708950    1.372070
  N      1.214340  -13.748310    2.699410
  O      2.362000  -13.415090    2.948190
  O      0.391270  -14.118700    3.524980
  C      1.494310  -13.306520    0.260400
  C      0.730120  -13.356120   -0.916030
  C      1.175770  -12.881460   -2.206910
  C      2.454610  -12.858950   -2.610510
  C      2.909250  -12.428710   -3.905420
  C      4.217680  -12.611800   -4.307000
  O      5.181190  -13.142670   -3.534150
  S      4.558080  -12.121540   -5.951120
  C      2.908480  -11.636100   -6.140220
  C      2.164370  -11.845350   -4.972690
  N      0.878860  -11.425750   -5.188150
  C      0.796450  -10.945390   -6.466250
  C      2.046510  -11.075900   -7.088830
  S      1.998300  -10.522010   -8.722870
  C      0.292180  -10.123730   -8.534610
  C     -0.205700  -10.400760   -7.289900
  N     -0.340510   -9.607210   -9.639000
  C     -1.468670   -8.862040   -9.689410
  S     -2.224730   -8.222820   -8.266970
  C     -3.323240   -7.317440   -9.269200
  N     -4.281980   -6.545650   -8.623730
  O     -5.058950   -5.901580   -9.309930
  O     -4.274670   -6.571550   -7.399890
  C     -3.113020   -7.510190  -10.609210
  C     -2.073810   -8.417920  -10.879340
  C     -1.723630   -8.833070  -12.208620
  C     -1.137580  -10.009710  -12.542980
  C     -0.810530  -10.397850  -13.860220
  C     -0.245870  -11.605600  -14.161730
  C      0.106440  -12.101700  -15.445550
  C      0.644970  -13.347550  -15.438820
  C      0.760250  -13.923510  -14.147280
  S      0.155810  -12.807810  -12.936760
  C      1.251300  -15.159700  -13.810620
  C      1.754320  -16.161690  -14.688770
  C      2.165220  -17.289510  -14.070270
  C      2.021870  -17.270950  -12.641920
  S      1.327060  -15.717900  -12.149540
  C      2.342640  -18.237740  -11.772430
  H    -10.682240  -14.562770   -5.555280
  H    -10.257760  -14.259740   -3.792220
  H     -8.672700  -14.906050   -7.264660
  H     -6.100440  -14.967440   -7.289330
  H     -3.812550  -14.956060   -6.768820
  H     -1.506990  -14.823890   -5.638360
  H     -0.430640  -14.462820   -3.263330
  H     -2.491750  -14.202280   -1.166220
  H      2.507430  -12.953040    0.315230
  H      0.394040  -12.527220   -2.861840
  H      3.233150  -13.241600   -1.967190
  H      6.023970  -13.169200   -4.001460
  H      0.142090  -11.377800   -4.506330
  H     -1.226000  -10.253160   -6.993280
  H      0.169650   -9.680750  -10.512360
  H     -3.710440   -7.029450  -11.362480
  H     -2.017090   -8.154430  -12.998270
  H     -0.941350  -10.755410  -11.782820
  H     -1.012720   -9.712050  -14.671270
  H     -0.057390  -11.513370  -16.331300
  H      0.964300  -13.873210  -16.320870
  H      1.789370  -16.005780  -15.752460
  H      2.571040  -18.152300  -14.567980
  H      2.762690  -19.166770  -12.115060
  H      2.193400  -18.119950  -10.714860

 Total Charge           Charge          ....    0
 Multiplicity           Mult            ....    1
 Number of Electrons    NEL             ....  468
 Basis Dimension        Dim             ....  969

ORBITAL ENERGIES
----------------

  NO   OCC          E(Eh)            E(eV)
   0   2.0000     -88.977245     -2421.1939
   1   2.0000     -88.975000     -2421.1328
   2   2.0000     -88.964547     -2420.8484
   3   2.0000     -88.964204     -2420.8391
   4   2.0000     -88.946028     -2420.3445
   5   2.0000     -88.945354     -2420.3261
   6   2.0000     -88.941380     -2420.2180
   7   2.0000     -88.933959     -2420.0161
   8   2.0000     -19.273905      -524.4696
   9   2.0000     -19.224746      -523.1319
  10   2.0000     -19.224208      -523.1173
  11   2.0000     -19.223164      -523.0889
  12   2.0000     -19.222980      -523.0839
  13   2.0000     -14.636367      -398.2758
  14   2.0000     -14.635237      -398.2450
  15   2.0000     -14.481357      -394.0578
  16   2.0000     -14.481238      -394.0545
  17   2.0000     -14.469616      -393.7383
  18   2.0000     -10.365217      -282.0519
  19   2.0000     -10.364806      -282.0407
  20   2.0000     -10.361748      -281.9575
  21   2.0000     -10.348963      -281.6096
  22   2.0000     -10.331707      -281.1400
  23   2.0000     -10.329290      -281.0743
  24   2.0000     -10.328618      -281.0560
  25   2.0000     -10.313008      -280.6312
  26   2.0000     -10.311735      -280.5966
  27   2.0000     -10.311173      -280.5813
  28   2.0000     -10.309805      -280.5441
  29   2.0000     -10.309721      -280.5418
  30   2.0000     -10.309475      -280.5351
  31   2.0000     -10.309306      -280.5305
  32   2.0000     -10.307256      -280.4747
  33   2.0000     -10.304724      -280.4058
  34   2.0000     -10.302181      -280.3366
  35   2.0000     -10.300892      -280.3015
  36   2.0000     -10.299957      -280.2761
  37   2.0000     -10.294883      -280.1380
  38   2.0000     -10.293951      -280.1127
  39   2.0000     -10.292866      -280.0831
  40   2.0000     -10.291969      -280.0587
  41   2.0000     -10.291950      -280.0582
  42   2.0000     -10.291150      -280.0364
  43   2.0000     -10.290535      -280.0197
  44   2.0000     -10.288401      -279.9616
  45   2.0000     -10.287947      -279.9493
  46   2.0000     -10.287725      -279.9432
  47   2.0000     -10.285935      -279.8945
  48   2.0000     -10.285797      -279.8908
  49   2.0000     -10.284401      -279.8528
  50   2.0000     -10.283897      -279.8391
  51   2.0000     -10.283653      -279.8324
  52   2.0000     -10.282582      -279.8033
  53   2.0000     -10.282481      -279.8005
  54   2.0000     -10.281376      -279.7705
  55   2.0000     -10.280142      -279.7369
  56   2.0000     -10.273316      -279.5511
  57   2.0000     -10.264793      -279.3192
  58   2.0000      -8.072257      -219.6573
  59   2.0000      -8.070794      -219.6175
  60   2.0000      -8.060350      -219.3333
  61   2.0000      -8.059502      -219.3102
  62   2.0000      -8.042436      -218.8458
  63   2.0000      -8.041715      -218.8262
  64   2.0000      -8.038087      -218.7275
  65   2.0000      -8.030696      -218.5263
  66   2.0000      -6.041966      -164.4103
  67   2.0000      -6.040536      -164.3713
  68   2.0000      -6.037453      -164.2874
  69   2.0000      -6.036143      -164.2518
  70   2.0000      -6.033774      -164.1873
  71   2.0000      -6.032066      -164.1409
  72   2.0000      -6.030063      -164.0863
  73   2.0000      -6.029479      -164.0705
  74   2.0000      -6.026231      -163.9821
  75   2.0000      -6.025356      -163.9583
  76   2.0000      -6.021290      -163.8476
  77   2.0000      -6.020271      -163.8199
  78   2.0000      -6.012335      -163.6040
  79   2.0000      -6.011473      -163.5805
  80   2.0000      -6.008428      -163.4976
  81   2.0000      -6.007925      -163.4839
  82   2.0000      -6.007614      -163.4755
  83   2.0000      -6.004024      -163.3778
  84   2.0000      -6.002933      -163.3481
  85   2.0000      -6.002412      -163.3339
  86   2.0000      -6.000547      -163.2832
  87   2.0000      -5.998575      -163.2295
  88   2.0000      -5.996676      -163.1779
  89   2.0000      -5.991140      -163.0272
  90   2.0000      -1.303775       -35.4775
  91   2.0000      -1.302462       -35.4418
  92   2.0000      -1.170667       -31.8555
  93   2.0000      -1.122605       -30.5476
  94   2.0000      -1.121249       -30.5107
  95   2.0000      -1.091822       -29.7100
  96   2.0000      -1.085540       -29.5391
  97   2.0000      -1.085204       -29.5299
  98   2.0000      -0.998616       -27.1737
  99   2.0000      -0.998008       -27.1572
 100   2.0000      -0.995138       -27.0791
 101   2.0000      -0.987369       -26.8677
 102   2.0000      -0.972295       -26.4575
 103   2.0000      -0.968793       -26.3622
 104   2.0000      -0.964926       -26.2570
 105   2.0000      -0.962313       -26.1859
 106   2.0000      -0.920065       -25.0363
 107   2.0000      -0.913788       -24.8654
 108   2.0000      -0.894936       -24.3524
 109   2.0000      -0.892040       -24.2736
 110   2.0000      -0.878040       -23.8927
 111   2.0000      -0.874498       -23.7963
 112   2.0000      -0.865415       -23.5491
 113   2.0000      -0.861413       -23.4402
 114   2.0000      -0.852761       -23.2048
 115   2.0000      -0.847891       -23.0723
 116   2.0000      -0.843065       -22.9410
 117   2.0000      -0.841135       -22.8884
 118   2.0000      -0.832774       -22.6609
 119   2.0000      -0.827453       -22.5161
 120   2.0000      -0.818782       -22.2802
 121   2.0000      -0.818000       -22.2589
 122   2.0000      -0.813059       -22.1245
 123   2.0000      -0.801037       -21.7973
 124   2.0000      -0.786183       -21.3931
 125   2.0000      -0.783082       -21.3087
 126   2.0000      -0.767480       -20.8842
 127   2.0000      -0.761204       -20.7134
 128   2.0000      -0.735570       -20.0159
 129   2.0000      -0.730213       -19.8701
 130   2.0000      -0.712089       -19.3769
 131   2.0000      -0.705266       -19.1913
 132   2.0000      -0.700225       -19.0541
 133   2.0000      -0.689946       -18.7744
 134   2.0000      -0.683164       -18.5898
 135   2.0000      -0.676861       -18.4183
 136   2.0000      -0.676053       -18.3963
 137   2.0000      -0.670974       -18.2581
 138   2.0000      -0.662065       -18.0157
 139   2.0000      -0.654073       -17.7982
 140   2.0000      -0.645907       -17.5760
 141   2.0000      -0.639028       -17.3888
 142   2.0000      -0.631468       -17.1831
 143   2.0000      -0.630594       -17.1593
 144   2.0000      -0.624517       -16.9940
 145   2.0000      -0.622219       -16.9314
 146   2.0000      -0.618802       -16.8385
 147   2.0000      -0.618323       -16.8254
 148   2.0000      -0.617311       -16.7979
 149   2.0000      -0.616316       -16.7708
 150   2.0000      -0.615117       -16.7382
 151   2.0000      -0.605655       -16.4807
 152   2.0000      -0.601621       -16.3709
 153   2.0000      -0.597985       -16.2720
 154   2.0000      -0.595832       -16.2134
 155   2.0000      -0.590041       -16.0558
 156   2.0000      -0.582987       -15.8639
 157   2.0000      -0.580568       -15.7980
 158   2.0000      -0.579362       -15.7652
 159   2.0000      -0.575358       -15.6563
 160   2.0000      -0.567536       -15.4434
 161   2.0000      -0.562832       -15.3154
 162   2.0000      -0.556161       -15.1339
 163   2.0000      -0.547646       -14.9022
 164   2.0000      -0.545069       -14.8321
 165   2.0000      -0.544332       -14.8120
 166   2.0000      -0.542180       -14.7535
 167   2.0000      -0.535779       -14.5793
 168   2.0000      -0.528823       -14.3900
 169   2.0000      -0.523053       -14.2330
 170   2.0000      -0.521534       -14.1917
 171   2.0000      -0.516187       -14.0462
 172   2.0000      -0.513566       -13.9748
 173   2.0000      -0.512641       -13.9497
 174   2.0000      -0.507938       -13.8217
 175   2.0000      -0.506561       -13.7842
 176   2.0000      -0.503091       -13.6898
 177   2.0000      -0.498053       -13.5527
 178   2.0000      -0.497624       -13.5410
 179   2.0000      -0.494638       -13.4598
 180   2.0000      -0.492189       -13.3932
 181   2.0000      -0.489894       -13.3307
 182   2.0000      -0.486799       -13.2465
 183   2.0000      -0.485807       -13.2195
 184   2.0000      -0.482594       -13.1320
 185   2.0000      -0.479862       -13.0577
 186   2.0000      -0.476729       -12.9724
 187   2.0000      -0.471120       -12.8198
 188   2.0000      -0.466745       -12.7008
 189   2.0000      -0.466210       -12.6862
 190   2.0000      -0.461105       -12.5473
 191   2.0000      -0.459559       -12.5052
 192   2.0000      -0.458419       -12.4742
 193   2.0000      -0.455381       -12.3916
 194   2.0000      -0.451240       -12.2789
 195   2.0000      -0.441808       -12.0222
 196   2.0000      -0.437688       -11.9101
 197   2.0000      -0.437017       -11.8918
 198   2.0000      -0.430573       -11.7165
 199   2.0000      -0.430293       -11.7089
 200   2.0000      -0.429074       -11.6757
 201   2.0000      -0.424136       -11.5413
 202   2.0000      -0.422980       -11.5099
 203   2.0000      -0.421134       -11.4596
 204   2.0000      -0.419415       -11.4129
 205   2.0000      -0.416441       -11.3319
 206   2.0000      -0.411202       -11.1894
 207   2.0000      -0.399376       -10.8676
 208   2.0000      -0.397971       -10.8293
 209   2.0000      -0.394860       -10.7447
 210   2.0000      -0.380522       -10.3545
 211   2.0000      -0.380077       -10.3424
 212   2.0000      -0.373577       -10.1655
 213   2.0000      -0.372398       -10.1335
 214   2.0000      -0.365730        -9.9520
 215   2.0000      -0.364301        -9.9131
 216   2.0000      -0.353262        -9.6128
 217   2.0000      -0.352252        -9.5853
 218   2.0000      -0.347488        -9.4556
 219   2.0000      -0.345017        -9.3884
 220   2.0000      -0.340967        -9.2782
 221   2.0000      -0.338987        -9.2243
 222   2.0000      -0.338308        -9.2058
 223   2.0000      -0.333882        -9.0854
 224   2.0000      -0.326965        -8.8972
 225   2.0000      -0.320908        -8.7323
 226   2.0000      -0.313107        -8.5201
 227   2.0000      -0.301695        -8.2095
 228   2.0000      -0.288543        -7.8516
 229   2.0000      -0.281630        -7.6635
 230   2.0000      -0.264617        -7.2006
 231   2.0000      -0.235185        -6.3997
 232   2.0000      -0.217382        -5.9153
 233   2.0000      -0.214162        -5.8276
 234   0.0000      -0.070453        -1.9171
 235   0.0000      -0.060468        -1.6454
 236   0.0000      -0.046221        -1.2577
 237   0.0000      -0.036272        -0.9870
 238   0.0000      -0.010396        -0.2829

MULLIKEN ATOMIC CHARGES
-----------------------
   0 C :   -0.031315
   1 C :   -0.062593
   2 C :    0.051351
   3 C :    0.031748
   4 C :   -0.069087
   5 S :    0.070208
   6 C :   -0.052460
   7 C :    0.024594
   8 C :    0.032729
   9 C :   -0.052515
  10 S :    0.040836
  11 C :    0.006851
  12 N :   -0.034746
  13 C :   -0.114047
  14 S :    0.166813
  15 C :   -0.018811
  16 N :    0.281943
  17 O :   -0.259822
  18 O :   -0.276105
  19 C :    0.003135
  20 C :    0.094276
  21 C :   -0.051329
  22 C :    0.015871
  23 C :    0.068707
  24 C :   -0.070134
  25 O :   -0.165471
  26 S :    0.101862
  27 C :   -0.135735
  28 C :    0.045438
  29 N :   -0.023133
  30 C :    0.077825
  31 C :   -0.125468
  32 S :    0.124831
  33 C :   -0.075248
  34 C :   -0.046074
  35 N :   -0.011926
  36 C :   -0.098284
  37 S :    0.155619
  38 C :   -0.016120
  39 N :    0.281692
  40 O :   -0.262574
  41 O :   -0.279145
  42 C :    0.014247
  43 C :    0.109182
  44 C :   -0.025653
  45 C :   -0.037379
  46 C :   -0.020460
  47 C :   -0.016980
  48 C :    0.038048
  49 C :    0.030070
  50 C :   -0.047028
  51 S :    0.048854
  52 C :   -0.064733
  53 C :    0.025566
  54 C :    0.053376
  55 C :   -0.063884
  56 S :    0.076752
  57 C :   -0.029729
  58 H :    0.019143
  59 H :    0.020826
  60 H :   -0.012365
  61 H :   -0.013605
  62 H :   -0.012291
  63 H :   -0.009922
  64 H :    0.034716
  65 H :    0.142892
  66 H :    0.010150
  67 H :   -0.043555
  68 H :   -0.012935
  69 H :    0.195984
  70 H :    0.133148
  71 H :   -0.010638
  72 H :    0.141461
  73 H :    0.005009
  74 H :   -0.007871
  75 H :    0.008010
  76 H :   -0.016716
  77 H :   -0.013100
  78 H :   -0.014022
  79 H :   -0.010240
  80 H :   -0.010631
  81 H :    0.020009
  82 H :    0.022103
Sum of atomic charges:   -0.0000000

LOEWDIN ATOMIC CHARGES
----------------------
   0 C :   -0.079707
   1 C :   -0.138522
   2 C :   -0.032899
   3 C :   -0.026418
   4 C :   -0.183860
   5 S :    0.343368
   6 C :   -0.176495
   7 C :   -0.040559
   8 C :   -0.033679
   9 C :   -0.191409
  10 S :    0.330473
  11 C :   -0.012957
  12 N :    0.034753
  13 C :   -0.106867
  14 S :    0.444604
  15 C :   -0.214470
  16 N :    0.274694
  17 O :   -0.226294
  18 O :   -0.240729
  19 C :    0.004946
  20 C :   -0.102390
  21 C :   -0.058755
  22 C :   -0.005437
  23 C :   -0.124778
  24 C :   -0.088521
  25 O :   -0.042743
  26 S :    0.374179
  27 C :   -0.236107
  28 C :   -0.013088
  29 N :    0.069558
  30 C :   -0.024789
  31 C :   -0.229013
  32 S :    0.391355
  33 C :   -0.129945
  34 C :   -0.119882
  35 N :    0.026615
  36 C :   -0.092470
  37 S :    0.466678
  38 C :   -0.223407
  39 N :    0.274504
  40 O :   -0.228619
  41 O :   -0.244912
  42 C :    0.004039
  43 C :   -0.111772
  44 C :   -0.019957
  45 C :   -0.056221
  46 C :   -0.062946
  47 C :   -0.141708
  48 C :   -0.035562
  49 C :   -0.029069
  50 C :   -0.181104
  51 S :    0.352281
  52 C :   -0.176851
  53 C :   -0.026868
  54 C :   -0.030729
  55 C :   -0.139238
  56 S :    0.348157
  57 C :   -0.076412
  58 H :    0.028311
  59 H :    0.025956
  60 H :    0.033133
  61 H :    0.031639
  62 H :    0.032471
  63 H :    0.033872
  64 H :    0.039476
  65 H :    0.085017
  66 H :    0.045048
  67 H :    0.015734
  68 H :    0.033042
  69 H :    0.100550
  70 H :    0.088434
  71 H :    0.023272
  72 H :    0.090199
  73 H :    0.044518
  74 H :    0.032459
  75 H :    0.016042
  76 H :    0.032043
  77 H :    0.033547
  78 H :    0.031621
  79 H :    0.032600
  80 H :    0.033732
  81 H :    0.028903
  82 H :    0.026335

  Mayer bond orders larger than 0.100000
B(  0-C ,  1-C ) :   1.8691 B(  0-C , 58-H ) :   0.9505 B(  0-C , 59-H ) :   0.9416
B(  1-C ,  2-C ) :   1.0779 B(  1-C ,  5-S ) :   1.0069 B(  2-C ,  3-C ) :   1.6691
B(  2-C , 60-H ) :   0.9927 B(  3-C ,  4-C ) :   1.1463 B(  3-C , 61-H ) :   0.9912
B(  4-C ,  5-S ) :   1.0365 B(  4-C ,  6-C ) :   1.5825 B(  6-C ,  7-C ) :   1.1597
B(  6-C , 10-S ) :   1.0296 B(  7-C ,  8-C ) :   1.6395 B(  7-C , 62-H ) :   0.9916
B(  8-C ,  9-C ) :   1.1294 B(  8-C , 63-H ) :   0.9963 B(  9-C , 10-S ) :   1.0030
B(  9-C , 11-C ) :   1.6319 B( 11-C , 12-N ) :   1.1339 B( 11-C , 64-H ) :   0.9566
B( 12-N , 13-C ) :   1.1952 B( 12-N , 65-H ) :   0.9044 B( 13-C , 14-S ) :   1.1321
B( 13-C , 20-C ) :   1.3745 B( 14-S , 15-C ) :   1.0772 B( 15-C , 16-N ) :   0.9863
B( 15-C , 19-C ) :   1.4648 B( 16-N , 17-O ) :   1.5249 B( 16-N , 18-O ) :   1.4989
B( 17-O , 18-O ) :   0.2520 B( 19-C , 20-C ) :   1.2578 B( 19-C , 66-H ) :   1.0026
B( 20-C , 21-C ) :   1.0538 B( 21-C , 22-C ) :   1.7150 B( 21-C , 67-H ) :   0.9566
B( 22-C , 23-C ) :   1.1068 B( 22-C , 68-H ) :   0.9651 B( 23-C , 24-C ) :   1.4403
B( 23-C , 28-C ) :   1.1255 B( 24-C , 25-O ) :   1.2231 B( 24-C , 26-S ) :   1.0972
B( 25-O , 69-H ) :   0.9506 B( 26-S , 27-C ) :   0.9954 B( 27-C , 28-C ) :   1.4759
B( 27-C , 31-C ) :   1.3986 B( 28-C , 29-N ) :   1.2006 B( 29-N , 30-C ) :   1.1711
B( 29-N , 70-H ) :   0.9281 B( 30-C , 31-C ) :   1.4607 B( 30-C , 34-C ) :   1.1939
B( 31-C , 32-S ) :   1.0094 B( 32-S , 33-C ) :   1.1038 B( 33-C , 34-C ) :   1.5105
B( 33-C , 35-N ) :   1.0945 B( 34-C , 71-H ) :   0.9909 B( 35-N , 36-C ) :   1.2338
B( 35-N , 72-H ) :   0.8907 B( 36-C , 37-S ) :   1.1414 B( 36-C , 43-C ) :   1.3363
B( 37-S , 38-C ) :   1.0595 B( 38-C , 39-N ) :   0.9925 B( 38-C , 42-C ) :   1.4657
B( 39-N , 40-O ) :   1.5224 B( 39-N , 41-O ) :   1.4968 B( 40-O , 41-O ) :   0.2489
B( 42-C , 43-C ) :   1.2446 B( 42-C , 73-H ) :   1.0078 B( 43-C , 44-C ) :   1.0745
B( 44-C , 45-C ) :   1.6573 B( 44-C , 74-H ) :   0.9748 B( 45-C , 46-C ) :   1.1387
B( 45-C , 75-H ) :   0.9622 B( 46-C , 47-C ) :   1.5941 B( 46-C , 76-H ) :   0.9869
B( 47-C , 48-C ) :   1.1266 B( 47-C , 51-S ) :   1.0224 B( 48-C , 49-C ) :   1.6147
B( 48-C , 77-H ) :   0.9988 B( 49-C , 50-C ) :   1.1684 B( 49-C , 78-H ) :   0.9924
B( 50-C , 51-S ) :   1.0318 B( 50-C , 52-C ) :   1.5661 B( 52-C , 53-C ) :   1.1485
B( 52-C , 56-S ) :   1.0426 B( 53-C , 54-C ) :   1.6653 B( 53-C , 79-H ) :   0.9926
B( 54-C , 55-C ) :   1.0785 B( 54-C , 80-H ) :   0.9925 B( 55-C , 56-S ) :   1.0070
B( 55-C , 57-C ) :   1.8670 B( 57-C , 81-H ) :   0.9501 B( 57-C , 82-H ) :   0.9421

-----------------------------------------------------------------------------
         ABSORPTION SPECTRUM VIA TRANSITION ELECTRIC DIPOLE MOMENTS
-----------------------------------------------------------------------------
State   Energy  Wavelength   fosc         T2         TX        TY        TZ
        (cm-1)    (nm)                  (au**2)     (au)      (au)      (au)
-----------------------------------------------------------------------------
   0   17960.9    556.8   0.804840179  14.75225   1.32287  -3.27148  -1.51647
   1   19304.0    518.0   1.199529000  20.45683  -3.79649  -0.88583  -2.29320
   2   21927.5    456.0   0.104331516   1.56639   0.62000  -1.02370   0.36610
   3   22566.7    443.1   0.519085033   7.57262   1.93834  -1.77919   0.80618
   4   23075.1    433.4   0.040649006   0.57994  -0.61351  -0.10686  -0.43832
   5   23266.8    429.8   0.613015114   8.67382  -1.40340   2.34017  -1.10810
   6   25087.6    398.6   0.352737570   4.62879  -2.07596   0.02687   0.56432
   7   25409.0    393.6   0.012374933   0.16034   0.39051  -0.07368   0.04906
   8   26265.3    380.7   0.003824241   0.04793  -0.17097   0.05669   0.12446
   9   26944.8    371.1   0.192845597   2.35619   1.22538  -0.74965   0.54098
  10   28500.6    350.9   0.036496162   0.42157  -0.08962   0.04948  -0.64116
  11   28822.2    347.0   0.062275034   0.71132   0.28220  -0.55541   0.56851
  12   29380.7    340.4   0.083499470   0.93561   0.49770   0.06498  -0.82685
  13   30452.9    328.4   0.019096570   0.20644  -0.08424   0.28495   0.34373
  14   31039.6    322.2   0.310850545   3.29694   0.30238  -0.48014   1.72481
  15   31634.7    316.1   0.013010055   0.13539   0.30239   0.08133  -0.19323
  16   32138.3    311.2   0.047006805   0.48152   0.39193   0.07635  -0.56752
  17   32445.7    308.2   0.068423196   0.69426   0.72122  -0.21664  -0.35662
  18   32630.2    306.5   0.056689625   0.57195  -0.43803   0.07089  -0.61242
  19   33432.6    299.1   0.000815272   0.00803  -0.03500   0.01604   0.08091
  20   33879.4    295.2   0.058088952   0.56446  -0.23089   0.07295   0.71122
  21   34015.7    294.0   0.003951586   0.03824  -0.16568   0.10103   0.02423
  22   34230.6    292.1   0.023289375   0.22398  -0.35707   0.23116   0.20750
  23   34280.6    291.7   0.057258174   0.54988  -0.06853  -0.03516   0.73752
  24   34421.5    290.5   0.007573312   0.07243   0.15661  -0.03129   0.21663
  25   34770.5    287.6   0.084071801   0.79600  -0.55757   0.67768  -0.16083
  26   34997.1    285.7   0.190689288   1.79379  -0.14161  -0.08508   1.32910
  27   35310.1    283.2   0.085989316   0.80172  -0.19480   0.21652  -0.84669
  28   35662.9    280.4   0.149702699   1.38194   0.19684  -0.10639  -1.15407
  29   35894.2    278.6   0.120254284   1.10294  -0.10016  -0.18343   1.02920
  30   36028.8    277.6   0.132373694   1.20956  -0.82309   0.47927   0.54990
  31   36628.9    273.0   0.020428648   0.18361   0.22875   0.20588  -0.29815
  32   36767.2    272.0   0.004778745   0.04279  -0.01592  -0.11643  -0.17023
  33   37498.0    266.7   0.067565962   0.59319  -0.51556   0.01484  -0.57199
  34   37893.3    263.9   0.022052124   0.19159  -0.37638   0.20149  -0.09655
  35   38152.1    262.1   0.017174886   0.14820  -0.16467   0.20977   0.27764
  36   38374.5    260.6   0.033718836   0.28927  -0.23136   0.23311  -0.42592
  37   38590.5    259.1   0.144772855   1.23504  -0.59919   0.92263   0.15741
  38   38993.2    256.5   0.024204828   0.20436   0.09556  -0.19541  -0.39628
  39   39750.8    251.6   0.012887866   0.10674  -0.13254   0.21988  -0.20205
  40   39992.0    250.0   0.069593568   0.57289   0.11844   0.37408  -0.64724
  41   40093.4    249.4   0.071679819   0.58857  -0.07961  -0.14643   0.74886
  42   40251.5    248.4   0.069741090   0.57040  -0.36313   0.51204  -0.41994

FINAL SINGLE POINT ENERGY     -5370.683341741042

DIPOLE MOMENT
-------------
                                X             Y             Z
Electronic contribution:     10.63143      16.70913      30.91489
Nuclear contribution   :     -8.99292     -18.74941     -35.57211
                        -----------------------------------------
Total Dipole Moment    :      1.63851      -2.04028      -4.65722
                        -----------------------------------------
Magnitude (a.u.)       :      5.34202
Magnitude (Debye)      :     13.57834

Rotational constants in cm-1:     0.000994     0.000583     0.000509
Rotational constants in MHz :    29.787449    17.464332    15.263583

                             ****ORCA TERMINATED NORMALLY****
TOTAL RUN TIME: 0 days 0 hours 5 minutes 51 seconds 286 msec
