                         Program Version 4.2.0 -  RELEASE  -
|  1> # ORCA input file
|  2> # SCF done       -154.349327733063          0.000318399645
|  3> ! CAM-B3LYP def2-SVP def2/J RIJCOSX Grid4 TightSCF
|  4> %maxcore 5000
|  5> %tddft
|  6>     Mode sTDDFT
|  7>     Ethresh 5.0
|  8>     maxcore 5000
|  9> end
| 10>
| 11> %pal
| 12>   nprocs 6
| 13>   end
| 14> * xyz 0 1
| 15>    C        7.13388        -4.00364        -6.27503
| 16>    C        7.98749        -4.94887        -6.68967
| 17>    C        9.34730        -4.78145        -7.11738
| 18>    C        9.96534        -5.92533        -7.48373
| 19>    C        9.15461        -7.09053        -7.37974
| 20>    S        7.55749        -6.66391        -6.78721
| 21>    C        9.50308        -8.38119        -7.68550
| 22>    C       10.74237        -8.86783        -8.17463
| 23>    C       10.77456       -10.20664        -8.39540
| 24>    C        9.55809       -10.87630        -8.09630
| 25>    S        8.36701        -9.70847        -7.50673
| 26>    C        9.28431       -12.20221        -8.23057
| 27>    N        8.07287       -12.73341        -7.91323
| 28>    C        7.68155       -14.01723        -8.05854
| 29>    S        8.74146       -15.20966        -8.74382
| 30>    C        7.47986       -16.39743        -8.58068
| 31>    N        7.76142       -17.69331        -8.98084
| 32>    O        6.88131       -18.53639        -8.85532
| 33>    O        8.88042       -17.90907        -9.43090
| 34>    C        6.32606       -15.89128        -8.03648
| 35>    C        6.41643       -14.52793        -7.71786
| 36>    C        5.38225       -13.74808        -7.09069
| 37>    C        4.12191       -14.17099        -6.87584
| 38>    C        3.14024       -13.37870        -6.19809
| 39>    C        1.86589       -13.73713        -5.96423
| 40>    C        1.26359       -15.02909        -6.41428
| 41>    C        0.93707       -12.75651        -5.28013
| 42>    N        0.34762       -11.81437        -6.21047
| 43>    C       -0.57950       -12.20704        -7.11814
| 44>    C       -1.05826       -11.43261        -8.12347
| 45>    C       -2.00810       -11.85282        -9.08736
| 46>    C       -2.31209       -13.13483        -9.45314
| 47>    C       -3.26256       -13.53415       -10.43067
| 48>    C       -3.28685       -14.86734       -10.69692
| 49>    C       -2.34958       -15.62187        -9.95187
| 50>    S       -1.47129       -14.56844        -8.86085
| 51>    C       -2.06839       -16.96576        -9.99869
| 52>    C       -2.72294       -17.98442       -10.73619
| 53>    C       -2.19763       -19.22066       -10.55942
| 54>    C       -1.07537       -19.26865        -9.67469
| 55>    S       -0.73972       -17.64302        -9.06916
| 56>    C       -0.31436       -20.34830        -9.38490
| 57>    C        0.84629       -20.34469        -8.50163
| 58>    C        2.08956       -20.79612        -8.97133
| 59>    C        2.18613       -21.24857       -10.40690
| 60>    C        2.35095       -20.04594       -11.33877
| 61>    C        3.22302       -20.73490        -8.15539
| 62>    C        4.56538       -21.20018        -8.66031
| 63>    C        4.76066       -22.69652        -8.40216
| 64>    C        3.09609       -20.26638        -6.84261
| 65>    C        4.25852       -20.16458        -5.88939
| 66>    C        4.96168       -18.81281        -6.02925
| 67>    C        1.85894       -19.84446        -6.38588
| 68>    C        0.72494       -19.86674        -7.18561
| 69>    C       -0.57560       -19.49495        -6.63477
| 70>    C       -0.77209       -18.61630        -5.66051
| 71>    H        7.43646        -2.97240        -6.23166
| 72>    H        6.12930        -4.23984        -5.97564
| 73>    H        9.79962        -3.80567        -7.13075
| 74>    H       10.98226        -5.98165        -7.82996
| 75>    H       11.57237        -8.20743        -8.34981
| 76>    H       11.62783       -10.74547        -8.76660
| 77>    H       10.03128       -12.88637        -8.60320
| 78>    H        7.38305       -12.08226        -7.55332
| 79>    H        5.46106       -16.50513        -7.87093
| 80>    H        5.65443       -12.75421        -6.75561
| 81>    H        3.81776       -15.14450        -7.22543
| 82>    H        3.48210       -12.41379        -5.84048
| 83>    H        1.97279       -15.84960        -6.34565
| 84>    H        0.93918       -14.95984        -7.45344
| 85>    H        0.39098       -15.28141        -5.81714
| 86>    H        1.47985       -12.18045        -4.52629
| 87>    H        0.12236       -13.29345        -4.78687
| 88>    H        0.90722       -11.01012        -6.45352
| 89>    H       -1.00030       -13.18242        -6.93146
| 90>    H       -0.71188       -10.40942        -8.20003
| 91>    H       -2.51287       -11.07132        -9.64174
| 92>    H       -3.89322       -12.80876       -10.91553
| 93>    H       -3.92944       -15.32856       -11.42599
| 94>    H       -3.56631       -17.76628       -11.36791
| 95>    H       -2.56369       -20.11476       -11.03383
| 96>    H       -0.56781       -21.27558        -9.88396
| 97>    H        1.28244       -21.79170       -10.68793
| 98>    H        3.02323       -21.92987       -10.54514
| 99>    H        1.50263       -19.37209       -11.24164
|100>    H        2.41832       -20.37248       -12.37456
|101>    H        3.25403       -19.49364       -11.08874
|102>    H        5.36370       -20.64188        -8.17615
|103>    H        4.66177       -21.00043        -9.72621
|104>    H        4.69291       -22.91582        -7.33863
|105>    H        5.73705       -23.01597        -8.75965
|106>    H        3.99652       -23.28150        -8.91051
|107>    H        4.97854       -20.96432        -6.05550
|108>    H        3.88288       -20.26420        -4.86777
|109>    H        5.40794       -18.72118        -7.01612
|110>    H        5.74871       -18.71506        -5.28400
|111>    H        4.24896       -18.00196        -5.88701
|112>    H        1.76525       -19.51404        -5.36135
|113>    H       -1.42866       -19.99482        -7.07756
|114>    H        0.03794       -18.06439        -5.21424
|115>    H       -1.75815       -18.40035        -5.28606
|116> *
|117>
|118>                          ****END OF INPUT****

CARTESIAN COORDINATES (ANGSTROEM)
---------------------------------
  C      7.133880   -4.003640   -6.275030
  C      7.987490   -4.948870   -6.689670
  C      9.347300   -4.781450   -7.117380
  C      9.965340   -5.925330   -7.483730
  C      9.154610   -7.090530   -7.379740
  S      7.557490   -6.663910   -6.787210
  C      9.503080   -8.381190   -7.685500
  C     10.742370   -8.867830   -8.174630
  C     10.774560  -10.206640   -8.395400
  C      9.558090  -10.876300   -8.096300
  S      8.367010   -9.708470   -7.506730
  C      9.284310  -12.202210   -8.230570
  N      8.072870  -12.733410   -7.913230
  C      7.681550  -14.017230   -8.058540
  S      8.741460  -15.209660   -8.743820
  C      7.479860  -16.397430   -8.580680
  N      7.761420  -17.693310   -8.980840
  O      6.881310  -18.536390   -8.855320
  O      8.880420  -17.909070   -9.430900
  C      6.326060  -15.891280   -8.036480
  C      6.416430  -14.527930   -7.717860
  C      5.382250  -13.748080   -7.090690
  C      4.121910  -14.170990   -6.875840
  C      3.140240  -13.378700   -6.198090
  C      1.865890  -13.737130   -5.964230
  C      1.263590  -15.029090   -6.414280
  C      0.937070  -12.756510   -5.280130
  N      0.347620  -11.814370   -6.210470
  C     -0.579500  -12.207040   -7.118140
  C     -1.058260  -11.432610   -8.123470
  C     -2.008100  -11.852820   -9.087360
  C     -2.312090  -13.134830   -9.453140
  C     -3.262560  -13.534150  -10.430670
  C     -3.286850  -14.867340  -10.696920
  C     -2.349580  -15.621870   -9.951870
  S     -1.471290  -14.568440   -8.860850
  C     -2.068390  -16.965760   -9.998690
  C     -2.722940  -17.984420  -10.736190
  C     -2.197630  -19.220660  -10.559420
  C     -1.075370  -19.268650   -9.674690
  S     -0.739720  -17.643020   -9.069160
  C     -0.314360  -20.348300   -9.384900
  C      0.846290  -20.344690   -8.501630
  C      2.089560  -20.796120   -8.971330
  C      2.186130  -21.248570  -10.406900
  C      2.350950  -20.045940  -11.338770
  C      3.223020  -20.734900   -8.155390
  C      4.565380  -21.200180   -8.660310
  C      4.760660  -22.696520   -8.402160
  C      3.096090  -20.266380   -6.842610
  C      4.258520  -20.164580   -5.889390
  C      4.961680  -18.812810   -6.029250
  C      1.858940  -19.844460   -6.385880
  C      0.724940  -19.866740   -7.185610
  C     -0.575600  -19.494950   -6.634770
  C     -0.772090  -18.616300   -5.660510
  H      7.436460   -2.972400   -6.231660
  H      6.129300   -4.239840   -5.975640
  H      9.799620   -3.805670   -7.130750
  H     10.982260   -5.981650   -7.829960
  H     11.572370   -8.207430   -8.349810
  H     11.627830  -10.745470   -8.766600
  H     10.031280  -12.886370   -8.603200
  H      7.383050  -12.082260   -7.553320
  H      5.461060  -16.505130   -7.870930
  H      5.654430  -12.754210   -6.755610
  H      3.817760  -15.144500   -7.225430
  H      3.482100  -12.413790   -5.840480
  H      1.972790  -15.849600   -6.345650
  H      0.939180  -14.959840   -7.453440
  H      0.390980  -15.281410   -5.817140
  H      1.479850  -12.180450   -4.526290
  H      0.122360  -13.293450   -4.786870
  H      0.907220  -11.010120   -6.453520
  H     -1.000300  -13.182420   -6.931460
  H     -0.711880  -10.409420   -8.200030
  H     -2.512870  -11.071320   -9.641740
  H     -3.893220  -12.808760  -10.915530
  H     -3.929440  -15.328560  -11.425990
  H     -3.566310  -17.766280  -11.367910
  H     -2.563690  -20.114760  -11.033830
  H     -0.567810  -21.275580   -9.883960
  H      1.282440  -21.791700  -10.687930
  H      3.023230  -21.929870  -10.545140
  H      1.502630  -19.372090  -11.241640
  H      2.418320  -20.372480  -12.374560
  H      3.254030  -19.493640  -11.088740
  H      5.363700  -20.641880   -8.176150
  H      4.661770  -21.000430   -9.726210
  H      4.692910  -22.915820   -7.338630
  H      5.737050  -23.015970   -8.759650
  H      3.996520  -23.281500   -8.910510
  H      4.978540  -20.964320   -6.055500
  H      3.882880  -20.264200   -4.867770
  H      5.407940  -18.721180   -7.016120
  H      5.748710  -18.715060   -5.284000
  H      4.248960  -18.001960   -5.887010
  H      1.765250  -19.514040   -5.361350
  H     -1.428660  -19.994820   -7.077560
  H      0.037940  -18.064390   -5.214240
  H     -1.758150  -18.400350   -5.286060

 Total Charge           Charge          ....    0
 Multiplicity           Mult            ....    1
 Number of Electrons    NEL             ....  438
 Basis Dimension        Dim             .... 1029

ORBITAL ENERGIES
----------------

  NO   OCC          E(Eh)            E(eV)
   0   2.0000     -88.978054     -2421.2160
   1   2.0000     -88.950920     -2420.4776
   2   2.0000     -88.939043     -2420.1544
   3   2.0000     -88.924174     -2419.7498
   4   2.0000     -88.918204     -2419.5873
   5   2.0000     -19.227346      -523.2027
   6   2.0000     -19.226755      -523.1866
   7   2.0000     -14.638469      -398.3330
   8   2.0000     -14.486382      -394.1945
   9   2.0000     -14.426408      -392.5625
  10   2.0000     -10.364926      -282.0440
  11   2.0000     -10.335030      -281.2305
  12   2.0000     -10.331809      -281.1428
  13   2.0000     -10.314247      -280.6649
  14   2.0000     -10.311974      -280.6031
  15   2.0000     -10.309540      -280.5368
  16   2.0000     -10.307120      -280.4710
  17   2.0000     -10.306287      -280.4483
  18   2.0000     -10.302576      -280.3474
  19   2.0000     -10.300787      -280.2987
  20   2.0000     -10.292270      -280.0669
  21   2.0000     -10.291184      -280.0373
  22   2.0000     -10.290479      -280.0182
  23   2.0000     -10.289871      -280.0016
  24   2.0000     -10.288050      -279.9521
  25   2.0000     -10.284916      -279.8668
  26   2.0000     -10.284633      -279.8591
  27   2.0000     -10.283967      -279.8410
  28   2.0000     -10.283159      -279.8190
  29   2.0000     -10.278468      -279.6913
  30   2.0000     -10.275350      -279.6065
  31   2.0000     -10.274909      -279.5945
  32   2.0000     -10.269677      -279.4521
  33   2.0000     -10.268274      -279.4140
  34   2.0000     -10.266569      -279.3676
  35   2.0000     -10.265388      -279.3354
  36   2.0000     -10.264820      -279.3200
  37   2.0000     -10.263565      -279.2858
  38   2.0000     -10.263192      -279.2757
  39   2.0000     -10.255492      -279.0661
  40   2.0000     -10.254048      -279.0268
  41   2.0000     -10.251234      -278.9503
  42   2.0000     -10.249687      -278.9082
  43   2.0000     -10.249213      -278.8953
  44   2.0000     -10.247430      -278.8468
  45   2.0000     -10.246914      -278.8327
  46   2.0000     -10.246372      -278.8180
  47   2.0000     -10.246133      -278.8114
  48   2.0000     -10.246120      -278.8111
  49   2.0000     -10.244483      -278.7666
  50   2.0000     -10.239306      -278.6257
  51   2.0000     -10.238742      -278.6103
  52   2.0000     -10.238401      -278.6010
  53   2.0000     -10.238118      -278.5934
  54   2.0000     -10.237146      -278.5669
  55   2.0000     -10.234712      -278.5007
  56   2.0000      -8.073391      -219.6881
  57   2.0000      -8.047274      -218.9774
  58   2.0000      -8.035711      -218.6628
  59   2.0000      -8.019780      -218.2293
  60   2.0000      -8.013773      -218.0658
  61   2.0000      -6.043169      -164.4430
  62   2.0000      -6.038780      -164.3235
  63   2.0000      -6.034653      -164.2113
  64   2.0000      -6.017168      -163.7355
  65   2.0000      -6.013292      -163.6300
  66   2.0000      -6.007788      -163.4802
  67   2.0000      -6.005575      -163.4200
  68   2.0000      -6.001695      -163.3144
  69   2.0000      -5.996169      -163.1641
  70   2.0000      -5.989571      -162.9845
  71   2.0000      -5.985474      -162.8730
  72   2.0000      -5.983649      -162.8234
  73   2.0000      -5.980785      -162.7454
  74   2.0000      -5.979629      -162.7140
  75   2.0000      -5.974456      -162.5732
  76   2.0000      -1.304270       -35.4910
  77   2.0000      -1.122886       -30.5553
  78   2.0000      -1.093197       -29.7474
  79   2.0000      -1.027100       -27.9488
  80   2.0000      -1.000631       -27.2285
  81   2.0000      -0.991271       -26.9739
  82   2.0000      -0.971289       -26.4301
  83   2.0000      -0.969442       -26.3799
  84   2.0000      -0.951243       -25.8846
  85   2.0000      -0.938654       -25.5421
  86   2.0000      -0.920858       -25.0578
  87   2.0000      -0.903449       -24.5841
  88   2.0000      -0.888784       -24.1850
  89   2.0000      -0.884829       -24.0774
  90   2.0000      -0.876953       -23.8631
  91   2.0000      -0.872365       -23.7383
  92   2.0000      -0.870241       -23.6804
  93   2.0000      -0.850667       -23.1478
  94   2.0000      -0.848411       -23.0865
  95   2.0000      -0.847253       -23.0549
  96   2.0000      -0.837902       -22.8005
  97   2.0000      -0.831501       -22.6263
  98   2.0000      -0.825335       -22.4585
  99   2.0000      -0.823042       -22.3961
 100   2.0000      -0.817983       -22.2584
 101   2.0000      -0.810152       -22.0454
 102   2.0000      -0.798575       -21.7303
 103   2.0000      -0.798089       -21.7171
 104   2.0000      -0.787712       -21.4347
 105   2.0000      -0.776110       -21.1190
 106   2.0000      -0.769807       -20.9475
 107   2.0000      -0.766423       -20.8554
 108   2.0000      -0.752823       -20.4854
 109   2.0000      -0.739666       -20.1273
 110   2.0000      -0.723990       -19.7008
 111   2.0000      -0.716343       -19.4927
 112   2.0000      -0.711009       -19.3475
 113   2.0000      -0.705709       -19.2033
 114   2.0000      -0.691211       -18.8088
 115   2.0000      -0.684790       -18.6341
 116   2.0000      -0.679685       -18.4952
 117   2.0000      -0.672902       -18.3106
 118   2.0000      -0.667615       -18.1667
 119   2.0000      -0.654841       -17.8191
 120   2.0000      -0.651746       -17.7349
 121   2.0000      -0.648471       -17.6458
 122   2.0000      -0.639450       -17.4003
 123   2.0000      -0.627930       -17.0869
 124   2.0000      -0.625803       -17.0290
 125   2.0000      -0.621987       -16.9251
 126   2.0000      -0.618892       -16.8409
 127   2.0000      -0.618050       -16.8180
 128   2.0000      -0.612301       -16.6616
 129   2.0000      -0.606632       -16.5073
 130   2.0000      -0.601240       -16.3606
 131   2.0000      -0.600965       -16.3531
 132   2.0000      -0.598449       -16.2846
 133   2.0000      -0.594750       -16.1840
 134   2.0000      -0.588018       -16.0008
 135   2.0000      -0.583053       -15.8657
 136   2.0000      -0.579835       -15.7781
 137   2.0000      -0.572561       -15.5802
 138   2.0000      -0.563240       -15.3265
 139   2.0000      -0.560383       -15.2488
 140   2.0000      -0.557262       -15.1639
 141   2.0000      -0.552644       -15.0382
 142   2.0000      -0.547047       -14.8859
 143   2.0000      -0.543101       -14.7785
 144   2.0000      -0.536589       -14.6013
 145   2.0000      -0.529276       -14.4023
 146   2.0000      -0.522870       -14.2280
 147   2.0000      -0.520815       -14.1721
 148   2.0000      -0.515083       -14.0161
 149   2.0000      -0.513555       -13.9745
 150   2.0000      -0.511870       -13.9287
 151   2.0000      -0.508493       -13.8368
 152   2.0000      -0.504450       -13.7268
 153   2.0000      -0.497989       -13.5510
 154   2.0000      -0.496715       -13.5163
 155   2.0000      -0.493681       -13.4337
 156   2.0000      -0.493153       -13.4194
 157   2.0000      -0.491847       -13.3838
 158   2.0000      -0.488617       -13.2960
 159   2.0000      -0.486259       -13.2318
 160   2.0000      -0.484523       -13.1845
 161   2.0000      -0.480557       -13.0766
 162   2.0000      -0.479286       -13.0420
 163   2.0000      -0.475453       -12.9377
 164   2.0000      -0.473765       -12.8918
 165   2.0000      -0.472273       -12.8512
 166   2.0000      -0.470973       -12.8158
 167   2.0000      -0.469383       -12.7726
 168   2.0000      -0.467649       -12.7254
 169   2.0000      -0.464431       -12.6378
 170   2.0000      -0.459298       -12.4981
 171   2.0000      -0.454095       -12.3566
 172   2.0000      -0.448727       -12.2105
 173   2.0000      -0.447748       -12.1839
 174   2.0000      -0.445252       -12.1159
 175   2.0000      -0.444988       -12.1087
 176   2.0000      -0.441086       -12.0026
 177   2.0000      -0.439685       -11.9644
 178   2.0000      -0.438040       -11.9197
 179   2.0000      -0.433065       -11.7843
 180   2.0000      -0.430669       -11.7191
 181   2.0000      -0.428838       -11.6693
 182   2.0000      -0.427558       -11.6344
 183   2.0000      -0.425610       -11.5814
 184   2.0000      -0.425070       -11.5667
 185   2.0000      -0.420999       -11.4560
 186   2.0000      -0.412332       -11.2201
 187   2.0000      -0.408857       -11.1256
 188   2.0000      -0.407255       -11.0820
 189   2.0000      -0.405885       -11.0447
 190   2.0000      -0.402997       -10.9661
 191   2.0000      -0.402257       -10.9460
 192   2.0000      -0.401057       -10.9133
 193   2.0000      -0.396562       -10.7910
 194   2.0000      -0.395082       -10.7507
 195   2.0000      -0.392242       -10.6735
 196   2.0000      -0.384689       -10.4679
 197   2.0000      -0.376484       -10.2446
 198   2.0000      -0.374698       -10.1960
 199   2.0000      -0.372846       -10.1457
 200   2.0000      -0.367362        -9.9964
 201   2.0000      -0.364359        -9.9147
 202   2.0000      -0.362225        -9.8566
 203   2.0000      -0.354393        -9.6435
 204   2.0000      -0.348432        -9.4813
 205   2.0000      -0.342485        -9.3195
 206   2.0000      -0.337728        -9.1900
 207   2.0000      -0.337041        -9.1714
 208   2.0000      -0.323806        -8.8112
 209   2.0000      -0.322464        -8.7747
 210   2.0000      -0.313659        -8.5351
 211   2.0000      -0.299336        -8.1453
 212   2.0000      -0.298117        -8.1122
 213   2.0000      -0.283019        -7.7013
 214   2.0000      -0.263054        -7.1581
 215   2.0000      -0.260093        -7.0775
 216   2.0000      -0.251823        -6.8525
 217   2.0000      -0.217514        -5.9189
 218   2.0000      -0.191238        -5.2038
 219   0.0000      -0.067044        -1.8244
 220   0.0000      -0.042234        -1.1493
 221   0.0000      -0.039263        -1.0684
 222   0.0000      -0.015370        -0.4182
 223   0.0000       0.019109         0.5200

MULLIKEN ATOMIC CHARGES
-----------------------
   0 C :   -0.031155
   1 C :   -0.060843
   2 C :    0.047027
   3 C :    0.032717
   4 C :   -0.068999
   5 S :    0.066740
   6 C :   -0.044985
   7 C :    0.027498
   8 C :    0.041793
   9 C :   -0.043993
  10 S :    0.024296
  11 C :    0.028203
  12 N :   -0.031275
  13 C :   -0.114113
  14 S :    0.144428
  15 C :   -0.020292
  16 N :    0.291422
  17 O :   -0.259528
  18 O :   -0.274552
  19 C :    0.018180
  20 C :    0.134384
  21 C :   -0.045571
  22 C :    0.013047
  23 C :    0.018502
  24 C :   -0.198615
  25 C :    0.079566
  26 C :    0.192813
  27 N :   -0.154222
  28 C :    0.051904
  29 C :   -0.043263
  30 C :    0.010726
  31 C :   -0.045967
  32 C :    0.041097
  33 C :    0.015049
  34 C :   -0.041416
  35 S :    0.020794
  36 C :   -0.064952
  37 C :    0.030154
  38 C :    0.032919
  39 C :   -0.019032
  40 S :    0.080923
  41 C :   -0.119601
  42 C :    0.020464
  43 C :   -0.086269
  44 C :    0.079496
  45 C :    0.029647
  46 C :   -0.100412
  47 C :    0.049921
  48 C :    0.040618
  49 C :   -0.041321
  50 C :    0.065727
  51 C :    0.003002
  52 C :   -0.115235
  53 C :    0.073361
  54 C :   -0.017509
  55 C :   -0.014224
  56 H :    0.019821
  57 H :    0.019127
  58 H :   -0.011845
  59 H :   -0.012123
  60 H :   -0.013002
  61 H :   -0.010030
  62 H :    0.024168
  63 H :    0.150412
  64 H :    0.004524
  65 H :   -0.038080
  66 H :   -0.008350
  67 H :   -0.042672
  68 H :    0.032913
  69 H :    0.053621
  70 H :    0.013286
  71 H :    0.014404
  72 H :    0.010555
  73 H :    0.113512
  74 H :    0.022677
  75 H :   -0.031669
  76 H :   -0.019717
  77 H :   -0.021246
  78 H :   -0.023805
  79 H :   -0.020718
  80 H :   -0.021743
  81 H :   -0.002320
  82 H :   -0.014470
  83 H :   -0.002945
  84 H :    0.019679
  85 H :    0.006210
  86 H :    0.009794
  87 H :    0.011232
  88 H :    0.001945
  89 H :    0.002297
  90 H :    0.012740
  91 H :    0.001658
  92 H :    0.001079
  93 H :   -0.006080
  94 H :    0.032662
  95 H :    0.007841
  96 H :   -0.006110
  97 H :   -0.052084
  98 H :    0.007603
  99 H :    0.005404
 100 H :    0.010770
Sum of atomic charges:   -0.0000000

LOEWDIN ATOMIC CHARGES
----------------------
   0 C :   -0.080365
   1 C :   -0.138326
   2 C :   -0.033539
   3 C :   -0.026000
   4 C :   -0.183208
   5 S :    0.340113
   6 C :   -0.174555
   7 C :   -0.039422
   8 C :   -0.029749
   9 C :   -0.182170
  10 S :    0.329880
  11 C :   -0.013541
  12 N :    0.048876
  13 C :   -0.097949
  14 S :    0.444109
  15 C :   -0.217410
  16 N :    0.279157
  17 O :   -0.228078
  18 O :   -0.241222
  19 C :    0.012909
  20 C :   -0.105364
  21 C :   -0.039089
  22 C :   -0.013735
  23 C :   -0.052839
  24 C :   -0.031149
  25 C :   -0.056725
  26 C :    0.041541
  27 N :   -0.004178
  28 C :    0.036864
  29 C :   -0.129290
  30 C :   -0.039561
  31 C :   -0.174750
  32 C :   -0.028379
  33 C :   -0.055738
  34 C :   -0.177144
  35 S :    0.365306
  36 C :   -0.193597
  37 C :   -0.032540
  38 C :   -0.043462
  39 C :   -0.139886
  40 S :    0.368616
  41 C :   -0.063491
  42 C :   -0.039343
  43 C :   -0.009632
  44 C :   -0.029852
  45 C :   -0.048669
  46 C :   -0.021033
  47 C :   -0.030652
  48 C :   -0.049027
  49 C :   -0.017990
  50 C :   -0.027885
  51 C :   -0.057902
  52 C :   -0.026323
  53 C :   -0.034235
  54 C :   -0.021346
  55 C :   -0.057440
  56 H :    0.028608
  57 H :    0.025372
  58 H :    0.033340
  59 H :    0.032236
  60 H :    0.032507
  61 H :    0.034487
  62 H :    0.030654
  63 H :    0.085832
  64 H :    0.045061
  65 H :    0.019228
  66 H :    0.028072
  67 H :    0.018189
  68 H :    0.034293
  69 H :    0.035545
  70 H :    0.028299
  71 H :    0.030192
  72 H :    0.026669
  73 H :    0.074791
  74 H :    0.014099
  75 H :    0.020698
  76 H :    0.030921
  77 H :    0.029722
  78 H :    0.027418
  79 H :    0.029214
  80 H :    0.029046
  81 H :    0.028115
  82 H :    0.023137
  83 H :    0.022048
  84 H :    0.026369
  85 H :    0.020379
  86 H :    0.022579
  87 H :    0.028062
  88 H :    0.026153
  89 H :    0.020134
  90 H :    0.023234
  91 H :    0.019240
  92 H :    0.023941
  93 H :    0.024131
  94 H :    0.018500
  95 H :    0.021489
  96 H :    0.015399
  97 H :    0.019605
  98 H :    0.029296
  99 H :    0.013500
 100 H :    0.020607

  Mayer bond orders larger than 0.100000
B(  0-C ,  1-C ) :   1.8678 B(  0-C , 56-H ) :   0.9506 B(  0-C , 57-H ) :   0.9413
B(  1-C ,  2-C ) :   1.0784 B(  1-C ,  5-S ) :   1.0066 B(  2-C ,  3-C ) :   1.6655
B(  2-C , 58-H ) :   0.9935 B(  3-C ,  4-C ) :   1.1508 B(  3-C , 59-H ) :   0.9910
B(  4-C ,  5-S ) :   1.0362 B(  4-C ,  6-C ) :   1.5761 B(  6-C ,  7-C ) :   1.1655
B(  6-C , 10-S ) :   1.0331 B(  7-C ,  8-C ) :   1.6338 B(  7-C , 60-H ) :   0.9910
B(  8-C ,  9-C ) :   1.1412 B(  8-C , 61-H ) :   0.9938 B(  9-C , 10-S ) :   1.0044
B(  9-C , 11-C ) :   1.6298 B( 11-C , 12-N ) :   1.1281 B( 11-C , 62-H ) :   0.9586
B( 12-N , 13-C ) :   1.2506 B( 12-N , 63-H ) :   0.9027 B( 13-C , 14-S ) :   1.1290
B( 13-C , 20-C ) :   1.3297 B( 14-S , 15-C ) :   1.0576 B( 15-C , 16-N ) :   1.0060
B( 15-C , 19-C ) :   1.4609 B( 16-N , 17-O ) :   1.4822 B( 16-N , 18-O ) :   1.4956
B( 17-O , 18-O ) :   0.2397 B( 19-C , 20-C ) :   1.2621 B( 19-C , 64-H ) :   0.9969
B( 20-C , 21-C ) :   1.0386 B( 21-C , 22-C ) :   1.7489 B( 21-C , 65-H ) :   0.9744
B( 22-C , 23-C ) :   1.1005 B( 22-C , 66-H ) :   0.9703 B( 23-C , 24-C ) :   1.7597
B( 23-C , 67-H ) :   0.9767 B( 24-C , 25-C ) :   1.0805 B( 24-C , 26-C ) :   1.0279
B( 25-C , 68-H ) :   0.9445 B( 25-C , 69-H ) :   0.9369 B( 25-C , 70-H ) :   0.9473
B( 26-C , 27-N ) :   1.0333 B( 26-C , 71-H ) :   0.9482 B( 26-C , 72-H ) :   0.9328
B( 27-N , 28-C ) :   1.2184 B( 27-N , 73-H ) :   0.9431 B( 28-C , 29-C ) :   1.6069
B( 28-C , 74-H ) :   0.9453 B( 29-C , 30-C ) :   1.1864 B( 29-C , 75-H ) :   0.9605
B( 30-C , 31-C ) :   1.6126 B( 30-C , 76-H ) :   0.9608 B( 31-C , 32-C ) :   1.1428
B( 31-C , 35-S ) :   1.0044 B( 32-C , 33-C ) :   1.6063 B( 32-C , 77-H ) :   0.9952
B( 33-C , 34-C ) :   1.1727 B( 33-C , 78-H ) :   0.9923 B( 34-C , 35-S ) :   1.0350
B( 34-C , 36-C ) :   1.5465 B( 36-C , 37-C ) :   1.1600 B( 36-C , 40-S ) :   1.0308
B( 37-C , 38-C ) :   1.6306 B( 37-C , 79-H ) :   0.9939 B( 38-C , 39-C ) :   1.0954
B( 38-C , 80-H ) :   0.9987 B( 39-C , 40-S ) :   1.0370 B( 39-C , 41-C ) :   1.7169
B( 41-C , 42-C ) :   0.9897 B( 41-C , 81-H ) :   0.9515 B( 42-C , 43-C ) :   1.3762
B( 42-C , 53-C ) :   1.3599 B( 43-C , 44-C ) :   1.0846 B( 43-C , 46-C ) :   1.4177
B( 44-C , 45-C ) :   1.1051 B( 44-C , 82-H ) :   0.9069 B( 44-C , 83-H ) :   0.9151
B( 45-C , 84-H ) :   0.9672 B( 45-C , 85-H ) :   0.9659 B( 45-C , 86-H ) :   0.9642
B( 46-C , 47-C ) :   1.0653 B( 46-C , 49-C ) :   1.3946 B( 47-C , 48-C ) :   1.1152
B( 47-C , 87-H ) :   0.9100 B( 47-C , 88-H ) :   0.9139 B( 48-C , 89-H ) :   0.9611
B( 48-C , 90-H ) :   0.9677 B( 48-C , 91-H ) :   0.9623 B( 49-C , 50-C ) :   1.0450
B( 49-C , 52-C ) :   1.3712 B( 50-C , 51-C ) :   1.1128 B( 50-C , 92-H ) :   0.9175
B( 50-C , 93-H ) :   0.9275 B( 51-C , 94-H ) :   0.9534 B( 51-C , 95-H ) :   0.9573
B( 51-C , 96-H ) :   0.9623 B( 52-C , 53-C ) :   1.3366 B( 52-C , 97-H ) :   0.9956
B( 53-C , 54-C ) :   1.0424 B( 54-C , 55-C ) :   1.9670 B( 54-C , 98-H ) :   0.9524
B( 55-C , 99-H ) :   0.9493 B( 55-C ,100-H ) :   0.9479

-----------------------------------------------------------------------------
         ABSORPTION SPECTRUM VIA TRANSITION ELECTRIC DIPOLE MOMENTS
-----------------------------------------------------------------------------
State   Energy  Wavelength   fosc         T2         TX        TY        TZ
        (cm-1)    (nm)                  (au**2)     (au)      (au)      (au)
-----------------------------------------------------------------------------
   0   17335.8    576.8   0.091162896   1.73121  -0.26912  -1.27226  -0.20033
   1   18030.5    554.6   0.505397114   9.22786  -0.01618   2.99073   0.53208
   2   18737.1    533.7   1.682949828  29.56945  -0.63123  -5.33654  -0.83206
   3   21213.1    471.4   0.144846053   2.24790  -0.59852   1.36908   0.12365
   4   24912.9    401.4   0.032533813   0.42992   0.56634   0.28442  -0.16815
   5   25793.8    387.7   0.022360245   0.28539  -0.43881   0.29756  -0.06553
   6   27100.4    369.0   0.003093087   0.03757   0.07957   0.17675   0.00099
   7   27471.1    364.0   0.027963464   0.33511  -0.27964   0.50134   0.07468
   8   28615.7    349.5   0.215476469   2.47897  -1.44101   0.55778  -0.30221
   9   29450.8    339.5   0.122837435   1.37312   0.07438  -0.19101  -1.15374
  10   29592.8    337.9   0.218415464   2.42981   1.48748  -0.30431   0.35299
  11   30220.5    330.9   0.030795169   0.33547  -0.56210   0.01376   0.13901
  12   30650.2    326.3   0.040455379   0.43453   0.33302  -0.03728   0.56766
  13   30904.6    323.6   0.005422015   0.05776  -0.19614   0.08340   0.11105
  14   31123.1    321.3   0.007649416   0.08091   0.23774   0.14816  -0.04942
  15   32366.0    309.0   0.638406576   6.49357   2.36053  -0.94925   0.14277
  16   32897.6    304.0   0.170004415   1.70126  -0.05186  -0.02969   1.30296
  17   33302.4    300.3   0.036076423   0.35663   0.23480   0.31142   0.45224
  18   33892.6    295.0   0.066595518   0.64687  -0.67965  -0.38641  -0.18877
  19   34516.2    289.7   0.056581276   0.53967   0.39681  -0.57772  -0.22011
  20   35414.0    282.4   0.035890736   0.33364   0.15845   0.43842   0.34107
  21   35693.9    280.2   0.055062668   0.50785   0.22059  -0.64857  -0.19634
  22   35755.0    279.7   0.025994670   0.23934   0.45959  -0.01422   0.16708
  23   35898.7    278.6   0.009816898   0.09003  -0.14832   0.13705  -0.22191
  24   35979.9    277.9   0.030252858   0.27681   0.29895  -0.42106  -0.10077
  25   36246.5    275.9   0.000474623   0.00431  -0.00776  -0.01601  -0.06320
  26   37563.4    266.2   0.067564564   0.59215  -0.45576   0.56834   0.24783
  27   37801.8    264.5   0.014537918   0.12661   0.21266  -0.15959  -0.23647
  28   38231.7    261.6   0.000215618   0.00186   0.02887  -0.01344  -0.02903
  29   38438.2    260.2   0.044390835   0.38019  -0.59365   0.12829   0.10637
  30   38616.6    259.0   0.084818477   0.72309   0.75651  -0.23112  -0.31203
  31   39566.9    252.7   0.000725591   0.00604   0.07472   0.01820  -0.01110
  32   40180.8    248.9   0.282555649   2.31505  -1.44713   0.11205   0.45641

FINAL SINGLE POINT ENERGY     -4082.106071338110

DIPOLE MOMENT
-------------
                                X             Y             Z
Electronic contribution:     28.50617      47.49106      -9.04433
Nuclear contribution   :    -27.67030     -44.32815       9.50342
                        -----------------------------------------
Total Dipole Moment    :      0.83587       3.16291       0.45909
                        -----------------------------------------
Magnitude (a.u.)       :      3.30355
Magnitude (Debye)      :      8.39695

Rotational constants in cm-1:     0.001560     0.000622     0.000483
Rotational constants in MHz :    46.775486    18.657604    14.472095

                             ****ORCA TERMINATED NORMALLY****
TOTAL RUN TIME: 0 days 0 hours 8 minutes 47 seconds 396 msec
