                         Program Version 4.2.0 -  RELEASE  -
|  1> # ORCA input file
|  2> # SCF done       -148.392771825630          0.000731799515
|  3> ! CAM-B3LYP def2-SVP def2/J RIJCOSX Grid4 TightSCF
|  4> %maxcore 5000
|  5> %tddft
|  6>     Mode sTDDFT
|  7>     Ethresh 5.0
|  8>     maxcore 5000
|  9> end
| 10>
| 11> %pal
| 12>   nprocs 6
| 13>   end
| 14> * xyz 0 1
| 15>    C        6.93887        -6.70490        -8.94584
| 16>    C        7.61528        -6.54780        -7.80052
| 17>    C        9.03743        -6.43059        -7.63264
| 18>    C        9.44036        -6.33168        -6.34832
| 19>    C        8.38024        -6.36239        -5.39439
| 20>    S        6.83745        -6.48424        -6.20764
| 21>    C        8.48947        -6.32896        -4.02487
| 22>    C        9.67939        -6.22228        -3.25737
| 23>    C        9.46700        -6.23129        -1.91733
| 24>    C        8.09856        -6.35075        -1.54763
| 25>    S        7.09020        -6.44157        -2.97268
| 26>    C        7.60652        -6.40182        -0.26661
| 27>    C        6.23971        -6.55106         0.01712
| 28>    O        5.35505        -6.63258        -1.01144
| 29>    C        5.52510        -6.65934         1.20560
| 30>    C        5.64858        -6.71471         2.65893
| 31>    O        6.60451        -6.61079         3.38443
| 32>    N        4.33793        -6.93763         3.09130
| 33>    C        3.38600        -7.06693         2.08390
| 34>    O        2.23889        -7.37859         2.24720
| 35>    C        4.16144        -6.81790         0.85549
| 36>    C        4.09773        -6.78613        -0.51870
| 37>    C        3.02578        -6.88001        -1.44912
| 38>    O        3.30905        -7.28392        -2.71115
| 39>    C        1.67621        -6.61898        -1.35522
| 40>    C        0.62391        -6.06520        -0.49239
| 41>    O        0.66458        -5.56063         0.59426
| 42>    N       -0.52323        -6.17099        -1.28479
| 43>    C       -0.33013        -6.66655        -2.56976
| 44>    O       -1.20589        -6.84950        -3.37495
| 45>    C        1.11839        -6.90226        -2.63119
| 46>    C        2.16741        -7.29979        -3.43787
| 47>    C        2.26111        -7.64901        -4.81080
| 48>    O        1.21587        -7.39286        -5.63883
| 49>    C        3.28699        -8.20138        -5.54780
| 50>    C        4.64499        -8.76167        -5.47336
| 51>    O        5.39122        -8.92808        -4.54594
| 52>    N        4.91967        -9.10387        -6.79352
| 53>    C        3.89819        -8.83620        -7.71113
| 54>    O        3.97448        -9.03768        -8.89798
| 55>    C        2.83576        -8.27648        -6.88776
| 56>    C        1.54171        -7.76364        -6.91043
| 57>    C        0.61040        -7.58486        -7.94213
| 58>    C       -0.60884        -6.98055        -7.74195
| 59>    C       -1.62967        -6.78474        -8.71126
| 60>    C       -2.72526        -6.13937        -8.23395
| 61>    C       -2.62502        -5.78644        -6.86327
| 62>    S       -1.09508        -6.32409        -6.20063
| 63>    C       -3.54568        -5.11209        -6.09483
| 64>    C       -4.82400        -4.62936        -6.50522
| 65>    C       -5.51009        -3.98534        -5.53781
| 66>    C       -4.82013        -3.90670        -4.28024
| 67>    S       -3.24976        -4.71768        -4.42159
| 68>    C       -5.24785        -3.32304        -3.15266
| 69>    H        7.45936        -6.74699        -9.88651
| 70>    H        5.86946        -6.80923        -8.97080
| 71>    H        9.69188        -6.43603        -8.48607
| 72>    H       10.46690        -6.24698        -6.03942
| 73>    H       10.64911        -6.14202        -3.71504
| 74>    H       10.23992        -6.16222        -1.17264
| 75>    H        8.27881        -6.33990         0.57416
| 76>    H        4.10704        -7.05319         4.06769
| 77>    H       -1.43376        -5.89135        -0.94909
| 78>    H        5.80139        -9.50805        -7.07401
| 79>    H        0.88750        -7.93946        -8.92194
| 80>    H       -1.51398        -7.13181        -9.72269
| 81>    H       -3.59395        -5.90628        -8.82346
| 82>    H       -5.18425        -4.78257        -7.50691
| 83>    H       -6.48870        -3.55513        -5.65646
| 84>    H       -6.20750        -2.83814        -3.11255
| 85>    H       -4.65257        -3.31690        -2.25819
| 86> *
| 87>
| 88>                          ****END OF INPUT****

CARTESIAN COORDINATES (ANGSTROEM)
---------------------------------
  C      6.938870   -6.704900   -8.945840
  C      7.615280   -6.547800   -7.800520
  C      9.037430   -6.430590   -7.632640
  C      9.440360   -6.331680   -6.348320
  C      8.380240   -6.362390   -5.394390
  S      6.837450   -6.484240   -6.207640
  C      8.489470   -6.328960   -4.024870
  C      9.679390   -6.222280   -3.257370
  C      9.467000   -6.231290   -1.917330
  C      8.098560   -6.350750   -1.547630
  S      7.090200   -6.441570   -2.972680
  C      7.606520   -6.401820   -0.266610
  C      6.239710   -6.551060    0.017120
  O      5.355050   -6.632580   -1.011440
  C      5.525100   -6.659340    1.205600
  C      5.648580   -6.714710    2.658930
  O      6.604510   -6.610790    3.384430
  N      4.337930   -6.937630    3.091300
  C      3.386000   -7.066930    2.083900
  O      2.238890   -7.378590    2.247200
  C      4.161440   -6.817900    0.855490
  C      4.097730   -6.786130   -0.518700
  C      3.025780   -6.880010   -1.449120
  O      3.309050   -7.283920   -2.711150
  C      1.676210   -6.618980   -1.355220
  C      0.623910   -6.065200   -0.492390
  O      0.664580   -5.560630    0.594260
  N     -0.523230   -6.170990   -1.284790
  C     -0.330130   -6.666550   -2.569760
  O     -1.205890   -6.849500   -3.374950
  C      1.118390   -6.902260   -2.631190
  C      2.167410   -7.299790   -3.437870
  C      2.261110   -7.649010   -4.810800
  O      1.215870   -7.392860   -5.638830
  C      3.286990   -8.201380   -5.547800
  C      4.644990   -8.761670   -5.473360
  O      5.391220   -8.928080   -4.545940
  N      4.919670   -9.103870   -6.793520
  C      3.898190   -8.836200   -7.711130
  O      3.974480   -9.037680   -8.897980
  C      2.835760   -8.276480   -6.887760
  C      1.541710   -7.763640   -6.910430
  C      0.610400   -7.584860   -7.942130
  C     -0.608840   -6.980550   -7.741950
  C     -1.629670   -6.784740   -8.711260
  C     -2.725260   -6.139370   -8.233950
  C     -2.625020   -5.786440   -6.863270
  S     -1.095080   -6.324090   -6.200630
  C     -3.545680   -5.112090   -6.094830
  C     -4.824000   -4.629360   -6.505220
  C     -5.510090   -3.985340   -5.537810
  C     -4.820130   -3.906700   -4.280240
  S     -3.249760   -4.717680   -4.421590
  C     -5.247850   -3.323040   -3.152660
  H      7.459360   -6.746990   -9.886510
  H      5.869460   -6.809230   -8.970800
  H      9.691880   -6.436030   -8.486070
  H     10.466900   -6.246980   -6.039420
  H     10.649110   -6.142020   -3.715040
  H     10.239920   -6.162220   -1.172640
  H      8.278810   -6.339900    0.574160
  H      4.107040   -7.053190    4.067690
  H     -1.433760   -5.891350   -0.949090
  H      5.801390   -9.508050   -7.074010
  H      0.887500   -7.939460   -8.921940
  H     -1.513980   -7.131810   -9.722690
  H     -3.593950   -5.906280   -8.823460
  H     -5.184250   -4.782570   -7.506910
  H     -6.488700   -3.555130   -5.656460
  H     -6.207500   -2.838140   -3.112550
  H     -4.652570   -3.316900   -2.258190

 Total Charge           Charge          ....    0
 Multiplicity           Mult            ....    1
 Number of Electrons    NEL             ....  402
 Basis Dimension        Dim             ....  857

ORBITAL ENERGIES
----------------

  NO   OCC          E(Eh)            E(eV)
   0   2.0000     -88.944973     -2420.3158
   1   2.0000     -88.943012     -2420.2624
   2   2.0000     -88.942687     -2420.2536
   3   2.0000     -88.940520     -2420.1946
   4   2.0000     -19.311967      -525.5054
   5   2.0000     -19.308498      -525.4110
   6   2.0000     -19.305085      -525.3181
   7   2.0000     -19.203226      -522.5463
   8   2.0000     -19.201166      -522.4903
   9   2.0000     -19.200863      -522.4821
  10   2.0000     -19.200371      -522.4687
  11   2.0000     -19.197055      -522.3784
  12   2.0000     -19.195396      -522.3333
  13   2.0000     -14.446155      -393.0999
  14   2.0000     -14.443749      -393.0344
  15   2.0000     -14.439786      -392.9266
  16   2.0000     -10.394449      -282.8473
  17   2.0000     -10.391131      -282.7571
  18   2.0000     -10.390216      -282.7321
  19   2.0000     -10.390071      -282.7282
  20   2.0000     -10.386791      -282.6390
  21   2.0000     -10.385548      -282.6051
  22   2.0000     -10.367051      -282.1018
  23   2.0000     -10.365807      -282.0679
  24   2.0000     -10.359998      -281.9099
  25   2.0000     -10.358668      -281.8737
  26   2.0000     -10.357587      -281.8443
  27   2.0000     -10.355338      -281.7831
  28   2.0000     -10.319770      -280.8152
  29   2.0000     -10.318690      -280.7858
  30   2.0000     -10.316134      -280.7163
  31   2.0000     -10.315868      -280.7090
  32   2.0000     -10.311412      -280.5878
  33   2.0000     -10.311374      -280.5868
  34   2.0000     -10.305813      -280.4354
  35   2.0000     -10.304848      -280.4092
  36   2.0000     -10.294942      -280.1396
  37   2.0000     -10.294441      -280.1260
  38   2.0000     -10.293085      -280.0891
  39   2.0000     -10.292827      -280.0821
  40   2.0000     -10.292771      -280.0805
  41   2.0000     -10.292125      -280.0630
  42   2.0000     -10.292025      -280.0602
  43   2.0000     -10.291835      -280.0551
  44   2.0000     -10.291286      -280.0401
  45   2.0000     -10.289330      -279.9869
  46   2.0000     -10.284288      -279.8497
  47   2.0000     -10.284168      -279.8464
  48   2.0000     -10.280433      -279.7448
  49   2.0000     -10.280216      -279.7389
  50   2.0000     -10.279867      -279.7294
  51   2.0000     -10.279199      -279.7112
  52   2.0000     -10.277669      -279.6696
  53   2.0000     -10.276746      -279.6445
  54   2.0000      -8.041098      -218.8094
  55   2.0000      -8.039608      -218.7688
  56   2.0000      -8.038334      -218.7342
  57   2.0000      -8.036127      -218.6741
  58   2.0000      -6.010937      -163.5659
  59   2.0000      -6.009382      -163.5236
  60   2.0000      -6.008177      -163.4908
  61   2.0000      -6.006949      -163.4574
  62   2.0000      -6.005924      -163.4295
  63   2.0000      -6.005374      -163.4145
  64   2.0000      -6.003843      -163.3729
  65   2.0000      -6.001720      -163.3151
  66   2.0000      -6.001503      -163.3092
  67   2.0000      -6.000201      -163.2738
  68   2.0000      -5.999176      -163.2459
  69   2.0000      -5.997032      -163.1875
  70   2.0000      -1.236470       -33.6461
  71   2.0000      -1.225480       -33.3470
  72   2.0000      -1.219594       -33.1868
  73   2.0000      -1.148206       -31.2443
  74   2.0000      -1.145090       -31.1595
  75   2.0000      -1.141258       -31.0552
  76   2.0000      -1.127573       -30.6828
  77   2.0000      -1.124270       -30.5929
  78   2.0000      -1.120462       -30.4893
  79   2.0000      -1.035044       -28.1650
  80   2.0000      -1.032404       -28.0931
  81   2.0000      -1.028466       -27.9860
  82   2.0000      -0.996376       -27.1128
  83   2.0000      -0.995775       -27.0964
  84   2.0000      -0.974402       -26.5148
  85   2.0000      -0.973880       -26.5006
  86   2.0000      -0.933753       -25.4087
  87   2.0000      -0.924357       -25.1530
  88   2.0000      -0.916012       -24.9259
  89   2.0000      -0.912598       -24.8331
  90   2.0000      -0.910109       -24.7653
  91   2.0000      -0.891668       -24.2635
  92   2.0000      -0.878100       -23.8943
  93   2.0000      -0.866741       -23.5852
  94   2.0000      -0.849610       -23.1191
  95   2.0000      -0.848973       -23.1017
  96   2.0000      -0.842892       -22.9363
  97   2.0000      -0.825876       -22.4732
  98   2.0000      -0.822249       -22.3745
  99   2.0000      -0.815973       -22.2038
 100   2.0000      -0.794701       -21.6249
 101   2.0000      -0.780627       -21.2420
 102   2.0000      -0.767596       -20.8873
 103   2.0000      -0.766910       -20.8687
 104   2.0000      -0.759545       -20.6683
 105   2.0000      -0.756147       -20.5758
 106   2.0000      -0.753037       -20.4912
 107   2.0000      -0.749613       -20.3980
 108   2.0000      -0.734838       -19.9960
 109   2.0000      -0.721797       -19.6411
 110   2.0000      -0.703408       -19.1407
 111   2.0000      -0.696638       -18.9565
 112   2.0000      -0.689736       -18.7687
 113   2.0000      -0.685087       -18.6422
 114   2.0000      -0.680306       -18.5121
 115   2.0000      -0.669695       -18.2233
 116   2.0000      -0.651689       -17.7333
 117   2.0000      -0.643139       -17.5007
 118   2.0000      -0.631713       -17.1898
 119   2.0000      -0.624902       -17.0044
 120   2.0000      -0.619070       -16.8458
 121   2.0000      -0.616908       -16.7869
 122   2.0000      -0.609788       -16.5932
 123   2.0000      -0.603116       -16.4116
 124   2.0000      -0.602206       -16.3869
 125   2.0000      -0.595616       -16.2075
 126   2.0000      -0.589829       -16.0501
 127   2.0000      -0.589356       -16.0372
 128   2.0000      -0.585812       -15.9408
 129   2.0000      -0.582148       -15.8410
 130   2.0000      -0.579764       -15.7762
 131   2.0000      -0.575398       -15.6574
 132   2.0000      -0.571195       -15.5430
 133   2.0000      -0.566871       -15.4254
 134   2.0000      -0.565879       -15.3983
 135   2.0000      -0.554793       -15.0967
 136   2.0000      -0.553152       -15.0520
 137   2.0000      -0.547684       -14.9032
 138   2.0000      -0.544685       -14.8216
 139   2.0000      -0.539802       -14.6888
 140   2.0000      -0.538522       -14.6539
 141   2.0000      -0.535203       -14.5636
 142   2.0000      -0.534616       -14.5477
 143   2.0000      -0.530721       -14.4417
 144   2.0000      -0.517789       -14.0898
 145   2.0000      -0.516421       -14.0525
 146   2.0000      -0.513210       -13.9651
 147   2.0000      -0.512396       -13.9430
 148   2.0000      -0.510797       -13.8995
 149   2.0000      -0.507299       -13.8043
 150   2.0000      -0.505736       -13.7618
 151   2.0000      -0.501208       -13.6386
 152   2.0000      -0.498329       -13.5602
 153   2.0000      -0.496667       -13.5150
 154   2.0000      -0.496294       -13.5048
 155   2.0000      -0.494512       -13.4564
 156   2.0000      -0.493925       -13.4404
 157   2.0000      -0.490171       -13.3382
 158   2.0000      -0.487500       -13.2655
 159   2.0000      -0.486865       -13.2483
 160   2.0000      -0.478077       -13.0091
 161   2.0000      -0.475297       -12.9335
 162   2.0000      -0.473181       -12.8759
 163   2.0000      -0.468817       -12.7571
 164   2.0000      -0.466181       -12.6854
 165   2.0000      -0.465577       -12.6690
 166   2.0000      -0.463650       -12.6166
 167   2.0000      -0.462525       -12.5860
 168   2.0000      -0.455803       -12.4030
 169   2.0000      -0.455055       -12.3827
 170   2.0000      -0.432427       -11.7669
 171   2.0000      -0.432262       -11.7625
 172   2.0000      -0.418927       -11.3996
 173   2.0000      -0.416479       -11.3330
 174   2.0000      -0.408515       -11.1163
 175   2.0000      -0.401760       -10.9324
 176   2.0000      -0.395924       -10.7736
 177   2.0000      -0.394129       -10.7248
 178   2.0000      -0.382475       -10.4077
 179   2.0000      -0.376509       -10.2453
 180   2.0000      -0.372295       -10.1307
 181   2.0000      -0.368693       -10.0327
 182   2.0000      -0.362001        -9.8506
 183   2.0000      -0.359796        -9.7905
 184   2.0000      -0.357131        -9.7180
 185   2.0000      -0.355923        -9.6852
 186   2.0000      -0.352792        -9.5999
 187   2.0000      -0.350887        -9.5481
 188   2.0000      -0.347119        -9.4456
 189   2.0000      -0.339457        -9.2371
 190   2.0000      -0.338832        -9.2201
 191   2.0000      -0.337767        -9.1911
 192   2.0000      -0.335016        -9.1163
 193   2.0000      -0.332962        -9.0604
 194   2.0000      -0.328894        -8.9497
 195   2.0000      -0.322227        -8.7682
 196   2.0000      -0.316100        -8.6015
 197   2.0000      -0.297606        -8.0983
 198   2.0000      -0.273090        -7.4312
 199   2.0000      -0.227441        -6.1890
 200   2.0000      -0.218732        -5.9520
 201   0.0000      -0.080802        -2.1987
 202   0.0000      -0.075693        -2.0597
 203   0.0000      -0.051450        -1.4000
 204   0.0000      -0.039644        -1.0788
 205   0.0000      -0.009385        -0.2554

MULLIKEN ATOMIC CHARGES
-----------------------
   0 C :   -0.028782
   1 C :   -0.072506
   2 C :    0.057194
   3 C :    0.029971
   4 C :   -0.056810
   5 S :    0.085817
   6 C :   -0.054206
   7 C :    0.041858
   8 C :    0.024182
   9 C :   -0.003323
  10 S :    0.143865
  11 C :   -0.064160
  12 C :    0.109956
  13 O :   -0.221544
  14 C :   -0.048830
  15 C :    0.156335
  16 O :   -0.148952
  17 N :   -0.170083
  18 C :    0.165522
  19 O :   -0.124907
  20 C :   -0.051510
  21 C :    0.090217
  22 C :    0.106993
  23 O :   -0.175608
  24 C :   -0.062868
  25 C :    0.169971
  26 O :   -0.119023
  27 N :   -0.169052
  28 C :    0.168992
  29 O :   -0.144264
  30 C :   -0.057087
  31 C :    0.085378
  32 C :    0.071019
  33 O :   -0.227695
  34 C :   -0.036250
  35 C :    0.165441
  36 O :   -0.127970
  37 N :   -0.169937
  38 C :    0.149015
  39 O :   -0.159782
  40 C :   -0.039770
  41 C :    0.115611
  42 C :   -0.071871
  43 C :    0.001473
  44 C :    0.024813
  45 C :    0.037520
  46 C :   -0.055074
  47 S :    0.147898
  48 C :   -0.059550
  49 C :    0.028608
  50 C :    0.061327
  51 C :   -0.070685
  52 S :    0.119806
  53 C :   -0.019994
  54 H :    0.026183
  55 H :    0.038522
  56 H :   -0.006248
  57 H :   -0.008796
  58 H :   -0.012801
  59 H :   -0.006860
  60 H :    0.004785
  61 H :    0.135804
  62 H :    0.135591
  63 H :    0.135989
  64 H :    0.001362
  65 H :   -0.010303
  66 H :   -0.012159
  67 H :   -0.009449
  68 H :   -0.007759
  69 H :    0.025036
  70 H :    0.024414
Sum of atomic charges:   -0.0000000

LOEWDIN ATOMIC CHARGES
----------------------
   0 C :   -0.058267
   1 C :   -0.146352
   2 C :   -0.021745
   3 C :   -0.028413
   4 C :   -0.159293
   5 S :    0.379246
   6 C :   -0.191931
   7 C :   -0.017036
   8 C :   -0.040331
   9 C :   -0.117981
  10 S :    0.420152
  11 C :   -0.097170
  12 C :    0.078214
  13 O :    0.015144
  14 C :   -0.112514
  15 C :    0.082650
  16 O :   -0.168105
  17 N :   -0.009078
  18 C :    0.083950
  19 O :   -0.141159
  20 C :   -0.069663
  21 C :    0.034129
  22 C :    0.053860
  23 O :    0.042187
  24 C :   -0.084483
  25 C :    0.085132
  26 O :   -0.136545
  27 N :   -0.006846
  28 C :    0.084696
  29 O :   -0.164114
  30 C :   -0.091263
  31 C :    0.051294
  32 C :    0.031696
  33 O :    0.011712
  34 C :   -0.073993
  35 C :    0.072023
  36 O :   -0.150677
  37 N :   -0.008599
  38 C :    0.080647
  39 O :   -0.174196
  40 C :   -0.117550
  41 C :    0.082383
  42 C :   -0.105498
  43 C :   -0.118545
  44 C :   -0.044083
  45 C :   -0.015655
  46 C :   -0.196358
  47 S :    0.438992
  48 C :   -0.156377
  49 C :   -0.028065
  50 C :   -0.019266
  51 C :   -0.143051
  52 S :    0.386912
  53 C :   -0.061450
  54 H :    0.032064
  55 H :    0.029967
  56 H :    0.035548
  57 H :    0.033506
  58 H :    0.031688
  59 H :    0.035048
  60 H :    0.047855
  61 H :    0.093038
  62 H :    0.092847
  63 H :    0.090387
  64 H :    0.046466
  65 H :    0.033745
  66 H :    0.031562
  67 H :    0.033233
  68 H :    0.035122
  69 H :    0.031001
  70 H :    0.027555

  Mayer bond orders larger than 0.100000
B(  0-C ,  1-C ) :   1.8586 B(  0-C , 54-H ) :   0.9523 B(  0-C , 55-H ) :   0.9413
B(  1-C ,  2-C ) :   1.0742 B(  1-C ,  5-S ) :   1.0069 B(  2-C ,  3-C ) :   1.6677
B(  2-C , 56-H ) :   0.9932 B(  3-C ,  4-C ) :   1.1436 B(  3-C , 57-H ) :   0.9918
B(  4-C ,  5-S ) :   1.0643 B(  4-C ,  6-C ) :   1.5594 B(  6-C ,  7-C ) :   1.1671
B(  6-C , 10-S ) :   1.0217 B(  7-C ,  8-C ) :   1.6066 B(  7-C , 58-H ) :   0.9942
B(  8-C ,  9-C ) :   1.1314 B(  8-C , 59-H ) :   1.0019 B(  9-C , 10-S ) :   1.0857
B(  9-C , 11-C ) :   1.5200 B( 11-C , 12-C ) :   1.2304 B( 11-C , 60-H ) :   0.9661
B( 12-C , 13-O ) :   1.1313 B( 12-C , 14-C ) :   1.3426 B( 13-O , 21-C ) :   1.1436
B( 14-C , 15-C ) :   0.8935 B( 14-C , 20-C ) :   1.2791 B( 15-C , 16-O ) :   2.2678
B( 15-C , 17-N ) :   1.0662 B( 17-N , 18-C ) :   1.0821 B( 17-N , 61-H ) :   0.9148
B( 18-C , 19-O ) :   2.2701 B( 18-C , 20-C ) :   0.8593 B( 20-C , 21-C ) :   1.5143
B( 21-C , 22-C ) :   1.0198 B( 22-C , 23-O ) :   1.1715 B( 22-C , 24-C ) :   1.4980
B( 22-C , 31-C ) :   0.1189 B( 23-O , 31-C ) :   1.2065 B( 24-C , 25-C ) :   0.8664
B( 24-C , 30-C ) :   1.2475 B( 25-C , 26-O ) :   2.2756 B( 25-C , 27-N ) :   1.0622
B( 27-N , 28-C ) :   1.0927 B( 27-N , 62-H ) :   0.9151 B( 28-C , 29-O ) :   2.2177
B( 28-C , 30-C ) :   0.8646 B( 30-C , 31-C ) :   1.4084 B( 31-C , 32-C ) :   1.0865
B( 32-C , 33-O ) :   1.1675 B( 32-C , 34-C ) :   1.4305 B( 33-O , 41-C ) :   1.1162
B( 34-C , 35-C ) :   0.8488 B( 34-C , 40-C ) :   1.2816 B( 35-C , 36-O ) :   2.2798
B( 35-C , 37-N ) :   1.0814 B( 37-N , 38-C ) :   1.0697 B( 37-N , 63-H ) :   0.9130
B( 38-C , 39-O ) :   2.2376 B( 38-C , 40-C ) :   0.8976 B( 40-C , 41-C ) :   1.3296
B( 41-C , 42-C ) :   1.2453 B( 42-C , 43-C ) :   1.4973 B( 42-C , 64-H ) :   0.9670
B( 43-C , 44-C ) :   1.1347 B( 43-C , 47-S ) :   1.0944 B( 44-C , 45-C ) :   1.6009
B( 44-C , 65-H ) :   1.0018 B( 45-C , 46-C ) :   1.1733 B( 45-C , 66-H ) :   0.9933
B( 46-C , 47-S ) :   1.0252 B( 46-C , 48-C ) :   1.5432 B( 48-C , 49-C ) :   1.1461
B( 48-C , 52-S ) :   1.0798 B( 49-C , 50-C ) :   1.6665 B( 49-C , 67-H ) :   0.9917
B( 50-C , 51-C ) :   1.0761 B( 50-C , 68-H ) :   0.9927 B( 51-C , 52-S ) :   1.0037
B( 51-C , 53-C ) :   1.8643 B( 53-C , 69-H ) :   0.9511 B( 53-C , 70-H ) :   0.9421

-----------------------------------------------------------------------------
         ABSORPTION SPECTRUM VIA TRANSITION ELECTRIC DIPOLE MOMENTS
-----------------------------------------------------------------------------
State   Energy  Wavelength   fosc         T2         TX        TY        TZ
        (cm-1)    (nm)                  (au**2)     (au)      (au)      (au)
-----------------------------------------------------------------------------
   0   15444.8    647.5   0.686726635  14.63786   3.61497  -0.79959  -0.96465
   1   17300.0    578.0   0.468505230   8.91546  -1.29458   1.54530  -2.20263
   2   19224.8    520.2   0.006042539   0.10347  -0.21524   0.13520   0.19715
   3   20528.2    487.1   0.020131079   0.32284   0.02229  -0.04993  -0.56556
   4   21282.6    469.9   0.941142782  14.55815   1.54473  -0.94053  -3.35967
   5   22407.2    446.3   0.190974995   2.80585   1.41949  -0.72585  -0.51384
   6   24021.4    416.3   0.188372179   2.58163   0.80517  -0.10626   1.38638
   7   26219.4    381.4   0.008226742   0.10330   0.28686  -0.13996  -0.03764
   8   27188.2    367.8   0.489579187   5.92813   0.00618  -0.62014  -2.35447
   9   28063.6    356.3   0.094111644   1.10402   0.90716  -0.04365   0.52837
  10   30246.4    330.6   0.486733668   5.29777  -0.05973   0.64828   2.20770
  11   30771.8    325.0   0.141169761   1.51030   1.10429   0.10877   0.52821
  12   31183.2    320.7   0.070841906   0.74790   0.36635  -0.25913  -0.73928
  13   31799.4    314.5   0.040945934   0.42390  -0.59594   0.20223   0.16693
  14   32119.3    311.3   0.098054853   1.00503  -0.99699   0.03365   0.09954
  15   33978.5    294.3   0.003389578   0.03284  -0.11366  -0.01390   0.14046
  16   34320.8    291.4   0.064964052   0.62315   0.18473  -0.12828   0.75668
  17   34571.1    289.3   0.094003565   0.89517  -0.59118   0.19100   0.71358
  18   34853.2    286.9   0.002725341   0.02574  -0.01760   0.14094   0.07462
  19   35305.9    283.2   0.231278671   2.15657  -1.30989   0.05592  -0.66154
  20   35479.8    281.9   0.103505823   0.96042  -0.96222  -0.08147   0.16704
  21   35719.2    280.0   0.024378812   0.22469  -0.37902   0.03725  -0.28221
  22   36228.3    276.0   0.003283584   0.02984   0.01435  -0.00425   0.17209
  23   36295.1    275.5   0.002175211   0.01973   0.09833  -0.09529   0.03132
  24   37244.0    268.5   0.087897690   0.77696   0.50747  -0.48878  -0.52964
  25   37409.2    267.3   0.063279561   0.55688   0.36023   0.08430   0.64808
  26   37585.5    266.1   0.001460253   0.01279  -0.07375  -0.08393  -0.01753
  27   37681.2    265.4   0.038967368   0.34045  -0.23020   0.19079   0.50106
  28   38323.7    260.9   0.126299222   1.08495  -0.90977   0.40068   0.31100
  29   38483.6    259.9   0.042596149   0.36439   0.31865  -0.22030  -0.46295
  30   38654.5    258.7   0.114788268   0.97763   0.11248   0.09790   0.97744
  31   38908.2    257.0   0.003091186   0.02616   0.03394   0.09036   0.12976
  32   39350.9    254.1   0.011715186   0.09801  -0.15775   0.00719   0.27032
  33   39633.3    252.3   0.050726161   0.42135   0.19196   0.16703  -0.59716
  34   39830.4    251.1   0.052275581   0.43208   0.64545  -0.12428  -0.00486

FINAL SINGLE POINT ENERGY     -3889.004695601136

DIPOLE MOMENT
-------------
                                X             Y             Z
Electronic contribution:      3.04824      -8.00055      19.08018
Nuclear contribution   :     -3.46847       9.06355     -21.60542
                        -----------------------------------------
Total Dipole Moment    :     -0.42023       1.06301      -2.52525
                        -----------------------------------------
Magnitude (a.u.)       :      2.77190
Magnitude (Debye)      :      7.04562

Rotational constants in cm-1:     0.001862     0.001088     0.000735
Rotational constants in MHz :    55.831216    32.610293    22.047461

                             ****ORCA TERMINATED NORMALLY****
TOTAL RUN TIME: 0 days 0 hours 6 minutes 24 seconds 301 msec
