                         Program Version 4.2.0 -  RELEASE  -
|  1> # ORCA input file
|  2> # SCF done       -151.010479604988          0.000312943067
|  3> ! CAM-B3LYP def2-SVP def2/J RIJCOSX Grid4 TightSCF
|  4> %maxcore 5000
|  5> %tddft
|  6>     Mode sTDDFT
|  7>     Ethresh 5.0
|  8>     maxcore 5000
|  9> end
| 10>
| 11> %pal
| 12>   nprocs 6
| 13>   end
| 14> * xyz 0 1
| 15>    C       -3.52604         0.30671        -1.48450
| 16>    C       -3.30182        -0.92557        -1.01572
| 17>    C       -4.26616        -1.95223        -0.73655
| 18>    C       -3.74028        -3.10776        -0.28350
| 19>    C       -2.31869        -3.09569        -0.16324
| 20>    S       -1.68312        -1.53534        -0.64194
| 21>    C       -1.50788        -4.12653         0.23005
| 22>    C       -1.86868        -5.45411         0.58133
| 23>    C       -0.82374        -6.26347         0.87949
| 24>    C        0.45015        -5.63259         0.78976
| 25>    S        0.24469        -3.94063         0.31144
| 26>    C        1.66752        -6.19719         0.97879
| 27>    N        2.85043        -5.50191         0.92166
| 28>    C        4.03320        -6.06937         0.55619
| 29>    S        5.51935        -5.55577         1.29719
| 30>    C        6.35947        -6.82283         0.45514
| 31>    N        7.74094        -6.91155         0.63546
| 32>    O        8.33553        -7.79998         0.05170
| 33>    O        8.25216        -6.08378         1.37378
| 34>    C        5.54136        -7.58548        -0.33657
| 35>    C        4.20492        -7.14911        -0.32035
| 36>    C        3.17781        -7.67777        -1.18697
| 37>    C        2.17334        -6.92679        -1.68512
| 38>    C        1.08612        -7.40670        -2.45927
| 39>    S        0.93540        -9.05726        -3.00618
| 40>    C       -0.61596        -8.78771        -3.76437
| 41>    C       -1.00496        -7.45828        -3.57712
| 42>    C       -0.03764        -6.70040        -2.85375
| 43>    N       -0.50183        -5.42943        -2.71615
| 44>    C       -1.73763        -5.35987        -3.32415
| 45>    C       -2.49268        -4.18127        -3.35424
| 46>    N       -3.13070        -3.22727        -3.38607
| 47>    C       -2.07748        -6.58355        -3.86589
| 48>    C       -1.29976        -9.80062        -4.46967
| 49>    C       -0.91735       -11.11979        -4.70531
| 50>    C        0.26614       -11.66143        -4.18721
| 51>    N        1.23453       -12.08525        -3.73951
| 52>    C       -1.86103       -11.82942        -5.49983
| 53>    C       -2.94516       -11.02668        -5.83221
| 54>    S       -2.84556        -9.42377        -5.21212
| 55>    S       -4.16231       -11.78170        -6.80648
| 56>    C       -3.19230       -13.21823        -6.78232
| 57>    C       -2.00685       -13.13114        -6.06755
| 58>    C       -1.27465       -14.35381        -6.12238
| 59>    C       -0.03543       -14.57536        -5.50513
| 60>    N        0.97922       -14.77941        -5.00982
| 61>    C       -1.91612       -15.32894        -6.87413
| 62>    S       -3.44495       -14.75243        -7.52183
| 63>    C       -1.50387       -16.65272        -7.17026
| 64>    S       -0.01661       -17.35415        -6.55963
| 65>    C       -0.27658       -18.85075        -7.34842
| 66>    C       -1.44986       -18.84723        -8.06203
| 67>    C       -2.14375       -17.59705        -7.95624
| 68>    N       -3.28322       -17.68410        -8.69007
| 69>    C       -3.33549       -18.94663        -9.25909
| 70>    C       -4.40451       -19.33380       -10.07949
| 71>    N       -5.27769       -19.65270       -10.75206
| 72>    C       -2.23470       -19.68524        -8.89832
| 73>    H       -4.52622         0.63485        -1.70542
| 74>    H       -2.72442         0.99921        -1.66618
| 75>    H       -5.31387        -1.77445        -0.89932
| 76>    H       -4.31439        -3.98133        -0.03086
| 77>    H       -2.89725        -5.76662         0.59063
| 78>    H       -0.90762        -7.29839         1.15776
| 79>    H        1.75218        -7.25993         1.15024
| 80>    H        2.83277        -4.51794         1.15780
| 81>    H        5.90816        -8.39813        -0.93721
| 82>    H        3.25450        -8.72151        -1.45846
| 83>    H        2.15461        -5.86152        -1.49891
| 84>    H       -0.05040        -4.66983        -2.23195
| 85>    H       -2.98334        -6.80010        -4.39492
| 86>    H        0.44361       -19.63618        -7.24156
| 87>    H       -3.98064       -16.97089        -8.81777
| 88>    H       -2.02054       -20.69166        -9.19511
| 89> *
| 90>
| 91>                          ****END OF INPUT****

CARTESIAN COORDINATES (ANGSTROEM)
---------------------------------
  C     -3.526040    0.306710   -1.484500
  C     -3.301820   -0.925570   -1.015720
  C     -4.266160   -1.952230   -0.736550
  C     -3.740280   -3.107760   -0.283500
  C     -2.318690   -3.095690   -0.163240
  S     -1.683120   -1.535340   -0.641940
  C     -1.507880   -4.126530    0.230050
  C     -1.868680   -5.454110    0.581330
  C     -0.823740   -6.263470    0.879490
  C      0.450150   -5.632590    0.789760
  S      0.244690   -3.940630    0.311440
  C      1.667520   -6.197190    0.978790
  N      2.850430   -5.501910    0.921660
  C      4.033200   -6.069370    0.556190
  S      5.519350   -5.555770    1.297190
  C      6.359470   -6.822830    0.455140
  N      7.740940   -6.911550    0.635460
  O      8.335530   -7.799980    0.051700
  O      8.252160   -6.083780    1.373780
  C      5.541360   -7.585480   -0.336570
  C      4.204920   -7.149110   -0.320350
  C      3.177810   -7.677770   -1.186970
  C      2.173340   -6.926790   -1.685120
  C      1.086120   -7.406700   -2.459270
  S      0.935400   -9.057260   -3.006180
  C     -0.615960   -8.787710   -3.764370
  C     -1.004960   -7.458280   -3.577120
  C     -0.037640   -6.700400   -2.853750
  N     -0.501830   -5.429430   -2.716150
  C     -1.737630   -5.359870   -3.324150
  C     -2.492680   -4.181270   -3.354240
  N     -3.130700   -3.227270   -3.386070
  C     -2.077480   -6.583550   -3.865890
  C     -1.299760   -9.800620   -4.469670
  C     -0.917350  -11.119790   -4.705310
  C      0.266140  -11.661430   -4.187210
  N      1.234530  -12.085250   -3.739510
  C     -1.861030  -11.829420   -5.499830
  C     -2.945160  -11.026680   -5.832210
  S     -2.845560   -9.423770   -5.212120
  S     -4.162310  -11.781700   -6.806480
  C     -3.192300  -13.218230   -6.782320
  C     -2.006850  -13.131140   -6.067550
  C     -1.274650  -14.353810   -6.122380
  C     -0.035430  -14.575360   -5.505130
  N      0.979220  -14.779410   -5.009820
  C     -1.916120  -15.328940   -6.874130
  S     -3.444950  -14.752430   -7.521830
  C     -1.503870  -16.652720   -7.170260
  S     -0.016610  -17.354150   -6.559630
  C     -0.276580  -18.850750   -7.348420
  C     -1.449860  -18.847230   -8.062030
  C     -2.143750  -17.597050   -7.956240
  N     -3.283220  -17.684100   -8.690070
  C     -3.335490  -18.946630   -9.259090
  C     -4.404510  -19.333800  -10.079490
  N     -5.277690  -19.652700  -10.752060
  C     -2.234700  -19.685240   -8.898320
  H     -4.526220    0.634850   -1.705420
  H     -2.724420    0.999210   -1.666180
  H     -5.313870   -1.774450   -0.899320
  H     -4.314390   -3.981330   -0.030860
  H     -2.897250   -5.766620    0.590630
  H     -0.907620   -7.298390    1.157760
  H      1.752180   -7.259930    1.150240
  H      2.832770   -4.517940    1.157800
  H      5.908160   -8.398130   -0.937210
  H      3.254500   -8.721510   -1.458460
  H      2.154610   -5.861520   -1.498910
  H     -0.050400   -4.669830   -2.231950
  H     -2.983340   -6.800100   -4.394920
  H      0.443610  -19.636180   -7.241560
  H     -3.980640  -16.970890   -8.817770
  H     -2.020540  -20.691660   -9.195110

 Total Charge           Charge          ....    0
 Multiplicity           Mult            ....    1
 Number of Electrons    NEL             ....  456
 Basis Dimension        Dim             ....  924

ORBITAL ENERGIES
----------------

  NO   OCC          E(Eh)            E(eV)
   0   2.0000     -88.992481     -2421.6085
   1   2.0000     -88.990022     -2421.5416
   2   2.0000     -88.987694     -2421.4783
   3   2.0000     -88.979172     -2421.2464
   4   2.0000     -88.975543     -2421.1476
   5   2.0000     -88.971686     -2421.0427
   6   2.0000     -88.962021     -2420.7797
   7   2.0000     -88.943489     -2420.2754
   8   2.0000     -19.230896      -523.2993
   9   2.0000     -19.230601      -523.2912
  10   2.0000     -14.642530      -398.4435
  11   2.0000     -14.484600      -394.1460
  12   2.0000     -14.478454      -393.9788
  13   2.0000     -14.478292      -393.9743
  14   2.0000     -14.421754      -392.4359
  15   2.0000     -14.421012      -392.4157
  16   2.0000     -14.404924      -391.9779
  17   2.0000     -14.404405      -391.9638
  18   2.0000     -10.362516      -281.9784
  19   2.0000     -10.354353      -281.7563
  20   2.0000     -10.353784      -281.7408
  21   2.0000     -10.347755      -281.5767
  22   2.0000     -10.343307      -281.4557
  23   2.0000     -10.339391      -281.3491
  24   2.0000     -10.338132      -281.3149
  25   2.0000     -10.338005      -281.3114
  26   2.0000     -10.332918      -281.1730
  27   2.0000     -10.332160      -281.1524
  28   2.0000     -10.325683      -280.9761
  29   2.0000     -10.323808      -280.9251
  30   2.0000     -10.321073      -280.8507
  31   2.0000     -10.320906      -280.8461
  32   2.0000     -10.320892      -280.8458
  33   2.0000     -10.320660      -280.8394
  34   2.0000     -10.320308      -280.8299
  35   2.0000     -10.317656      -280.7577
  36   2.0000     -10.317043      -280.7410
  37   2.0000     -10.316316      -280.7212
  38   2.0000     -10.314191      -280.6634
  39   2.0000     -10.313187      -280.6361
  40   2.0000     -10.313112      -280.6341
  41   2.0000     -10.312009      -280.6040
  42   2.0000     -10.308327      -280.5038
  43   2.0000     -10.304597      -280.4023
  44   2.0000     -10.303870      -280.3826
  45   2.0000     -10.303476      -280.3718
  46   2.0000     -10.297285      -280.2034
  47   2.0000     -10.296621      -280.1853
  48   2.0000     -10.295649      -280.1588
  49   2.0000     -10.295634      -280.1584
  50   2.0000     -10.295179      -280.1461
  51   2.0000     -10.295047      -280.1425
  52   2.0000     -10.293763      -280.1075
  53   2.0000     -10.292906      -280.0842
  54   2.0000     -10.290211      -280.0109
  55   2.0000     -10.288434      -279.9625
  56   2.0000     -10.287370      -279.9336
  57   2.0000     -10.273308      -279.5509
  58   2.0000      -8.087697      -220.0774
  59   2.0000      -8.085063      -220.0057
  60   2.0000      -8.082652      -219.9402
  61   2.0000      -8.074997      -219.7318
  62   2.0000      -8.069773      -219.5897
  63   2.0000      -8.065592      -219.4759
  64   2.0000      -8.057527      -219.2565
  65   2.0000      -8.040079      -218.7817
  66   2.0000      -6.057445      -164.8315
  67   2.0000      -6.055060      -164.7666
  68   2.0000      -6.053265      -164.7177
  69   2.0000      -6.052382      -164.6937
  70   2.0000      -6.050831      -164.6515
  71   2.0000      -6.049001      -164.6017
  72   2.0000      -6.048108      -164.5774
  73   2.0000      -6.045864      -164.5163
  74   2.0000      -6.044646      -164.4832
  75   2.0000      -6.044034      -164.4665
  76   2.0000      -6.040208      -164.3624
  77   2.0000      -6.039224      -164.3356
  78   2.0000      -6.036474      -164.2608
  79   2.0000      -6.035004      -164.2208
  80   2.0000      -6.034514      -164.2075
  81   2.0000      -6.032192      -164.1443
  82   2.0000      -6.030674      -164.1030
  83   2.0000      -6.027745      -164.0233
  84   2.0000      -6.027310      -164.0114
  85   2.0000      -6.023462      -163.9067
  86   2.0000      -6.018377      -163.7684
  87   2.0000      -6.009924      -163.5383
  88   2.0000      -6.006049      -163.4329
  89   2.0000      -6.000589      -163.2843
  90   2.0000      -1.311178       -35.6790
  91   2.0000      -1.130100       -30.7516
  92   2.0000      -1.106941       -30.1214
  93   2.0000      -1.103279       -30.0218
  94   2.0000      -1.084671       -29.5154
  95   2.0000      -1.044077       -28.4108
  96   2.0000      -1.015922       -27.6446
  97   2.0000      -1.004592       -27.3364
  98   2.0000      -1.002816       -27.2880
  99   2.0000      -1.002092       -27.2683
 100   2.0000      -0.995010       -27.0756
 101   2.0000      -0.994405       -27.0591
 102   2.0000      -0.986016       -26.8309
 103   2.0000      -0.982920       -26.7466
 104   2.0000      -0.980233       -26.6735
 105   2.0000      -0.972847       -26.4725
 106   2.0000      -0.948892       -25.8207
 107   2.0000      -0.921840       -25.0845
 108   2.0000      -0.906738       -24.6736
 109   2.0000      -0.903451       -24.5841
 110   2.0000      -0.895824       -24.3766
 111   2.0000      -0.893552       -24.3148
 112   2.0000      -0.878981       -23.9183
 113   2.0000      -0.875634       -23.8272
 114   2.0000      -0.862003       -23.4563
 115   2.0000      -0.856449       -23.3052
 116   2.0000      -0.853635       -23.2286
 117   2.0000      -0.851681       -23.1754
 118   2.0000      -0.849198       -23.1079
 119   2.0000      -0.846759       -23.0415
 120   2.0000      -0.832502       -22.6535
 121   2.0000      -0.826021       -22.4772
 122   2.0000      -0.808278       -21.9944
 123   2.0000      -0.793159       -21.5830
 124   2.0000      -0.785748       -21.3813
 125   2.0000      -0.763863       -20.7858
 126   2.0000      -0.754662       -20.5354
 127   2.0000      -0.748269       -20.3614
 128   2.0000      -0.736460       -20.0401
 129   2.0000      -0.731107       -19.8944
 130   2.0000      -0.722099       -19.6493
 131   2.0000      -0.711253       -19.3542
 132   2.0000      -0.705076       -19.1861
 133   2.0000      -0.696637       -18.9565
 134   2.0000      -0.690391       -18.7865
 135   2.0000      -0.687070       -18.6961
 136   2.0000      -0.674062       -18.3422
 137   2.0000      -0.672278       -18.2936
 138   2.0000      -0.670094       -18.2342
 139   2.0000      -0.660857       -17.9828
 140   2.0000      -0.651697       -17.7336
 141   2.0000      -0.640506       -17.4291
 142   2.0000      -0.633247       -17.2315
 143   2.0000      -0.627097       -17.0642
 144   2.0000      -0.624914       -17.0048
 145   2.0000      -0.623622       -16.9696
 146   2.0000      -0.623257       -16.9597
 147   2.0000      -0.618971       -16.8430
 148   2.0000      -0.604351       -16.4452
 149   2.0000      -0.603334       -16.4175
 150   2.0000      -0.593241       -16.1429
 151   2.0000      -0.587476       -15.9860
 152   2.0000      -0.583963       -15.8904
 153   2.0000      -0.581087       -15.8122
 154   2.0000      -0.564937       -15.3727
 155   2.0000      -0.557245       -15.1634
 156   2.0000      -0.555404       -15.1133
 157   2.0000      -0.554881       -15.0991
 158   2.0000      -0.553100       -15.0506
 159   2.0000      -0.550227       -14.9724
 160   2.0000      -0.547585       -14.9006
 161   2.0000      -0.546347       -14.8669
 162   2.0000      -0.541348       -14.7308
 163   2.0000      -0.540741       -14.7143
 164   2.0000      -0.532096       -14.4791
 165   2.0000      -0.526649       -14.3308
 166   2.0000      -0.522061       -14.2060
 167   2.0000      -0.521470       -14.1899
 168   2.0000      -0.516937       -14.0666
 169   2.0000      -0.513731       -13.9793
 170   2.0000      -0.509889       -13.8748
 171   2.0000      -0.505380       -13.7521
 172   2.0000      -0.499725       -13.5982
 173   2.0000      -0.497610       -13.5407
 174   2.0000      -0.491955       -13.3868
 175   2.0000      -0.489511       -13.3203
 176   2.0000      -0.488832       -13.3018
 177   2.0000      -0.482290       -13.1238
 178   2.0000      -0.477720       -12.9994
 179   2.0000      -0.474367       -12.9082
 180   2.0000      -0.472976       -12.8703
 181   2.0000      -0.468844       -12.7579
 182   2.0000      -0.467386       -12.7182
 183   2.0000      -0.466259       -12.6875
 184   2.0000      -0.464195       -12.6314
 185   2.0000      -0.457624       -12.4526
 186   2.0000      -0.457439       -12.4475
 187   2.0000      -0.454872       -12.3777
 188   2.0000      -0.452133       -12.3032
 189   2.0000      -0.450123       -12.2485
 190   2.0000      -0.445717       -12.1286
 191   2.0000      -0.444487       -12.0951
 192   2.0000      -0.441646       -12.0178
 193   2.0000      -0.440129       -11.9765
 194   2.0000      -0.438293       -11.9266
 195   2.0000      -0.434185       -11.8148
 196   2.0000      -0.432561       -11.7706
 197   2.0000      -0.430111       -11.7039
 198   2.0000      -0.429928       -11.6989
 199   2.0000      -0.428374       -11.6566
 200   2.0000      -0.427217       -11.6252
 201   2.0000      -0.424960       -11.5637
 202   2.0000      -0.422108       -11.4862
 203   2.0000      -0.417661       -11.3651
 204   2.0000      -0.407024       -11.0757
 205   2.0000      -0.402461       -10.9515
 206   2.0000      -0.400981       -10.9112
 207   2.0000      -0.385203       -10.4819
 208   2.0000      -0.380443       -10.3524
 209   2.0000      -0.379056       -10.3146
 210   2.0000      -0.377584       -10.2746
 211   2.0000      -0.375123       -10.2076
 212   2.0000      -0.370947       -10.0940
 213   2.0000      -0.364738        -9.9250
 214   2.0000      -0.359050        -9.7702
 215   2.0000      -0.351103        -9.5540
 216   2.0000      -0.343906        -9.3582
 217   2.0000      -0.340808        -9.2739
 218   2.0000      -0.333311        -9.0699
 219   2.0000      -0.324438        -8.8284
 220   2.0000      -0.316598        -8.6151
 221   2.0000      -0.310585        -8.4514
 222   2.0000      -0.308812        -8.4032
 223   2.0000      -0.306863        -8.3502
 224   2.0000      -0.289541        -7.8788
 225   2.0000      -0.258778        -7.0417
 226   2.0000      -0.240559        -6.5459
 227   2.0000      -0.227885        -6.2011
 228   0.0000      -0.077269        -2.1026
 229   0.0000      -0.066461        -1.8085
 230   0.0000      -0.056506        -1.5376
 231   0.0000      -0.043116        -1.1733
 232   0.0000      -0.010074        -0.2741

MULLIKEN ATOMIC CHARGES
-----------------------
   0 C :   -0.020466
   1 C :   -0.047588
   2 C :    0.080236
   3 C :    0.031821
   4 C :   -0.055131
   5 S :    0.065702
   6 C :   -0.097353
   7 C :    0.036738
   8 C :    0.057011
   9 C :   -0.067281
  10 S :    0.007793
  11 C :    0.044008
  12 N :   -0.070603
  13 C :   -0.123694
  14 S :    0.175949
  15 C :   -0.014646
  16 N :    0.278724
  17 O :   -0.251108
  18 O :   -0.269763
  19 C :    0.011994
  20 C :    0.095652
  21 C :   -0.077042
  22 C :    0.041526
  23 C :   -0.155168
  24 S :    0.168227
  25 C :   -0.168647
  26 C :    0.102051
  27 C :    0.125862
  28 N :   -0.027006
  29 C :   -0.101235
  30 C :   -0.125013
  31 N :    0.167930
  32 C :   -0.055058
  33 C :   -0.067622
  34 C :   -0.030884
  35 C :   -0.346512
  36 N :    0.220946
  37 C :    0.146090
  38 C :   -0.225188
  39 S :    0.141601
  40 S :    0.188171
  41 C :   -0.227343
  42 C :    0.144798
  43 C :   -0.041422
  44 C :   -0.340264
  45 N :    0.229000
  46 C :   -0.061043
  47 S :    0.113965
  48 C :   -0.234794
  49 S :    0.196032
  50 C :   -0.131160
  51 C :    0.114167
  52 C :    0.111658
  53 N :   -0.048580
  54 C :   -0.092879
  55 C :   -0.144693
  56 N :    0.159807
  57 C :   -0.001642
  58 H :    0.022963
  59 H :    0.022239
  60 H :   -0.008983
  61 H :   -0.013968
  62 H :   -0.011196
  63 H :   -0.008600
  64 H :    0.027941
  65 H :    0.146214
  66 H :    0.013678
  67 H :    0.010520
  68 H :   -0.014455
  69 H :    0.129946
  70 H :   -0.008855
  71 H :    0.034888
  72 H :    0.132324
  73 H :   -0.011288
Sum of atomic charges:    0.0000000

LOEWDIN ATOMIC CHARGES
----------------------
   0 C :   -0.062854
   1 C :   -0.132735
   2 C :   -0.010378
   3 C :   -0.029359
   4 C :   -0.173426
   5 S :    0.345239
   6 C :   -0.195428
   7 C :   -0.036255
   8 C :   -0.030058
   9 C :   -0.187338
  10 S :    0.327658
  11 C :    0.001764
  12 N :    0.015743
  13 C :   -0.118103
  14 S :    0.450111
  15 C :   -0.209807
  16 N :    0.274018
  17 O :   -0.217380
  18 O :   -0.235209
  19 C :    0.004274
  20 C :   -0.098857
  21 C :   -0.037978
  22 C :   -0.035611
  23 C :   -0.198522
  24 S :    0.498636
  25 C :   -0.206448
  26 C :   -0.066990
  27 C :   -0.005259
  28 N :    0.078582
  29 C :   -0.020779
  30 C :   -0.038499
  31 N :   -0.036877
  32 C :   -0.051152
  33 C :   -0.132362
  34 C :   -0.116284
  35 C :   -0.058390
  36 N :   -0.033970
  37 C :   -0.059076
  38 C :   -0.338141
  39 S :    0.448543
  40 S :    0.421384
  41 C :   -0.340428
  42 C :   -0.056524
  43 C :   -0.119616
  44 C :   -0.058377
  45 N :   -0.031971
  46 C :   -0.125647
  47 S :    0.424187
  48 C :   -0.247514
  49 S :    0.517730
  50 C :   -0.173783
  51 C :   -0.076653
  52 C :   -0.002865
  53 N :    0.062096
  54 C :   -0.028888
  55 C :   -0.044988
  56 N :   -0.038264
  57 C :   -0.023053
  58 H :    0.030914
  59 H :    0.027321
  60 H :    0.035493
  61 H :    0.031426
  62 H :    0.033934
  63 H :    0.036293
  64 H :    0.037473
  65 H :    0.085441
  66 H :    0.047840
  67 H :    0.029592
  68 H :    0.027265
  69 H :    0.073587
  70 H :    0.026029
  71 H :    0.031313
  72 H :    0.079547
  73 H :    0.038666

  Mayer bond orders larger than 0.100000
B(  0-C ,  1-C ) :   1.8804 B(  0-C , 58-H ) :   0.9497 B(  0-C , 59-H ) :   0.9406
B(  1-C ,  2-C ) :   1.0754 B(  1-C ,  5-S ) :   0.9949 B(  2-C ,  3-C ) :   1.6768
B(  2-C , 60-H ) :   0.9913 B(  3-C ,  4-C ) :   1.1380 B(  3-C , 61-H ) :   0.9926
B(  4-C ,  5-S ) :   1.0478 B(  4-C ,  6-C ) :   1.5841 B(  6-C ,  7-C ) :   1.1544
B(  6-C , 10-S ) :   1.0048 B(  7-C ,  8-C ) :   1.6368 B(  7-C , 62-H ) :   0.9934
B(  8-C ,  9-C ) :   1.1216 B(  8-C , 63-H ) :   0.9990 B(  9-C , 10-S ) :   0.9900
B(  9-C , 11-C ) :   1.6518 B( 11-C , 12-N ) :   1.1280 B( 11-C , 64-H ) :   0.9548
B( 12-N , 13-C ) :   1.1683 B( 12-N , 65-H ) :   0.9070 B( 13-C , 14-S ) :   1.1347
B( 13-C , 20-C ) :   1.3893 B( 14-S , 15-C ) :   1.0866 B( 15-C , 16-N ) :   0.9739
B( 15-C , 19-C ) :   1.4794 B( 16-N , 17-O ) :   1.5346 B( 16-N , 18-O ) :   1.5075
B( 17-O , 18-O ) :   0.2575 B( 19-C , 20-C ) :   1.2322 B( 19-C , 66-H ) :   1.0082
B( 20-C , 21-C ) :   1.0614 B( 21-C , 22-C ) :   1.6843 B( 21-C , 67-H ) :   0.9698
B( 22-C , 23-C ) :   1.1895 B( 22-C , 68-H ) :   0.9504 B( 23-C , 24-S ) :   1.1018
B( 23-C , 25-C ) :   0.1199 B( 23-C , 27-C ) :   1.3763 B( 24-S , 25-C ) :   1.1364
B( 25-C , 26-C ) :   1.3054 B( 25-C , 33-C ) :   1.2561 B( 26-C , 27-C ) :   1.2326
B( 26-C , 32-C ) :   1.1676 B( 27-C , 28-N ) :   1.1810 B( 28-N , 29-C ) :   1.2189
B( 28-N , 69-H ) :   0.9131 B( 29-C , 30-C ) :   1.0611 B( 29-C , 32-C ) :   1.5771
B( 30-C , 31-N ) :   3.0223 B( 32-C , 70-H ) :   1.0043 B( 33-C , 34-C ) :   1.4666
B( 33-C , 39-S ) :   1.1304 B( 34-C , 35-C ) :   1.1694 B( 34-C , 37-C ) :   1.2500
B( 35-C , 36-N ) :   2.9545 B( 37-C , 38-C ) :   1.4245 B( 37-C , 42-C ) :   1.0724
B( 38-C , 39-S ) :   1.0734 B( 38-C , 40-S ) :   1.0829 B( 40-S , 41-C ) :   1.0778
B( 41-C , 42-C ) :   1.4402 B( 41-C , 47-S ) :   1.0734 B( 42-C , 43-C ) :   1.2395
B( 43-C , 44-C ) :   1.1685 B( 43-C , 46-C ) :   1.4972 B( 44-C , 45-N ) :   2.9578
B( 46-C , 47-S ) :   1.1174 B( 46-C , 48-C ) :   1.2439 B( 48-C , 49-S ) :   1.1282
B( 48-C , 50-C ) :   0.1200 B( 48-C , 52-C ) :   1.3800 B( 49-S , 50-C ) :   1.2104
B( 50-C , 51-C ) :   1.3982 B( 50-C , 71-H ) :   0.9709 B( 51-C , 52-C ) :   1.2287
B( 51-C , 57-C ) :   1.1285 B( 52-C , 53-N ) :   1.1854 B( 53-N , 54-C ) :   1.1731
B( 53-N , 72-H ) :   0.9288 B( 54-C , 55-C ) :   1.0542 B( 54-C , 57-C ) :   1.6123
B( 55-C , 56-N ) :   3.0546 B( 57-C , 73-H ) :   1.0170

-----------------------------------------------------------------------------
         ABSORPTION SPECTRUM VIA TRANSITION ELECTRIC DIPOLE MOMENTS
-----------------------------------------------------------------------------
State   Energy  Wavelength   fosc         T2         TX        TY        TZ
        (cm-1)    (nm)                  (au**2)     (au)      (au)      (au)
-----------------------------------------------------------------------------
   0   17011.4    587.8   0.346529136   6.70617   0.32073  -2.28628  -1.17314
   1   19262.9    519.1   0.440710356   7.53197   0.23228  -2.57315  -0.92570
   2   20681.8    483.5   1.113939139  17.73164   3.72338   0.60786   1.87045
   3   22460.3    445.2   0.252925619   3.70725  -1.20700   1.48270  -0.22806
   4   26226.5    381.3   0.059131500   0.74226  -0.14955   0.52000  -0.67044
   5   26601.4    375.9   0.140368839   1.73717   0.55084  -1.19738   0.00460
   6   27228.8    367.3   0.500648332   6.05313   0.58724  -2.32768  -0.53869
   7   27751.5    360.3   0.169215303   2.00738   0.48121  -1.31454  -0.21862
   8   27906.2    358.3   0.114351671   1.34902   0.82412  -0.80882   0.12510
   9   29829.2    335.2   0.288060728   3.17920  -0.61262   1.61419  -0.44531
  10   30522.0    327.6   0.000537324   0.00580   0.06577  -0.01928   0.03314
  11   31039.2    322.2   0.051784871   0.54925   0.68974  -0.01040   0.27092
  12   32167.6    310.9   0.041775859   0.42755   0.62767   0.01634  -0.18251
  13   32805.1    304.8   0.059984759   0.60197   0.54873   0.13510  -0.53161
  14   33534.9    298.2   0.036713612   0.36042  -0.32780   0.50077   0.04682
  15   33772.7    296.1   0.003195405   0.03115  -0.12676   0.10217   0.06813
  16   33966.8    294.4   0.007609231   0.07375  -0.09702   0.25344  -0.01032
  17   34346.8    291.1   0.018636109   0.17863   0.09434  -0.40749  -0.06068
  18   34783.3    287.5   0.196433264   1.85917   1.23190  -0.31761   0.49063
  19   34919.7    286.4   0.093155723   0.87824  -0.82523   0.42747  -0.12045
  20   35318.6    283.1   0.175690925   1.63765   1.17227  -0.42457   0.28842
  21   35448.0    282.1   0.037240795   0.34586   0.51074   0.20168   0.21055
  22   36196.8    276.3   0.107685667   0.97941   0.93372  -0.30059   0.13126
  23   36286.9    275.6   0.101279733   0.91886   0.06369   0.87723  -0.38114
  24   37029.5    270.1   0.127899454   1.13710  -0.89698  -0.01026  -0.57656
  25   37395.2    267.4   0.004168563   0.03670   0.00972   0.03721  -0.18767
  26   37582.9    266.1   0.120550960   1.05598  -0.30173  -0.79181  -0.58136
  27   37680.8    265.4   0.009504218   0.08304  -0.25281  -0.07557   0.11581
  28   38268.3    261.3   0.141154698   1.21432  -0.28814   1.05085   0.16431
  29   38715.7    258.3   0.016448350   0.13987  -0.34331   0.12823  -0.07456
  30   39089.9    255.8   0.120676497   1.01633  -0.77159  -0.20855  -0.61440
  31   39343.9    254.2   0.078131668   0.65377   0.64334  -0.37508   0.31497
  32   39456.0    253.4   0.002646383   0.02208  -0.09451   0.02556  -0.11179
  33   40205.5    248.7   0.124974754   1.02332  -0.92240  -0.17247  -0.37782
  34   40323.9    248.0   0.031985665   0.26114   0.44625  -0.03632   0.24633

FINAL SINGLE POINT ENERGY     -5303.999759932622

DIPOLE MOMENT
-------------
                                X             Y             Z
Electronic contribution:      4.05579     -27.44232     -17.45693
Nuclear contribution   :     -7.36169      28.41605      17.60462
                        -----------------------------------------
Total Dipole Moment    :     -3.30590       0.97372       0.14768
                        -----------------------------------------
Magnitude (a.u.)       :      3.44948
Magnitude (Debye)      :      8.76788

Rotational constants in cm-1:     0.001695     0.000464     0.000372
Rotational constants in MHz :    50.819832    13.899743    11.165955

                             ****ORCA TERMINATED NORMALLY****
TOTAL RUN TIME: 0 days 0 hours 9 minutes 2 seconds 696 msec
