                         Program Version 4.2.0 -  RELEASE  -
|  1> # ORCA input file
|  2> # SCF done       -174.684135155999          0.000239953403
|  3> ! CAM-B3LYP def2-SVP def2/J RIJCOSX Grid4 TightSCF
|  4> %maxcore 5000
|  5> %tddft
|  6>     Mode sTDDFT
|  7>     Ethresh 5.0
|  8>     maxcore 5000
|  9> end
| 10>
| 11> %pal
| 12>   nprocs 6
| 13>   end
| 14> * xyz 0 1
| 15>    C        6.56803        -0.78390        -8.31673
| 16>    C        6.03812        -0.67352        -7.08995
| 17>    C        5.62909         0.52173        -6.41200
| 18>    C        5.12026         0.31531        -5.17550
| 19>    C        5.08776        -1.04820        -4.77710
| 20>    S        5.73369        -2.06882        -6.04267
| 21>    C        4.61912        -1.56077        -3.58555
| 22>    C        4.05922        -0.86420        -2.49297
| 23>    C        3.66871        -1.67353        -1.46829
| 24>    C        3.90671        -3.05262        -1.67902
| 25>    S        4.65001        -3.28079        -3.24998
| 26>    C        3.47234        -4.04429        -0.82014
| 27>    C        3.61309        -5.43067        -0.86451
| 28>    S        2.40182        -6.36312        -0.01555
| 29>    C        3.03122        -7.88996        -0.56839
| 30>    C        4.20737        -7.67664        -1.32884
| 31>    C        4.54859        -6.30256        -1.47819
| 32>    C        5.76534        -5.96258        -2.08757
| 33>    C        6.55517        -6.95657        -2.59966
| 34>    F        7.72543        -6.63859        -3.17907
| 35>    C        6.17547        -8.30928        -2.51662
| 36>    F        6.97772        -9.24520        -3.04884
| 37>    C        5.02202        -8.67814        -1.87831
| 38>    C        2.42503        -9.11049        -0.30254
| 39>    C        1.25940        -9.28857         0.40724
| 40>    C        0.68350       -10.55168         0.55845
| 41>    N       -0.51019       -10.78917         1.21229
| 42>    C       -1.31943        -9.79862         1.86704
| 43>    C       -0.88752       -12.13291         1.15855
| 44>    O       -1.91118       -12.56739         1.66240
| 45>    C        0.17309       -12.77516         0.41686
| 46>    C        1.12329       -11.79543         0.07174
| 47>    C        2.18218       -12.43739        -0.67302
| 48>    O        3.20874       -12.00423        -1.17234
| 49>    N        1.79919       -13.77857        -0.73689
| 50>    C        2.59940       -14.76568        -1.40770
| 51>    C        0.59165       -14.01123        -0.10679
| 52>    C       -0.05662       -15.24727        -0.08727
| 53>    C       -1.28165       -15.41191         0.51882
| 54>    C       -2.03775       -16.57614         0.49745
| 55>    S       -1.54097       -18.02457        -0.33321
| 56>    C       -3.04065       -18.85623        -0.00933
| 57>    C       -3.87414       -18.05213         0.81202
| 58>    C       -3.31604       -16.76973         1.07831
| 59>    C       -4.01121       -15.83577         1.86074
| 60>    C       -5.22035       -16.19545         2.39291
| 61>    F       -5.90704       -15.32538         3.15072
| 62>    C       -5.74993       -17.48129         2.17979
| 63>    F       -6.91675       -17.81475         2.75900
| 64>    C       -5.09648       -18.40310         1.40533
| 65>    C       -3.22865       -20.10141        -0.60753
| 66>    C       -4.41742       -20.77642        -0.78465
| 67>    C       -4.50504       -22.00541        -1.42811
| 68>    C       -5.69470       -22.65037        -1.70937
| 69>    C       -5.85641       -23.88410        -2.37436
| 70>    C       -7.15543       -24.26661        -2.54223
| 71>    C       -8.09255       -23.35135        -2.01561
| 72>    S       -7.26390       -21.99005        -1.28940
| 73>    C       -9.46971       -23.43550        -2.04001
| 74>    C      -10.25964       -24.46936        -2.61015
| 75>    C      -11.59438       -24.27840        -2.49533
| 76>    C      -11.96206       -23.06913        -1.81902
| 77>    S      -10.49417       -22.20090        -1.34244
| 78>    C      -13.19614       -22.61302        -1.55946
| 79>    H        6.73490         0.08884        -8.92302
| 80>    H        6.84010        -1.73709        -8.73124
| 81>    H        5.73492         1.48322        -6.88202
| 82>    H        4.76516         1.09699        -4.52764
| 83>    H        3.95191         0.20537        -2.49223
| 84>    H        3.21495        -1.32019        -0.55892
| 85>    H        2.82484        -3.68581        -0.02673
| 86>    H        6.10689        -4.94408        -2.13999
| 87>    H        4.76459        -9.72180        -1.79407
| 88>    H        2.90492        -9.98664        -0.71551
| 89>    H        0.76109        -8.43010         0.83672
| 90>    H       -1.66106        -9.04078         1.15861
| 91>    H       -0.76770        -9.31579         2.67621
| 92>    H       -2.18365       -10.31871         2.28060
| 93>    H        3.49027       -14.25529        -1.77410
| 94>    H        2.06092       -15.19960        -2.25310
| 95>    H        2.89567       -15.56047        -0.72013
| 96>    H        0.40447       -16.08723        -0.58895
| 97>    H       -1.71301       -14.56250         1.02978
| 98>    H       -3.60964       -14.85404         2.05401
| 99>    H       -5.52224       -19.38548         1.29780
|100>    H       -2.34212       -20.54233        -1.04861
|101>    H       -5.34628       -20.32213        -0.47396
|102>    H       -3.59329       -22.49485        -1.74543
|103>    H       -5.00834       -24.45273        -2.71366
|104>    H       -7.45876       -25.17551        -3.02981
|105>    H       -9.80861       -25.32040        -3.08888
|106>    H      -12.34694       -24.95094        -2.86670
|107>    H      -14.06330       -23.17061        -1.86629
|108>    H      -13.35847       -21.68580        -1.04136
|109> *
|110>
|111>                          ****END OF INPUT****

CARTESIAN COORDINATES (ANGSTROEM)
---------------------------------
  C      6.568030   -0.783900   -8.316730
  C      6.038120   -0.673520   -7.089950
  C      5.629090    0.521730   -6.412000
  C      5.120260    0.315310   -5.175500
  C      5.087760   -1.048200   -4.777100
  S      5.733690   -2.068820   -6.042670
  C      4.619120   -1.560770   -3.585550
  C      4.059220   -0.864200   -2.492970
  C      3.668710   -1.673530   -1.468290
  C      3.906710   -3.052620   -1.679020
  S      4.650010   -3.280790   -3.249980
  C      3.472340   -4.044290   -0.820140
  C      3.613090   -5.430670   -0.864510
  S      2.401820   -6.363120   -0.015550
  C      3.031220   -7.889960   -0.568390
  C      4.207370   -7.676640   -1.328840
  C      4.548590   -6.302560   -1.478190
  C      5.765340   -5.962580   -2.087570
  C      6.555170   -6.956570   -2.599660
  F      7.725430   -6.638590   -3.179070
  C      6.175470   -8.309280   -2.516620
  F      6.977720   -9.245200   -3.048840
  C      5.022020   -8.678140   -1.878310
  C      2.425030   -9.110490   -0.302540
  C      1.259400   -9.288570    0.407240
  C      0.683500  -10.551680    0.558450
  N     -0.510190  -10.789170    1.212290
  C     -1.319430   -9.798620    1.867040
  C     -0.887520  -12.132910    1.158550
  O     -1.911180  -12.567390    1.662400
  C      0.173090  -12.775160    0.416860
  C      1.123290  -11.795430    0.071740
  C      2.182180  -12.437390   -0.673020
  O      3.208740  -12.004230   -1.172340
  N      1.799190  -13.778570   -0.736890
  C      2.599400  -14.765680   -1.407700
  C      0.591650  -14.011230   -0.106790
  C     -0.056620  -15.247270   -0.087270
  C     -1.281650  -15.411910    0.518820
  C     -2.037750  -16.576140    0.497450
  S     -1.540970  -18.024570   -0.333210
  C     -3.040650  -18.856230   -0.009330
  C     -3.874140  -18.052130    0.812020
  C     -3.316040  -16.769730    1.078310
  C     -4.011210  -15.835770    1.860740
  C     -5.220350  -16.195450    2.392910
  F     -5.907040  -15.325380    3.150720
  C     -5.749930  -17.481290    2.179790
  F     -6.916750  -17.814750    2.759000
  C     -5.096480  -18.403100    1.405330
  C     -3.228650  -20.101410   -0.607530
  C     -4.417420  -20.776420   -0.784650
  C     -4.505040  -22.005410   -1.428110
  C     -5.694700  -22.650370   -1.709370
  C     -5.856410  -23.884100   -2.374360
  C     -7.155430  -24.266610   -2.542230
  C     -8.092550  -23.351350   -2.015610
  S     -7.263900  -21.990050   -1.289400
  C     -9.469710  -23.435500   -2.040010
  C    -10.259640  -24.469360   -2.610150
  C    -11.594380  -24.278400   -2.495330
  C    -11.962060  -23.069130   -1.819020
  S    -10.494170  -22.200900   -1.342440
  C    -13.196140  -22.613020   -1.559460
  H      6.734900    0.088840   -8.923020
  H      6.840100   -1.737090   -8.731240
  H      5.734920    1.483220   -6.882020
  H      4.765160    1.096990   -4.527640
  H      3.951910    0.205370   -2.492230
  H      3.214950   -1.320190   -0.558920
  H      2.824840   -3.685810   -0.026730
  H      6.106890   -4.944080   -2.139990
  H      4.764590   -9.721800   -1.794070
  H      2.904920   -9.986640   -0.715510
  H      0.761090   -8.430100    0.836720
  H     -1.661060   -9.040780    1.158610
  H     -0.767700   -9.315790    2.676210
  H     -2.183650  -10.318710    2.280600
  H      3.490270  -14.255290   -1.774100
  H      2.060920  -15.199600   -2.253100
  H      2.895670  -15.560470   -0.720130
  H      0.404470  -16.087230   -0.588950
  H     -1.713010  -14.562500    1.029780
  H     -3.609640  -14.854040    2.054010
  H     -5.522240  -19.385480    1.297800
  H     -2.342120  -20.542330   -1.048610
  H     -5.346280  -20.322130   -0.473960
  H     -3.593290  -22.494850   -1.745430
  H     -5.008340  -24.452730   -2.713660
  H     -7.458760  -25.175510   -3.029810
  H     -9.808610  -25.320400   -3.088880
  H    -12.346940  -24.950940   -2.866700
  H    -14.063300  -23.170610   -1.866290
  H    -13.358470  -21.685800   -1.041360

 Total Charge           Charge          ....    0
 Multiplicity           Mult            ....    1
 Number of Electrons    NEL             ....  492
 Basis Dimension        Dim             .... 1070

ORBITAL ENERGIES
----------------

  NO   OCC          E(Eh)            E(eV)
   0   2.0000     -88.960715     -2420.7441
   1   2.0000     -88.960007     -2420.7249
   2   2.0000     -88.947111     -2420.3739
   3   2.0000     -88.944099     -2420.2920
   4   2.0000     -88.940497     -2420.1940
   5   2.0000     -88.939884     -2420.1773
   6   2.0000     -24.778057      -674.2452
   7   2.0000     -24.777066      -674.2183
   8   2.0000     -24.775876      -674.1859
   9   2.0000     -24.775644      -674.1796
  10   2.0000     -19.175049      -521.7796
  11   2.0000     -19.174891      -521.7753
  12   2.0000     -14.439744      -392.9254
  13   2.0000     -14.439724      -392.9249
  14   2.0000     -10.359601      -281.8991
  15   2.0000     -10.359224      -281.8888
  16   2.0000     -10.358043      -281.8567
  17   2.0000     -10.357866      -281.8519
  18   2.0000     -10.357708      -281.8476
  19   2.0000     -10.356953      -281.8270
  20   2.0000     -10.318052      -280.7685
  21   2.0000     -10.317998      -280.7670
  22   2.0000     -10.313277      -280.6385
  23   2.0000     -10.312768      -280.6247
  24   2.0000     -10.312489      -280.6171
  25   2.0000     -10.312236      -280.6102
  26   2.0000     -10.311346      -280.5860
  27   2.0000     -10.309093      -280.5247
  28   2.0000     -10.309089      -280.5246
  29   2.0000     -10.308021      -280.4955
  30   2.0000     -10.307380      -280.4781
  31   2.0000     -10.307343      -280.4771
  32   2.0000     -10.299470      -280.2628
  33   2.0000     -10.299317      -280.2587
  34   2.0000     -10.294515      -280.1280
  35   2.0000     -10.294472      -280.1268
  36   2.0000     -10.291100      -280.0351
  37   2.0000     -10.290445      -280.0172
  38   2.0000     -10.288889      -279.9749
  39   2.0000     -10.288632      -279.9679
  40   2.0000     -10.288545      -279.9655
  41   2.0000     -10.288451      -279.9630
  42   2.0000     -10.288195      -279.9560
  43   2.0000     -10.287826      -279.9460
  44   2.0000     -10.287760      -279.9442
  45   2.0000     -10.287043      -279.9247
  46   2.0000     -10.286071      -279.8982
  47   2.0000     -10.284776      -279.8630
  48   2.0000     -10.283686      -279.8333
  49   2.0000     -10.283659      -279.8326
  50   2.0000     -10.282755      -279.8080
  51   2.0000     -10.280732      -279.7529
  52   2.0000     -10.278560      -279.6938
  53   2.0000     -10.278532      -279.6931
  54   2.0000     -10.277666      -279.6695
  55   2.0000     -10.277487      -279.6646
  56   2.0000     -10.277176      -279.6562
  57   2.0000     -10.276648      -279.6418
  58   2.0000     -10.272828      -279.5379
  59   2.0000     -10.272407      -279.5264
  60   2.0000     -10.272227      -279.5215
  61   2.0000     -10.271973      -279.5146
  62   2.0000     -10.244503      -278.7671
  63   2.0000     -10.244164      -278.7579
  64   2.0000      -8.055907      -219.2124
  65   2.0000      -8.055165      -219.1922
  66   2.0000      -8.043168      -218.8657
  67   2.0000      -8.040326      -218.7884
  68   2.0000      -8.037272      -218.7053
  69   2.0000      -8.036697      -218.6897
  70   2.0000      -6.024864      -163.9449
  71   2.0000      -6.024191      -163.9266
  72   2.0000      -6.021037      -163.8407
  73   2.0000      -6.020312      -163.8210
  74   2.0000      -6.018479      -163.7711
  75   2.0000      -6.017668      -163.7491
  76   2.0000      -6.012896      -163.6192
  77   2.0000      -6.010025      -163.5411
  78   2.0000      -6.008805      -163.5079
  79   2.0000      -6.007084      -163.4611
  80   2.0000      -6.006498      -163.4451
  81   2.0000      -6.006097      -163.4342
  82   2.0000      -6.004094      -163.3797
  83   2.0000      -6.003131      -163.3535
  84   2.0000      -6.002561      -163.3380
  85   2.0000      -6.001238      -163.3020
  86   2.0000      -5.997822      -163.2090
  87   2.0000      -5.997252      -163.1935
  88   2.0000      -1.299298       -35.3557
  89   2.0000      -1.297582       -35.3090
  90   2.0000      -1.284343       -34.9487
  91   2.0000      -1.282633       -34.9022
  92   2.0000      -1.117007       -30.3953
  93   2.0000      -1.110283       -30.2123
  94   2.0000      -1.046379       -28.4734
  95   2.0000      -1.038492       -28.2588
  96   2.0000      -0.998601       -27.1733
  97   2.0000      -0.996929       -27.1278
  98   2.0000      -0.993575       -27.0365
  99   2.0000      -0.992540       -27.0084
 100   2.0000      -0.971129       -26.4258
 101   2.0000      -0.970786       -26.4164
 102   2.0000      -0.937330       -25.5061
 103   2.0000      -0.935596       -25.4588
 104   2.0000      -0.916477       -24.9386
 105   2.0000      -0.910185       -24.7674
 106   2.0000      -0.904211       -24.6048
 107   2.0000      -0.894388       -24.3375
 108   2.0000      -0.883460       -24.0402
 109   2.0000      -0.874629       -23.7999
 110   2.0000      -0.866137       -23.5688
 111   2.0000      -0.860771       -23.4228
 112   2.0000      -0.849084       -23.1048
 113   2.0000      -0.845330       -23.0026
 114   2.0000      -0.844159       -22.9707
 115   2.0000      -0.839523       -22.8446
 116   2.0000      -0.831651       -22.6304
 117   2.0000      -0.829642       -22.5757
 118   2.0000      -0.827603       -22.5202
 119   2.0000      -0.821912       -22.3654
 120   2.0000      -0.819397       -22.2969
 121   2.0000      -0.812950       -22.1215
 122   2.0000      -0.809006       -22.0142
 123   2.0000      -0.788255       -21.4495
 124   2.0000      -0.782797       -21.3010
 125   2.0000      -0.754975       -20.5439
 126   2.0000      -0.752871       -20.4867
 127   2.0000      -0.746833       -20.3224
 128   2.0000      -0.729676       -19.8555
 129   2.0000      -0.728138       -19.8136
 130   2.0000      -0.726491       -19.7688
 131   2.0000      -0.723020       -19.6744
 132   2.0000      -0.701993       -19.1022
 133   2.0000      -0.695662       -18.9299
 134   2.0000      -0.688692       -18.7403
 135   2.0000      -0.682358       -18.5679
 136   2.0000      -0.676875       -18.4187
 137   2.0000      -0.672309       -18.2944
 138   2.0000      -0.664553       -18.0834
 139   2.0000      -0.656345       -17.8601
 140   2.0000      -0.652766       -17.7627
 141   2.0000      -0.646327       -17.5874
 142   2.0000      -0.637235       -17.3400
 143   2.0000      -0.635201       -17.2847
 144   2.0000      -0.632197       -17.2030
 145   2.0000      -0.623373       -16.9629
 146   2.0000      -0.618994       -16.8437
 147   2.0000      -0.617025       -16.7901
 148   2.0000      -0.616511       -16.7761
 149   2.0000      -0.610224       -16.6050
 150   2.0000      -0.601672       -16.3723
 151   2.0000      -0.600670       -16.3451
 152   2.0000      -0.600214       -16.3327
 153   2.0000      -0.599226       -16.3058
 154   2.0000      -0.595754       -16.2113
 155   2.0000      -0.593038       -16.1374
 156   2.0000      -0.589966       -16.0538
 157   2.0000      -0.578105       -15.7310
 158   2.0000      -0.569492       -15.4967
 159   2.0000      -0.568624       -15.4731
 160   2.0000      -0.564754       -15.3677
 161   2.0000      -0.562971       -15.3192
 162   2.0000      -0.558896       -15.2083
 163   2.0000      -0.557680       -15.1752
 164   2.0000      -0.553657       -15.0658
 165   2.0000      -0.547060       -14.8863
 166   2.0000      -0.544864       -14.8265
 167   2.0000      -0.540632       -14.7114
 168   2.0000      -0.538367       -14.6497
 169   2.0000      -0.534636       -14.5482
 170   2.0000      -0.531620       -14.4661
 171   2.0000      -0.529348       -14.4043
 172   2.0000      -0.526421       -14.3247
 173   2.0000      -0.524788       -14.2802
 174   2.0000      -0.523320       -14.2403
 175   2.0000      -0.520420       -14.1614
 176   2.0000      -0.516292       -14.0490
 177   2.0000      -0.513609       -13.9760
 178   2.0000      -0.509500       -13.8642
 179   2.0000      -0.505885       -13.7658
 180   2.0000      -0.504977       -13.7411
 181   2.0000      -0.501145       -13.6368
 182   2.0000      -0.499266       -13.5857
 183   2.0000      -0.499107       -13.5814
 184   2.0000      -0.496464       -13.5095
 185   2.0000      -0.495393       -13.4803
 186   2.0000      -0.493991       -13.4422
 187   2.0000      -0.491790       -13.3823
 188   2.0000      -0.491127       -13.3642
 189   2.0000      -0.486854       -13.2480
 190   2.0000      -0.485493       -13.2109
 191   2.0000      -0.481571       -13.1042
 192   2.0000      -0.479958       -13.0603
 193   2.0000      -0.475771       -12.9464
 194   2.0000      -0.473982       -12.8977
 195   2.0000      -0.470490       -12.8027
 196   2.0000      -0.468668       -12.7531
 197   2.0000      -0.467365       -12.7176
 198   2.0000      -0.463662       -12.6169
 199   2.0000      -0.462552       -12.5867
 200   2.0000      -0.459157       -12.4943
 201   2.0000      -0.457789       -12.4571
 202   2.0000      -0.457471       -12.4484
 203   2.0000      -0.456159       -12.4127
 204   2.0000      -0.453792       -12.3483
 205   2.0000      -0.452149       -12.3036
 206   2.0000      -0.443083       -12.0569
 207   2.0000      -0.442661       -12.0454
 208   2.0000      -0.437282       -11.8990
 209   2.0000      -0.432778       -11.7765
 210   2.0000      -0.431561       -11.7434
 211   2.0000      -0.429638       -11.6910
 212   2.0000      -0.425933       -11.5902
 213   2.0000      -0.425314       -11.5734
 214   2.0000      -0.423029       -11.5112
 215   2.0000      -0.420696       -11.4477
 216   2.0000      -0.418928       -11.3996
 217   2.0000      -0.416487       -11.3332
 218   2.0000      -0.412674       -11.2294
 219   2.0000      -0.411170       -11.1885
 220   2.0000      -0.406009       -11.0481
 221   2.0000      -0.400366       -10.8945
 222   2.0000      -0.399039       -10.8584
 223   2.0000      -0.397116       -10.8061
 224   2.0000      -0.393076       -10.6961
 225   2.0000      -0.387267       -10.5381
 226   2.0000      -0.372133       -10.1263
 227   2.0000      -0.355704        -9.6792
 228   2.0000      -0.338626        -9.2145
 229   2.0000      -0.337628        -9.1873
 230   2.0000      -0.333925        -9.0866
 231   2.0000      -0.332830        -9.0568
 232   2.0000      -0.331898        -9.0314
 233   2.0000      -0.327078        -8.9002
 234   2.0000      -0.325499        -8.8573
 235   2.0000      -0.318221        -8.6592
 236   2.0000      -0.315795        -8.5932
 237   2.0000      -0.308122        -8.3844
 238   2.0000      -0.306408        -8.3378
 239   2.0000      -0.305434        -8.3113
 240   2.0000      -0.301438        -8.2025
 241   2.0000      -0.270986        -7.3739
 242   2.0000      -0.261168        -7.1068
 243   2.0000      -0.232199        -6.3185
 244   2.0000      -0.211532        -5.7561
 245   2.0000      -0.185645        -5.0517
 246   0.0000      -0.101507        -2.7622
 247   0.0000      -0.080961        -2.2030
 248   0.0000      -0.049548        -1.3483
 249   0.0000      -0.034983        -0.9519
 250   0.0000      -0.013280        -0.3614

MULLIKEN ATOMIC CHARGES
-----------------------
   0 C :   -0.024726
   1 C :   -0.065843
   2 C :    0.052132
   3 C :    0.030156
   4 C :   -0.063400
   5 S :    0.090302
   6 C :   -0.057482
   7 C :    0.032182
   8 C :    0.027717
   9 C :   -0.032044
  10 S :    0.089572
  11 C :   -0.011475
  12 C :   -0.114539
  13 S :    0.135510
  14 C :   -0.080112
  15 C :    0.116945
  16 C :    0.132273
  17 C :   -0.121319
  18 C :    0.217590
  19 F :   -0.181684
  20 C :    0.230289
  21 F :   -0.176501
  22 C :   -0.125447
  23 C :   -0.001639
  24 C :   -0.059403
  25 C :    0.154123
  26 N :   -0.266579
  27 C :    0.120923
  28 C :    0.159246
  29 O :   -0.233235
  30 C :   -0.078014
  31 C :   -0.078717
  32 C :    0.160852
  33 O :   -0.233017
  34 N :   -0.266290
  35 C :    0.120861
  36 C :    0.155980
  37 C :   -0.061940
  38 C :   -0.004116
  39 C :   -0.082794
  40 S :    0.138764
  41 C :   -0.095744
  42 C :    0.129129
  43 C :    0.119631
  44 C :   -0.118034
  45 C :    0.226825
  46 F :   -0.177195
  47 C :    0.224265
  48 F :   -0.181103
  49 C :   -0.125117
  50 C :    0.021448
  51 C :   -0.009063
  52 C :   -0.012997
  53 C :   -0.020472
  54 C :    0.035058
  55 C :    0.024956
  56 C :   -0.044320
  57 S :    0.071108
  58 C :   -0.063606
  59 C :    0.026882
  60 C :    0.055285
  61 C :   -0.069114
  62 S :    0.088361
  63 C :   -0.023152
  64 H :    0.022109
  65 H :    0.025883
  66 H :   -0.009749
  67 H :   -0.010754
  68 H :   -0.012924
  69 H :   -0.011634
  70 H :   -0.008845
  71 H :   -0.003785
  72 H :    0.016119
  73 H :    0.014551
  74 H :   -0.037607
  75 H :    0.031100
  76 H :    0.030581
  77 H :    0.055853
  78 H :    0.055940
  79 H :    0.031108
  80 H :    0.030813
  81 H :   -0.037535
  82 H :    0.016711
  83 H :    0.015777
  84 H :   -0.010883
  85 H :   -0.018155
  86 H :    0.009233
  87 H :   -0.018071
  88 H :   -0.014155
  89 H :   -0.014153
  90 H :   -0.011543
  91 H :   -0.010445
  92 H :    0.021573
  93 H :    0.024757
Sum of atomic charges:   -0.0000000

LOEWDIN ATOMIC CHARGES
----------------------
   0 C :   -0.068956
   1 C :   -0.140305
   2 C :   -0.027867
   3 C :   -0.027639
   4 C :   -0.172578
   5 S :    0.360344
   6 C :   -0.185567
   7 C :   -0.033066
   8 C :   -0.036616
   9 C :   -0.147344
  10 S :    0.400567
  11 C :   -0.090921
  12 C :   -0.156128
  13 S :    0.456455
  14 C :   -0.181170
  15 C :   -0.028872
  16 C :   -0.054385
  17 C :   -0.046637
  18 C :    0.059975
  19 F :   -0.058907
  20 C :    0.064355
  21 F :   -0.055280
  22 C :   -0.032255
  23 C :    0.003116
  24 C :   -0.069612
  25 C :    0.063549
  26 N :   -0.007013
  27 C :    0.028265
  28 C :    0.075876
  29 O :   -0.224223
  30 C :   -0.122027
  31 C :   -0.121887
  32 C :    0.076195
  33 O :   -0.223825
  34 N :   -0.006899
  35 C :    0.028256
  36 C :    0.063771
  37 C :   -0.070591
  38 C :    0.002924
  39 C :   -0.182313
  40 S :    0.459233
  41 C :   -0.153006
  42 C :   -0.048562
  43 C :   -0.029191
  44 C :   -0.029881
  45 C :    0.063703
  46 F :   -0.055116
  47 C :    0.061068
  48 F :   -0.059217
  49 C :   -0.040227
  50 C :   -0.053980
  51 C :   -0.026246
  52 C :   -0.061816
  53 C :   -0.141391
  54 C :   -0.038420
  55 C :   -0.029574
  56 C :   -0.182709
  57 S :    0.372473
  58 C :   -0.173349
  59 C :   -0.027789
  60 C :   -0.029049
  61 C :   -0.140532
  62 S :    0.359478
  63 C :   -0.070186
  64 H :    0.029688
  65 H :    0.028040
  66 H :    0.034139
  67 H :    0.032826
  68 H :    0.031863
  69 H :    0.033160
  70 H :    0.034670
  71 H :    0.026223
  72 H :    0.050841
  73 H :    0.040593
  74 H :    0.019651
  75 H :    0.025087
  76 H :    0.025095
  77 H :    0.040176
  78 H :    0.040227
  79 H :    0.024849
  80 H :    0.025381
  81 H :    0.019359
  82 H :    0.040621
  83 H :    0.051098
  84 H :    0.039261
  85 H :    0.028482
  86 H :    0.022116
  87 H :    0.032070
  88 H :    0.033210
  89 H :    0.031329
  90 H :    0.032489
  91 H :    0.033932
  92 H :    0.029431
  93 H :    0.027611

  Mayer bond orders larger than 0.100000
B(  0-C ,  1-C ) :   1.8583 B(  0-C , 64-H ) :   0.9511 B(  0-C , 65-H ) :   0.9417
B(  1-C ,  2-C ) :   1.0837 B(  1-C ,  5-S ) :   1.0074 B(  2-C ,  3-C ) :   1.6515
B(  2-C , 66-H ) :   0.9935 B(  3-C ,  4-C ) :   1.1620 B(  3-C , 67-H ) :   0.9922
B(  4-C ,  5-S ) :   1.0549 B(  4-C ,  6-C ) :   1.5281 B(  6-C ,  7-C ) :   1.1868
B(  6-C , 10-S ) :   1.0372 B(  7-C ,  8-C ) :   1.5797 B(  7-C , 68-H ) :   0.9927
B(  8-C ,  9-C ) :   1.1616 B(  8-C , 69-H ) :   0.9977 B(  9-C , 10-S ) :   1.0421
B(  9-C , 11-C ) :   1.5555 B( 11-C , 12-C ) :   1.2223 B( 11-C , 70-H ) :   0.9403
B( 12-C , 13-S ) :   1.1450 B( 12-C , 16-C ) :   1.2826 B( 13-S , 14-C ) :   1.0990
B( 14-C , 15-C ) :   1.2656 B( 14-C , 23-C ) :   1.2812 B( 15-C , 16-C ) :   1.2313
B( 15-C , 22-C ) :   1.1978 B( 16-C , 17-C ) :   1.1747 B( 17-C , 18-C ) :   1.4995
B( 17-C , 22-C ) :   0.1117 B( 17-C , 71-H ) :   0.9785 B( 18-C , 19-F ) :   1.1217
B( 18-C , 20-C ) :   1.1735 B( 20-C , 21-F ) :   1.1354 B( 20-C , 22-C ) :   1.4662
B( 22-C , 72-H ) :   1.0006 B( 23-C , 24-C ) :   1.4634 B( 23-C , 73-H ) :   0.9446
B( 24-C , 25-C ) :   1.2423 B( 24-C , 74-H ) :   0.9671 B( 25-C , 26-N ) :   1.1373
B( 25-C , 31-C ) :   1.2809 B( 26-N , 27-C ) :   0.9727 B( 26-N , 28-C ) :   1.0796
B( 27-C , 75-H ) :   0.9722 B( 27-C , 76-H ) :   0.9730 B( 27-C , 77-H ) :   0.9525
B( 28-C , 29-O ) :   1.9920 B( 28-C , 30-C ) :   1.0112 B( 29-O , 82-H ) :   0.1080
B( 30-C , 31-C ) :   1.2902 B( 30-C , 36-C ) :   1.2789 B( 31-C , 32-C ) :   1.0113
B( 32-C , 33-O ) :   1.9884 B( 32-C , 34-N ) :   1.0810 B( 33-O , 73-H ) :   0.1091
B( 34-N , 35-C ) :   0.9727 B( 34-N , 36-C ) :   1.1365 B( 35-C , 78-H ) :   0.9525
B( 35-C , 79-H ) :   0.9720 B( 35-C , 80-H ) :   0.9730 B( 36-C , 37-C ) :   1.2461
B( 37-C , 38-C ) :   1.4625 B( 37-C , 81-H ) :   0.9654 B( 38-C , 39-C ) :   1.2831
B( 38-C , 82-H ) :   0.9448 B( 39-C , 40-S ) :   1.0992 B( 39-C , 43-C ) :   1.2592
B( 40-S , 41-C ) :   1.1451 B( 41-C , 42-C ) :   1.2726 B( 41-C , 50-C ) :   1.2252
B( 42-C , 43-C ) :   1.2359 B( 42-C , 49-C ) :   1.1802 B( 43-C , 44-C ) :   1.2014
B( 44-C , 45-C ) :   1.4647 B( 44-C , 49-C ) :   0.1122 B( 44-C , 83-H ) :   1.0003
B( 45-C , 46-F ) :   1.1336 B( 45-C , 47-C ) :   1.1760 B( 47-C , 48-F ) :   1.1247
B( 47-C , 49-C ) :   1.4792 B( 49-C , 84-H ) :   0.9954 B( 50-C , 51-C ) :   1.5424
B( 50-C , 85-H ) :   0.9556 B( 51-C , 52-C ) :   1.2251 B( 51-C , 86-H ) :   0.9669
B( 52-C , 53-C ) :   1.4995 B( 52-C , 87-H ) :   0.9848 B( 53-C , 54-C ) :   1.1658
B( 53-C , 57-S ) :   1.0438 B( 54-C , 55-C ) :   1.5703 B( 54-C , 88-H ) :   0.9999
B( 55-C , 56-C ) :   1.1970 B( 55-C , 89-H ) :   0.9928 B( 56-C , 57-S ) :   1.0410
B( 56-C , 58-C ) :   1.5213 B( 58-C , 59-C ) :   1.1651 B( 58-C , 62-S ) :   1.0538
B( 59-C , 60-C ) :   1.6505 B( 59-C , 90-H ) :   0.9915 B( 60-C , 61-C ) :   1.0837
B( 60-C , 91-H ) :   0.9931 B( 61-C , 62-S ) :   1.0083 B( 61-C , 63-C ) :   1.8583
B( 63-C , 92-H ) :   0.9508 B( 63-C , 93-H ) :   0.9415

-----------------------------------------------------------------------------
         ABSORPTION SPECTRUM VIA TRANSITION ELECTRIC DIPOLE MOMENTS
-----------------------------------------------------------------------------
State   Energy  Wavelength   fosc         T2         TX        TY        TZ
        (cm-1)    (nm)                  (au**2)     (au)      (au)      (au)
-----------------------------------------------------------------------------
   0    6890.9   1451.2   1.876874764  89.66707   5.13417   7.89647  -0.97623
   1   12203.8    819.4   0.203458083   5.48854  -1.25557   0.43216  -1.93011
   2   13072.6    765.0   0.269302257   6.78192   1.60846  -0.30804   2.02482
   3   16062.3    622.6   0.169258535   3.46912   1.28447   0.91147  -0.99422
   4   18179.9    550.1   0.221595109   4.01277   1.67806   0.87306  -0.65929
   5   19937.7    501.6   0.043542227   0.71897  -0.61027  -0.12710  -0.57479
   6   20025.2    499.4   0.038461307   0.63230  -0.20392  -0.46979   0.60829
   7   22039.9    453.7   0.093825939   1.40149  -0.03839   1.07536  -0.49357
   8   22497.9    444.5   0.106828820   1.56323   0.92018  -0.06983   0.84357
   9   23654.4    422.8   0.049269333   0.68571  -0.67250   0.21847  -0.43095
  10   25061.4    399.0   0.077761915   1.02150   0.47495  -0.21232  -0.86651
  11   25500.7    392.1   0.051977594   0.67103  -0.57738   0.31856  -0.48598
  12   27002.3    370.3   0.000449111   0.00548  -0.06149   0.03682  -0.01842
  13   27684.3    361.2   0.144080808   1.71336  -0.85181   0.51198   0.85185
  14   28172.1    355.0   0.008262937   0.09656   0.23921   0.11269  -0.16322
  15   28345.6    352.8   0.025682591   0.29828  -0.13611   0.04638   0.52688
  16   29244.4    341.9   0.077187391   0.86892   0.77339  -0.33513  -0.39808
  17   29643.5    337.3   0.000745918   0.00828   0.03773  -0.02237   0.07975
  18   30100.8    332.2   0.077300054   0.84543  -0.79222  -0.01049   0.46659
  19   30419.4    328.7   0.015138752   0.16384   0.17925   0.07520   0.35504
  20   30695.1    325.8   0.130198458   1.39641  -1.02588  -0.28066   0.51498
  21   30829.9    324.4   0.056599994   0.60439   0.51331  -0.56943  -0.12904
  22   31014.4    322.4   0.166096598   1.76308   0.95470  -0.33669  -0.85922
  23   31452.2    317.9   0.061538558   0.64413   0.45516  -0.56626  -0.34103
  24   31839.6    314.1   0.007968257   0.08239   0.04347   0.11715   0.25841
  25   32151.8    311.0   0.063058064   0.64567  -0.49438   0.39069   0.49861
  26   32427.7    308.4   0.000049272   0.00050  -0.01514  -0.00075   0.01645
  27   33396.6    299.4   0.253194567   2.49591   1.29710  -0.19978  -0.87951
  28   33632.8    297.3   0.002049643   0.02006   0.09497   0.10506   0.00238
  29   33784.1    296.0   0.008557777   0.08339   0.24457   0.08271  -0.12937
  30   34023.4    293.9   0.047348948   0.45815   0.49545   0.42133  -0.18750
  31   34193.7    292.5   0.101543215   0.97764   0.01951  -0.89906  -0.41103
  32   34371.4    290.9   0.084265429   0.80710  -0.63169   0.29177   0.56828
  33   34549.6    289.4   0.023992398   0.22862   0.37943  -0.22288  -0.18701
  34   34977.5    285.9   0.168639834   1.58725   1.04165  -0.09056  -0.70287
  35   35471.4    281.9   0.052332508   0.48570   0.34698  -0.52402  -0.30118
  36   35884.2    278.7   0.069954845   0.64179  -0.50688  -0.61986   0.02525
  37   36137.1    276.7   0.004519500   0.04117  -0.04761  -0.14018   0.13876
  38   36460.5    274.3   0.011989335   0.10826  -0.21593   0.24450   0.04298
  39   37007.7    270.2   0.016998107   0.15121   0.16781  -0.21956   0.27358
  40   37150.2    269.2   0.043460729   0.38513   0.36704   0.48814   0.11018
  41   37239.6    268.5   0.016555464   0.14636  -0.29931   0.19747  -0.13331
  42   37370.4    267.6   0.000403923   0.00356  -0.03770  -0.04050   0.02229
  43   37514.2    266.6   0.176065467   1.54509   0.85644   0.28129  -0.85584
  44   37571.4    266.2   0.084986046   0.74467  -0.86166   0.00457   0.04695
  45   37921.1    263.7   0.034399970   0.29864  -0.41119  -0.34603   0.09914
  46   38234.6    261.5   0.058684654   0.50529  -0.52451   0.03820   0.47825
  47   38510.4    259.7   0.094492312   0.80778   0.76519   0.09238  -0.46231
  48   39135.9    255.5   0.208244740   1.75176   1.15029   0.01314  -0.65454
  49   39369.8    254.0   0.095072680   0.79500  -0.72977  -0.32611   0.39508
  50   39539.0    252.9   0.043591877   0.36296  -0.32134  -0.23857   0.45031
  51   39982.4    250.1   0.012709534   0.10465  -0.25864   0.02236   0.19301

FINAL SINGLE POINT ENERGY     -4967.827122052966

DIPOLE MOMENT
-------------
                                X             Y             Z
Electronic contribution:     15.71392       8.94412      13.10113
Nuclear contribution   :    -16.60901      -8.82129     -14.37166
                        -----------------------------------------
Total Dipole Moment    :     -0.89509       0.12282      -1.27053
                        -----------------------------------------
Magnitude (a.u.)       :      1.55901
Magnitude (Debye)      :      3.96269

Rotational constants in cm-1:     0.002111     0.000196     0.000195
Rotational constants in MHz :    63.278301     5.868128     5.855734

                             ****ORCA TERMINATED NORMALLY****
TOTAL RUN TIME: 0 days 0 hours 8 minutes 42 seconds 202 msec
