                         Program Version 4.2.0 -  RELEASE  -
|  1> # ORCA input file
|  2> # SCF done       -162.378309421488          0.000289159918
|  3> ! CAM-B3LYP def2-SVP def2/J RIJCOSX Grid4 TightSCF
|  4> %maxcore 5000
|  5> %tddft
|  6>     Mode sTDDFT
|  7>     Ethresh 5.0
|  8>     maxcore 5000
|  9> end
| 10>
| 11> %pal
| 12>   nprocs 6
| 13>   end
| 14> * xyz 0 1
| 15>    C       14.38387        -9.00835         5.92671
| 16>    C       13.81282        -8.11717         5.10435
| 17>    C       14.32890        -6.84515         4.68875
| 18>    C       13.51700        -6.16064         3.85167
| 19>    C       12.30205        -6.83084         3.53885
| 20>    S       12.23048        -8.37593         4.35208
| 21>    C       11.28706        -6.37698         2.72321
| 22>    C       11.20915        -5.15438         2.02058
| 23>    C       10.05957        -5.00083         1.30462
| 24>    C        9.16142        -6.09002         1.39362
| 25>    S        9.84243        -7.32542         2.43228
| 26>    C        7.93722        -6.15841         0.75895
| 27>    C        6.99874        -7.18530         0.77818
| 28>    N        7.08275        -8.39575         1.43863
| 29>    C        5.96824        -9.20726         1.23756
| 30>    O        5.83304       -10.31346         1.71974
| 31>    C        5.11278        -8.41418         0.37049
| 32>    C        5.76394        -7.19508         0.11152
| 33>    C        4.92114        -6.39057        -0.75641
| 34>    O        5.06792        -5.28631        -1.23383
| 35>    N        3.80388        -7.20395        -0.95823
| 36>    C        3.88366        -8.41619        -0.30639
| 37>    C        2.88576        -9.39344        -0.38222
| 38>    C        2.98501       -10.60341         0.26058
| 39>    C        1.99888       -11.59055         0.15892
| 40>    N        2.09284       -12.81689         0.78293
| 41>    C        1.00757       -13.65591         0.52342
| 42>    O        0.87965       -14.77778         0.96200
| 43>    C        0.16476       -12.84972        -0.34556
| 44>    C        0.78715       -11.60268        -0.54709
| 45>    C       -0.06553       -10.80900        -1.41576
| 46>    O        0.05212        -9.68483        -1.86120
| 47>    N       -1.14817       -11.64704        -1.67360
| 48>    C       -1.04107       -12.87654        -1.05384
| 49>    C       -1.95279       -13.93472        -1.13534
| 50>    C       -3.13101       -13.91605        -1.83912
| 51>    C       -4.03717       -14.97858        -1.92918
| 52>    N       -3.90199       -16.22849        -1.36160
| 53>    C       -4.98465       -17.07361        -1.62581
| 54>    O       -5.07563       -18.21415        -1.22832
| 55>    C       -5.86639       -16.24834        -2.43423
| 56>    C       -5.26348       -14.98901        -2.60369
| 57>    C       -6.15092       -14.15619        -3.39861
| 58>    O       -6.05539       -13.01658        -3.79856
| 59>    N       -7.24392       -14.99042        -3.64340
| 60>    C       -7.10967       -16.24609        -3.08169
| 61>    C       -8.04144       -17.28274        -3.14095
| 62>    C       -9.28518       -17.21147        -3.72881
| 63>    C      -10.18703       -18.27011        -3.74186
| 64>    C      -11.45808       -18.20714        -4.27928
| 65>    C      -12.41595       -19.24473        -4.30977
| 66>    C      -13.60307       -18.89684        -4.88320
| 67>    C      -13.64732       -17.56021        -5.33847
| 68>    S      -12.12047       -16.76352        -5.01901
| 69>    C      -14.69989       -16.90371        -5.94175
| 70>    C      -15.98531       -17.43365        -6.24058
| 71>    C      -16.82777       -16.55226        -6.82555
| 72>    C      -16.26727       -15.24894        -7.03524
| 73>    S      -14.59941       -15.23139        -6.43916
| 74>    C      -16.85764       -14.17799        -7.58420
| 75>    H       15.34676        -8.81280         6.36459
| 76>    H       13.90479        -9.93792         6.17398
| 77>    H       15.28626        -6.50076         5.03696
| 78>    H       13.74469        -5.19268         3.44222
| 79>    H       11.99624        -4.42350         2.06214
| 80>    H        9.82466        -4.13591         0.71028
| 81>    H        7.65447        -5.30374         0.15881
| 82>    H        7.86153        -8.68729         2.00806
| 83>    H        3.01866        -6.93098        -1.52925
| 84>    H        2.00985        -9.17881        -0.98091
| 85>    H        3.85817       -10.81729         0.86323
| 86>    H        2.87201       -13.08628         1.36377
| 87>    H       -1.91846       -11.36806        -2.26014
| 88>    H       -1.66128       -14.81587        -0.58117
| 89>    H       -3.43047       -13.02943        -2.38026
| 90>    H       -3.11037       -16.52313        -0.81236
| 91>    H       -8.03880       -14.68959        -4.18379
| 92>    H       -7.73906       -18.20170        -2.65833
| 93>    H       -9.60498       -16.28893        -4.19773
| 94>    H       -9.88715       -19.20834        -3.29432
| 95>    H      -12.19953       -20.21703        -3.90370
| 96>    H      -14.44124       -19.56198        -4.98659
| 97>    H      -16.23958       -18.45242        -6.00844
| 98>    H      -17.83847       -16.76956        -7.12167
| 99>    H      -17.87402       -14.22997        -7.93254
|100>    H      -16.34198       -13.24164        -7.69342
|101> *
|102>
|103>                          ****END OF INPUT****

CARTESIAN COORDINATES (ANGSTROEM)
---------------------------------
  C     14.383870   -9.008350    5.926710
  C     13.812820   -8.117170    5.104350
  C     14.328900   -6.845150    4.688750
  C     13.517000   -6.160640    3.851670
  C     12.302050   -6.830840    3.538850
  S     12.230480   -8.375930    4.352080
  C     11.287060   -6.376980    2.723210
  C     11.209150   -5.154380    2.020580
  C     10.059570   -5.000830    1.304620
  C      9.161420   -6.090020    1.393620
  S      9.842430   -7.325420    2.432280
  C      7.937220   -6.158410    0.758950
  C      6.998740   -7.185300    0.778180
  N      7.082750   -8.395750    1.438630
  C      5.968240   -9.207260    1.237560
  O      5.833040  -10.313460    1.719740
  C      5.112780   -8.414180    0.370490
  C      5.763940   -7.195080    0.111520
  C      4.921140   -6.390570   -0.756410
  O      5.067920   -5.286310   -1.233830
  N      3.803880   -7.203950   -0.958230
  C      3.883660   -8.416190   -0.306390
  C      2.885760   -9.393440   -0.382220
  C      2.985010  -10.603410    0.260580
  C      1.998880  -11.590550    0.158920
  N      2.092840  -12.816890    0.782930
  C      1.007570  -13.655910    0.523420
  O      0.879650  -14.777780    0.962000
  C      0.164760  -12.849720   -0.345560
  C      0.787150  -11.602680   -0.547090
  C     -0.065530  -10.809000   -1.415760
  O      0.052120   -9.684830   -1.861200
  N     -1.148170  -11.647040   -1.673600
  C     -1.041070  -12.876540   -1.053840
  C     -1.952790  -13.934720   -1.135340
  C     -3.131010  -13.916050   -1.839120
  C     -4.037170  -14.978580   -1.929180
  N     -3.901990  -16.228490   -1.361600
  C     -4.984650  -17.073610   -1.625810
  O     -5.075630  -18.214150   -1.228320
  C     -5.866390  -16.248340   -2.434230
  C     -5.263480  -14.989010   -2.603690
  C     -6.150920  -14.156190   -3.398610
  O     -6.055390  -13.016580   -3.798560
  N     -7.243920  -14.990420   -3.643400
  C     -7.109670  -16.246090   -3.081690
  C     -8.041440  -17.282740   -3.140950
  C     -9.285180  -17.211470   -3.728810
  C    -10.187030  -18.270110   -3.741860
  C    -11.458080  -18.207140   -4.279280
  C    -12.415950  -19.244730   -4.309770
  C    -13.603070  -18.896840   -4.883200
  C    -13.647320  -17.560210   -5.338470
  S    -12.120470  -16.763520   -5.019010
  C    -14.699890  -16.903710   -5.941750
  C    -15.985310  -17.433650   -6.240580
  C    -16.827770  -16.552260   -6.825550
  C    -16.267270  -15.248940   -7.035240
  S    -14.599410  -15.231390   -6.439160
  C    -16.857640  -14.177990   -7.584200
  H     15.346760   -8.812800    6.364590
  H     13.904790   -9.937920    6.173980
  H     15.286260   -6.500760    5.036960
  H     13.744690   -5.192680    3.442220
  H     11.996240   -4.423500    2.062140
  H      9.824660   -4.135910    0.710280
  H      7.654470   -5.303740    0.158810
  H      7.861530   -8.687290    2.008060
  H      3.018660   -6.930980   -1.529250
  H      2.009850   -9.178810   -0.980910
  H      3.858170  -10.817290    0.863230
  H      2.872010  -13.086280    1.363770
  H     -1.918460  -11.368060   -2.260140
  H     -1.661280  -14.815870   -0.581170
  H     -3.430470  -13.029430   -2.380260
  H     -3.110370  -16.523130   -0.812360
  H     -8.038800  -14.689590   -4.183790
  H     -7.739060  -18.201700   -2.658330
  H     -9.604980  -16.288930   -4.197730
  H     -9.887150  -19.208340   -3.294320
  H    -12.199530  -20.217030   -3.903700
  H    -14.441240  -19.561980   -4.986590
  H    -16.239580  -18.452420   -6.008440
  H    -17.838470  -16.769560   -7.121670
  H    -17.874020  -14.229970   -7.932540
  H    -16.341980  -13.241640   -7.693420

 Total Charge           Charge          ....    0
 Multiplicity           Mult            ....    1
 Number of Electrons    NEL             ....  444
 Basis Dimension        Dim             ....  986

ORBITAL ENERGIES
----------------

  NO   OCC          E(Eh)            E(eV)
   0   2.0000     -88.962409     -2420.7902
   1   2.0000     -88.954514     -2420.5754
   2   2.0000     -88.954480     -2420.5745
   3   2.0000     -88.950974     -2420.4791
   4   2.0000     -19.186961      -522.1037
   5   2.0000     -19.181844      -521.9645
   6   2.0000     -19.181004      -521.9416
   7   2.0000     -19.179443      -521.8992
   8   2.0000     -19.172906      -521.7213
   9   2.0000     -19.171957      -521.6955
  10   2.0000     -14.447517      -393.1369
  11   2.0000     -14.444585      -393.0571
  12   2.0000     -14.443438      -393.0259
  13   2.0000     -14.443400      -393.0249
  14   2.0000     -14.440639      -392.9498
  15   2.0000     -14.439113      -392.9082
  16   2.0000     -10.373968      -282.2900
  17   2.0000     -10.370297      -282.1901
  18   2.0000     -10.370203      -282.1876
  19   2.0000     -10.368936      -282.1531
  20   2.0000     -10.363952      -282.0175
  21   2.0000     -10.363448      -282.0037
  22   2.0000     -10.334123      -281.2058
  23   2.0000     -10.332749      -281.1684
  24   2.0000     -10.331741      -281.1410
  25   2.0000     -10.329817      -281.0886
  26   2.0000     -10.329466      -281.0791
  27   2.0000     -10.328627      -281.0562
  28   2.0000     -10.327626      -281.0290
  29   2.0000     -10.326138      -280.9885
  30   2.0000     -10.325057      -280.9591
  31   2.0000     -10.323050      -280.9045
  32   2.0000     -10.320689      -280.8402
  33   2.0000     -10.319761      -280.8150
  34   2.0000     -10.318603      -280.7835
  35   2.0000     -10.317607      -280.7564
  36   2.0000     -10.303026      -280.3596
  37   2.0000     -10.301734      -280.3244
  38   2.0000     -10.300677      -280.2957
  39   2.0000     -10.300145      -280.2812
  40   2.0000     -10.299315      -280.2586
  41   2.0000     -10.297254      -280.2025
  42   2.0000     -10.294366      -280.1239
  43   2.0000     -10.293781      -280.1080
  44   2.0000     -10.291742      -280.0525
  45   2.0000     -10.291412      -280.0436
  46   2.0000     -10.290320      -280.0138
  47   2.0000     -10.287202      -279.9290
  48   2.0000     -10.287018      -279.9240
  49   2.0000     -10.285416      -279.8804
  50   2.0000     -10.283824      -279.8371
  51   2.0000     -10.283498      -279.8282
  52   2.0000     -10.282792      -279.8090
  53   2.0000     -10.280928      -279.7583
  54   2.0000     -10.260864      -279.2123
  55   2.0000     -10.260461      -279.2013
  56   2.0000     -10.259916      -279.1865
  57   2.0000     -10.258503      -279.1481
  58   2.0000     -10.257178      -279.1120
  59   2.0000     -10.255519      -279.0669
  60   2.0000      -8.058672      -219.2876
  61   2.0000      -8.051344      -219.0882
  62   2.0000      -8.050773      -219.0727
  63   2.0000      -8.047798      -218.9917
  64   2.0000      -6.028391      -164.0409
  65   2.0000      -6.024420      -163.9328
  66   2.0000      -6.021107      -163.8427
  67   2.0000      -6.020441      -163.8245
  68   2.0000      -6.019596      -163.8015
  69   2.0000      -6.017554      -163.7460
  70   2.0000      -6.017189      -163.7360
  71   2.0000      -6.016527      -163.7180
  72   2.0000      -6.013661      -163.6400
  73   2.0000      -6.011932      -163.5930
  74   2.0000      -6.011713      -163.5870
  75   2.0000      -6.008383      -163.4964
  76   2.0000      -1.124803       -30.6075
  77   2.0000      -1.122178       -30.5360
  78   2.0000      -1.120240       -30.4833
  79   2.0000      -1.114994       -30.3405
  80   2.0000      -1.111638       -30.2492
  81   2.0000      -1.110307       -30.2130
  82   2.0000      -1.052464       -28.6390
  83   2.0000      -1.051696       -28.6181
  84   2.0000      -1.049030       -28.5456
  85   2.0000      -1.039318       -28.2813
  86   2.0000      -1.037675       -28.2366
  87   2.0000      -1.035232       -28.1701
  88   2.0000      -1.007629       -27.4190
  89   2.0000      -1.004103       -27.3230
  90   2.0000      -0.984135       -26.7797
  91   2.0000      -0.981209       -26.7000
  92   2.0000      -0.917350       -24.9623
  93   2.0000      -0.904142       -24.6030
  94   2.0000      -0.903056       -24.5734
  95   2.0000      -0.901848       -24.5405
  96   2.0000      -0.886439       -24.1212
  97   2.0000      -0.885036       -24.0831
  98   2.0000      -0.883815       -24.0498
  99   2.0000      -0.882957       -24.0265
 100   2.0000      -0.873011       -23.7558
 101   2.0000      -0.859080       -23.3767
 102   2.0000      -0.857558       -23.3353
 103   2.0000      -0.855242       -23.2723
 104   2.0000      -0.838059       -22.8047
 105   2.0000      -0.834647       -22.7119
 106   2.0000      -0.829879       -22.5822
 107   2.0000      -0.824424       -22.4337
 108   2.0000      -0.815532       -22.1918
 109   2.0000      -0.807603       -21.9760
 110   2.0000      -0.772691       -21.0260
 111   2.0000      -0.769548       -20.9405
 112   2.0000      -0.753837       -20.5129
 113   2.0000      -0.753124       -20.4935
 114   2.0000      -0.752087       -20.4653
 115   2.0000      -0.750260       -20.4156
 116   2.0000      -0.735736       -20.0204
 117   2.0000      -0.721270       -19.6268
 118   2.0000      -0.717430       -19.5223
 119   2.0000      -0.696802       -18.9610
 120   2.0000      -0.695192       -18.9171
 121   2.0000      -0.685367       -18.6498
 122   2.0000      -0.679496       -18.4900
 123   2.0000      -0.667169       -18.1546
 124   2.0000      -0.666569       -18.1383
 125   2.0000      -0.659995       -17.9594
 126   2.0000      -0.655252       -17.8303
 127   2.0000      -0.643963       -17.5231
 128   2.0000      -0.639146       -17.3920
 129   2.0000      -0.636233       -17.3128
 130   2.0000      -0.628960       -17.1149
 131   2.0000      -0.625724       -17.0268
 132   2.0000      -0.622282       -16.9331
 133   2.0000      -0.615094       -16.7376
 134   2.0000      -0.613749       -16.7009
 135   2.0000      -0.611310       -16.6346
 136   2.0000      -0.610683       -16.6175
 137   2.0000      -0.608808       -16.5665
 138   2.0000      -0.597465       -16.2579
 139   2.0000      -0.584673       -15.9098
 140   2.0000      -0.580580       -15.7984
 141   2.0000      -0.578679       -15.7466
 142   2.0000      -0.573449       -15.6044
 143   2.0000      -0.563307       -15.3284
 144   2.0000      -0.561346       -15.2750
 145   2.0000      -0.555585       -15.1182
 146   2.0000      -0.546681       -14.8760
 147   2.0000      -0.546207       -14.8631
 148   2.0000      -0.544566       -14.8184
 149   2.0000      -0.544171       -14.8076
 150   2.0000      -0.541817       -14.7436
 151   2.0000      -0.541591       -14.7374
 152   2.0000      -0.536577       -14.6010
 153   2.0000      -0.535316       -14.5667
 154   2.0000      -0.523777       -14.2527
 155   2.0000      -0.522887       -14.2285
 156   2.0000      -0.520740       -14.1701
 157   2.0000      -0.514930       -14.0120
 158   2.0000      -0.512411       -13.9434
 159   2.0000      -0.510561       -13.8931
 160   2.0000      -0.510004       -13.8779
 161   2.0000      -0.509034       -13.8515
 162   2.0000      -0.505921       -13.7668
 163   2.0000      -0.504220       -13.7205
 164   2.0000      -0.503285       -13.6951
 165   2.0000      -0.501195       -13.6382
 166   2.0000      -0.500748       -13.6260
 167   2.0000      -0.499209       -13.5842
 168   2.0000      -0.498005       -13.5514
 169   2.0000      -0.494792       -13.4640
 170   2.0000      -0.493064       -13.4170
 171   2.0000      -0.492549       -13.4029
 172   2.0000      -0.488891       -13.3034
 173   2.0000      -0.484334       -13.1794
 174   2.0000      -0.482434       -13.1277
 175   2.0000      -0.475418       -12.9368
 176   2.0000      -0.473575       -12.8866
 177   2.0000      -0.471009       -12.8168
 178   2.0000      -0.470663       -12.8074
 179   2.0000      -0.466604       -12.6969
 180   2.0000      -0.463070       -12.6008
 181   2.0000      -0.459857       -12.5134
 182   2.0000      -0.450558       -12.2603
 183   2.0000      -0.448318       -12.1994
 184   2.0000      -0.444717       -12.1014
 185   2.0000      -0.442304       -12.0357
 186   2.0000      -0.441025       -12.0009
 187   2.0000      -0.439433       -11.9576
 188   2.0000      -0.438944       -11.9443
 189   2.0000      -0.437250       -11.8982
 190   2.0000      -0.433529       -11.7969
 191   2.0000      -0.430193       -11.7061
 192   2.0000      -0.425671       -11.5831
 193   2.0000      -0.414662       -11.2835
 194   2.0000      -0.411950       -11.2097
 195   2.0000      -0.407938       -11.1006
 196   2.0000      -0.407753       -11.0955
 197   2.0000      -0.404124       -10.9968
 198   2.0000      -0.391800       -10.6614
 199   2.0000      -0.368434       -10.0256
 200   2.0000      -0.351645        -9.5687
 201   2.0000      -0.347671        -9.4606
 202   2.0000      -0.345861        -9.4114
 203   2.0000      -0.343930        -9.3588
 204   2.0000      -0.342747        -9.3266
 205   2.0000      -0.341533        -9.2936
 206   2.0000      -0.339547        -9.2395
 207   2.0000      -0.337911        -9.1950
 208   2.0000      -0.335579        -9.1316
 209   2.0000      -0.333043        -9.0626
 210   2.0000      -0.327800        -8.9199
 211   2.0000      -0.326683        -8.8895
 212   2.0000      -0.325064        -8.8454
 213   2.0000      -0.321864        -8.7584
 214   2.0000      -0.318945        -8.6789
 215   2.0000      -0.316967        -8.6251
 216   2.0000      -0.311933        -8.4881
 217   2.0000      -0.272092        -7.4040
 218   2.0000      -0.262886        -7.1535
 219   2.0000      -0.244675        -6.6579
 220   2.0000      -0.219926        -5.9845
 221   2.0000      -0.199156        -5.4193
 222   0.0000      -0.115201        -3.1348
 223   0.0000      -0.093326        -2.5395
 224   0.0000      -0.068288        -1.8582
 225   0.0000      -0.043479        -1.1831
 226   0.0000      -0.019671        -0.5353

MULLIKEN ATOMIC CHARGES
-----------------------
   0 C :   -0.014063
   1 C :   -0.071526
   2 C :    0.063214
   3 C :    0.028314
   4 C :   -0.054823
   5 S :    0.097792
   6 C :   -0.048280
   7 C :    0.038497
   8 C :    0.026287
   9 C :    0.004539
  10 S :    0.057321
  11 C :   -0.055860
  12 C :    0.067338
  13 N :   -0.125395
  14 C :    0.153009
  15 O :   -0.193600
  16 C :   -0.087501
  17 C :   -0.066708
  18 C :    0.125831
  19 O :   -0.181785
  20 N :   -0.109389
  21 C :    0.089900
  22 C :    0.005149
  23 C :   -0.006413
  24 C :    0.097916
  25 N :   -0.110749
  26 C :    0.129945
  27 O :   -0.173293
  28 C :   -0.052994
  29 C :   -0.094746
  30 C :    0.154692
  31 O :   -0.198171
  32 N :   -0.116423
  33 C :    0.047164
  34 C :    0.003485
  35 C :    0.005221
  36 C :    0.046372
  37 N :   -0.124343
  38 C :    0.123944
  39 O :   -0.178892
  40 C :   -0.058728
  41 C :   -0.050739
  42 C :    0.126898
  43 O :   -0.175802
  44 N :   -0.127520
  45 C :    0.071058
  46 C :   -0.016296
  47 C :    0.022321
  48 C :   -0.023597
  49 C :   -0.010318
  50 C :    0.034487
  51 C :    0.030688
  52 C :   -0.050026
  53 S :    0.079106
  54 C :   -0.059476
  55 C :    0.028881
  56 C :    0.061005
  57 C :   -0.072199
  58 S :    0.094841
  59 C :   -0.016245
  60 H :    0.028108
  61 H :    0.030454
  62 H :   -0.004231
  63 H :   -0.005848
  64 H :   -0.005517
  65 H :    0.001095
  66 H :    0.007056
  67 H :    0.128915
  68 H :    0.132415
  69 H :   -0.010776
  70 H :   -0.013197
  71 H :    0.132945
  72 H :    0.132155
  73 H :   -0.005857
  74 H :   -0.007752
  75 H :    0.130863
  76 H :    0.123951
  77 H :    0.005734
  78 H :   -0.010516
  79 H :   -0.005450
  80 H :   -0.007138
  81 H :   -0.007918
  82 H :   -0.007955
  83 H :   -0.005934
  84 H :    0.026167
  85 H :    0.028911
Sum of atomic charges:   -0.0000000

LOEWDIN ATOMIC CHARGES
----------------------
   0 C :   -0.055016
   1 C :   -0.141577
   2 C :   -0.018204
   3 C :   -0.027328
   4 C :   -0.161692
   5 S :    0.367297
   6 C :   -0.185786
   7 C :   -0.021074
   8 C :   -0.033412
   9 C :   -0.127020
  10 S :    0.379038
  11 C :   -0.073201
  12 C :    0.063243
  13 N :    0.020903
  14 C :    0.077742
  15 O :   -0.199960
  16 C :   -0.109406
  17 C :   -0.111498
  18 C :    0.066671
  19 O :   -0.203843
  20 N :    0.029941
  21 C :    0.056423
  22 C :    0.001159
  23 C :   -0.013844
  24 C :    0.068880
  25 N :    0.028891
  26 C :    0.071249
  27 O :   -0.194826
  28 C :   -0.102055
  29 C :   -0.118267
  30 C :    0.075002
  31 O :   -0.205949
  32 N :    0.028076
  33 C :    0.057572
  34 C :   -0.027866
  35 C :   -0.023698
  36 C :    0.054480
  37 N :    0.022077
  38 C :    0.069960
  39 O :   -0.201323
  40 C :   -0.116518
  41 C :   -0.102320
  42 C :    0.073561
  43 O :   -0.196290
  44 N :    0.018913
  45 C :    0.070551
  46 C :   -0.043043
  47 C :   -0.005414
  48 C :   -0.064562
  49 C :   -0.128746
  50 C :   -0.037998
  51 C :   -0.020624
  52 C :   -0.185893
  53 S :    0.376007
  54 C :   -0.164769
  55 C :   -0.027385
  56 C :   -0.021337
  57 C :   -0.141209
  58 S :    0.365059
  59 C :   -0.059375
  60 H :    0.032600
  61 H :    0.030477
  62 H :    0.036794
  63 H :    0.034776
  64 H :    0.035162
  65 H :    0.039194
  66 H :    0.052204
  67 H :    0.066082
  68 H :    0.092956
  69 H :    0.036807
  70 H :    0.035498
  71 H :    0.093284
  72 H :    0.089395
  73 H :    0.040082
  74 H :    0.039224
  75 H :    0.088076
  76 H :    0.084517
  77 H :    0.045694
  78 H :    0.018184
  79 H :    0.037561
  80 H :    0.036040
  81 H :    0.033663
  82 H :    0.033981
  83 H :    0.035980
  84 H :    0.031768
  85 H :    0.029634

  Mayer bond orders larger than 0.100000
B(  0-C ,  1-C ) :   1.8612 B(  0-C , 60-H ) :   0.9510 B(  0-C , 61-H ) :   0.9419
B(  1-C ,  2-C ) :   1.0817 B(  1-C ,  5-S ) :   1.0058 B(  2-C ,  3-C ) :   1.6561
B(  2-C , 62-H ) :   0.9934 B(  3-C ,  4-C ) :   1.1575 B(  3-C , 63-H ) :   0.9923
B(  4-C ,  5-S ) :   1.0652 B(  4-C ,  6-C ) :   1.5249 B(  6-C ,  7-C ) :   1.1928
B(  6-C , 10-S ) :   1.0415 B(  7-C ,  8-C ) :   1.5723 B(  7-C , 64-H ) :   0.9921
B(  8-C ,  9-C ) :   1.1670 B(  8-C , 65-H ) :   1.0022 B(  9-C , 10-S ) :   1.0437
B(  9-C , 11-C ) :   1.4741 B( 11-C , 12-C ) :   1.2626 B( 11-C , 66-H ) :   0.9519
B( 12-C , 13-N ) :   1.1815 B( 12-C , 17-C ) :   1.2999 B( 13-N , 14-C ) :   1.0957
B( 13-N , 67-H ) :   0.9090 B( 14-C , 15-O ) :   2.0952 B( 14-C , 16-C ) :   0.9702
B( 15-O , 70-H ) :   0.1062 B( 16-C , 17-C ) :   1.2856 B( 16-C , 21-C ) :   1.3025
B( 17-C , 18-C ) :   0.9672 B( 18-C , 19-O ) :   2.2044 B( 18-C , 20-N ) :   1.0661
B( 20-N , 21-C ) :   1.1879 B( 20-N , 68-H ) :   0.9183 B( 21-C , 22-C ) :   1.2000
B( 22-C , 23-C ) :   1.4975 B( 22-C , 69-H ) :   0.9435 B( 23-C , 24-C ) :   1.2010
B( 23-C , 70-H ) :   0.9448 B( 24-C , 25-N ) :   1.1885 B( 24-C , 29-C ) :   1.2994
B( 25-N , 26-C ) :   1.0655 B( 25-N , 71-H ) :   0.9184 B( 26-C , 27-O ) :   2.2159
B( 26-C , 28-C ) :   0.9536 B( 28-C , 29-C ) :   1.2755 B( 28-C , 33-C ) :   1.3045
B( 29-C , 30-C ) :   0.9744 B( 30-C , 31-O ) :   2.0898 B( 30-C , 32-N ) :   1.0983
B( 31-O , 69-H ) :   0.1094 B( 32-N , 33-C ) :   1.1889 B( 32-N , 72-H ) :   0.9174
B( 33-C , 34-C ) :   1.2477 B( 34-C , 35-C ) :   1.4350 B( 34-C , 73-H ) :   0.9547
B( 35-C , 36-C ) :   1.2466 B( 35-C , 74-H ) :   0.9544 B( 36-C , 37-N ) :   1.1955
B( 36-C , 41-C ) :   1.3048 B( 37-N , 38-C ) :   1.0650 B( 37-N , 75-H ) :   0.9168
B( 38-C , 39-O ) :   2.2137 B( 38-C , 40-C ) :   0.9639 B( 40-C , 41-C ) :   1.2707
B( 40-C , 45-C ) :   1.2894 B( 41-C , 42-C ) :   0.9536 B( 42-C , 43-O ) :   2.2125
B( 42-C , 44-N ) :   1.0692 B( 44-N , 45-C ) :   1.1859 B( 44-N , 76-H ) :   0.9188
B( 45-C , 46-C ) :   1.2385 B( 46-C , 47-C ) :   1.4811 B( 46-C , 77-H ) :   0.9636
B( 47-C , 48-C ) :   1.2234 B( 47-C , 78-H ) :   0.9753 B( 48-C , 49-C ) :   1.4903
B( 48-C , 79-H ) :   0.9889 B( 49-C , 50-C ) :   1.1644 B( 49-C , 53-S ) :   1.0527
B( 50-C , 51-C ) :   1.5739 B( 50-C , 80-H ) :   1.0001 B( 51-C , 52-C ) :   1.1934
B( 51-C , 81-H ) :   0.9936 B( 52-C , 53-S ) :   1.0387 B( 52-C , 54-C ) :   1.5236
B( 54-C , 55-C ) :   1.1594 B( 54-C , 58-S ) :   1.0627 B( 55-C , 56-C ) :   1.6566
B( 55-C , 82-H ) :   0.9919 B( 56-C , 57-C ) :   1.0824 B( 56-C , 83-H ) :   0.9925
B( 57-C , 58-S ) :   1.0061 B( 57-C , 59-C ) :   1.8610 B( 59-C , 84-H ) :   0.9507
B( 59-C , 85-H ) :   0.9418

-----------------------------------------------------------------------------
         ABSORPTION SPECTRUM VIA TRANSITION ELECTRIC DIPOLE MOMENTS
-----------------------------------------------------------------------------
State   Energy  Wavelength   fosc         T2         TX        TY        TZ
        (cm-1)    (nm)                  (au**2)     (au)      (au)      (au)
-----------------------------------------------------------------------------
   0    7044.1   1419.6   2.313657144 108.13101   9.30637   2.93238   3.59493
   1   11929.2    838.3   0.026805897   0.73977  -0.82020   0.15418  -0.20800
   2   13024.1    767.8   0.033056352   0.83557   0.86715  -0.11053   0.26720
   3   16212.2    616.8   0.054369843   1.10406   0.88415  -0.33903   0.45539
   4   17547.8    569.9   0.542170261  10.17157  -2.35669   1.48292  -1.55517
   5   19341.9    517.0   0.014298806   0.24337  -0.42429   0.21268  -0.13462
   6   19801.5    505.0   0.066367118   1.10339  -0.03927   0.94852  -0.44962
   7   20762.6    481.6   0.203739014   3.23048  -1.45476   0.60867  -0.86236
   8   22229.3    449.9   0.077765561   1.15169  -0.68194   0.10848  -0.82152
   9   23530.9    425.0   0.001883655   0.02635  -0.11344   0.11564   0.01065
  10   24468.2    408.7   0.000918252   0.01235   0.08736   0.06527  -0.02150
  11   26256.8    380.9   0.203438451   2.55075  -1.09879   0.80890  -0.83011
  12   26264.3    380.7   0.003490546   0.04375  -0.14426   0.09545  -0.11761
  13   26645.2    375.3   0.015409755   0.19039   0.15662  -0.35510   0.19942
  14   26696.4    374.6   0.000075549   0.00093   0.00376   0.01012   0.02855
  15   26743.3    373.9   0.000630946   0.00777   0.04254  -0.02738  -0.07217
  16   28156.3    355.2   0.019708638   0.23044   0.00027  -0.43119   0.21098
  17   28342.5    352.8   0.016463259   0.19123  -0.02993  -0.41523   0.13387
  18   28617.4    349.4   0.051686607   0.59460  -0.24395   0.58884  -0.43399
  19   28808.0    347.1   0.006804388   0.07776   0.23323   0.08529   0.12684
  20   29155.6    343.0   0.032152310   0.36305   0.20641   0.55909  -0.08869
  21   29561.4    338.3   0.002671128   0.02975   0.06467   0.15386  -0.04348
  22   29986.0    333.5   0.141421709   1.55265  -0.13991  -1.16269   0.42572
  23   30345.9    329.5   0.000030000   0.00033  -0.00896  -0.00781   0.01357
  24   30870.1    323.9   0.001025725   0.01094  -0.02469  -0.09434   0.03781
  25   30878.9    323.8   0.113874964   1.21406  -0.21949  -1.05839   0.21380
  26   30992.4    322.7   0.000662400   0.00704  -0.01876  -0.08170   0.00300
  27   31855.2    313.9   0.010425520   0.10774  -0.12626   0.29573  -0.06592
  28   32218.1    310.4   0.026776582   0.27361   0.20372   0.46524  -0.12515
  29   32550.7    307.2   0.018537806   0.18749   0.03490  -0.37934   0.20585
  30   33214.4    301.1   0.000153769   0.00152  -0.00392  -0.02745  -0.02748
  31   33402.5    299.4   0.037609810   0.37068  -0.14176  -0.56987   0.16071
  32   33838.0    295.5   0.052439962   0.51019   0.08427   0.64773  -0.28902
  33   34029.2    293.9   0.204684800   1.98020   0.93185   1.04971   0.09988
  34   34329.5    291.3   0.404493853   3.87901   1.01478   1.67362  -0.21958
  35   34823.6    287.2   0.004850826   0.04586   0.01095   0.18291  -0.11082
  36   35210.9    284.0   0.004903567   0.04585  -0.16832  -0.11990  -0.05602
  37   35441.7    282.2   0.000116848   0.00109   0.03159   0.00248  -0.00902
  38   35792.1    279.4   0.000063767   0.00059   0.00827  -0.01060  -0.02015
  39   36115.1    276.9   0.004169861   0.03801  -0.16105  -0.01045  -0.10938
  40   36118.6    276.9   0.021588895   0.19678   0.37616   0.00505   0.23506
  41   36464.2    274.2   0.040055537   0.36164  -0.52829  -0.25625  -0.12993
  42   36877.7    271.2   0.004109600   0.03669   0.13159   0.01172   0.13868
  43   37292.9    268.1   0.101268415   0.89397   0.85080  -0.17452   0.37370
  44   37636.0    265.7   0.042726849   0.37374   0.07767  -0.54726   0.26119
  45   37707.8    265.2   0.070058585   0.61165  -0.20693  -0.74394   0.12401
  46   38294.2    261.1   0.005795714   0.04983  -0.16446  -0.15089  -0.00344
  47   38578.0    259.2   0.023619818   0.20156   0.15788  -0.32211   0.26997
  48   38695.9    258.4   0.015141127   0.12882  -0.00293  -0.31198   0.17742
  49   38828.4    257.5   0.024982889   0.21182   0.07986  -0.43096   0.14041
  50   39382.7    253.9   0.065027249   0.54358  -0.35498   0.46601  -0.44767
  51   39654.0    252.2   0.068106980   0.56543  -0.21539   0.56618  -0.44551
  52   39844.1    251.0   0.101582484   0.83933  -0.05110   0.80847  -0.42789
  53   40179.9    248.9   0.000485600   0.00398  -0.03146   0.03206   0.04428

FINAL SINGLE POINT ENERGY     -4061.378183225968

DIPOLE MOMENT
-------------
                                X             Y             Z
Electronic contribution:     12.87014       5.71834       3.19137
Nuclear contribution   :    -13.15870      -5.59683      -3.18199
                        -----------------------------------------
Total Dipole Moment    :     -0.28856       0.12151       0.00938
                        -----------------------------------------
Magnitude (a.u.)       :      0.31324
Magnitude (Debye)      :      0.79620

Rotational constants in cm-1:     0.004352     0.000175     0.000168
Rotational constants in MHz :   130.477454     5.245012     5.047841

                             ****ORCA TERMINATED NORMALLY****
TOTAL RUN TIME: 0 days 0 hours 7 minutes 16 seconds 929 msec
