                         Program Version 4.2.0 -  RELEASE  -
|  1> # ORCA input file
|  2> # SCF done       -139.578500455576          0.000966182369
|  3> ! CAM-B3LYP def2-SVP def2/J RIJCOSX Grid4 TightSCF
|  4> %maxcore 5000
|  5> %tddft
|  6>     Mode sTDDFT
|  7>     Ethresh 5.0
|  8>     maxcore 5000
|  9> end
| 10>
| 11> %pal
| 12>   nprocs 6
| 13>   end
| 14> * xyz 0 1
| 15>    C       -4.92201        -7.62395        -5.67516
| 16>    C       -5.29143        -6.71946        -4.75647
| 17>    C       -6.04090        -5.51437        -4.95977
| 18>    C       -6.26406        -4.79870        -3.83320
| 19>    C       -5.71121        -5.36918        -2.65610
| 20>    S       -4.88763        -6.86788        -3.03826
| 21>    C       -5.77383        -4.87055        -1.37317
| 22>    C       -6.40616        -3.68831        -0.92755
| 23>    C       -6.28562        -3.47247         0.41223
| 24>    C       -5.55230        -4.46534         1.10155
| 25>    S       -5.02061        -5.69940        -0.02155
| 26>    C       -5.28526        -4.46963         2.45470
| 27>    C       -4.56347        -5.41501         3.17456
| 28>    S       -3.84396        -6.82095         2.45360
| 29>    C       -3.16836        -7.39284         3.95944
| 30>    C       -3.51809        -6.51339         5.01122
| 31>    C       -4.29460        -5.40085         4.56651
| 32>    C       -4.72283        -4.42674         5.47909
| 33>    C       -4.39857        -4.55819         6.80178
| 34>    F       -4.80385        -3.62882         7.68670
| 35>    C       -3.65309        -5.66222         7.24934
| 36>    F       -3.36403        -5.77689         8.55965
| 37>    C       -3.21970        -6.62543         6.37952
| 38>    C       -2.41934        -8.57435         3.88134
| 39>    C       -1.68180        -9.20117         4.85142
| 40>    C       -0.97988       -10.39874         4.63596
| 41>    S       -1.08496       -11.15540         3.07045
| 42>    C       -0.05521       -12.46773         3.50818
| 43>    C        0.35712       -12.33224         4.84715
| 44>    C       -0.15718       -11.16363         5.49691
| 45>    C        0.19902       -10.92008         6.84941
| 46>    C       -0.27469        -9.72923         7.62556
| 47>    C        1.02019       -11.82446         7.47979
| 48>    C        1.51306       -12.97091         6.84230
| 49>    C        1.19060       -13.22863         5.54200
| 50>    C        0.32521       -13.50529         2.61749
| 51>    C       -0.02684       -13.68396         1.32670
| 52>    C       -0.96902       -12.79800         0.57868
| 53>    C        0.46535       -14.90352         0.59015
| 54>    N       -0.52615       -15.96277         0.62853
| 55>    C       -0.59831       -16.81858         1.68834
| 56>    C       -1.69929       -17.51643         2.03559
| 57>    C       -1.72428       -18.50014         3.06766
| 58>    S       -0.24985       -18.83065         3.93245
| 59>    C       -0.98564       -20.01811         4.91168
| 60>    C       -2.31611       -20.17613         4.60987
| 61>    C       -2.76321       -19.30564         3.54896
| 62>    C       -4.13240       -19.37913         3.15553
| 63>    C       -4.71494       -18.51883         2.07501
| 64>    C       -4.94828       -20.27187         3.79591
| 65>    C       -4.49887       -21.12262         4.82823
| 66>    C       -3.20564       -21.08199         5.23735
| 67>    H       -5.18204        -7.49195        -6.71050
| 68>    H       -4.35182        -8.49529        -5.41189
| 69>    H       -6.38080        -5.23823        -5.94214
| 70>    H       -6.80881        -3.87176        -3.80273
| 71>    H       -6.92938        -3.03292        -1.60023
| 72>    H       -6.70146        -2.62556         0.92974
| 73>    H       -5.68428        -3.63474         3.01471
| 74>    H       -5.30520        -3.57726         5.16258
| 75>    H       -2.66900        -7.45864         6.77683
| 76>    H       -2.42257        -9.02850         2.89642
| 77>    H       -1.61255        -8.76030         5.82572
| 78>    H        0.04188        -8.80165         7.14966
| 79>    H        0.14455        -9.75127         8.62893
| 80>    H       -1.36051        -9.73402         7.71714
| 81>    H        1.29891       -11.64915         8.50884
| 82>    H        2.14984       -13.64783         7.39135
| 83>    H        1.56582       -14.11199         5.05039
| 84>    H        0.99934       -14.23311         3.04952
| 85>    H       -1.93205       -12.72781         1.08621
| 86>    H       -1.13178       -13.16833        -0.43096
| 87>    H       -0.56971       -11.78524         0.51168
| 88>    H        1.38295       -15.28991         1.03842
| 89>    H        0.66357       -14.66204        -0.45908
| 90>    H       -1.41587       -15.71820         0.21375
| 91>    H        0.33618       -16.96715         2.21167
| 92>    H       -2.60952       -17.33648         1.48989
| 93>    H       -0.40874       -20.53511         5.65166
| 94>    H       -4.60986       -17.46301         2.32238
| 95>    H       -5.77475       -18.73576         1.95911
| 96>    H       -4.22457       -18.70972         1.12096
| 97>    H       -5.98752       -20.33394         3.50507
| 98>    H       -5.20170       -21.80248         5.28697
| 99>    H       -2.83367       -21.71797         6.02654
|100> *
|101>
|102>                          ****END OF INPUT****

CARTESIAN COORDINATES (ANGSTROEM)
---------------------------------
  C     -4.922010   -7.623950   -5.675160
  C     -5.291430   -6.719460   -4.756470
  C     -6.040900   -5.514370   -4.959770
  C     -6.264060   -4.798700   -3.833200
  C     -5.711210   -5.369180   -2.656100
  S     -4.887630   -6.867880   -3.038260
  C     -5.773830   -4.870550   -1.373170
  C     -6.406160   -3.688310   -0.927550
  C     -6.285620   -3.472470    0.412230
  C     -5.552300   -4.465340    1.101550
  S     -5.020610   -5.699400   -0.021550
  C     -5.285260   -4.469630    2.454700
  C     -4.563470   -5.415010    3.174560
  S     -3.843960   -6.820950    2.453600
  C     -3.168360   -7.392840    3.959440
  C     -3.518090   -6.513390    5.011220
  C     -4.294600   -5.400850    4.566510
  C     -4.722830   -4.426740    5.479090
  C     -4.398570   -4.558190    6.801780
  F     -4.803850   -3.628820    7.686700
  C     -3.653090   -5.662220    7.249340
  F     -3.364030   -5.776890    8.559650
  C     -3.219700   -6.625430    6.379520
  C     -2.419340   -8.574350    3.881340
  C     -1.681800   -9.201170    4.851420
  C     -0.979880  -10.398740    4.635960
  S     -1.084960  -11.155400    3.070450
  C     -0.055210  -12.467730    3.508180
  C      0.357120  -12.332240    4.847150
  C     -0.157180  -11.163630    5.496910
  C      0.199020  -10.920080    6.849410
  C     -0.274690   -9.729230    7.625560
  C      1.020190  -11.824460    7.479790
  C      1.513060  -12.970910    6.842300
  C      1.190600  -13.228630    5.542000
  C      0.325210  -13.505290    2.617490
  C     -0.026840  -13.683960    1.326700
  C     -0.969020  -12.798000    0.578680
  C      0.465350  -14.903520    0.590150
  N     -0.526150  -15.962770    0.628530
  C     -0.598310  -16.818580    1.688340
  C     -1.699290  -17.516430    2.035590
  C     -1.724280  -18.500140    3.067660
  S     -0.249850  -18.830650    3.932450
  C     -0.985640  -20.018110    4.911680
  C     -2.316110  -20.176130    4.609870
  C     -2.763210  -19.305640    3.548960
  C     -4.132400  -19.379130    3.155530
  C     -4.714940  -18.518830    2.075010
  C     -4.948280  -20.271870    3.795910
  C     -4.498870  -21.122620    4.828230
  C     -3.205640  -21.081990    5.237350
  H     -5.182040   -7.491950   -6.710500
  H     -4.351820   -8.495290   -5.411890
  H     -6.380800   -5.238230   -5.942140
  H     -6.808810   -3.871760   -3.802730
  H     -6.929380   -3.032920   -1.600230
  H     -6.701460   -2.625560    0.929740
  H     -5.684280   -3.634740    3.014710
  H     -5.305200   -3.577260    5.162580
  H     -2.669000   -7.458640    6.776830
  H     -2.422570   -9.028500    2.896420
  H     -1.612550   -8.760300    5.825720
  H      0.041880   -8.801650    7.149660
  H      0.144550   -9.751270    8.628930
  H     -1.360510   -9.734020    7.717140
  H      1.298910  -11.649150    8.508840
  H      2.149840  -13.647830    7.391350
  H      1.565820  -14.111990    5.050390
  H      0.999340  -14.233110    3.049520
  H     -1.932050  -12.727810    1.086210
  H     -1.131780  -13.168330   -0.430960
  H     -0.569710  -11.785240    0.511680
  H      1.382950  -15.289910    1.038420
  H      0.663570  -14.662040   -0.459080
  H     -1.415870  -15.718200    0.213750
  H      0.336180  -16.967150    2.211670
  H     -2.609520  -17.336480    1.489890
  H     -0.408740  -20.535110    5.651660
  H     -4.609860  -17.463010    2.322380
  H     -5.774750  -18.735760    1.959110
  H     -4.224570  -18.709720    1.120960
  H     -5.987520  -20.333940    3.505070
  H     -5.201700  -21.802480    5.286970
  H     -2.833670  -21.717970    6.026540

 Total Charge           Charge          ....    0
 Multiplicity           Mult            ....    1
 Number of Electrons    NEL             ....  402
 Basis Dimension        Dim             ....  913

ORBITAL ENERGIES
----------------

  NO   OCC          E(Eh)            E(eV)
   0   2.0000     -88.959948     -2420.7232
   1   2.0000     -88.956329     -2420.6248
   2   2.0000     -88.944697     -2420.3082
   3   2.0000     -88.937675     -2420.1172
   4   2.0000     -88.936543     -2420.0864
   5   2.0000     -24.780926      -674.3233
   6   2.0000     -24.780437      -674.3100
   7   2.0000     -14.420493      -392.4016
   8   2.0000     -10.361220      -281.9431
   9   2.0000     -10.360816      -281.9321
  10   2.0000     -10.308795      -280.5166
  11   2.0000     -10.306411      -280.4517
  12   2.0000     -10.305712      -280.4327
  13   2.0000     -10.305601      -280.4296
  14   2.0000     -10.304209      -280.3918
  15   2.0000     -10.303246      -280.3656
  16   2.0000     -10.302592      -280.3478
  17   2.0000     -10.297896      -280.2200
  18   2.0000     -10.297415      -280.2069
  19   2.0000     -10.296318      -280.1771
  20   2.0000     -10.288165      -279.9552
  21   2.0000     -10.287895      -279.9478
  22   2.0000     -10.287474      -279.9364
  23   2.0000     -10.284882      -279.8659
  24   2.0000     -10.284445      -279.8540
  25   2.0000     -10.283812      -279.8367
  26   2.0000     -10.283438      -279.8266
  27   2.0000     -10.282576      -279.8031
  28   2.0000     -10.282525      -279.8017
  29   2.0000     -10.281663      -279.7783
  30   2.0000     -10.277746      -279.6717
  31   2.0000     -10.277473      -279.6643
  32   2.0000     -10.276647      -279.6418
  33   2.0000     -10.275809      -279.6190
  34   2.0000     -10.275105      -279.5998
  35   2.0000     -10.272976      -279.5419
  36   2.0000     -10.272798      -279.5370
  37   2.0000     -10.269808      -279.4557
  38   2.0000     -10.269403      -279.4447
  39   2.0000     -10.264577      -279.3133
  40   2.0000     -10.262807      -279.2652
  41   2.0000     -10.262645      -279.2608
  42   2.0000     -10.262030      -279.2440
  43   2.0000     -10.259740      -279.1817
  44   2.0000     -10.259431      -279.1733
  45   2.0000     -10.252709      -278.9904
  46   2.0000     -10.252385      -278.9816
  47   2.0000     -10.250515      -278.9307
  48   2.0000     -10.246956      -278.8339
  49   2.0000     -10.246693      -278.8267
  50   2.0000     -10.246199      -278.8132
  51   2.0000     -10.241527      -278.6861
  52   2.0000      -8.054774      -219.1815
  53   2.0000      -8.051005      -219.0790
  54   2.0000      -8.040671      -218.7978
  55   2.0000      -8.034381      -218.6266
  56   2.0000      -8.032301      -218.5700
  57   2.0000      -6.023825      -163.9166
  58   2.0000      -6.020001      -163.8126
  59   2.0000      -6.019749      -163.8057
  60   2.0000      -6.017404      -163.7419
  61   2.0000      -6.015870      -163.7002
  62   2.0000      -6.013844      -163.6450
  63   2.0000      -6.010440      -163.5524
  64   2.0000      -6.006289      -163.4394
  65   2.0000      -6.004200      -163.3826
  66   2.0000      -6.001641      -163.3129
  67   2.0000      -6.001268      -163.3028
  68   2.0000      -6.000270      -163.2756
  69   2.0000      -5.997207      -163.1923
  70   2.0000      -5.995089      -163.1347
  71   2.0000      -5.994937      -163.1305
  72   2.0000      -1.301298       -35.4101
  73   2.0000      -1.286775       -35.0149
  74   2.0000      -1.023347       -27.8467
  75   2.0000      -0.998361       -27.1668
  76   2.0000      -0.989610       -26.9287
  77   2.0000      -0.987403       -26.8686
  78   2.0000      -0.967933       -26.3388
  79   2.0000      -0.965623       -26.2759
  80   2.0000      -0.937739       -25.5172
  81   2.0000      -0.927136       -25.2286
  82   2.0000      -0.914349       -24.8807
  83   2.0000      -0.905523       -24.6405
  84   2.0000      -0.899145       -24.4670
  85   2.0000      -0.882808       -24.0224
  86   2.0000      -0.872506       -23.7421
  87   2.0000      -0.862701       -23.4753
  88   2.0000      -0.853289       -23.2192
  89   2.0000      -0.848467       -23.0880
  90   2.0000      -0.843291       -22.9471
  91   2.0000      -0.837432       -22.7877
  92   2.0000      -0.830393       -22.5961
  93   2.0000      -0.819167       -22.2907
  94   2.0000      -0.818444       -22.2710
  95   2.0000      -0.817722       -22.2514
  96   2.0000      -0.802322       -21.8323
  97   2.0000      -0.798780       -21.7359
  98   2.0000      -0.787731       -21.4353
  99   2.0000      -0.779115       -21.2008
 100   2.0000      -0.769948       -20.9513
 101   2.0000      -0.759644       -20.6710
 102   2.0000      -0.747634       -20.3441
 103   2.0000      -0.732026       -19.9194
 104   2.0000      -0.730214       -19.8701
 105   2.0000      -0.719242       -19.5716
 106   2.0000      -0.707472       -19.2513
 107   2.0000      -0.689593       -18.7648
 108   2.0000      -0.686175       -18.6718
 109   2.0000      -0.683776       -18.6065
 110   2.0000      -0.666063       -18.1245
 111   2.0000      -0.665044       -18.0968
 112   2.0000      -0.661704       -18.0059
 113   2.0000      -0.655469       -17.8362
 114   2.0000      -0.642907       -17.4944
 115   2.0000      -0.639499       -17.4016
 116   2.0000      -0.631409       -17.1815
 117   2.0000      -0.622941       -16.9511
 118   2.0000      -0.621627       -16.9153
 119   2.0000      -0.615509       -16.7488
 120   2.0000      -0.605187       -16.4680
 121   2.0000      -0.600173       -16.3315
 122   2.0000      -0.598099       -16.2751
 123   2.0000      -0.594771       -16.1845
 124   2.0000      -0.588726       -16.0200
 125   2.0000      -0.576794       -15.6954
 126   2.0000      -0.576620       -15.6906
 127   2.0000      -0.568063       -15.4578
 128   2.0000      -0.567121       -15.4321
 129   2.0000      -0.564328       -15.3562
 130   2.0000      -0.557207       -15.1624
 131   2.0000      -0.548795       -14.9335
 132   2.0000      -0.545219       -14.8362
 133   2.0000      -0.539361       -14.6768
 134   2.0000      -0.534100       -14.5336
 135   2.0000      -0.530374       -14.4322
 136   2.0000      -0.529433       -14.4066
 137   2.0000      -0.527863       -14.3639
 138   2.0000      -0.527093       -14.3429
 139   2.0000      -0.518316       -14.1041
 140   2.0000      -0.514253       -13.9935
 141   2.0000      -0.512054       -13.9337
 142   2.0000      -0.509859       -13.8740
 143   2.0000      -0.504410       -13.7257
 144   2.0000      -0.502026       -13.6608
 145   2.0000      -0.499455       -13.5909
 146   2.0000      -0.498270       -13.5586
 147   2.0000      -0.493894       -13.4396
 148   2.0000      -0.491061       -13.3624
 149   2.0000      -0.489297       -13.3144
 150   2.0000      -0.488814       -13.3013
 151   2.0000      -0.485374       -13.2077
 152   2.0000      -0.484511       -13.1842
 153   2.0000      -0.482395       -13.1266
 154   2.0000      -0.478666       -13.0252
 155   2.0000      -0.474896       -12.9226
 156   2.0000      -0.473309       -12.8794
 157   2.0000      -0.471987       -12.8434
 158   2.0000      -0.468479       -12.7480
 159   2.0000      -0.465803       -12.6751
 160   2.0000      -0.461303       -12.5527
 161   2.0000      -0.459209       -12.4957
 162   2.0000      -0.458092       -12.4653
 163   2.0000      -0.455111       -12.3842
 164   2.0000      -0.452922       -12.3246
 165   2.0000      -0.447947       -12.1893
 166   2.0000      -0.444882       -12.1059
 167   2.0000      -0.439397       -11.9566
 168   2.0000      -0.434072       -11.8117
 169   2.0000      -0.431869       -11.7517
 170   2.0000      -0.427780       -11.6405
 171   2.0000      -0.424532       -11.5521
 172   2.0000      -0.422767       -11.5041
 173   2.0000      -0.419548       -11.4165
 174   2.0000      -0.411233       -11.1902
 175   2.0000      -0.410337       -11.1658
 176   2.0000      -0.409856       -11.1527
 177   2.0000      -0.407134       -11.0787
 178   2.0000      -0.403696       -10.9851
 179   2.0000      -0.403038       -10.9672
 180   2.0000      -0.392663       -10.6849
 181   2.0000      -0.390867       -10.6360
 182   2.0000      -0.386993       -10.5306
 183   2.0000      -0.385883       -10.5004
 184   2.0000      -0.385547       -10.4913
 185   2.0000      -0.381589       -10.3836
 186   2.0000      -0.369422       -10.0525
 187   2.0000      -0.338045        -9.1987
 188   2.0000      -0.336468        -9.1558
 189   2.0000      -0.331311        -9.0154
 190   2.0000      -0.328140        -8.9291
 191   2.0000      -0.318985        -8.6800
 192   2.0000      -0.315969        -8.5980
 193   2.0000      -0.307251        -8.3607
 194   2.0000      -0.305871        -8.3232
 195   2.0000      -0.289098        -7.8668
 196   2.0000      -0.283799        -7.7226
 197   2.0000      -0.272860        -7.4249
 198   2.0000      -0.236017        -6.4224
 199   2.0000      -0.206927        -5.6308
 200   2.0000      -0.190759        -5.1908
 201   0.0000      -0.084688        -2.3045
 202   0.0000      -0.042992        -1.1699
 203   0.0000      -0.016743        -0.4556
 204   0.0000      -0.010954        -0.2981
 205   0.0000       0.018754         0.5103

MULLIKEN ATOMIC CHARGES
-----------------------
   0 C :   -0.028919
   1 C :   -0.064929
   2 C :    0.050677
   3 C :    0.030628
   4 C :   -0.068346
   5 S :    0.078999
   6 C :   -0.036384
   7 C :    0.027989
   8 C :    0.024293
   9 C :   -0.038297
  10 S :    0.064395
  11 C :   -0.020560
  12 C :   -0.088125
  13 S :    0.126001
  14 C :   -0.102542
  15 C :    0.143438
  16 C :    0.126515
  17 C :   -0.123296
  18 C :    0.224002
  19 F :   -0.183172
  20 C :    0.218793
  21 F :   -0.182018
  22 C :   -0.119077
  23 C :    0.036173
  24 C :   -0.008925
  25 C :   -0.117502
  26 S :    0.073133
  27 C :   -0.092636
  28 C :    0.122341
  29 C :    0.131454
  30 C :   -0.113113
  31 C :    0.115314
  32 C :   -0.041525
  33 C :    0.032832
  34 C :   -0.040627
  35 C :    0.032824
  36 C :   -0.238295
  37 C :    0.092566
  38 C :    0.193491
  39 N :   -0.151774
  40 C :    0.039644
  41 C :   -0.016347
  42 C :   -0.153563
  43 S :    0.088113
  44 C :   -0.143167
  45 C :    0.093215
  46 C :    0.121785
  47 C :   -0.086283
  48 C :    0.102109
  49 C :   -0.056945
  50 C :    0.028279
  51 C :   -0.006082
  52 H :    0.020073
  53 H :    0.020000
  54 H :   -0.012261
  55 H :   -0.011773
  56 H :   -0.017065
  57 H :   -0.014329
  58 H :   -0.020078
  59 H :   -0.015026
  60 H :   -0.026766
  61 H :   -0.014931
  62 H :   -0.071985
  63 H :    0.037501
  64 H :    0.001715
  65 H :    0.036598
  66 H :   -0.032165
  67 H :   -0.020105
  68 H :   -0.030585
  69 H :   -0.034838
  70 H :    0.040127
  71 H :    0.004557
  72 H :    0.041333
  73 H :    0.009932
  74 H :    0.008954
  75 H :    0.109512
  76 H :   -0.001690
  77 H :   -0.053984
  78 H :    0.003340
  79 H :    0.029706
  80 H :   -0.002559
  81 H :    0.028967
  82 H :   -0.042182
  83 H :   -0.026717
  84 H :   -0.039834
Sum of atomic charges:    0.0000000

LOEWDIN ATOMIC CHARGES
----------------------
   0 C :   -0.077583
   1 C :   -0.139248
   2 C :   -0.032408
   3 C :   -0.026896
   4 C :   -0.176660
   5 S :    0.351215
   6 C :   -0.180781
   7 C :   -0.041610
   8 C :   -0.034899
   9 C :   -0.158505
  10 S :    0.368423
  11 C :   -0.075280
  12 C :   -0.182670
  13 S :    0.466511
  14 C :   -0.170462
  15 C :   -0.047034
  16 C :   -0.040704
  17 C :   -0.038019
  18 C :    0.057615
  19 F :   -0.061589
  20 C :    0.060486
  21 F :   -0.062329
  22 C :   -0.041250
  23 C :   -0.066732
  24 C :   -0.052463
  25 C :   -0.175897
  26 S :    0.488141
  27 C :   -0.171361
  28 C :   -0.042335
  29 C :   -0.042332
  30 C :   -0.014628
  31 C :   -0.046517
  32 C :   -0.035015
  33 C :   -0.027376
  34 C :   -0.020715
  35 C :   -0.057404
  36 C :   -0.046706
  37 C :   -0.068293
  38 C :    0.041762
  39 N :   -0.018453
  40 C :    0.024629
  41 C :   -0.133236
  42 C :   -0.160923
  43 S :    0.444740
  44 C :   -0.221487
  45 C :   -0.047786
  46 C :   -0.064834
  47 C :   -0.012709
  48 C :   -0.047172
  49 C :   -0.053548
  50 C :   -0.034114
  51 C :   -0.025858
  52 H :    0.028575
  53 H :    0.025515
  54 H :    0.033051
  55 H :    0.032455
  56 H :    0.030344
  57 H :    0.032550
  58 H :    0.036781
  59 H :    0.038269
  60 H :    0.036469
  61 H :    0.015202
  62 H :    0.025471
  63 H :    0.034012
  64 H :    0.032139
  65 H :    0.033567
  66 H :    0.024649
  67 H :    0.028182
  68 H :    0.025416
  69 H :    0.029490
  70 H :    0.031271
  71 H :    0.025804
  72 H :    0.035268
  73 H :    0.028716
  74 H :    0.023723
  75 H :    0.071768
  76 H :    0.013538
  77 H :    0.022955
  78 H :    0.017281
  79 H :    0.031814
  80 H :    0.028298
  81 H :    0.031188
  82 H :    0.019968
  83 H :    0.024420
  84 H :    0.024147

  Mayer bond orders larger than 0.100000
B(  0-C ,  1-C ) :   1.8563 B(  0-C , 52-H ) :   0.9509 B(  0-C , 53-H ) :   0.9415
B(  1-C ,  2-C ) :   1.0848 B(  1-C ,  5-S ) :   1.0086 B(  2-C ,  3-C ) :   1.6498
B(  2-C , 54-H ) :   0.9932 B(  3-C ,  4-C ) :   1.1628 B(  3-C , 55-H ) :   0.9917
B(  4-C ,  5-S ) :   1.0472 B(  4-C ,  6-C ) :   1.5338 B(  6-C ,  7-C ) :   1.1856
B(  6-C , 10-S ) :   1.0366 B(  7-C ,  8-C ) :   1.5775 B(  7-C , 56-H ) :   0.9925
B(  8-C ,  9-C ) :   1.1655 B(  8-C , 57-H ) :   0.9992 B(  9-C , 10-S ) :   1.0401
B(  9-C , 11-C ) :   1.5195 B( 11-C , 12-C ) :   1.2642 B( 11-C , 58-H ) :   0.9592
B( 12-C , 13-S ) :   1.1132 B( 12-C , 16-C ) :   1.2629 B( 13-S , 14-C ) :   1.1401
B( 14-C , 15-C ) :   1.2875 B( 14-C , 23-C ) :   1.2347 B( 15-C , 16-C ) :   1.2385
B( 15-C , 22-C ) :   1.1735 B( 16-C , 17-C ) :   1.1957 B( 17-C , 18-C ) :   1.4744
B( 17-C , 22-C ) :   0.1132 B( 17-C , 59-H ) :   0.9974 B( 18-C , 19-F ) :   1.1267
B( 18-C , 20-C ) :   1.1799 B( 20-C , 21-F ) :   1.1397 B( 20-C , 22-C ) :   1.4840
B( 22-C , 60-H ) :   0.9987 B( 23-C , 24-C ) :   1.5471 B( 23-C , 61-H ) :   0.9334
B( 24-C , 25-C ) :   1.2341 B( 24-C , 62-H ) :   0.9597 B( 25-C , 26-S ) :   1.1106
B( 25-C , 27-C ) :   0.1062 B( 25-C , 29-C ) :   1.2992 B( 26-S , 27-C ) :   1.1349
B( 27-C , 28-C ) :   1.3202 B( 27-C , 35-C ) :   1.1533 B( 28-C , 29-C ) :   1.2106
B( 28-C , 34-C ) :   1.2106 B( 29-C , 30-C ) :   1.2125 B( 30-C , 31-C ) :   1.0996
B( 30-C , 32-C ) :   1.5561 B( 31-C , 63-H ) :   0.9345 B( 31-C , 64-H ) :   0.9402
B( 31-C , 65-H ) :   0.9371 B( 32-C , 33-C ) :   1.2114 B( 32-C , 66-H ) :   0.9841
B( 33-C , 34-C ) :   1.5396 B( 33-C , 67-H ) :   0.9845 B( 34-C , 68-H ) :   0.9923
B( 35-C , 36-C ) :   1.7528 B( 35-C , 69-H ) :   0.9532 B( 36-C , 37-C ) :   1.0932
B( 36-C , 38-C ) :   1.0444 B( 37-C , 70-H ) :   0.9395 B( 37-C , 71-H ) :   0.9434
B( 37-C , 72-H ) :   0.9320 B( 38-C , 39-N ) :   1.0350 B( 38-C , 73-H ) :   0.9375
B( 38-C , 74-H ) :   0.9345 B( 39-N , 40-C ) :   1.1885 B( 39-N , 75-H ) :   0.9405
B( 40-C , 41-C ) :   1.6479 B( 40-C , 76-H ) :   0.9593 B( 41-C , 42-C ) :   1.1557
B( 41-C , 77-H ) :   0.9548 B( 42-C , 43-S ) :   1.1605 B( 42-C , 44-C ) :   0.1085
B( 42-C , 46-C ) :   1.3941 B( 43-S , 44-C ) :   1.1533 B( 44-C , 45-C ) :   1.4529
B( 44-C , 78-H ) :   0.9707 B( 45-C , 46-C ) :   1.1827 B( 45-C , 51-C ) :   1.1617
B( 46-C , 47-C ) :   1.1835 B( 47-C , 48-C ) :   1.0943 B( 47-C , 49-C ) :   1.5998
B( 48-C , 79-H ) :   0.9415 B( 48-C , 80-H ) :   0.9434 B( 48-C , 81-H ) :   0.9400
B( 49-C , 50-C ) :   1.1721 B( 49-C , 82-H ) :   0.9815 B( 50-C , 51-C ) :   1.5730
B( 50-C , 83-H ) :   0.9864 B( 51-C , 84-H ) :   1.0012

-----------------------------------------------------------------------------
         ABSORPTION SPECTRUM VIA TRANSITION ELECTRIC DIPOLE MOMENTS
-----------------------------------------------------------------------------
State   Energy  Wavelength   fosc         T2         TX        TY        TZ
        (cm-1)    (nm)                  (au**2)     (au)      (au)      (au)
-----------------------------------------------------------------------------
   0   10576.2    945.5   0.923082150  28.73323   2.44874  -3.17060   3.56149
   1   16230.6    616.1   0.068985689   1.39927   0.39372   0.71125   0.85928
   2   17564.8    569.3   0.041599468   0.77969   0.00739  -0.60727  -0.64098
   3   20798.5    480.8   1.332757099  21.09578  -0.83927   2.93803   3.42919
   4   22363.5    447.2   0.053173704   0.78277  -0.08955   0.10995   0.87331
   5   24506.7    408.1   0.084261609   1.13193  -0.59540  -0.32307   0.82040
   6   25898.5    386.1   0.309625401   3.93584   0.44234   1.24867  -1.47682
   7   26889.0    371.9   0.048426307   0.59290  -0.17461   0.65711   0.36141
   8   28816.2    347.0   0.019481524   0.22257  -0.00644   0.06087  -0.46778
   9   29072.5    344.0   0.079220749   0.89708  -0.52788   0.76757  -0.17106
  10   29326.2    341.0   0.001442783   0.01620  -0.00012  -0.12639  -0.01489
  11   30222.6    330.9   0.039360812   0.42875   0.34555  -0.52833  -0.17383
  12   31153.4    321.0   0.098281490   1.03859   0.60128  -0.73538   0.36915
  13   31936.1    313.1   0.011879274   0.12246   0.14709  -0.07342  -0.30892
  14   32275.0    309.8   0.035793712   0.36510  -0.00675  -0.38702  -0.46397
  15   32594.8    306.8   0.007784144   0.07862   0.09582  -0.25368   0.07132
  16   33220.7    301.0   0.016863215   0.16711  -0.10201  -0.23993  -0.31486
  17   33637.2    297.3   0.001308965   0.01281  -0.04506   0.06420  -0.08160
  18   34419.7    290.5   0.039923205   0.38185  -0.08274   0.42525   0.44065
  19   35383.1    282.6   0.215768982   2.00756   0.72826  -0.00218   1.21540
  20   35512.7    281.6   0.079584833   0.73777  -0.41616   0.64279   0.38910
  21   35623.6    280.7   0.002984806   0.02758  -0.14374   0.08071  -0.02018
  22   36334.0    275.2   0.052826414   0.47864  -0.09158  -0.67284   0.13247
  23   36930.8    270.8   0.009586739   0.08546   0.23695   0.06828  -0.15701
  24   37117.5    269.4   0.150044252   1.33081   0.05195   0.19410   1.13597
  25   37925.7    263.7   0.000883681   0.00767   0.01842  -0.08328  -0.01989
  26   38199.5    261.8   0.064301448   0.55416  -0.42831   0.56943  -0.21557
  27   38627.8    258.9   0.002013887   0.01716   0.12343  -0.03787  -0.02223
  28   39027.9    256.2   0.116791740   0.98517   0.46346   0.00722   0.87768
  29   39135.9    255.5   0.018036857   0.15173  -0.20742   0.12749  -0.30405

FINAL SINGLE POINT ENERGY     -3938.761697714850

DIPOLE MOMENT
-------------
                                X             Y             Z
Electronic contribution:    -11.92761      59.75772      18.26468
Nuclear contribution   :     11.88145     -58.63955     -20.15202
                        -----------------------------------------
Total Dipole Moment    :     -0.04616       1.11816      -1.88734
                        -----------------------------------------
Magnitude (a.u.)       :      2.19419
Magnitude (Debye)      :      5.57719

Rotational constants in cm-1:     0.001512     0.000595     0.000478
Rotational constants in MHz :    45.315387    17.840959    14.341848

                             ****ORCA TERMINATED NORMALLY****
TOTAL RUN TIME: 0 days 0 hours 6 minutes 4 seconds 645 msec
