                         Program Version 4.2.0 -  RELEASE  -
|  1> # ORCA input file
|  2> # SCF done       -168.698060213797          0.000545581695
|  3> ! CAM-B3LYP def2-SVP def2/J RIJCOSX Grid4 TightSCF
|  4> %maxcore 5000
|  5> %tddft
|  6>     Mode sTDDFT
|  7>     Ethresh 5.0
|  8>     maxcore 5000
|  9> end
| 10>
| 11> %pal
| 12>   nprocs 6
| 13>   end
| 14> * xyz 0 1
| 15>    C       -4.53057        -3.85859         1.82696
| 16>    C       -3.31186        -3.32004         1.97455
| 17>    C       -2.98434        -2.00100         2.43264
| 18>    C       -1.65867        -1.73739         2.47476
| 19>    C       -0.83184        -2.81519         2.05644
| 20>    S       -1.81606        -4.19402         1.60642
| 21>    C        0.54212        -2.83577         1.98289
| 22>    C        1.44772        -1.79726         2.30269
| 23>    C        2.75305        -2.12560         2.10345
| 24>    C        2.96033        -3.43771         1.61345
| 25>    S        1.41926        -4.25203         1.42875
| 26>    C        4.18156        -3.99118         1.30295
| 27>    C        4.43756        -5.26373         0.79616
| 28>    S        3.18915        -6.44174         0.51151
| 29>    C        4.30118        -7.62582        -0.10314
| 30>    C        5.61391        -7.12079        -0.08672
| 31>    C        5.69568        -5.79162         0.42580
| 32>    C        6.94113        -5.15033         0.50809
| 33>    C        8.06146        -5.81577         0.09364
| 34>    F        9.26253        -5.21272         0.16651
| 35>    C        7.98258        -7.12923        -0.41143
| 36>    F        9.11051        -7.74798        -0.80832
| 37>    C        6.78513        -7.77947        -0.50335
| 38>    C        3.86849        -8.88982        -0.55621
| 39>    C        2.58831        -9.33621        -0.46184
| 40>    C        2.09702       -10.57482        -0.94783
| 41>    N        2.84620       -11.44171        -1.70952
| 42>    C        2.10366       -12.50872        -2.06308
| 43>    C        0.83564       -12.37099        -1.51549
| 44>    C        0.83198       -11.14303        -0.80409
| 45>    C       -0.32733       -10.58426        -0.05695
| 46>    C       -0.27344       -13.27824        -1.64048
| 47>    C       -0.37911       -14.22629        -2.58975
| 48>    C       -1.47940       -15.13381        -2.74782
| 49>    C       -2.37136       -15.48255        -1.79901
| 50>    C       -3.45580       -16.38125        -2.06454
| 51>    C       -4.32037       -16.90296        -1.17977
| 52>    C       -4.27096       -16.71663         0.30257
| 53>    C       -5.40469       -17.84039        -1.66033
| 54>    N       -5.14254       -19.18778        -1.20582
| 55>    C       -5.74583       -19.76585        -0.16694
| 56>    C       -5.27301       -20.87863         0.46827
| 57>    C       -5.93390       -21.47981         1.54433
| 58>    C       -5.43582       -22.46541         2.36224
| 59>    C       -6.34940       -23.32429         3.14181
| 60>    O       -7.53581       -23.15247         3.33053
| 61>    C       -5.52137       -24.46486         3.59296
| 62>    C       -5.89997       -25.59702         4.25175
| 63>    C       -4.92987       -26.58431         4.54161
| 64>    C       -3.57989       -26.37441         4.13831
| 65>    C       -2.62039       -27.36605         4.41984
| 66>    C       -3.00290       -28.50373         5.07396
| 67>    C       -4.32436       -28.72830         5.48055
| 68>    C       -5.26860       -27.77554         5.21427
| 69>    F       -2.08610       -29.45387         5.34357
| 70>    C       -3.21414       -25.18414         3.46564
| 71>    C       -4.17017       -24.24299         3.20032
| 72>    C       -4.09058       -22.93588         2.54810
| 73>    C       -2.93061       -22.21647         2.36477
| 74>    C       -2.89385       -20.85553         2.01175
| 75>    N       -2.81471       -19.73554         1.76301
| 76>    C       -1.64253       -22.72959         2.60750
| 77>    N       -0.56596       -23.09949         2.76335
| 78>    H       -5.41305        -3.29034         2.06232
| 79>    H       -4.66589        -4.86410         1.47349
| 80>    H       -3.75927        -1.30822         2.70905
| 81>    H       -1.23718        -0.79982         2.79164
| 82>    H        1.11339        -0.84184         2.66482
| 83>    H        3.58059        -1.46307         2.28830
| 84>    H        5.04198        -3.35408         1.45816
| 85>    H        7.03468        -4.14719         0.89040
| 86>    H        6.75843        -8.78468        -0.89038
| 87>    H        4.63445        -9.51541        -0.99384
| 88>    H        1.86352        -8.69614         0.02156
| 89>    H        3.80345       -11.28611        -1.97535
| 90>    H        2.51302       -13.30581        -2.65140
| 91>    H       -1.18997       -10.48350        -0.71511
| 92>    H       -0.09321        -9.60904         0.35947
| 93>    H       -0.60692       -11.24864         0.76098
| 94>    H       -1.07914       -13.13636        -0.93402
| 95>    H        0.39866       -14.29983        -3.33865
| 96>    H       -1.56732       -15.59271        -3.72613
| 97>    H       -2.26521       -15.09273        -0.79839
| 98>    H       -3.57816       -16.64578        -3.10955
| 99>    H       -3.65246       -15.87017         0.58029
|100>    H       -3.85602       -17.60603         0.78120
|101>    H       -5.27270       -16.56199         0.70193
|102>    H       -5.44890       -17.84217        -2.75411
|103>    H       -6.37951       -17.53380        -1.27132
|104>    H       -4.24226       -19.56202        -1.47706
|105>    H       -6.66159       -19.29762         0.17033
|106>    H       -4.33668       -21.30006         0.13092
|107>    H       -6.96765       -21.20513         1.72331
|108>    H       -6.92834       -25.74239         4.54722
|109>    H       -1.59254       -27.22499         4.12380
|110>    H       -4.56786       -29.64551         5.99302
|111>    H       -6.29402       -27.92623         5.51715
|112>    H       -2.18594       -25.05419         3.16676
|113> *
|114>
|115>                          ****END OF INPUT****

CARTESIAN COORDINATES (ANGSTROEM)
---------------------------------
  C     -4.530570   -3.858590    1.826960
  C     -3.311860   -3.320040    1.974550
  C     -2.984340   -2.001000    2.432640
  C     -1.658670   -1.737390    2.474760
  C     -0.831840   -2.815190    2.056440
  S     -1.816060   -4.194020    1.606420
  C      0.542120   -2.835770    1.982890
  C      1.447720   -1.797260    2.302690
  C      2.753050   -2.125600    2.103450
  C      2.960330   -3.437710    1.613450
  S      1.419260   -4.252030    1.428750
  C      4.181560   -3.991180    1.302950
  C      4.437560   -5.263730    0.796160
  S      3.189150   -6.441740    0.511510
  C      4.301180   -7.625820   -0.103140
  C      5.613910   -7.120790   -0.086720
  C      5.695680   -5.791620    0.425800
  C      6.941130   -5.150330    0.508090
  C      8.061460   -5.815770    0.093640
  F      9.262530   -5.212720    0.166510
  C      7.982580   -7.129230   -0.411430
  F      9.110510   -7.747980   -0.808320
  C      6.785130   -7.779470   -0.503350
  C      3.868490   -8.889820   -0.556210
  C      2.588310   -9.336210   -0.461840
  C      2.097020  -10.574820   -0.947830
  N      2.846200  -11.441710   -1.709520
  C      2.103660  -12.508720   -2.063080
  C      0.835640  -12.370990   -1.515490
  C      0.831980  -11.143030   -0.804090
  C     -0.327330  -10.584260   -0.056950
  C     -0.273440  -13.278240   -1.640480
  C     -0.379110  -14.226290   -2.589750
  C     -1.479400  -15.133810   -2.747820
  C     -2.371360  -15.482550   -1.799010
  C     -3.455800  -16.381250   -2.064540
  C     -4.320370  -16.902960   -1.179770
  C     -4.270960  -16.716630    0.302570
  C     -5.404690  -17.840390   -1.660330
  N     -5.142540  -19.187780   -1.205820
  C     -5.745830  -19.765850   -0.166940
  C     -5.273010  -20.878630    0.468270
  C     -5.933900  -21.479810    1.544330
  C     -5.435820  -22.465410    2.362240
  C     -6.349400  -23.324290    3.141810
  O     -7.535810  -23.152470    3.330530
  C     -5.521370  -24.464860    3.592960
  C     -5.899970  -25.597020    4.251750
  C     -4.929870  -26.584310    4.541610
  C     -3.579890  -26.374410    4.138310
  C     -2.620390  -27.366050    4.419840
  C     -3.002900  -28.503730    5.073960
  C     -4.324360  -28.728300    5.480550
  C     -5.268600  -27.775540    5.214270
  F     -2.086100  -29.453870    5.343570
  C     -3.214140  -25.184140    3.465640
  C     -4.170170  -24.242990    3.200320
  C     -4.090580  -22.935880    2.548100
  C     -2.930610  -22.216470    2.364770
  C     -2.893850  -20.855530    2.011750
  N     -2.814710  -19.735540    1.763010
  C     -1.642530  -22.729590    2.607500
  N     -0.565960  -23.099490    2.763350
  H     -5.413050   -3.290340    2.062320
  H     -4.665890   -4.864100    1.473490
  H     -3.759270   -1.308220    2.709050
  H     -1.237180   -0.799820    2.791640
  H      1.113390   -0.841840    2.664820
  H      3.580590   -1.463070    2.288300
  H      5.041980   -3.354080    1.458160
  H      7.034680   -4.147190    0.890400
  H      6.758430   -8.784680   -0.890380
  H      4.634450   -9.515410   -0.993840
  H      1.863520   -8.696140    0.021560
  H      3.803450  -11.286110   -1.975350
  H      2.513020  -13.305810   -2.651400
  H     -1.189970  -10.483500   -0.715110
  H     -0.093210   -9.609040    0.359470
  H     -0.606920  -11.248640    0.760980
  H     -1.079140  -13.136360   -0.934020
  H      0.398660  -14.299830   -3.338650
  H     -1.567320  -15.592710   -3.726130
  H     -2.265210  -15.092730   -0.798390
  H     -3.578160  -16.645780   -3.109550
  H     -3.652460  -15.870170    0.580290
  H     -3.856020  -17.606030    0.781200
  H     -5.272700  -16.561990    0.701930
  H     -5.448900  -17.842170   -2.754110
  H     -6.379510  -17.533800   -1.271320
  H     -4.242260  -19.562020   -1.477060
  H     -6.661590  -19.297620    0.170330
  H     -4.336680  -21.300060    0.130920
  H     -6.967650  -21.205130    1.723310
  H     -6.928340  -25.742390    4.547220
  H     -1.592540  -27.224990    4.123800
  H     -4.567860  -29.645510    5.993020
  H     -6.294020  -27.926230    5.517150
  H     -2.185940  -25.054190    3.166760

 Total Charge           Charge          ....    0
 Multiplicity           Mult            ....    1
 Number of Electrons    NEL             ....  458
 Basis Dimension        Dim             .... 1069

ORBITAL ENERGIES
----------------

  NO   OCC          E(Eh)            E(eV)
   0   2.0000     -88.959595     -2420.7136
   1   2.0000     -88.942566     -2420.2503
   2   2.0000     -88.935711     -2420.0637
   3   2.0000     -24.779641      -674.2883
   4   2.0000     -24.779477      -674.2838
   5   2.0000     -24.775011      -674.1623
   6   2.0000     -19.192363      -522.2507
   7   2.0000     -14.465249      -393.6194
   8   2.0000     -14.459821      -393.4717
   9   2.0000     -14.403056      -391.9271
  10   2.0000     -14.398502      -391.8032
  11   2.0000     -10.360260      -281.9170
  12   2.0000     -10.359863      -281.9062
  13   2.0000     -10.357421      -281.8398
  14   2.0000     -10.347025      -281.5569
  15   2.0000     -10.344766      -281.4954
  16   2.0000     -10.324016      -280.9308
  17   2.0000     -10.323288      -280.9109
  18   2.0000     -10.321572      -280.8643
  19   2.0000     -10.307875      -280.4915
  20   2.0000     -10.306725      -280.4602
  21   2.0000     -10.304778      -280.4073
  22   2.0000     -10.303953      -280.3848
  23   2.0000     -10.303619      -280.3757
  24   2.0000     -10.302812      -280.3538
  25   2.0000     -10.302509      -280.3455
  26   2.0000     -10.301417      -280.3158
  27   2.0000     -10.300431      -280.2890
  28   2.0000     -10.296709      -280.1877
  29   2.0000     -10.292403      -280.0705
  30   2.0000     -10.291719      -280.0519
  31   2.0000     -10.289944      -280.0036
  32   2.0000     -10.287554      -279.9386
  33   2.0000     -10.286780      -279.9175
  34   2.0000     -10.285935      -279.8945
  35   2.0000     -10.285364      -279.8790
  36   2.0000     -10.284769      -279.8628
  37   2.0000     -10.284505      -279.8556
  38   2.0000     -10.283855      -279.8379
  39   2.0000     -10.283487      -279.8279
  40   2.0000     -10.283466      -279.8273
  41   2.0000     -10.283359      -279.8244
  42   2.0000     -10.282862      -279.8109
  43   2.0000     -10.281645      -279.7778
  44   2.0000     -10.281244      -279.7669
  45   2.0000     -10.280451      -279.7453
  46   2.0000     -10.279698      -279.7248
  47   2.0000     -10.279031      -279.7066
  48   2.0000     -10.278370      -279.6887
  49   2.0000     -10.277433      -279.6632
  50   2.0000     -10.273633      -279.5598
  51   2.0000     -10.271064      -279.4898
  52   2.0000     -10.269683      -279.4523
  53   2.0000     -10.268730      -279.4263
  54   2.0000     -10.268493      -279.4199
  55   2.0000     -10.268034      -279.4074
  56   2.0000     -10.267490      -279.3926
  57   2.0000     -10.264013      -279.2980
  58   2.0000     -10.261341      -279.2253
  59   2.0000     -10.260697      -279.2078
  60   2.0000     -10.260654      -279.2066
  61   2.0000     -10.258554      -279.1494
  62   2.0000     -10.254812      -279.0476
  63   2.0000      -8.054162      -219.1649
  64   2.0000      -8.038612      -218.7417
  65   2.0000      -8.032508      -218.5757
  66   2.0000      -6.023219      -163.9001
  67   2.0000      -6.019196      -163.7906
  68   2.0000      -6.016775      -163.7248
  69   2.0000      -6.008381      -163.4964
  70   2.0000      -6.004270      -163.3845
  71   2.0000      -6.002335      -163.3318
  72   2.0000      -5.999517      -163.2551
  73   2.0000      -5.998406      -163.2249
  74   2.0000      -5.993022      -163.0784
  75   2.0000      -1.300411       -35.3860
  76   2.0000      -1.289160       -35.0798
  77   2.0000      -1.285728       -34.9864
  78   2.0000      -1.106699       -30.1148
  79   2.0000      -1.074584       -29.2409
  80   2.0000      -1.064582       -28.9688
  81   2.0000      -1.002963       -27.2920
  82   2.0000      -0.997729       -27.1496
  83   2.0000      -0.987911       -26.8824
  84   2.0000      -0.986277       -26.8380
  85   2.0000      -0.979371       -26.6500
  86   2.0000      -0.966192       -26.2914
  87   2.0000      -0.961415       -26.1614
  88   2.0000      -0.936817       -25.4921
  89   2.0000      -0.923910       -25.1409
  90   2.0000      -0.914722       -24.8909
  91   2.0000      -0.908561       -24.7232
  92   2.0000      -0.905467       -24.6390
  93   2.0000      -0.895337       -24.3634
  94   2.0000      -0.883129       -24.0312
  95   2.0000      -0.879851       -23.9420
  96   2.0000      -0.874885       -23.8068
  97   2.0000      -0.869260       -23.6538
  98   2.0000      -0.866416       -23.5764
  99   2.0000      -0.847634       -23.0653
 100   2.0000      -0.843096       -22.9418
 101   2.0000      -0.841805       -22.9067
 102   2.0000      -0.830928       -22.6107
 103   2.0000      -0.825664       -22.4675
 104   2.0000      -0.820182       -22.3183
 105   2.0000      -0.817196       -22.2370
 106   2.0000      -0.811607       -22.0849
 107   2.0000      -0.796796       -21.6819
 108   2.0000      -0.792831       -21.5740
 109   2.0000      -0.782772       -21.3003
 110   2.0000      -0.769125       -20.9290
 111   2.0000      -0.760797       -20.7023
 112   2.0000      -0.754304       -20.5257
 113   2.0000      -0.744827       -20.2678
 114   2.0000      -0.729862       -19.8606
 115   2.0000      -0.726402       -19.7664
 116   2.0000      -0.721267       -19.6267
 117   2.0000      -0.714820       -19.4513
 118   2.0000      -0.705264       -19.1912
 119   2.0000      -0.700861       -19.0714
 120   2.0000      -0.695269       -18.9192
 121   2.0000      -0.684133       -18.6162
 122   2.0000      -0.672044       -18.2873
 123   2.0000      -0.664998       -18.0955
 124   2.0000      -0.663509       -18.0550
 125   2.0000      -0.661361       -17.9965
 126   2.0000      -0.649435       -17.6720
 127   2.0000      -0.637745       -17.3539
 128   2.0000      -0.631529       -17.1848
 129   2.0000      -0.628931       -17.1141
 130   2.0000      -0.623340       -16.9619
 131   2.0000      -0.620300       -16.8792
 132   2.0000      -0.618855       -16.8399
 133   2.0000      -0.616683       -16.7808
 134   2.0000      -0.615904       -16.7596
 135   2.0000      -0.612797       -16.6750
 136   2.0000      -0.607016       -16.5178
 137   2.0000      -0.603287       -16.4163
 138   2.0000      -0.602184       -16.3862
 139   2.0000      -0.595727       -16.2105
 140   2.0000      -0.591311       -16.0904
 141   2.0000      -0.585875       -15.9425
 142   2.0000      -0.579131       -15.7590
 143   2.0000      -0.575247       -15.6533
 144   2.0000      -0.571321       -15.5464
 145   2.0000      -0.566132       -15.4052
 146   2.0000      -0.560965       -15.2646
 147   2.0000      -0.555827       -15.1248
 148   2.0000      -0.549217       -14.9450
 149   2.0000      -0.547177       -14.8894
 150   2.0000      -0.546781       -14.8787
 151   2.0000      -0.545826       -14.8527
 152   2.0000      -0.537127       -14.6160
 153   2.0000      -0.532654       -14.4942
 154   2.0000      -0.532140       -14.4803
 155   2.0000      -0.530534       -14.4366
 156   2.0000      -0.528574       -14.3832
 157   2.0000      -0.527657       -14.3583
 158   2.0000      -0.519198       -14.1281
 159   2.0000      -0.517388       -14.0788
 160   2.0000      -0.515742       -14.0340
 161   2.0000      -0.513426       -13.9710
 162   2.0000      -0.510947       -13.9036
 163   2.0000      -0.510889       -13.9020
 164   2.0000      -0.507328       -13.8051
 165   2.0000      -0.504617       -13.7313
 166   2.0000      -0.501716       -13.6524
 167   2.0000      -0.498551       -13.5663
 168   2.0000      -0.495280       -13.4772
 169   2.0000      -0.492436       -13.3999
 170   2.0000      -0.489276       -13.3139
 171   2.0000      -0.487583       -13.2678
 172   2.0000      -0.486526       -13.2390
 173   2.0000      -0.485239       -13.2040
 174   2.0000      -0.483144       -13.1470
 175   2.0000      -0.478954       -13.0330
 176   2.0000      -0.477871       -13.0035
 177   2.0000      -0.476110       -12.9556
 178   2.0000      -0.474766       -12.9190
 179   2.0000      -0.469953       -12.7881
 180   2.0000      -0.469424       -12.7737
 181   2.0000      -0.466529       -12.6949
 182   2.0000      -0.465012       -12.6536
 183   2.0000      -0.462612       -12.5883
 184   2.0000      -0.459093       -12.4926
 185   2.0000      -0.457787       -12.4570
 186   2.0000      -0.457067       -12.4374
 187   2.0000      -0.451013       -12.2727
 188   2.0000      -0.447309       -12.1719
 189   2.0000      -0.446856       -12.1596
 190   2.0000      -0.444143       -12.0857
 191   2.0000      -0.441711       -12.0196
 192   2.0000      -0.437021       -11.8919
 193   2.0000      -0.432379       -11.7656
 194   2.0000      -0.430280       -11.7085
 195   2.0000      -0.428166       -11.6510
 196   2.0000      -0.427342       -11.6286
 197   2.0000      -0.425464       -11.5775
 198   2.0000      -0.423103       -11.5132
 199   2.0000      -0.422964       -11.5094
 200   2.0000      -0.417849       -11.3703
 201   2.0000      -0.415476       -11.3057
 202   2.0000      -0.414339       -11.2747
 203   2.0000      -0.410818       -11.1789
 204   2.0000      -0.408850       -11.1254
 205   2.0000      -0.407653       -11.0928
 206   2.0000      -0.406925       -11.0730
 207   2.0000      -0.405666       -11.0387
 208   2.0000      -0.396652       -10.7935
 209   2.0000      -0.384254       -10.4561
 210   2.0000      -0.383520       -10.4361
 211   2.0000      -0.376564       -10.2468
 212   2.0000      -0.369760       -10.0617
 213   2.0000      -0.367399        -9.9974
 214   2.0000      -0.350887        -9.5481
 215   2.0000      -0.345219        -9.3939
 216   2.0000      -0.334879        -9.1125
 217   2.0000      -0.328801        -8.9471
 218   2.0000      -0.317734        -8.6460
 219   2.0000      -0.317398        -8.6368
 220   2.0000      -0.312944        -8.5156
 221   2.0000      -0.304961        -8.2984
 222   2.0000      -0.300527        -8.1778
 223   2.0000      -0.287944        -7.8353
 224   2.0000      -0.286529        -7.7969
 225   2.0000      -0.261049        -7.1035
 226   2.0000      -0.254237        -6.9181
 227   2.0000      -0.240537        -6.5453
 228   2.0000      -0.196609        -5.3500
 229   0.0000      -0.076938        -2.0936
 230   0.0000      -0.069942        -1.9032
 231   0.0000      -0.038074        -1.0360
 232   0.0000      -0.025519        -0.6944
 233   0.0000      -0.022380        -0.6090

MULLIKEN ATOMIC CHARGES
-----------------------
   0 C :   -0.027178
   1 C :   -0.066609
   2 C :    0.051498
   3 C :    0.029517
   4 C :   -0.068955
   5 S :    0.077325
   6 C :   -0.033793
   7 C :    0.026834
   8 C :    0.027684
   9 C :   -0.037719
  10 S :    0.060387
  11 C :   -0.025141
  12 C :   -0.085771
  13 S :    0.107021
  14 C :   -0.085938
  15 C :    0.126690
  16 C :    0.130951
  17 C :   -0.115171
  18 C :    0.221092
  19 F :   -0.184653
  20 C :    0.220562
  21 F :   -0.185010
  22 C :   -0.114028
  23 C :   -0.025949
  24 C :    0.000952
  25 C :    0.027675
  26 N :   -0.027786
  27 C :   -0.001430
  28 C :    0.045175
  29 C :   -0.147110
  30 C :    0.119419
  31 C :    0.004764
  32 C :    0.003378
  33 C :    0.012451
  34 C :    0.009824
  35 C :    0.010894
  36 C :   -0.203327
  37 C :    0.096520
  38 C :    0.193977
  39 N :   -0.108662
  40 C :    0.077600
  41 C :   -0.022989
  42 C :    0.033592
  43 C :   -0.149822
  44 C :    0.142351
  45 O :   -0.161312
  46 C :    0.004772
  47 C :   -0.089335
  48 C :    0.102955
  49 C :    0.103516
  50 C :   -0.100642
  51 C :    0.301503
  52 C :   -0.030108
  53 C :   -0.012592
  54 F :   -0.195547
  55 C :   -0.092620
  56 C :    0.043625
  57 C :    0.289376
  58 C :   -0.357401
  59 C :   -0.208322
  60 N :    0.155239
  61 C :   -0.175459
  62 N :    0.131855
  63 H :    0.018859
  64 H :    0.019559
  65 H :   -0.012590
  66 H :   -0.012914
  67 H :   -0.018234
  68 H :   -0.015140
  69 H :   -0.020072
  70 H :   -0.015055
  71 H :   -0.021432
  72 H :   -0.049117
  73 H :   -0.009869
  74 H :    0.122208
  75 H :   -0.004809
  76 H :    0.024973
  77 H :    0.003473
  78 H :    0.027419
  79 H :   -0.022294
  80 H :   -0.024045
  81 H :   -0.020595
  82 H :   -0.012172
  83 H :   -0.033208
  84 H :    0.012131
  85 H :    0.057029
  86 H :   -0.002958
  87 H :    0.014437
  88 H :    0.021445
  89 H :    0.135654
  90 H :    0.020466
  91 H :    0.006664
  92 H :    0.007059
  93 H :   -0.017765
  94 H :   -0.006076
  95 H :   -0.001905
  96 H :   -0.013099
  97 H :   -0.008624
Sum of atomic charges:   -0.0000000

LOEWDIN ATOMIC CHARGES
----------------------
   0 C :   -0.078650
   1 C :   -0.139376
   2 C :   -0.033149
   3 C :   -0.026700
   4 C :   -0.177734
   5 S :    0.349392
   6 C :   -0.180193
   7 C :   -0.041801
   8 C :   -0.033996
   9 C :   -0.159820
  10 S :    0.364442
  11 C :   -0.074112
  12 C :   -0.181605
  13 S :    0.464852
  14 C :   -0.174442
  15 C :   -0.049819
  16 C :   -0.043987
  17 C :   -0.039331
  18 C :    0.057416
  19 F :   -0.062411
  20 C :    0.057810
  21 F :   -0.063207
  22 C :   -0.042208
  23 C :   -0.071145
  24 C :   -0.026152
  25 C :   -0.034458
  26 N :    0.098602
  27 C :    0.011846
  28 C :   -0.084528
  29 C :   -0.049333
  30 C :   -0.047698
  31 C :   -0.000161
  32 C :   -0.048111
  33 C :   -0.020491
  34 C :   -0.032031
  35 C :   -0.040871
  36 C :   -0.052011
  37 C :   -0.055301
  38 C :    0.048977
  39 N :    0.045456
  40 C :    0.096372
  41 C :   -0.112354
  42 C :    0.077522
  43 C :   -0.134215
  44 C :    0.077677
  45 O :   -0.165545
  46 C :   -0.055431
  47 C :    0.027100
  48 C :   -0.020257
  49 C :    0.000864
  50 C :   -0.043260
  51 C :    0.089985
  52 C :   -0.041405
  53 C :    0.002268
  54 F :   -0.069844
  55 C :    0.006841
  56 C :   -0.016251
  57 C :    0.076113
  58 C :   -0.166198
  59 C :   -0.008110
  60 N :   -0.076979
  61 C :   -0.020972
  62 N :   -0.070157
  63 H :    0.028214
  64 H :    0.025423
  65 H :    0.032996
  66 H :    0.032059
  67 H :    0.029993
  68 H :    0.032344
  69 H :    0.037091
  70 H :    0.037986
  71 H :    0.035381
  72 H :    0.019816
  73 H :    0.026426
  74 H :    0.087365
  75 H :    0.019903
  76 H :    0.035449
  77 H :    0.030477
  78 H :    0.035749
  79 H :    0.025064
  80 H :    0.022645
  81 H :    0.024661
  82 H :    0.023646
  83 H :    0.022619
  84 H :    0.031699
  85 H :    0.042585
  86 H :    0.026190
  87 H :    0.027720
  88 H :    0.030732
  89 H :    0.091601
  90 H :    0.036136
  91 H :    0.029199
  92 H :    0.040489
  93 H :    0.037204
  94 H :    0.041776
  95 H :    0.039758
  96 H :    0.034048
  97 H :    0.037831

  Mayer bond orders larger than 0.100000
B(  0-C ,  1-C ) :   1.8610 B(  0-C , 63-H ) :   0.9500 B(  0-C , 64-H ) :   0.9411
B(  1-C ,  2-C ) :   1.0828 B(  1-C ,  5-S ) :   1.0084 B(  2-C ,  3-C ) :   1.6531
B(  2-C , 65-H ) :   0.9927 B(  3-C ,  4-C ) :   1.1618 B(  3-C , 66-H ) :   0.9909
B(  4-C ,  5-S ) :   1.0443 B(  4-C ,  6-C ) :   1.5420 B(  6-C ,  7-C ) :   1.1826
B(  6-C , 10-S ) :   1.0337 B(  7-C ,  8-C ) :   1.5852 B(  7-C , 67-H ) :   0.9915
B(  8-C ,  9-C ) :   1.1566 B(  8-C , 68-H ) :   0.9996 B(  9-C , 10-S ) :   1.0369
B(  9-C , 11-C ) :   1.5323 B( 11-C , 12-C ) :   1.2513 B( 11-C , 69-H ) :   0.9603
B( 12-C , 13-S ) :   1.1080 B( 12-C , 16-C ) :   1.2908 B( 13-S , 14-C ) :   1.1355
B( 14-C , 15-C ) :   1.3114 B( 14-C , 23-C ) :   1.2174 B( 15-C , 16-C ) :   1.2231
B( 15-C , 22-C ) :   1.1659 B( 16-C , 17-C ) :   1.1822 B( 17-C , 18-C ) :   1.4913
B( 17-C , 22-C ) :   0.1134 B( 17-C , 70-H ) :   0.9953 B( 18-C , 19-F ) :   1.1216
B( 18-C , 20-C ) :   1.1680 B( 20-C , 21-F ) :   1.1227 B( 20-C , 22-C ) :   1.5017
B( 22-C , 71-H ) :   0.9954 B( 23-C , 24-C ) :   1.6005 B( 23-C , 72-H ) :   0.9622
B( 24-C , 25-C ) :   1.1559 B( 24-C , 73-H ) :   0.9563 B( 25-C , 26-N ) :   1.2057
B( 25-C , 29-C ) :   1.4029 B( 26-N , 27-C ) :   1.2587 B( 26-N , 74-H ) :   0.9326
B( 27-C , 28-C ) :   1.4010 B( 27-C , 75-H ) :   0.9852 B( 28-C , 29-C ) :   1.3121
B( 28-C , 31-C ) :   1.0881 B( 29-C , 30-C ) :   1.1241 B( 30-C , 76-H ) :   0.9421
B( 30-C , 77-H ) :   0.9442 B( 30-C , 78-H ) :   0.9400 B( 31-C , 32-C ) :   1.7524
B( 31-C , 79-H ) :   0.9616 B( 32-C , 33-C ) :   1.0897 B( 32-C , 80-H ) :   0.9666
B( 33-C , 34-C ) :   1.7439 B( 33-C , 81-H ) :   0.9710 B( 34-C , 35-C ) :   1.1067
B( 34-C , 82-H ) :   0.9660 B( 35-C , 36-C ) :   1.7614 B( 35-C , 83-H ) :   0.9714
B( 36-C , 37-C ) :   1.0707 B( 36-C , 38-C ) :   1.0519 B( 37-C , 84-H ) :   0.9468
B( 37-C , 85-H ) :   0.9292 B( 37-C , 86-H ) :   0.9423 B( 38-C , 39-N ) :   0.9830
B( 38-C , 87-H ) :   0.9398 B( 38-C , 88-H ) :   0.9312 B( 39-N , 40-C ) :   1.3395
B( 39-N , 89-H ) :   0.9291 B( 40-C , 41-C ) :   1.4814 B( 40-C , 90-H ) :   0.9689
B( 41-C , 42-C ) :   1.2729 B( 41-C , 91-H ) :   0.9510 B( 42-C , 43-C ) :   1.4866
B( 42-C , 92-H ) :   0.9551 B( 43-C , 44-C ) :   0.9685 B( 43-C , 57-C ) :   1.1070
B( 44-C , 45-O ) :   2.2593 B( 44-C , 46-C ) :   0.9138 B( 46-C , 47-C ) :   1.4838
B( 46-C , 56-C ) :   1.2191 B( 47-C , 48-C ) :   1.1789 B( 47-C , 93-H ) :   1.0153
B( 48-C , 49-C ) :   1.2630 B( 48-C , 53-C ) :   1.2398 B( 49-C , 50-C ) :   1.2024
B( 49-C , 55-C ) :   1.1951 B( 50-C , 51-C ) :   1.4399 B( 50-C , 94-H ) :   1.0069
B( 51-C , 52-C ) :   1.2585 B( 51-C , 54-F ) :   1.0836 B( 52-C , 53-C ) :   1.4563
B( 52-C , 95-H ) :   0.9924 B( 53-C , 96-H ) :   0.9963 B( 55-C , 56-C ) :   1.4680
B( 55-C , 97-H ) :   0.9935 B( 56-C , 57-C ) :   0.9911 B( 57-C , 58-C ) :   1.5850
B( 58-C , 59-C ) :   1.1710 B( 58-C , 61-C ) :   1.1348 B( 59-C , 60-N ) :   2.9885
B( 61-C , 62-N ) :   2.9751

-----------------------------------------------------------------------------
         ABSORPTION SPECTRUM VIA TRANSITION ELECTRIC DIPOLE MOMENTS
-----------------------------------------------------------------------------
State   Energy  Wavelength   fosc         T2         TX        TY        TZ
        (cm-1)    (nm)                  (au**2)     (au)      (au)      (au)
-----------------------------------------------------------------------------
   0   12848.6    778.3   0.864454164  22.14937   2.49547  -3.73678  -1.39946
   1   20728.5    482.4   0.004857743   0.07715  -0.11738  -0.23427  -0.09215
   2   21034.0    475.4   0.060102067   0.94068   0.40628   0.76912  -0.42905
   3   22914.8    436.4   0.528740970   7.59630   0.06799  -2.21300   1.64143
   4   23756.0    420.9   1.223664462  16.95761  -3.89365  -1.21026  -0.57654
   5   26129.8    382.7   0.010814872   0.13626   0.31369  -0.15092   0.12280
   6   26753.9    373.8   0.175032252   2.15380   1.32346   0.63322   0.03596
   7   26841.4    372.6   0.155154367   1.90298   1.27922   0.50097  -0.12493
   8   28807.6    347.1   0.119939306   1.37066   0.32266   0.89125  -0.68719
   9   29090.4    343.8   0.288747637   3.26771   1.25635   1.28330  -0.20603
  10   29225.3    342.2   0.510637678   5.75213  -1.70066  -1.63031  -0.44942
  11   29427.6    339.8   0.126838759   1.41897   0.83710  -0.53455   0.65764
  12   30034.4    333.0   0.054716924   0.59976  -0.66393  -0.39869   0.00249
  13   30220.1    330.9   0.028937891   0.31524   0.36621   0.41919   0.07355
  14   31030.4    322.3   0.230230031   2.44259   0.41896   1.23231  -0.86514
  15   31812.7    314.3   0.189352516   1.95950  -1.02292  -0.94873   0.11423
  16   32291.6    309.7   0.140866771   1.43613   0.51646   0.96344  -0.49111
  17   32340.7    309.2   0.381196247   3.88038  -1.30756  -1.30753   0.67900
  18   32495.0    307.7   0.200646993   2.03279   0.35536  -1.19815   0.68625
  19   32767.6    305.2   0.023082714   0.23191  -0.09833  -0.40159   0.24692
  20   33273.0    300.5   0.030060767   0.29743   0.51405   0.17031   0.06463
  21   33472.3    298.8   0.126021430   1.23947  -1.03195  -0.41111  -0.07432
  22   34114.1    293.1   0.099808640   0.96319  -0.52186  -0.82896  -0.06070
  23   35117.4    284.8   0.075066103   0.70372   0.76078   0.34624   0.07110
  24   35498.7    281.7   0.357626270   3.31660   0.37379   1.59068  -0.80412
  25   35698.4    280.1   0.422090324   3.89253  -0.08568  -1.69257   1.01014
  26   36037.4    277.5   0.034577898   0.31588  -0.03052   0.48336  -0.28515
  27   36880.1    271.1   0.009276512   0.08281   0.17418  -0.22796   0.02243
  28   37251.0    268.4   0.187839452   1.66006  -1.27083  -0.13160   0.16652
  29   37738.1    265.0   0.051015916   0.44504  -0.05202   0.64276   0.17088
  30   38402.6    260.4   0.036890611   0.31625  -0.35865  -0.39931  -0.16784
  31   39332.9    254.2   0.059944325   0.50173   0.09804  -0.69462  -0.09806
  32   39346.8    254.2   0.087824215   0.73482  -0.55665  -0.08304  -0.64658
  33   39735.9    251.7   0.001398535   0.01159  -0.01616  -0.08813  -0.05965
  34   39867.1    250.8   0.168636858   1.39256   1.08386  -0.39829   0.24325
  35   40081.3    249.5   0.018513052   0.15206  -0.36025   0.13472   0.06426
  36   40233.6    248.5   0.031923343   0.26121   0.47042  -0.14473   0.13773

FINAL SINGLE POINT ENERGY     -3787.185391998454

DIPOLE MOMENT
-------------
                                X             Y             Z
Electronic contribution:     53.73721       3.62284      18.77969
Nuclear contribution   :    -55.59434      -1.78125     -20.47076
                        -----------------------------------------
Total Dipole Moment    :     -1.85713       1.84159      -1.69107
                        -----------------------------------------
Magnitude (a.u.)       :      3.11450
Magnitude (Debye)      :      7.91643

Rotational constants in cm-1:     0.001456     0.000210     0.000196
Rotational constants in MHz :    43.663458     6.285962     5.869615

                             ****ORCA TERMINATED NORMALLY****
TOTAL RUN TIME: 0 days 0 hours 7 minutes 27 seconds 582 msec
