                         Program Version 4.2.0 -  RELEASE  -
|  1> # ORCA input file
|  2> # SCF done       -169.488580094083          0.000898793329
|  3> ! CAM-B3LYP def2-SVP def2/J RIJCOSX Grid4 TightSCF
|  4> %maxcore 5000
|  5> %tddft
|  6>     Mode sTDDFT
|  7>     Ethresh 5.0
|  8>     maxcore 5000
|  9> end
| 10>
| 11> %pal
| 12>   nprocs 6
| 13>   end
| 14> * xyz 0 1
| 15>    C        8.58833        -7.17685        -8.81313
| 16>    C        7.85933        -8.02347        -8.07542
| 17>    C        7.00511        -9.08139        -8.53827
| 18>    C        6.38677        -9.77123        -7.55747
| 19>    C        6.69737        -9.32460        -6.23879
| 20>    S        7.82022        -7.97895        -6.30446
| 21>    C        6.22117        -9.82346        -5.05510
| 22>    C        5.25008       -10.84159        -4.85829
| 23>    C        4.97380       -11.09886        -3.55911
| 24>    C        5.69750       -10.29158        -2.62885
| 25>    S        6.78030        -9.21455        -3.50334
| 26>    C        5.58935       -10.39729        -1.27837
| 27>    N        6.15459        -9.60485        -0.31011
| 28>    C        6.62971        -8.33206        -0.41166
| 29>    S        7.95796        -7.89085         0.62953
| 30>    C        7.99236        -6.31204        -0.08906
| 31>    N        8.92281        -5.39372         0.39680
| 32>    O        8.94359        -4.28372        -0.10675
| 33>    O        9.65245        -5.77328         1.30018
| 34>    C        7.04495        -6.14865        -1.06334
| 35>    C        6.22645        -7.27940        -1.24239
| 36>    C        5.11174        -7.27539        -2.15764
| 37>    C        3.99210        -8.01171        -2.02227
| 38>    C        2.97429        -8.12138        -3.01928
| 39>    S        1.54862        -9.07539        -2.66183
| 40>    C        2.96126        -7.65301        -4.30279
| 41>    C        1.81629        -8.03329        -5.04763
| 42>    C        1.50181        -7.72946        -6.39690
| 43>    C        2.49442        -6.88631        -7.15173
| 44>    C        3.65686        -7.73451        -7.67008
| 45>    C        0.34181        -8.23008        -6.95682
| 46>    C       -0.04812        -8.02373        -8.39588
| 47>    C        0.27536        -9.26063        -9.23705
| 48>    C        0.94808        -8.82124        -4.26854
| 49>    C       -0.22441        -9.29764        -4.82383
| 50>    S       -1.44871       -10.26469        -4.05363
| 51>    C       -0.53165        -9.01654        -6.16416
| 52>    C       -1.77081        -9.60130        -6.55047
| 53>    C       -2.37552       -10.28846        -5.54530
| 54>    N       -3.55225       -10.99660        -5.52009
| 55>    C       -4.34299       -11.39143        -6.54570
| 56>    S       -4.05265       -10.93304        -8.19031
| 57>    C       -5.51201       -11.74557        -8.67302
| 58>    N       -5.82454       -11.73674       -10.02742
| 59>    O       -6.84909       -12.29360       -10.38559
| 60>    O       -5.03552       -11.16451       -10.76833
| 61>    C       -6.17713       -12.31811        -7.62171
| 62>    C       -5.51515       -12.15275        -6.39163
| 63>    C       -6.03613       -12.70544        -5.17074
| 64>    C       -5.33097       -13.09692        -4.07987
| 65>    C       -5.86573       -13.61924        -2.87531
| 66>    C       -7.16766       -13.69973        -2.46222
| 67>    C       -7.58177       -14.24205        -1.21137
| 68>    C       -8.91877       -14.20459        -0.98783
| 69>    C       -9.66453       -13.62818        -2.04756
| 70>    S       -8.58247       -13.13744        -3.33967
| 71>    C      -11.02261       -13.45387        -2.13351
| 72>    C      -12.00518       -13.82597        -1.17093
| 73>    C      -13.27348       -13.53241        -1.52820
| 74>    C      -13.39856       -12.89875        -2.81080
| 75>    S      -11.78816       -12.70789        -3.52316
| 76>    C      -14.52119       -12.49534        -3.41918
| 77>    H        8.58221        -7.23919        -9.88702
| 78>    H        9.19727        -6.41416        -8.36348
| 79>    H        6.89497        -9.27384        -9.59067
| 80>    H        5.71551       -10.59493        -7.72323
| 81>    H        4.77882       -11.33861        -5.68703
| 82>    H        4.25752       -11.82515        -3.21869
| 83>    H        4.98843       -11.20611        -0.88369
| 84>    H        6.35208       -10.06518         0.56920
| 85>    H        6.92442        -5.22619        -1.60219
| 86>    H        5.21769        -6.60781        -3.00016
| 87>    H        3.82644        -8.58822        -1.12373
| 88>    H        3.76570        -7.06453        -4.70225
| 89>    H        2.02001        -6.37904        -7.99029
| 90>    H        2.88220        -6.11317        -6.48621
| 91>    H        4.39786        -7.10648        -8.16011
| 92>    H        3.30232        -8.47093        -8.38717
| 93>    H        4.13756        -8.26312        -6.84999
| 94>    H        0.46712        -7.16478        -8.82156
| 95>    H       -1.11863        -7.81977        -8.45338
| 96>    H        1.34566        -9.45243        -9.23433
| 97>    H       -0.04684        -9.11092       -10.26447
| 98>    H       -0.22811       -10.13938        -8.84205
| 99>    H       -2.19447        -9.48698        -7.52815
|100>    H       -3.89312       -11.25140        -4.60015
|101>    H       -7.09760       -12.85949        -7.74403
|102>    H       -7.10272       -12.87207        -5.18920
|103>    H       -4.24770       -13.08461        -4.11243
|104>    H       -5.13849       -13.99413        -2.16563
|105>    H       -6.86223       -14.64228        -0.51840
|106>    H       -9.39315       -14.56834        -0.09404
|107>    H      -11.72888       -14.30135        -0.24639
|108>    H      -14.14547       -13.73892        -0.93323
|109>    H      -15.47907       -12.63151        -2.94872
|110>    H      -14.50523       -12.02959        -4.38714
|111> *
|112>
|113>                          ****END OF INPUT****

CARTESIAN COORDINATES (ANGSTROEM)
---------------------------------
  C      8.588330   -7.176850   -8.813130
  C      7.859330   -8.023470   -8.075420
  C      7.005110   -9.081390   -8.538270
  C      6.386770   -9.771230   -7.557470
  C      6.697370   -9.324600   -6.238790
  S      7.820220   -7.978950   -6.304460
  C      6.221170   -9.823460   -5.055100
  C      5.250080  -10.841590   -4.858290
  C      4.973800  -11.098860   -3.559110
  C      5.697500  -10.291580   -2.628850
  S      6.780300   -9.214550   -3.503340
  C      5.589350  -10.397290   -1.278370
  N      6.154590   -9.604850   -0.310110
  C      6.629710   -8.332060   -0.411660
  S      7.957960   -7.890850    0.629530
  C      7.992360   -6.312040   -0.089060
  N      8.922810   -5.393720    0.396800
  O      8.943590   -4.283720   -0.106750
  O      9.652450   -5.773280    1.300180
  C      7.044950   -6.148650   -1.063340
  C      6.226450   -7.279400   -1.242390
  C      5.111740   -7.275390   -2.157640
  C      3.992100   -8.011710   -2.022270
  C      2.974290   -8.121380   -3.019280
  S      1.548620   -9.075390   -2.661830
  C      2.961260   -7.653010   -4.302790
  C      1.816290   -8.033290   -5.047630
  C      1.501810   -7.729460   -6.396900
  C      2.494420   -6.886310   -7.151730
  C      3.656860   -7.734510   -7.670080
  C      0.341810   -8.230080   -6.956820
  C     -0.048120   -8.023730   -8.395880
  C      0.275360   -9.260630   -9.237050
  C      0.948080   -8.821240   -4.268540
  C     -0.224410   -9.297640   -4.823830
  S     -1.448710  -10.264690   -4.053630
  C     -0.531650   -9.016540   -6.164160
  C     -1.770810   -9.601300   -6.550470
  C     -2.375520  -10.288460   -5.545300
  N     -3.552250  -10.996600   -5.520090
  C     -4.342990  -11.391430   -6.545700
  S     -4.052650  -10.933040   -8.190310
  C     -5.512010  -11.745570   -8.673020
  N     -5.824540  -11.736740  -10.027420
  O     -6.849090  -12.293600  -10.385590
  O     -5.035520  -11.164510  -10.768330
  C     -6.177130  -12.318110   -7.621710
  C     -5.515150  -12.152750   -6.391630
  C     -6.036130  -12.705440   -5.170740
  C     -5.330970  -13.096920   -4.079870
  C     -5.865730  -13.619240   -2.875310
  C     -7.167660  -13.699730   -2.462220
  C     -7.581770  -14.242050   -1.211370
  C     -8.918770  -14.204590   -0.987830
  C     -9.664530  -13.628180   -2.047560
  S     -8.582470  -13.137440   -3.339670
  C    -11.022610  -13.453870   -2.133510
  C    -12.005180  -13.825970   -1.170930
  C    -13.273480  -13.532410   -1.528200
  C    -13.398560  -12.898750   -2.810800
  S    -11.788160  -12.707890   -3.523160
  C    -14.521190  -12.495340   -3.419180
  H      8.582210   -7.239190   -9.887020
  H      9.197270   -6.414160   -8.363480
  H      6.894970   -9.273840   -9.590670
  H      5.715510  -10.594930   -7.723230
  H      4.778820  -11.338610   -5.687030
  H      4.257520  -11.825150   -3.218690
  H      4.988430  -11.206110   -0.883690
  H      6.352080  -10.065180    0.569200
  H      6.924420   -5.226190   -1.602190
  H      5.217690   -6.607810   -3.000160
  H      3.826440   -8.588220   -1.123730
  H      3.765700   -7.064530   -4.702250
  H      2.020010   -6.379040   -7.990290
  H      2.882200   -6.113170   -6.486210
  H      4.397860   -7.106480   -8.160110
  H      3.302320   -8.470930   -8.387170
  H      4.137560   -8.263120   -6.849990
  H      0.467120   -7.164780   -8.821560
  H     -1.118630   -7.819770   -8.453380
  H      1.345660   -9.452430   -9.234330
  H     -0.046840   -9.110920  -10.264470
  H     -0.228110  -10.139380   -8.842050
  H     -2.194470   -9.486980   -7.528150
  H     -3.893120  -11.251400   -4.600150
  H     -7.097600  -12.859490   -7.744030
  H     -7.102720  -12.872070   -5.189200
  H     -4.247700  -13.084610   -4.112430
  H     -5.138490  -13.994130   -2.165630
  H     -6.862230  -14.642280   -0.518400
  H     -9.393150  -14.568340   -0.094040
  H    -11.728880  -14.301350   -0.246390
  H    -14.145470  -13.738920   -0.933230
  H    -15.479070  -12.631510   -2.948720
  H    -14.505230  -12.029590   -4.387140

 Total Charge           Charge          ....    0
 Multiplicity           Mult            ....    1
 Number of Electrons    NEL             ....  498
 Basis Dimension        Dim             .... 1070

ORBITAL ENERGIES
----------------

  NO   OCC          E(Eh)            E(eV)
   0   2.0000     -88.978582     -2421.2303
   1   2.0000     -88.973118     -2421.0816
   2   2.0000     -88.960653     -2420.7424
   3   2.0000     -88.948837     -2420.4209
   4   2.0000     -88.947377     -2420.3812
   5   2.0000     -88.947218     -2420.3769
   6   2.0000     -88.940854     -2420.2037
   7   2.0000     -88.938433     -2420.1378
   8   2.0000     -19.227773      -523.2143
   9   2.0000     -19.226937      -523.1915
  10   2.0000     -19.222911      -523.0820
  11   2.0000     -19.222716      -523.0767
  12   2.0000     -14.639200      -398.3529
  13   2.0000     -14.635088      -398.2410
  14   2.0000     -14.482287      -394.0831
  15   2.0000     -14.482059      -394.0768
  16   2.0000     -10.365690      -282.0648
  17   2.0000     -10.359504      -281.8964
  18   2.0000     -10.350418      -281.6492
  19   2.0000     -10.333316      -281.1838
  20   2.0000     -10.329660      -281.0843
  21   2.0000     -10.327892      -281.0362
  22   2.0000     -10.313947      -280.6568
  23   2.0000     -10.310142      -280.5532
  24   2.0000     -10.309411      -280.5333
  25   2.0000     -10.309343      -280.5315
  26   2.0000     -10.308959      -280.5210
  27   2.0000     -10.308929      -280.5202
  28   2.0000     -10.308375      -280.5051
  29   2.0000     -10.306441      -280.4525
  30   2.0000     -10.301062      -280.3061
  31   2.0000     -10.300150      -280.2813
  32   2.0000     -10.299240      -280.2566
  33   2.0000     -10.298614      -280.2395
  34   2.0000     -10.297846      -280.2186
  35   2.0000     -10.292324      -280.0684
  36   2.0000     -10.292298      -280.0677
  37   2.0000     -10.290067      -280.0070
  38   2.0000     -10.289685      -279.9966
  39   2.0000     -10.288560      -279.9660
  40   2.0000     -10.288304      -279.9590
  41   2.0000     -10.287245      -279.9302
  42   2.0000     -10.286151      -279.9004
  43   2.0000     -10.285481      -279.8822
  44   2.0000     -10.285373      -279.8792
  45   2.0000     -10.284369      -279.8519
  46   2.0000     -10.283586      -279.8306
  47   2.0000     -10.279530      -279.7202
  48   2.0000     -10.278436      -279.6905
  49   2.0000     -10.278000      -279.6786
  50   2.0000     -10.275683      -279.6155
  51   2.0000     -10.274212      -279.5755
  52   2.0000     -10.273200      -279.5480
  53   2.0000     -10.272676      -279.5337
  54   2.0000     -10.271043      -279.4893
  55   2.0000     -10.270621      -279.4778
  56   2.0000     -10.269259      -279.4408
  57   2.0000     -10.266449      -279.3643
  58   2.0000     -10.264057      -279.2992
  59   2.0000     -10.262408      -279.2543
  60   2.0000     -10.253988      -279.0252
  61   2.0000     -10.252382      -278.9815
  62   2.0000      -8.073296      -219.6855
  63   2.0000      -8.069169      -219.5733
  64   2.0000      -8.056780      -219.2361
  65   2.0000      -8.044673      -218.9067
  66   2.0000      -8.043161      -218.8655
  67   2.0000      -8.041988      -218.8336
  68   2.0000      -8.037620      -218.7148
  69   2.0000      -8.035049      -218.6448
  70   2.0000      -6.043024      -164.4390
  71   2.0000      -6.038888      -164.3265
  72   2.0000      -6.038509      -164.3162
  73   2.0000      -6.034844      -164.2164
  74   2.0000      -6.034516      -164.2075
  75   2.0000      -6.030409      -164.0958
  76   2.0000      -6.026575      -163.9914
  77   2.0000      -6.022537      -163.8816
  78   2.0000      -6.017677      -163.7493
  79   2.0000      -6.014148      -163.6533
  80   2.0000      -6.012959      -163.6209
  81   2.0000      -6.011952      -163.5935
  82   2.0000      -6.010276      -163.5479
  83   2.0000      -6.008855      -163.5092
  84   2.0000      -6.007806      -163.4807
  85   2.0000      -6.007467      -163.4715
  86   2.0000      -6.006143      -163.4355
  87   2.0000      -6.004885      -163.4012
  88   2.0000      -6.004078      -163.3793
  89   2.0000      -6.003521      -163.3641
  90   2.0000      -6.002771      -163.3437
  91   2.0000      -6.001006      -163.2957
  92   2.0000      -5.998098      -163.2165
  93   2.0000      -5.995557      -163.1474
  94   2.0000      -1.307430       -35.5770
  95   2.0000      -1.302343       -35.4386
  96   2.0000      -1.126220       -30.6460
  97   2.0000      -1.121094       -30.5065
  98   2.0000      -1.089467       -29.6459
  99   2.0000      -1.082197       -29.4481
 100   2.0000      -1.003848       -27.3161
 101   2.0000      -0.995955       -27.1013
 102   2.0000      -0.994298       -27.0562
 103   2.0000      -0.992328       -27.0026
 104   2.0000      -0.990022       -26.9399
 105   2.0000      -0.971356       -26.4319
 106   2.0000      -0.968061       -26.3423
 107   2.0000      -0.964783       -26.2531
 108   2.0000      -0.926039       -25.1988
 109   2.0000      -0.916205       -24.9312
 110   2.0000      -0.907669       -24.6989
 111   2.0000      -0.892507       -24.2864
 112   2.0000      -0.890612       -24.2348
 113   2.0000      -0.877161       -23.8688
 114   2.0000      -0.875841       -23.8329
 115   2.0000      -0.867597       -23.6085
 116   2.0000      -0.863561       -23.4987
 117   2.0000      -0.858521       -23.3615
 118   2.0000      -0.847260       -23.0551
 119   2.0000      -0.846245       -23.0275
 120   2.0000      -0.841966       -22.9111
 121   2.0000      -0.838417       -22.8145
 122   2.0000      -0.836149       -22.7528
 123   2.0000      -0.827848       -22.5269
 124   2.0000      -0.821225       -22.3467
 125   2.0000      -0.820542       -22.3281
 126   2.0000      -0.818540       -22.2736
 127   2.0000      -0.798356       -21.7244
 128   2.0000      -0.792194       -21.5567
 129   2.0000      -0.783558       -21.3217
 130   2.0000      -0.782215       -21.2852
 131   2.0000      -0.763376       -20.7725
 132   2.0000      -0.755395       -20.5553
 133   2.0000      -0.736225       -20.0337
 134   2.0000      -0.732999       -19.9459
 135   2.0000      -0.720412       -19.6034
 136   2.0000      -0.708731       -19.2855
 137   2.0000      -0.704655       -19.1746
 138   2.0000      -0.694949       -18.9105
 139   2.0000      -0.690000       -18.7759
 140   2.0000      -0.686549       -18.6819
 141   2.0000      -0.679323       -18.4853
 142   2.0000      -0.673639       -18.3307
 143   2.0000      -0.670233       -18.2380
 144   2.0000      -0.651777       -17.7357
 145   2.0000      -0.645695       -17.5702
 146   2.0000      -0.641720       -17.4621
 147   2.0000      -0.637104       -17.3365
 148   2.0000      -0.630236       -17.1496
 149   2.0000      -0.629192       -17.1212
 150   2.0000      -0.626687       -17.0530
 151   2.0000      -0.624910       -17.0047
 152   2.0000      -0.623134       -16.9563
 153   2.0000      -0.620075       -16.8731
 154   2.0000      -0.619148       -16.8479
 155   2.0000      -0.616509       -16.7761
 156   2.0000      -0.616129       -16.7657
 157   2.0000      -0.609781       -16.5930
 158   2.0000      -0.600839       -16.3497
 159   2.0000      -0.600487       -16.3401
 160   2.0000      -0.596049       -16.2193
 161   2.0000      -0.592052       -16.1106
 162   2.0000      -0.586187       -15.9510
 163   2.0000      -0.577334       -15.7101
 164   2.0000      -0.576252       -15.6806
 165   2.0000      -0.575155       -15.6508
 166   2.0000      -0.569756       -15.5038
 167   2.0000      -0.562262       -15.2999
 168   2.0000      -0.558454       -15.1963
 169   2.0000      -0.550477       -14.9792
 170   2.0000      -0.544119       -14.8062
 171   2.0000      -0.540368       -14.7041
 172   2.0000      -0.537150       -14.6166
 173   2.0000      -0.534393       -14.5416
 174   2.0000      -0.531483       -14.4624
 175   2.0000      -0.524617       -14.2755
 176   2.0000      -0.521613       -14.1938
 177   2.0000      -0.519266       -14.1299
 178   2.0000      -0.515106       -14.0167
 179   2.0000      -0.513893       -13.9837
 180   2.0000      -0.509196       -13.8559
 181   2.0000      -0.507009       -13.7964
 182   2.0000      -0.506027       -13.7697
 183   2.0000      -0.501859       -13.6563
 184   2.0000      -0.500686       -13.6244
 185   2.0000      -0.499086       -13.5808
 186   2.0000      -0.497000       -13.5241
 187   2.0000      -0.493703       -13.4343
 188   2.0000      -0.492289       -13.3959
 189   2.0000      -0.491236       -13.3672
 190   2.0000      -0.488658       -13.2971
 191   2.0000      -0.485754       -13.2180
 192   2.0000      -0.485096       -13.2001
 193   2.0000      -0.483207       -13.1487
 194   2.0000      -0.481269       -13.0960
 195   2.0000      -0.476049       -12.9540
 196   2.0000      -0.469755       -12.7827
 197   2.0000      -0.465611       -12.6699
 198   2.0000      -0.463457       -12.6113
 199   2.0000      -0.462137       -12.5754
 200   2.0000      -0.460536       -12.5318
 201   2.0000      -0.459461       -12.5026
 202   2.0000      -0.454214       -12.3598
 203   2.0000      -0.451154       -12.2765
 204   2.0000      -0.448005       -12.1908
 205   2.0000      -0.445762       -12.1298
 206   2.0000      -0.442610       -12.0440
 207   2.0000      -0.435877       -11.8608
 208   2.0000      -0.432511       -11.7692
 209   2.0000      -0.431845       -11.7511
 210   2.0000      -0.429841       -11.6966
 211   2.0000      -0.427884       -11.6433
 212   2.0000      -0.426910       -11.6168
 213   2.0000      -0.424158       -11.5419
 214   2.0000      -0.422100       -11.4859
 215   2.0000      -0.418990       -11.4013
 216   2.0000      -0.416919       -11.3449
 217   2.0000      -0.413252       -11.2452
 218   2.0000      -0.409479       -11.1425
 219   2.0000      -0.406409       -11.0590
 220   2.0000      -0.401415       -10.9230
 221   2.0000      -0.396025       -10.7764
 222   2.0000      -0.393419       -10.7055
 223   2.0000      -0.384062       -10.4508
 224   2.0000      -0.378526       -10.3002
 225   2.0000      -0.376234       -10.2378
 226   2.0000      -0.375256       -10.2112
 227   2.0000      -0.371857       -10.1187
 228   2.0000      -0.369872       -10.0647
 229   2.0000      -0.366575        -9.9750
 230   2.0000      -0.363874        -9.9015
 231   2.0000      -0.355784        -9.6814
 232   2.0000      -0.351962        -9.5774
 233   2.0000      -0.351922        -9.5763
 234   2.0000      -0.342685        -9.3249
 235   2.0000      -0.340099        -9.2546
 236   2.0000      -0.337029        -9.1710
 237   2.0000      -0.335950        -9.1417
 238   2.0000      -0.329622        -8.9695
 239   2.0000      -0.326014        -8.8713
 240   2.0000      -0.317428        -8.6377
 241   2.0000      -0.315423        -8.5831
 242   2.0000      -0.301038        -8.1917
 243   2.0000      -0.289028        -7.8648
 244   2.0000      -0.274617        -7.4727
 245   2.0000      -0.270605        -7.3635
 246   2.0000      -0.242929        -6.6104
 247   2.0000      -0.222239        -6.0474
 248   2.0000      -0.218204        -5.9376
 249   0.0000      -0.070312        -1.9133
 250   0.0000      -0.063382        -1.7247
 251   0.0000      -0.046877        -1.2756
 252   0.0000      -0.039328        -1.0702
 253   0.0000      -0.023173        -0.6306

MULLIKEN ATOMIC CHARGES
-----------------------
   0 C :   -0.033525
   1 C :   -0.063603
   2 C :    0.047873
   3 C :    0.037073
   4 C :   -0.073808
   5 S :    0.071077
   6 C :   -0.056660
   7 C :    0.028974
   8 C :    0.040593
   9 C :   -0.014118
  10 S :    0.080229
  11 C :   -0.024768
  12 N :   -0.010856
  13 C :   -0.151076
  14 S :    0.152589
  15 C :   -0.001452
  16 N :    0.278942
  17 O :   -0.255858
  18 O :   -0.271625
  19 C :   -0.008179
  20 C :    0.127117
  21 C :   -0.040583
  22 C :    0.095606
  23 C :   -0.066908
  24 S :    0.100947
  25 C :   -0.068530
  26 C :    0.094764
  27 C :   -0.110768
  28 C :    0.074500
  29 C :    0.021195
  30 C :   -0.102841
  31 C :    0.057798
  32 C :    0.030252
  33 C :   -0.130079
  34 C :   -0.116859
  35 S :    0.100656
  36 C :    0.079825
  37 C :   -0.079925
  38 C :   -0.024591
  39 N :    0.003914
  40 C :   -0.094133
  41 S :    0.130412
  42 C :   -0.001775
  43 N :    0.279387
  44 O :   -0.260835
  45 O :   -0.280144
  46 C :    0.018613
  47 C :    0.097082
  48 C :   -0.031264
  49 C :   -0.031767
  50 C :   -0.018522
  51 C :   -0.018872
  52 C :    0.038108
  53 C :    0.028315
  54 C :   -0.042968
  55 S :    0.055717
  56 C :   -0.062261
  57 C :    0.030627
  58 C :    0.054132
  59 C :   -0.065168
  60 S :    0.083616
  61 C :   -0.025178
  62 H :    0.021435
  63 H :    0.023481
  64 H :   -0.011091
  65 H :   -0.009914
  66 H :   -0.014460
  67 H :   -0.014994
  68 H :    0.008546
  69 H :    0.143467
  70 H :    0.007621
  71 H :   -0.006050
  72 H :   -0.016247
  73 H :   -0.020071
  74 H :   -0.005679
  75 H :    0.005414
  76 H :    0.018693
  77 H :   -0.005118
  78 H :    0.020277
  79 H :   -0.006881
  80 H :    0.009941
  81 H :    0.001707
  82 H :    0.019199
  83 H :    0.010583
  84 H :    0.001480
  85 H :    0.136429
  86 H :    0.008559
  87 H :    0.009941
  88 H :   -0.014411
  89 H :   -0.018623
  90 H :   -0.014333
  91 H :   -0.014892
  92 H :   -0.011001
  93 H :   -0.009682
  94 H :    0.021960
  95 H :    0.024278
Sum of atomic charges:   -0.0000000

LOEWDIN ATOMIC CHARGES
----------------------
   0 C :   -0.077916
   1 C :   -0.139481
   2 C :   -0.031433
   3 C :   -0.023296
   4 C :   -0.182200
   5 S :    0.343839
   6 C :   -0.180787
   7 C :   -0.037067
   8 C :   -0.025892
   9 C :   -0.172524
  10 S :    0.404793
  11 C :   -0.022782
  12 N :    0.030961
  13 C :   -0.123136
  14 S :    0.435429
  15 C :   -0.211569
  16 N :    0.274792
  17 O :   -0.221677
  18 O :   -0.236802
  19 C :    0.007304
  20 C :   -0.106375
  21 C :   -0.036629
  22 C :   -0.055190
  23 C :   -0.151398
  24 S :    0.387597
  25 C :   -0.058591
  26 C :   -0.044155
  27 C :   -0.020364
  28 C :   -0.026989
  29 C :   -0.051714
  30 C :   -0.025318
  31 C :   -0.027812
  32 C :   -0.049358
  33 C :   -0.180721
  34 C :   -0.181420
  35 S :    0.374289
  36 C :   -0.038088
  37 C :   -0.111110
  38 C :   -0.116720
  39 N :    0.027101
  40 C :   -0.089863
  41 S :    0.472509
  42 C :   -0.224296
  43 N :    0.274755
  44 O :   -0.226651
  45 O :   -0.246759
  46 C :    0.006568
  47 C :   -0.108655
  48 C :   -0.029068
  49 C :   -0.061919
  50 C :   -0.072993
  51 C :   -0.139419
  52 C :   -0.032954
  53 C :   -0.034872
  54 C :   -0.184442
  55 S :    0.378180
  56 C :   -0.171250
  57 C :   -0.026929
  58 C :   -0.026757
  59 C :   -0.140152
  60 S :    0.352740
  61 C :   -0.070479
  62 H :    0.029059
  63 H :    0.026936
  64 H :    0.033547
  65 H :    0.032368
  66 H :    0.032241
  67 H :    0.031933
  68 H :    0.031401
  69 H :    0.093027
  70 H :    0.045941
  71 H :    0.027187
  72 H :    0.021893
  73 H :    0.027028
  74 H :    0.024296
  75 H :    0.026897
  76 H :    0.025731
  77 H :    0.019425
  78 H :    0.023560
  79 H :    0.025264
  80 H :    0.027572
  81 H :    0.020719
  82 H :    0.026171
  83 H :    0.021855
  84 H :    0.014936
  85 H :    0.088729
  86 H :    0.046197
  87 H :    0.017035
  88 H :    0.023101
  89 H :    0.032699
  90 H :    0.032773
  91 H :    0.031256
  92 H :    0.032649
  93 H :    0.034303
  94 H :    0.029683
  95 H :    0.027708

  Mayer bond orders larger than 0.100000
B(  0-C ,  1-C ) :   1.8695 B(  0-C , 62-H ) :   0.9508 B(  0-C , 63-H ) :   0.9414
B(  1-C ,  2-C ) :   1.0754 B(  1-C ,  5-S ) :   1.0031 B(  2-C ,  3-C ) :   1.6620
B(  2-C , 64-H ) :   0.9946 B(  3-C ,  4-C ) :   1.1423 B(  3-C , 65-H ) :   0.9937
B(  4-C ,  5-S ) :   1.0397 B(  4-C ,  6-C ) :   1.5802 B(  6-C ,  7-C ) :   1.1489
B(  6-C , 10-S ) :   1.0311 B(  7-C ,  8-C ) :   1.6436 B(  7-C , 66-H ) :   0.9930
B(  8-C ,  9-C ) :   1.1233 B(  8-C , 67-H ) :   0.9992 B(  9-C , 10-S ) :   1.0312
B(  9-C , 11-C ) :   1.6263 B( 11-C , 12-N ) :   1.1358 B( 11-C , 68-H ) :   0.9589
B( 12-N , 13-C ) :   1.1831 B( 12-N , 69-H ) :   0.9094 B( 13-C , 14-S ) :   1.1234
B( 13-C , 20-C ) :   1.3705 B( 14-S , 15-C ) :   1.0760 B( 15-C , 16-N ) :   0.9768
B( 15-C , 19-C ) :   1.4774 B( 16-N , 17-O ) :   1.5304 B( 16-N , 18-O ) :   1.5063
B( 17-O , 18-O ) :   0.2558 B( 19-C , 20-C ) :   1.2211 B( 19-C , 70-H ) :   1.0121
B( 20-C , 21-C ) :   1.0811 B( 21-C , 22-C ) :   1.7337 B( 21-C , 71-H ) :   0.9550
B( 22-C , 23-C ) :   1.1075 B( 22-C , 72-H ) :   0.9472 B( 23-C , 24-S ) :   1.0587
B( 23-C , 25-C ) :   1.5878 B( 24-S , 33-C ) :   1.0577 B( 25-C , 26-C ) :   1.1753
B( 25-C , 73-H ) :   0.9796 B( 26-C , 27-C ) :   1.2400 B( 26-C , 33-C ) :   1.3750
B( 27-C , 28-C ) :   1.0745 B( 27-C , 30-C ) :   1.5292 B( 28-C , 29-C ) :   1.1065
B( 28-C , 74-H ) :   0.9200 B( 28-C , 75-H ) :   0.9112 B( 29-C , 76-H ) :   0.9636
B( 29-C , 77-H ) :   0.9601 B( 29-C , 78-H ) :   0.9676 B( 30-C , 31-C ) :   1.0757
B( 30-C , 36-C ) :   1.2502 B( 31-C , 32-C ) :   1.1083 B( 31-C , 79-H ) :   0.9191
B( 31-C , 80-H ) :   0.9163 B( 32-C , 81-H ) :   0.9626 B( 32-C , 82-H ) :   0.9651
B( 32-C , 83-H ) :   0.9671 B( 33-C , 34-C ) :   1.3915 B( 34-C , 35-S ) :   1.0298
B( 34-C , 36-C ) :   1.3979 B( 35-S , 38-C ) :   1.0746 B( 36-C , 37-C ) :   1.1760
B( 37-C , 38-C ) :   1.5652 B( 37-C , 84-H ) :   0.9705 B( 38-C , 39-N ) :   1.1005
B( 39-N , 40-C ) :   1.2397 B( 39-N , 85-H ) :   0.8865 B( 40-C , 41-S ) :   1.1403
B( 40-C , 47-C ) :   1.3420 B( 41-S , 42-C ) :   1.0622 B( 42-C , 43-N ) :   0.9927
B( 42-C , 46-C ) :   1.4588 B( 43-N , 44-O ) :   1.5238 B( 43-N , 45-O ) :   1.4966
B( 44-O , 45-O ) :   0.2488 B( 46-C , 47-C ) :   1.2522 B( 46-C , 86-H ) :   1.0074
B( 47-C , 48-C ) :   1.1072 B( 48-C , 49-C ) :   1.6383 B( 48-C , 87-H ) :   0.9418
B( 49-C , 50-C ) :   1.1870 B( 49-C , 88-H ) :   0.9581 B( 50-C , 51-C ) :   1.6117
B( 50-C , 89-H ) :   0.9587 B( 51-C , 52-C ) :   1.1300 B( 51-C , 55-S ) :   1.0387
B( 52-C , 53-C ) :   1.6180 B( 52-C , 90-H ) :   0.9977 B( 53-C , 54-C ) :   1.1657
B( 53-C , 91-H ) :   0.9910 B( 54-C , 55-S ) :   1.0235 B( 54-C , 56-C ) :   1.5660
B( 56-C , 57-C ) :   1.1489 B( 56-C , 60-S ) :   1.0474 B( 57-C , 58-C ) :   1.6655
B( 57-C , 92-H ) :   0.9912 B( 58-C , 59-C ) :   1.0779 B( 58-C , 93-H ) :   0.9932
B( 59-C , 60-S ) :   1.0059 B( 59-C , 61-C ) :   1.8673 B( 61-C , 94-H ) :   0.9510
B( 61-C , 95-H ) :   0.9415

-----------------------------------------------------------------------------
         ABSORPTION SPECTRUM VIA TRANSITION ELECTRIC DIPOLE MOMENTS
-----------------------------------------------------------------------------
State   Energy  Wavelength   fosc         T2         TX        TY        TZ
        (cm-1)    (nm)                  (au**2)     (au)      (au)      (au)
-----------------------------------------------------------------------------
   0   18571.5    538.5   1.464513318  25.96099  -4.27430  -0.36810   2.74879
   1   18856.0    530.3   0.472376845   8.24737   2.54170   0.77664   1.08810
   2   22607.9    442.3   0.496278837   7.22672  -1.72844  -0.89609  -1.85370
   3   22951.1    435.7   0.099796778   1.43149   1.02218   0.61957   0.05263
   4   23677.5    422.3   0.070866955   0.98533  -0.27817  -0.11241   0.94621
   5   24853.1    402.4   0.135772545   1.79849  -1.13959   0.22541   0.67007
   6   26336.5    379.7   0.252799418   3.16004  -0.00728  -1.04043   1.44135
   7   26763.7    373.6   0.145431955   1.78892   0.51522   0.32134   1.19172
   8   27412.7    364.8   0.242326893   2.91021  -0.50405   0.41749  -1.57539
   9   28018.0    356.9   0.365718563   4.29720   1.55723   1.04753   0.88030
  10   28915.5    345.8   0.019427818   0.22119  -0.01212  -0.05194   0.46728
  11   29303.4    341.3   0.022346687   0.25106  -0.28581   0.24409  -0.33134
  12   30352.5    329.5   0.236774672   2.56813  -1.14441  -0.03630  -1.12122
  13   30463.0    328.3   0.126277938   1.36468  -0.91795  -0.38568  -0.61097
  14   31488.9    317.6   0.032171895   0.33635  -0.01669  -0.30600   0.49238
  15   32037.7    312.1   0.128799761   1.32352   0.61086  -0.57626   0.78632
  16   32151.0    311.0   0.517390705   5.29785   1.25048   1.87524  -0.46651
  17   32847.8    304.4   0.068892340   0.69046   0.66366   0.46596   0.18139
  18   32919.1    303.8   0.496538628   4.96570   1.07511  -0.35640   1.91907
  19   33922.6    294.8   0.027096098   0.26296  -0.33047  -0.31344  -0.23560
  20   34210.7    292.3   0.040134268   0.38621  -0.57526  -0.00506  -0.23507
  21   34307.8    291.5   0.021825291   0.20943  -0.39591  -0.19536   0.12053
  22   34645.0    288.6   0.024253285   0.23047  -0.27224   0.00996  -0.39529
  23   35334.7    283.0   0.045216374   0.42128   0.08271   0.44556  -0.46467
  24   35510.9    281.6   0.190386615   1.76502  -0.70923  -0.15128  -1.11316
  25   36213.9    276.1   0.002122524   0.01930  -0.04251   0.12752  -0.03504
  26   36488.7    274.1   0.035132697   0.31698   0.44410   0.33905   0.06928
  27   36685.1    272.6   0.094708753   0.84992  -0.33704  -0.60523   0.60829
  28   36725.0    272.3   0.102872492   0.92218   0.54852   0.36400   0.69914
  29   37197.3    268.8   0.143652058   1.27138  -0.05091   0.22146  -1.10442
  30   37253.3    268.4   0.004532474   0.04005   0.03097  -0.11521  -0.16069
  31   37331.2    267.9   0.003083000   0.02719  -0.09937  -0.06452  -0.11468
  32   37374.7    267.6   0.010179412   0.08966   0.16570   0.24886   0.01655
  33   38162.1    262.0   0.066028432   0.56961   0.34090   0.54482  -0.39568
  34   38364.5    260.7   0.012599005   0.10811  -0.20668  -0.22392   0.12351
  35   38445.9    260.1   0.026518959   0.22708  -0.29426  -0.14734  -0.34465
  36   39479.9    253.3   0.047383314   0.39512  -0.43006   0.07191  -0.45276
  37   39640.2    252.3   0.050795399   0.42186   0.08669  -0.31622   0.56066
  38   40097.1    249.4   0.003085617   0.02533  -0.08942   0.11649   0.06138

FINAL SINGLE POINT ENERGY     -5474.626971254944

DIPOLE MOMENT
-------------
                                X             Y             Z
Electronic contribution:      6.37281      -1.24035      30.64459
Nuclear contribution   :     -7.78536      -1.15865     -28.82717
                        -----------------------------------------
Total Dipole Moment    :     -1.41256      -2.39901       1.81742
                        -----------------------------------------
Magnitude (a.u.)       :      3.32469
Magnitude (Debye)      :      8.45070

Rotational constants in cm-1:     0.001676     0.000329     0.000288
Rotational constants in MHz :    50.258587     9.862675     8.627955

                             ****ORCA TERMINATED NORMALLY****
TOTAL RUN TIME: 0 days 0 hours 8 minutes 37 seconds 882 msec
