                         Program Version 4.2.0 -  RELEASE  -
|  1> # ORCA input file
|  2> # SCF done       -147.648424605234          0.000389442474
|  3> ! CAM-B3LYP def2-SVP def2/J RIJCOSX Grid4 TightSCF
|  4> %maxcore 5000
|  5> %tddft
|  6>     Mode sTDDFT
|  7>     Ethresh 5.0
|  8>     maxcore 5000
|  9> end
| 10>
| 11> %pal
| 12>   nprocs 6
| 13>   end
| 14> * xyz 0 1
| 15>    C       11.19233       -12.80963         1.12469
| 16>    C       10.53619       -12.05574         2.01438
| 17>    C       10.97703       -11.63151         3.31428
| 18>    C       10.09503       -10.85653         3.97965
| 19>    C        8.88536       -10.60992         3.26565
| 20>    S        8.91529       -11.41037         1.71024
| 21>    C        7.81656        -9.85527         3.68219
| 22>    C        7.65160        -9.13556         4.89113
| 23>    C        6.47155        -8.47167         4.99686
| 24>    C        5.61630        -8.62670         3.87314
| 25>    S        6.39365        -9.66112         2.66999
| 26>    C        4.37834        -8.09178         3.68576
| 27>    N        3.65621        -8.33530         2.55615
| 28>    C        2.43465        -7.86868         2.24720
| 29>    S        1.57799        -6.79910         3.31254
| 30>    C        0.25421        -6.76190         2.18023
| 31>    N       -0.84630        -5.98412         2.52002
| 32>    O       -1.78596        -5.94600         1.74142
| 33>    O       -0.78866        -5.38873         3.58866
| 34>    C        0.46821        -7.52513         1.06340
| 35>    C        1.71530        -8.17543         1.07081
| 36>    C        2.21869        -9.03846         0.05061
| 37>    C        1.56237        -9.39675        -1.07832
| 38>    C        2.10409       -10.25947        -2.05733
| 39>    S        3.69940       -10.96736        -1.95673
| 40>    C        1.48518       -10.68338        -3.22624
| 41>    N        0.26003       -10.41560        -3.75310
| 42>    C        0.09413       -11.02124        -4.86000
| 43>    S        1.42892       -12.02567        -5.43443
| 44>    C        2.28954       -11.55882        -4.00725
| 45>    C        3.53450       -11.83057        -3.47664
| 46>    C        4.54077       -12.65252        -4.02270
| 47>    C        5.76455       -12.86945        -3.47999
| 48>    C        6.74652       -13.70149        -4.06966
| 49>    C        8.03037       -13.94120        -3.58987
| 50>    C        8.48720       -13.41876        -2.37340
| 51>    N        8.83678       -13.01729        -1.35621
| 52>    C        8.77264       -14.81917        -4.42659
| 53>    C        8.01469       -15.24813        -5.50896
| 54>    S        6.42983       -14.57535        -5.55809
| 55>    S        8.80300       -16.38058        -6.55933
| 56>    C       10.19865       -16.27409        -5.53059
| 57>    C       10.06912       -15.40786        -4.45489
| 58>    C       11.27491       -15.34394        -3.69978
| 59>    C       11.53903       -14.43270        -2.66927
| 60>    N       11.81415       -13.67451        -1.85243
| 61>    C       12.25900       -16.18585        -4.18841
| 62>    S       11.73958       -17.04089        -5.62086
| 63>    C       13.60481       -16.32814        -3.68213
| 64>    C       14.66338       -16.42090        -4.56094
| 65>    C       15.99276       -16.37423        -4.11368
| 66>    C       16.27932       -16.22041        -2.78531
| 67>    C       15.24475       -16.23848        -1.82874
| 68>    C       15.42307       -16.28844        -0.43640
| 69>   Si       13.77580       -15.86927         0.18518
| 70>    C       12.93542       -16.57780        -1.25357
| 71>    C       13.86040       -16.34551        -2.27662
| 72>    H       12.18164       -13.17846         1.33934
| 73>    H       10.77133       -13.04885         0.16466
| 74>    H       11.94267       -11.92397         3.68787
| 75>    H       10.26088       -10.44707         4.96051
| 76>    H        8.41598        -9.12868         5.64722
| 77>    H        6.17784        -7.87403         5.84089
| 78>    H        3.92336        -7.45649         4.42943
| 79>    H        4.10231        -8.94488         1.87785
| 80>    H       -0.26079        -7.59784         0.27793
| 81>    H        3.21256        -9.44700         0.19089
| 82>    H        0.56651        -9.03875        -1.29323
| 83>    H       -0.79911       -10.95205        -5.44866
| 84>    H        4.28112       -13.13155        -4.96014
| 85>    H        6.03836       -12.38901        -2.54909
| 86>    H       14.46653       -16.47016        -5.62301
| 87>    H       16.78814       -16.42025        -4.84258
| 88>    H       17.30210       -16.13378        -2.44808
| 89>    H       16.40440       -16.11104        -0.02297
| 90>    H       11.87963       -16.63941        -1.46382
| 91> *
| 92>
| 93>                          ****END OF INPUT****

CARTESIAN COORDINATES (ANGSTROEM)
---------------------------------
  C     11.192330  -12.809630    1.124690
  C     10.536190  -12.055740    2.014380
  C     10.977030  -11.631510    3.314280
  C     10.095030  -10.856530    3.979650
  C      8.885360  -10.609920    3.265650
  S      8.915290  -11.410370    1.710240
  C      7.816560   -9.855270    3.682190
  C      7.651600   -9.135560    4.891130
  C      6.471550   -8.471670    4.996860
  C      5.616300   -8.626700    3.873140
  S      6.393650   -9.661120    2.669990
  C      4.378340   -8.091780    3.685760
  N      3.656210   -8.335300    2.556150
  C      2.434650   -7.868680    2.247200
  S      1.577990   -6.799100    3.312540
  C      0.254210   -6.761900    2.180230
  N     -0.846300   -5.984120    2.520020
  O     -1.785960   -5.946000    1.741420
  O     -0.788660   -5.388730    3.588660
  C      0.468210   -7.525130    1.063400
  C      1.715300   -8.175430    1.070810
  C      2.218690   -9.038460    0.050610
  C      1.562370   -9.396750   -1.078320
  C      2.104090  -10.259470   -2.057330
  S      3.699400  -10.967360   -1.956730
  C      1.485180  -10.683380   -3.226240
  N      0.260030  -10.415600   -3.753100
  C      0.094130  -11.021240   -4.860000
  S      1.428920  -12.025670   -5.434430
  C      2.289540  -11.558820   -4.007250
  C      3.534500  -11.830570   -3.476640
  C      4.540770  -12.652520   -4.022700
  C      5.764550  -12.869450   -3.479990
  C      6.746520  -13.701490   -4.069660
  C      8.030370  -13.941200   -3.589870
  C      8.487200  -13.418760   -2.373400
  N      8.836780  -13.017290   -1.356210
  C      8.772640  -14.819170   -4.426590
  C      8.014690  -15.248130   -5.508960
  S      6.429830  -14.575350   -5.558090
  S      8.803000  -16.380580   -6.559330
  C     10.198650  -16.274090   -5.530590
  C     10.069120  -15.407860   -4.454890
  C     11.274910  -15.343940   -3.699780
  C     11.539030  -14.432700   -2.669270
  N     11.814150  -13.674510   -1.852430
  C     12.259000  -16.185850   -4.188410
  S     11.739580  -17.040890   -5.620860
  C     13.604810  -16.328140   -3.682130
  C     14.663380  -16.420900   -4.560940
  C     15.992760  -16.374230   -4.113680
  C     16.279320  -16.220410   -2.785310
  C     15.244750  -16.238480   -1.828740
  C     15.423070  -16.288440   -0.436400
  Si    13.775800  -15.869270    0.185180
  C     12.935420  -16.577800   -1.253570
  C     13.860400  -16.345510   -2.276620
  H     12.181640  -13.178460    1.339340
  H     10.771330  -13.048850    0.164660
  H     11.942670  -11.923970    3.687870
  H     10.260880  -10.447070    4.960510
  H      8.415980   -9.128680    5.647220
  H      6.177840   -7.874030    5.840890
  H      3.923360   -7.456490    4.429430
  H      4.102310   -8.944880    1.877850
  H     -0.260790   -7.597840    0.277930
  H      3.212560   -9.447000    0.190890
  H      0.566510   -9.038750   -1.293230
  H     -0.799110  -10.952050   -5.448660
  H      4.281120  -13.131550   -4.960140
  H      6.038360  -12.389010   -2.549090
  H     14.466530  -16.470160   -5.623010
  H     16.788140  -16.420250   -4.842580
  H     17.302100  -16.133780   -2.448080
  H     16.404400  -16.111040   -0.022970
  H     11.879630  -16.639410   -1.463820

 Total Charge           Charge          ....    0
 Multiplicity           Mult            ....    1
 Number of Electrons    NEL             ....  458
 Basis Dimension        Dim             ....  929

ORBITAL ENERGIES
----------------

  NO   OCC          E(Eh)            E(eV)
   0   2.0000     -88.989168     -2421.5184
   1   2.0000     -88.988588     -2421.5026
   2   2.0000     -88.984409     -2421.3889
   3   2.0000     -88.973353     -2421.0880
   4   2.0000     -88.967202     -2420.9207
   5   2.0000     -88.966182     -2420.8929
   6   2.0000     -88.937211     -2420.1045
   7   2.0000     -88.919864     -2419.6325
   8   2.0000     -66.192430     -1801.1876
   9   2.0000     -19.220288      -523.0106
  10   2.0000     -19.219828      -522.9981
  11   2.0000     -14.631990      -398.1567
  12   2.0000     -14.479974      -394.0201
  13   2.0000     -14.421656      -392.4332
  14   2.0000     -14.408024      -392.0623
  15   2.0000     -14.406652      -392.0249
  16   2.0000     -10.362755      -281.9849
  17   2.0000     -10.343442      -281.4594
  18   2.0000     -10.338708      -281.3306
  19   2.0000     -10.338113      -281.3143
  20   2.0000     -10.337092      -281.2866
  21   2.0000     -10.335672      -281.2479
  22   2.0000     -10.327512      -281.0259
  23   2.0000     -10.322736      -280.8959
  24   2.0000     -10.320011      -280.8218
  25   2.0000     -10.318341      -280.7763
  26   2.0000     -10.317433      -280.7516
  27   2.0000     -10.315080      -280.6876
  28   2.0000     -10.312500      -280.6174
  29   2.0000     -10.311575      -280.5922
  30   2.0000     -10.310585      -280.5653
  31   2.0000     -10.310348      -280.5588
  32   2.0000     -10.308746      -280.5152
  33   2.0000     -10.308654      -280.5127
  34   2.0000     -10.304496      -280.3996
  35   2.0000     -10.303995      -280.3860
  36   2.0000     -10.302067      -280.3335
  37   2.0000     -10.299394      -280.2608
  38   2.0000     -10.298345      -280.2322
  39   2.0000     -10.296775      -280.1895
  40   2.0000     -10.296022      -280.1690
  41   2.0000     -10.295224      -280.1473
  42   2.0000     -10.295126      -280.1446
  43   2.0000     -10.294987      -280.1408
  44   2.0000     -10.293977      -280.1134
  45   2.0000     -10.289385      -279.9884
  46   2.0000     -10.287859      -279.9469
  47   2.0000     -10.285942      -279.8947
  48   2.0000     -10.285180      -279.8740
  49   2.0000     -10.282600      -279.8038
  50   2.0000     -10.279219      -279.7118
  51   2.0000     -10.276252      -279.6310
  52   2.0000     -10.273132      -279.5461
  53   2.0000     -10.271501      -279.5018
  54   2.0000     -10.253582      -279.0141
  55   2.0000     -10.253443      -279.0104
  56   2.0000     -10.244328      -278.7623
  57   2.0000      -8.084124      -219.9802
  58   2.0000      -8.083733      -219.9696
  59   2.0000      -8.079689      -219.8595
  60   2.0000      -8.068613      -219.5581
  61   2.0000      -8.062510      -219.3920
  62   2.0000      -8.061949      -219.3768
  63   2.0000      -8.033490      -218.6024
  64   2.0000      -8.016411      -218.1376
  65   2.0000      -6.054152      -164.7419
  66   2.0000      -6.053347      -164.7200
  67   2.0000      -6.049861      -164.6251
  68   2.0000      -6.049239      -164.6082
  69   2.0000      -6.049051      -164.6030
  70   2.0000      -6.045340      -164.5021
  71   2.0000      -6.045143      -164.4967
  72   2.0000      -6.044944      -164.4913
  73   2.0000      -6.041196      -164.3893
  74   2.0000      -6.038407      -164.3134
  75   2.0000      -6.034002      -164.1935
  76   2.0000      -6.031990      -164.1388
  77   2.0000      -6.031285      -164.1196
  78   2.0000      -6.029871      -164.0811
  79   2.0000      -6.028013      -164.0306
  80   2.0000      -6.027407      -164.0141
  81   2.0000      -6.023852      -163.9174
  82   2.0000      -6.023835      -163.9169
  83   2.0000      -6.003396      -163.3607
  84   2.0000      -5.999484      -163.2542
  85   2.0000      -5.994054      -163.1065
  86   2.0000      -5.986212      -162.8931
  87   2.0000      -5.982266      -162.7857
  88   2.0000      -5.976975      -162.6418
  89   2.0000      -5.363083      -145.9369
  90   2.0000      -3.730310      -101.5069
  91   2.0000      -3.721868      -101.2772
  92   2.0000      -3.720737      -101.2464
  93   2.0000      -1.299052       -35.3490
  94   2.0000      -1.117957       -30.4212
  95   2.0000      -1.087068       -29.5806
  96   2.0000      -1.074955       -29.2510
  97   2.0000      -1.042776       -28.3754
  98   2.0000      -1.012192       -27.5431
  99   2.0000      -0.994645       -27.0657
 100   2.0000      -0.994515       -27.0621
 101   2.0000      -0.985715       -26.8227
 102   2.0000      -0.983879       -26.7727
 103   2.0000      -0.978010       -26.6130
 104   2.0000      -0.976664       -26.5764
 105   2.0000      -0.953752       -25.9529
 106   2.0000      -0.949716       -25.8431
 107   2.0000      -0.926502       -25.2114
 108   2.0000      -0.904969       -24.6255
 109   2.0000      -0.900638       -24.5076
 110   2.0000      -0.898347       -24.4453
 111   2.0000      -0.889974       -24.2174
 112   2.0000      -0.882997       -24.0276
 113   2.0000      -0.879295       -23.9268
 114   2.0000      -0.866622       -23.5820
 115   2.0000      -0.863298       -23.4915
 116   2.0000      -0.848934       -23.1007
 117   2.0000      -0.837603       -22.7923
 118   2.0000      -0.833061       -22.6688
 119   2.0000      -0.830838       -22.6083
 120   2.0000      -0.823185       -22.4000
 121   2.0000      -0.812064       -22.0974
 122   2.0000      -0.808280       -21.9944
 123   2.0000      -0.792371       -21.5615
 124   2.0000      -0.784059       -21.3353
 125   2.0000      -0.774309       -21.0700
 126   2.0000      -0.763338       -20.7715
 127   2.0000      -0.754960       -20.5435
 128   2.0000      -0.737741       -20.0749
 129   2.0000      -0.721794       -19.6410
 130   2.0000      -0.713358       -19.4114
 131   2.0000      -0.711627       -19.3644
 132   2.0000      -0.704221       -19.1628
 133   2.0000      -0.697482       -18.9794
 134   2.0000      -0.688204       -18.7270
 135   2.0000      -0.673570       -18.3288
 136   2.0000      -0.668510       -18.1911
 137   2.0000      -0.659635       -17.9496
 138   2.0000      -0.657805       -17.8998
 139   2.0000      -0.648940       -17.6586
 140   2.0000      -0.640476       -17.4282
 141   2.0000      -0.638790       -17.3824
 142   2.0000      -0.632451       -17.2099
 143   2.0000      -0.624707       -16.9991
 144   2.0000      -0.616639       -16.7796
 145   2.0000      -0.613225       -16.6867
 146   2.0000      -0.608927       -16.5697
 147   2.0000      -0.606253       -16.4970
 148   2.0000      -0.604659       -16.4536
 149   2.0000      -0.602225       -16.3874
 150   2.0000      -0.594100       -16.1663
 151   2.0000      -0.583974       -15.8907
 152   2.0000      -0.580362       -15.7924
 153   2.0000      -0.575011       -15.6469
 154   2.0000      -0.569903       -15.5079
 155   2.0000      -0.563730       -15.3399
 156   2.0000      -0.551884       -15.0175
 157   2.0000      -0.548981       -14.9385
 158   2.0000      -0.541493       -14.7348
 159   2.0000      -0.540726       -14.7139
 160   2.0000      -0.538074       -14.6417
 161   2.0000      -0.535811       -14.5801
 162   2.0000      -0.531754       -14.4698
 163   2.0000      -0.528907       -14.3923
 164   2.0000      -0.528825       -14.3900
 165   2.0000      -0.524690       -14.2775
 166   2.0000      -0.520466       -14.1626
 167   2.0000      -0.514727       -14.0064
 168   2.0000      -0.509190       -13.8558
 169   2.0000      -0.506444       -13.7810
 170   2.0000      -0.504945       -13.7403
 171   2.0000      -0.503539       -13.7020
 172   2.0000      -0.497648       -13.5417
 173   2.0000      -0.495959       -13.4957
 174   2.0000      -0.489457       -13.3188
 175   2.0000      -0.483442       -13.1551
 176   2.0000      -0.482777       -13.1370
 177   2.0000      -0.481255       -13.0956
 178   2.0000      -0.477857       -13.0031
 179   2.0000      -0.476904       -12.9772
 180   2.0000      -0.472789       -12.8652
 181   2.0000      -0.470171       -12.7940
 182   2.0000      -0.466352       -12.6901
 183   2.0000      -0.463275       -12.6063
 184   2.0000      -0.460975       -12.5438
 185   2.0000      -0.459157       -12.4943
 186   2.0000      -0.455318       -12.3898
 187   2.0000      -0.451841       -12.2952
 188   2.0000      -0.451226       -12.2785
 189   2.0000      -0.445802       -12.1309
 190   2.0000      -0.439852       -11.9690
 191   2.0000      -0.437762       -11.9121
 192   2.0000      -0.437202       -11.8969
 193   2.0000      -0.436655       -11.8820
 194   2.0000      -0.433708       -11.8018
 195   2.0000      -0.431931       -11.7534
 196   2.0000      -0.428716       -11.6660
 197   2.0000      -0.427999       -11.6465
 198   2.0000      -0.424724       -11.5573
 199   2.0000      -0.417232       -11.3535
 200   2.0000      -0.414058       -11.2671
 201   2.0000      -0.411997       -11.2110
 202   2.0000      -0.405061       -11.0223
 203   2.0000      -0.397705       -10.8221
 204   2.0000      -0.392653       -10.6846
 205   2.0000      -0.383708       -10.4412
 206   2.0000      -0.380355       -10.3500
 207   2.0000      -0.379741       -10.3333
 208   2.0000      -0.376535       -10.2460
 209   2.0000      -0.370928       -10.0935
 210   2.0000      -0.369532       -10.0555
 211   2.0000      -0.369411       -10.0522
 212   2.0000      -0.360795        -9.8177
 213   2.0000      -0.357861        -9.7379
 214   2.0000      -0.356528        -9.7016
 215   2.0000      -0.349194        -9.5020
 216   2.0000      -0.334154        -9.0928
 217   2.0000      -0.329412        -8.9638
 218   2.0000      -0.325177        -8.8485
 219   2.0000      -0.320617        -8.7244
 220   2.0000      -0.318113        -8.6563
 221   2.0000      -0.309276        -8.4158
 222   2.0000      -0.298187        -8.1141
 223   2.0000      -0.296230        -8.0608
 224   2.0000      -0.279245        -7.5986
 225   2.0000      -0.273109        -7.4317
 226   2.0000      -0.251932        -6.8554
 227   2.0000      -0.237256        -6.4561
 228   2.0000      -0.202087        -5.4991
 229   0.0000      -0.101563        -2.7637
 230   0.0000      -0.074961        -2.0398
 231   0.0000      -0.054162        -1.4738
 232   0.0000      -0.031898        -0.8680
 233   0.0000      -0.030464        -0.8290

MULLIKEN ATOMIC CHARGES
-----------------------
   0 C :   -0.025964
   1 C :   -0.073189
   2 C :    0.061955
   3 C :    0.018390
   4 C :   -0.053544
   5 S :    0.096714
   6 C :   -0.061543
   7 C :    0.034282
   8 C :    0.031124
   9 C :   -0.030635
  10 S :    0.015001
  11 C :    0.003796
  12 N :   -0.023667
  13 C :   -0.109259
  14 S :    0.146438
  15 C :   -0.010329
  16 N :    0.279251
  17 O :   -0.262248
  18 O :   -0.279962
  19 C :    0.006796
  20 C :    0.134236
  21 C :   -0.038917
  22 C :   -0.009867
  23 C :   -0.121837
  24 S :    0.117204
  25 C :    0.072584
  26 N :   -0.041538
  27 C :    0.015134
  28 S :    0.085120
  29 C :    0.010044
  30 C :   -0.160838
  31 C :    0.007085
  32 C :   -0.037452
  33 C :   -0.063596
  34 C :   -0.027607
  35 C :   -0.313628
  36 N :    0.211685
  37 C :    0.152279
  38 C :   -0.230197
  39 S :    0.145775
  40 S :    0.185216
  41 C :   -0.238060
  42 C :    0.129012
  43 C :   -0.005996
  44 C :   -0.293097
  45 N :    0.194141
  46 C :   -0.136606
  47 S :    0.177397
  48 C :    0.064172
  49 C :   -0.021563
  50 C :    0.022531
  51 C :    0.018037
  52 C :    0.019295
  53 C :   -0.167909
  54 Si:    0.349480
  55 C :   -0.173588
  56 C :   -0.017937
  57 H :    0.026497
  58 H :    0.047079
  59 H :   -0.014574
  60 H :   -0.019378
  61 H :   -0.014309
  62 H :   -0.016461
  63 H :    0.019049
  64 H :    0.152912
  65 H :    0.011214
  66 H :   -0.025903
  67 H :    0.001642
  68 H :    0.047014
  69 H :   -0.003986
  70 H :    0.019492
  71 H :   -0.009644
  72 H :   -0.003528
  73 H :   -0.014367
  74 H :    0.003684
  75 H :    0.019969
Sum of atomic charges:   -0.0000000

LOEWDIN ATOMIC CHARGES
----------------------
   0 C :   -0.038406
   1 C :   -0.153335
   2 C :   -0.019418
   3 C :   -0.040239
   4 C :   -0.170791
   5 S :    0.367146
   6 C :   -0.193602
   7 C :   -0.029667
   8 C :   -0.046920
   9 C :   -0.169998
  10 S :    0.327210
  11 C :   -0.038856
  12 N :    0.054378
  13 C :   -0.091853
  14 S :    0.445039
  15 C :   -0.215879
  16 N :    0.273735
  17 O :   -0.229117
  18 O :   -0.245853
  19 C :    0.010210
  20 C :   -0.116465
  21 C :   -0.017135
  22 C :   -0.043577
  23 C :   -0.150736
  24 S :    0.441329
  25 C :   -0.076787
  26 N :   -0.080645
  27 C :   -0.091844
  28 S :    0.365925
  29 C :   -0.193222
  30 C :   -0.201642
  31 C :   -0.024213
  32 C :   -0.060963
  33 C :   -0.117070
  34 C :   -0.110516
  35 C :   -0.026859
  36 N :   -0.045702
  37 C :   -0.062479
  38 C :   -0.333978
  39 S :    0.439242
  40 S :    0.421435
  41 C :   -0.336497
  42 C :   -0.062169
  43 C :   -0.106946
  44 C :   -0.023086
  45 N :   -0.039716
  46 C :   -0.115799
  47 S :    0.456002
  48 C :   -0.046362
  49 C :   -0.006160
  50 C :   -0.024223
  51 C :    0.000783
  52 C :   -0.010895
  53 C :   -0.224967
  54 Si:    0.442152
  55 C :   -0.210312
  56 C :   -0.013134
  57 H :    0.025824
  58 H :    0.025099
  59 H :    0.032578
  60 H :    0.028631
  61 H :    0.031943
  62 H :    0.031501
  63 H :    0.027713
  64 H :    0.084247
  65 H :    0.045063
  66 H :    0.016640
  67 H :    0.040040
  68 H :    0.021732
  69 H :    0.027139
  70 H :    0.038613
  71 H :    0.025960
  72 H :    0.033448
  73 H :    0.034079
  74 H :    0.021181
  75 H :    0.022018

  Mayer bond orders larger than 0.100000
B(  0-C ,  1-C ) :   1.8565 B(  0-C , 57-H ) :   0.9522 B(  0-C , 58-H ) :   0.9188
B(  1-C ,  2-C ) :   1.0727 B(  1-C ,  5-S ) :   1.0009 B(  2-C ,  3-C ) :   1.6650
B(  2-C , 59-H ) :   0.9936 B(  3-C ,  4-C ) :   1.1433 B(  3-C , 60-H ) :   0.9924
B(  4-C ,  5-S ) :   1.0510 B(  4-C ,  6-C ) :   1.5612 B(  6-C ,  7-C ) :   1.1748
B(  6-C , 10-S ) :   1.0199 B(  7-C ,  8-C ) :   1.6266 B(  7-C , 61-H ) :   0.9901
B(  8-C ,  9-C ) :   1.1416 B(  8-C , 62-H ) :   0.9945 B(  9-C , 10-S ) :   1.0174
B(  9-C , 11-C ) :   1.6253 B( 11-C , 12-N ) :   1.1024 B( 11-C , 63-H ) :   0.9611
B( 12-N , 13-C ) :   1.2937 B( 12-N , 64-H ) :   0.9014 B( 13-C , 14-S ) :   1.1288
B( 13-C , 20-C ) :   1.2919 B( 14-S , 15-C ) :   1.0479 B( 15-C , 16-N ) :   0.9933
B( 15-C , 19-C ) :   1.4842 B( 16-N , 17-O ) :   1.5184 B( 16-N , 18-O ) :   1.4940
B( 17-O , 18-O ) :   0.2479 B( 19-C , 20-C ) :   1.2389 B( 19-C , 65-H ) :   0.9999
B( 20-C , 21-C ) :   1.0933 B( 21-C , 22-C ) :   1.6437 B( 21-C , 66-H ) :   0.9696
B( 22-C , 23-C ) :   1.1926 B( 22-C , 67-H ) :   0.9797 B( 23-C , 24-S ) :   1.1167
B( 23-C , 25-C ) :   1.4061 B( 23-C , 30-C ) :   0.1093 B( 24-S , 30-C ) :   1.0886
B( 25-C , 26-N ) :   1.3027 B( 25-C , 29-C ) :   1.2421 B( 26-N , 27-C ) :   1.8013
B( 26-N , 28-S ) :   0.1058 B( 27-C , 28-S ) :   1.0707 B( 27-C , 68-H ) :   0.9627
B( 28-S , 29-C ) :   1.0497 B( 29-C , 30-C ) :   1.4852 B( 30-C , 31-C ) :   1.2112
B( 31-C , 32-C ) :   1.5985 B( 31-C , 69-H ) :   0.9690 B( 32-C , 33-C ) :   1.2110
B( 32-C , 70-H ) :   0.9678 B( 33-C , 34-C ) :   1.4691 B( 33-C , 39-S ) :   1.1114
B( 34-C , 35-C ) :   1.1750 B( 34-C , 37-C ) :   1.2381 B( 35-C , 36-N ) :   2.9879
B( 37-C , 38-C ) :   1.4230 B( 37-C , 42-C ) :   1.0763 B( 38-C , 39-S ) :   1.0804
B( 38-C , 40-S ) :   1.0852 B( 40-S , 41-C ) :   1.0816 B( 41-C , 42-C ) :   1.4234
B( 41-C , 47-S ) :   1.0808 B( 42-C , 43-C ) :   1.2397 B( 43-C , 44-C ) :   1.1827
B( 43-C , 46-C ) :   1.5238 B( 44-C , 45-N ) :   2.9160 B( 46-C , 47-S ) :   1.1528
B( 46-C , 48-C ) :   1.0569 B( 48-C , 49-C ) :   1.5791 B( 48-C , 56-C ) :   1.1019
B( 49-C , 50-C ) :   1.1466 B( 49-C , 71-H ) :   0.9862 B( 50-C , 51-C ) :   1.5951
B( 50-C , 72-H ) :   0.9862 B( 51-C , 52-C ) :   1.1466 B( 51-C , 73-H ) :   0.9998
B( 52-C , 53-C ) :   1.5866 B( 52-C , 54-Si) :   0.1250 B( 52-C , 56-C ) :   1.0274
B( 53-C , 54-Si) :   1.0204 B( 53-C , 55-C ) :   0.1173 B( 53-C , 74-H ) :   0.9470
B( 54-Si, 55-C ) :   1.0108 B( 54-Si, 56-C ) :   0.1346 B( 55-C , 56-C ) :   1.6448
B( 55-C , 75-H ) :   0.9410

-----------------------------------------------------------------------------
         ABSORPTION SPECTRUM VIA TRANSITION ELECTRIC DIPOLE MOMENTS
-----------------------------------------------------------------------------
State   Energy  Wavelength   fosc         T2         TX        TY        TZ
        (cm-1)    (nm)                  (au**2)     (au)      (au)      (au)
-----------------------------------------------------------------------------
   0   10815.2    924.6   0.002914987   0.08873   0.09794  -0.15539  -0.23451
   1   11062.5    904.0   0.034956766   1.04029  -0.95294   0.08155  -0.35432
   2   13527.9    739.2   0.169833666   4.13304  -0.63703  -0.75497  -1.77687
   3   16297.7    613.6   0.128813042   2.60201   0.50350  -0.08448  -1.53015
   4   18164.9    550.5   0.646120408  11.71000   3.06307  -1.51730   0.15936
   5   19275.7    518.8   0.010795911   0.18438  -0.31682   0.22866   0.17811
   6   20526.4    487.2   1.721029219  27.60263   3.90493  -2.99400  -1.84123
   7   24142.0    414.2   0.211188752   2.87987  -1.57616   0.59833  -0.19393
   8   24253.2    412.3   0.217191557   2.94814   1.51588  -0.79475  -0.13646
   9   25748.1    388.4   0.012559273   0.16058   0.24125  -0.25480  -0.19353
  10   26073.7    383.5   0.001018215   0.01286  -0.08238   0.05818   0.05182
  11   26476.1    377.7   0.003189206   0.03966  -0.06594   0.13377   0.13197
  12   26974.7    370.7   0.284451436   3.47158  -0.86275   1.07169   1.25648
  13   27008.3    370.3   0.206970775   2.52283   1.27067   0.12209   0.94516
  14   27641.7    361.8   0.014101175   0.16794   0.38619  -0.05382   0.12610
  15   28618.7    349.4   0.076081461   0.87519  -0.82605   0.21268  -0.38418
  16   29575.6    338.1   0.016715917   0.18607   0.21730   0.13601   0.34692
  17   29926.0    334.2   0.303601199   3.33988   0.90527   0.45266   1.52166
  18   30507.8    327.8   0.000160061   0.00173  -0.04025  -0.01028   0.00108
  19   32389.0    308.7   0.007054117   0.07170  -0.20448   0.15837   0.06933
  20   32676.2    306.0   0.014806635   0.14918   0.33221  -0.16938   0.10063
  21   32907.4    303.9   0.002362958   0.02364   0.09289  -0.11547  -0.04096
  22   33120.5    301.9   0.052132297   0.51819  -0.10895  -0.27564  -0.65600
  23   33414.8    299.3   0.003361644   0.03312  -0.10557  -0.03620  -0.14375
  24   33628.0    297.4   0.039034950   0.38215  -0.57529   0.14439  -0.17418
  25   33676.3    296.9   0.005834090   0.05703  -0.04083  -0.11011  -0.20795
  26   33851.9    295.4   0.008118515   0.07895  -0.07948   0.23751   0.12738
  27   33906.5    294.9   0.021264001   0.20646   0.38333  -0.06615   0.23483
  28   34322.6    291.4   0.007787860   0.07470  -0.13721  -0.10654  -0.21100
  29   34401.0    290.7   0.059440845   0.56884  -0.61891   0.10245  -0.41868
  30   34515.1    289.7   0.018784908   0.17917  -0.29265   0.08968  -0.29238
  31   34578.0    289.2   0.014988753   0.14271   0.31980   0.01087   0.20078
  32   35190.5    284.2   0.023818908   0.22283  -0.32639  -0.02170  -0.34033
  33   35202.4    284.1   0.221661545   2.07297   0.83450   0.30637   1.13257
  34   36386.6    274.8   0.020187321   0.18265   0.35594   0.00821   0.23641
  35   37025.8    270.1   0.009274692   0.08247  -0.19754  -0.14755  -0.14722
  36   37119.2    269.4   0.000434269   0.00385  -0.04680   0.04049   0.00469
  37   37265.3    268.3   0.017855559   0.15774   0.35856  -0.09189   0.14398
  38   37721.0    265.1   0.005339900   0.04660  -0.18975   0.01807  -0.10136
  39   37894.6    263.9   0.050771245   0.44108  -0.36899   0.38183   0.39891
  40   38281.6    261.2   0.026790113   0.23039  -0.23667  -0.22205  -0.35365
  41   38324.0    260.9   0.005438076   0.04671   0.03626  -0.14269  -0.15824
  42   38380.0    260.6   0.004037497   0.03463   0.13198  -0.02043   0.12960
  43   38565.5    259.3   0.007676685   0.06553  -0.02865   0.17745  -0.18227
  44   38850.7    257.4   0.011687423   0.09904   0.11007  -0.20460  -0.21227
  45   39016.8    256.3   0.000351939   0.00297   0.04743  -0.02195   0.01543
  46   39084.8    255.9   0.004856458   0.04091  -0.04515   0.11154   0.16256
  47   39193.8    255.1   0.005711767   0.04798  -0.02638   0.10059   0.19277
  48   39460.1    253.4   0.004442572   0.03706  -0.17620  -0.06824   0.03690
  49   39656.8    252.2   0.110722551   0.91917   0.29373   0.35255   0.84178
  50   39863.7    250.9   0.035398471   0.29234  -0.48565   0.17720  -0.15836
  51   40045.7    249.7   0.034610765   0.28453   0.06822   0.25387   0.46414
  52   40298.9    248.1   0.005128345   0.04189  -0.02584  -0.10068  -0.17632

FINAL SINGLE POINT ENERGY     -5469.128486218583

DIPOLE MOMENT
-------------
                                X             Y             Z
Electronic contribution:    -19.19282      -7.21902     -23.27730
Nuclear contribution   :     22.06530       4.22537      20.91555
                        -----------------------------------------
Total Dipole Moment    :      2.87248      -2.99366      -2.36175
                        -----------------------------------------
Magnitude (a.u.)       :      4.77399
Magnitude (Debye)      :     12.13452

Rotational constants in cm-1:     0.001548     0.000536     0.000401
Rotational constants in MHz :    46.398294    16.083826    12.022301

                             ****ORCA TERMINATED NORMALLY****
TOTAL RUN TIME: 0 days 0 hours 16 minutes 24 seconds 967 msec
