                         Program Version 4.2.0 -  RELEASE  -
|  1> # ORCA input file
|  2> # SCF done       -165.806594807412          0.000835674716
|  3> ! CAM-B3LYP def2-SVP def2/J RIJCOSX Grid4 TightSCF
|  4> %maxcore 5000
|  5> %tddft
|  6>     Mode sTDDFT
|  7>     Ethresh 5.0
|  8>     maxcore 5000
|  9> end
| 10>
| 11> %pal
| 12>   nprocs 6
| 13>   end
| 14> * xyz 0 1
| 15>    C        3.02422       -20.63762         0.96436
| 16>    C        2.65303       -19.36153         0.78975
| 17>    C        1.32400       -18.84086         0.65220
| 18>    C        1.26138       -17.50044         0.48513
| 19>    C        2.52464       -16.85242         0.45290
| 20>    S        3.81076       -18.02491         0.68020
| 21>    C        2.78558       -15.51719         0.26229
| 22>    C        1.86375       -14.44082         0.23483
| 23>    C        2.44136       -13.22700         0.04675
| 24>    C        3.84855       -13.27357        -0.14385
| 25>    S        4.41542       -14.93174         0.00447
| 26>    C        4.64204       -12.20435        -0.44638
| 27>    N        5.94431       -12.30174        -0.79340
| 28>    C        6.78032       -11.31252        -1.17174
| 29>    S        8.48379       -11.63158        -0.97541
| 30>    C        8.83822        -9.97878        -1.38769
| 31>    N       10.16979        -9.59508        -1.41124
| 32>    O       10.43882        -8.43444        -1.68113
| 33>    O       10.99895       -10.46334        -1.15041
| 34>    C        7.71593        -9.24440        -1.67969
| 35>    C        6.52784        -9.99169        -1.61417
| 36>    C        5.26886        -9.47732        -2.08548
| 37>    C        4.33392       -10.28789        -2.64495
| 38>    C        3.01506        -9.98877        -3.03930
| 39>    C        2.15147       -11.01848        -3.33509
| 40>    C        0.77568       -11.00955        -3.67197
| 41>    C        0.21198       -12.25029        -3.78479
| 42>    C        1.11238       -13.30800        -3.54121
| 43>    S        2.70513       -12.68210        -3.20943
| 44>    C        0.97788       -14.68530        -3.50593
| 45>    C       -0.06894       -15.56933        -3.83003
| 46>    C        0.28330       -16.88616        -3.74449
| 47>    C        1.62587       -17.11344        -3.33896
| 48>    S        2.40487       -15.58665        -3.04090
| 49>    C        2.23857       -18.33249        -3.17170
| 50>    C        3.55080       -18.61010        -2.74606
| 51>    C        4.69439       -17.82849        -2.55032
| 52>    C        4.99672       -16.56885        -3.07612
| 53>    N        5.40255       -15.60166        -3.54846
| 54>    C        5.75328       -18.55706        -1.93407
| 55>    C        5.44310       -19.90092        -1.78067
| 56>    S        3.85068       -20.29518        -2.29564
| 57>    S        6.72167       -20.87831        -1.13608
| 58>    C        7.69404       -19.44156        -1.04031
| 59>    C        7.06642       -18.27792        -1.45508
| 60>    C        7.89689       -17.13656        -1.23441
| 61>    C        7.45810       -15.81780        -1.29518
| 62>    N        7.09941       -14.72653        -1.22796
| 63>    C        9.15123       -17.47227        -0.73193
| 64>    S        9.30252       -19.19660        -0.46997
| 65>    C       10.24924       -16.61668        -0.42672
| 66>    C       11.43584       -17.01986         0.20332
| 67>    C       12.28344       -15.90056         0.32969
| 68>    C       13.55481       -15.76185         0.87194
| 69>    C       14.13131       -14.49659         0.84053
| 70>    C       15.37661       -14.02381         1.29248
| 71>    C       15.47275       -12.64358         1.01556
| 72>    C       14.28658       -12.24576         0.38923
| 73>    C       13.43178       -13.36938         0.26489
| 74>    C       12.16950       -13.49636        -0.27699
| 75>    C       11.58913       -14.77269        -0.24816
| 76>    C       10.35422       -15.22849        -0.70942
| 77>    C       16.58042       -11.76321         1.30773
| 78>    C       17.70116       -12.10953         1.93383
| 79>    H        2.28845       -21.41970         1.02298
| 80>    H        4.05679       -20.92067         1.05724
| 81>    H        0.47346       -19.49841         0.68409
| 82>    H        0.34839       -16.94594         0.35611
| 83>    H        0.80849       -14.59704         0.37001
| 84>    H        1.90492       -12.29545         0.00097
| 85>    H        4.20332       -11.21798        -0.42424
| 86>    H        6.34986       -13.25751        -0.81733
| 87>    H        7.76514        -8.21274        -1.97904
| 88>    H        5.11927        -8.40838        -2.02425
| 89>    H        4.60874       -11.32781        -2.77101
| 90>    H        2.65855        -8.96880        -3.05041
| 91>    H        0.23756       -10.08815        -3.81320
| 92>    H       -0.82284       -12.42681        -4.02123
| 93>    H       -1.03939       -15.21914        -4.13542
| 94>    H       -0.37598       -17.70580        -3.97131
| 95>    H        1.61594       -19.20489        -3.32801
| 96>    H       11.65579       -18.01852         0.53641
| 97>    H       14.07749       -16.60638         1.29985
| 98>    H       16.13060       -14.62327         1.76938
| 99>    H       14.04703       -11.25418         0.05120
|100>    H       11.65220       -12.64636        -0.69765
|101>    H        9.61944       -14.62863        -1.20942
|102>    H       16.44782       -10.74202         0.97384
|103>    H       17.87677       -13.11136         2.28631
|104>    H       18.48698       -11.39746         2.11692
|105> *
|106>
|107>                          ****END OF INPUT****

CARTESIAN COORDINATES (ANGSTROEM)
---------------------------------
  C      3.024220  -20.637620    0.964360
  C      2.653030  -19.361530    0.789750
  C      1.324000  -18.840860    0.652200
  C      1.261380  -17.500440    0.485130
  C      2.524640  -16.852420    0.452900
  S      3.810760  -18.024910    0.680200
  C      2.785580  -15.517190    0.262290
  C      1.863750  -14.440820    0.234830
  C      2.441360  -13.227000    0.046750
  C      3.848550  -13.273570   -0.143850
  S      4.415420  -14.931740    0.004470
  C      4.642040  -12.204350   -0.446380
  N      5.944310  -12.301740   -0.793400
  C      6.780320  -11.312520   -1.171740
  S      8.483790  -11.631580   -0.975410
  C      8.838220   -9.978780   -1.387690
  N     10.169790   -9.595080   -1.411240
  O     10.438820   -8.434440   -1.681130
  O     10.998950  -10.463340   -1.150410
  C      7.715930   -9.244400   -1.679690
  C      6.527840   -9.991690   -1.614170
  C      5.268860   -9.477320   -2.085480
  C      4.333920  -10.287890   -2.644950
  C      3.015060   -9.988770   -3.039300
  C      2.151470  -11.018480   -3.335090
  C      0.775680  -11.009550   -3.671970
  C      0.211980  -12.250290   -3.784790
  C      1.112380  -13.308000   -3.541210
  S      2.705130  -12.682100   -3.209430
  C      0.977880  -14.685300   -3.505930
  C     -0.068940  -15.569330   -3.830030
  C      0.283300  -16.886160   -3.744490
  C      1.625870  -17.113440   -3.338960
  S      2.404870  -15.586650   -3.040900
  C      2.238570  -18.332490   -3.171700
  C      3.550800  -18.610100   -2.746060
  C      4.694390  -17.828490   -2.550320
  C      4.996720  -16.568850   -3.076120
  N      5.402550  -15.601660   -3.548460
  C      5.753280  -18.557060   -1.934070
  C      5.443100  -19.900920   -1.780670
  S      3.850680  -20.295180   -2.295640
  S      6.721670  -20.878310   -1.136080
  C      7.694040  -19.441560   -1.040310
  C      7.066420  -18.277920   -1.455080
  C      7.896890  -17.136560   -1.234410
  C      7.458100  -15.817800   -1.295180
  N      7.099410  -14.726530   -1.227960
  C      9.151230  -17.472270   -0.731930
  S      9.302520  -19.196600   -0.469970
  C     10.249240  -16.616680   -0.426720
  C     11.435840  -17.019860    0.203320
  C     12.283440  -15.900560    0.329690
  C     13.554810  -15.761850    0.871940
  C     14.131310  -14.496590    0.840530
  C     15.376610  -14.023810    1.292480
  C     15.472750  -12.643580    1.015560
  C     14.286580  -12.245760    0.389230
  C     13.431780  -13.369380    0.264890
  C     12.169500  -13.496360   -0.276990
  C     11.589130  -14.772690   -0.248160
  C     10.354220  -15.228490   -0.709420
  C     16.580420  -11.763210    1.307730
  C     17.701160  -12.109530    1.933830
  H      2.288450  -21.419700    1.022980
  H      4.056790  -20.920670    1.057240
  H      0.473460  -19.498410    0.684090
  H      0.348390  -16.945940    0.356110
  H      0.808490  -14.597040    0.370010
  H      1.904920  -12.295450    0.000970
  H      4.203320  -11.217980   -0.424240
  H      6.349860  -13.257510   -0.817330
  H      7.765140   -8.212740   -1.979040
  H      5.119270   -8.408380   -2.024250
  H      4.608740  -11.327810   -2.771010
  H      2.658550   -8.968800   -3.050410
  H      0.237560  -10.088150   -3.813200
  H     -0.822840  -12.426810   -4.021230
  H     -1.039390  -15.219140   -4.135420
  H     -0.375980  -17.705800   -3.971310
  H      1.615940  -19.204890   -3.328010
  H     11.655790  -18.018520    0.536410
  H     14.077490  -16.606380    1.299850
  H     16.130600  -14.623270    1.769380
  H     14.047030  -11.254180    0.051200
  H     11.652200  -12.646360   -0.697650
  H      9.619440  -14.628630   -1.209420
  H     16.447820  -10.742020    0.973840
  H     17.876770  -13.111360    2.286310
  H     18.486980  -11.397460    2.116920

 Total Charge           Charge          ....    0
 Multiplicity           Mult            ....    1
 Number of Electrons    NEL             ....  498
 Basis Dimension        Dim             .... 1058

ORBITAL ENERGIES
----------------

  NO   OCC          E(Eh)            E(eV)
   0   2.0000     -88.975034     -2421.1338
   1   2.0000     -88.974024     -2421.1063
   2   2.0000     -88.966065     -2420.8897
   3   2.0000     -88.962291     -2420.7870
   4   2.0000     -88.939022     -2420.1538
   5   2.0000     -88.937579     -2420.1146
   6   2.0000     -88.930231     -2419.9146
   7   2.0000     -88.925341     -2419.7815
   8   2.0000     -19.223609      -523.1010
   9   2.0000     -19.222457      -523.0696
  10   2.0000     -14.633949      -398.2100
  11   2.0000     -14.451215      -393.2376
  12   2.0000     -14.413469      -392.2104
  13   2.0000     -14.385245      -391.4424
  14   2.0000     -10.352465      -281.7049
  15   2.0000     -10.330196      -281.0989
  16   2.0000     -10.323635      -280.9204
  17   2.0000     -10.322805      -280.8978
  18   2.0000     -10.322709      -280.8952
  19   2.0000     -10.322317      -280.8845
  20   2.0000     -10.320653      -280.8392
  21   2.0000     -10.311361      -280.5864
  22   2.0000     -10.310025      -280.5500
  23   2.0000     -10.309506      -280.5359
  24   2.0000     -10.308123      -280.4983
  25   2.0000     -10.304500      -280.3997
  26   2.0000     -10.304276      -280.3936
  27   2.0000     -10.304067      -280.3879
  28   2.0000     -10.300619      -280.2941
  29   2.0000     -10.297620      -280.2125
  30   2.0000     -10.296087      -280.1708
  31   2.0000     -10.294993      -280.1410
  32   2.0000     -10.294169      -280.1186
  33   2.0000     -10.293569      -280.1023
  34   2.0000     -10.292725      -280.0793
  35   2.0000     -10.291392      -280.0430
  36   2.0000     -10.290885      -280.0292
  37   2.0000     -10.289383      -279.9883
  38   2.0000     -10.289251      -279.9848
  39   2.0000     -10.288911      -279.9755
  40   2.0000     -10.288786      -279.9721
  41   2.0000     -10.285023      -279.8697
  42   2.0000     -10.284010      -279.8421
  43   2.0000     -10.283699      -279.8337
  44   2.0000     -10.283126      -279.8181
  45   2.0000     -10.282746      -279.8077
  46   2.0000     -10.282427      -279.7991
  47   2.0000     -10.281006      -279.7604
  48   2.0000     -10.279161      -279.7102
  49   2.0000     -10.277188      -279.6565
  50   2.0000     -10.276934      -279.6496
  51   2.0000     -10.276219      -279.6301
  52   2.0000     -10.275816      -279.6192
  53   2.0000     -10.271591      -279.5042
  54   2.0000     -10.271215      -279.4940
  55   2.0000     -10.269701      -279.4528
  56   2.0000     -10.263335      -279.2795
  57   2.0000     -10.262948      -279.2690
  58   2.0000     -10.260444      -279.2009
  59   2.0000     -10.260332      -279.1978
  60   2.0000     -10.256850      -279.1031
  61   2.0000     -10.255964      -279.0790
  62   2.0000     -10.254852      -279.0487
  63   2.0000     -10.251576      -278.9596
  64   2.0000      -8.069743      -219.5889
  65   2.0000      -8.069179      -219.5735
  66   2.0000      -8.060758      -219.3444
  67   2.0000      -8.057668      -219.2603
  68   2.0000      -8.034728      -218.6361
  69   2.0000      -8.033247      -218.5958
  70   2.0000      -8.025934      -218.3968
  71   2.0000      -8.020987      -218.2621
  72   2.0000      -6.039776      -164.3507
  73   2.0000      -6.038810      -164.3244
  74   2.0000      -6.035519      -164.2348
  75   2.0000      -6.034548      -164.2084
  76   2.0000      -6.030746      -164.1049
  77   2.0000      -6.030583      -164.1005
  78   2.0000      -6.030489      -164.0979
  79   2.0000      -6.027446      -164.0151
  80   2.0000      -6.026258      -163.9828
  81   2.0000      -6.023033      -163.8950
  82   2.0000      -6.022165      -163.8714
  83   2.0000      -6.018928      -163.7834
  84   2.0000      -6.004456      -163.3896
  85   2.0000      -6.003001      -163.3500
  86   2.0000      -6.000355      -163.2780
  87   2.0000      -5.998665      -163.2320
  88   2.0000      -5.995809      -163.1543
  89   2.0000      -5.995663      -163.1503
  90   2.0000      -5.994216      -163.1109
  91   2.0000      -5.991723      -163.0431
  92   2.0000      -5.990875      -163.0200
  93   2.0000      -5.986998      -162.9145
  94   2.0000      -5.986620      -162.9042
  95   2.0000      -5.981562      -162.7666
  96   2.0000      -1.299985       -35.3744
  97   2.0000      -1.118589       -30.4384
  98   2.0000      -1.066236       -29.0137
  99   2.0000      -1.027692       -27.9649
 100   2.0000      -1.003682       -27.3116
 101   2.0000      -0.996597       -27.1188
 102   2.0000      -0.990430       -26.9510
 103   2.0000      -0.985985       -26.8300
 104   2.0000      -0.982820       -26.7439
 105   2.0000      -0.975650       -26.5488
 106   2.0000      -0.971697       -26.4412
 107   2.0000      -0.968444       -26.3527
 108   2.0000      -0.958614       -26.0852
 109   2.0000      -0.953496       -25.9460
 110   2.0000      -0.933118       -25.3914
 111   2.0000      -0.913204       -24.8495
 112   2.0000      -0.892595       -24.2887
 113   2.0000      -0.890522       -24.2323
 114   2.0000      -0.884431       -24.0666
 115   2.0000      -0.877914       -23.8893
 116   2.0000      -0.867337       -23.6014
 117   2.0000      -0.860690       -23.4206
 118   2.0000      -0.858873       -23.3711
 119   2.0000      -0.855160       -23.2701
 120   2.0000      -0.849873       -23.1262
 121   2.0000      -0.846279       -23.0284
 122   2.0000      -0.832564       -22.6552
 123   2.0000      -0.830731       -22.6053
 124   2.0000      -0.822094       -22.3703
 125   2.0000      -0.817945       -22.2574
 126   2.0000      -0.813752       -22.1433
 127   2.0000      -0.805626       -21.9222
 128   2.0000      -0.802540       -21.8382
 129   2.0000      -0.794504       -21.6195
 130   2.0000      -0.781994       -21.2791
 131   2.0000      -0.773798       -21.0561
 132   2.0000      -0.761994       -20.7349
 133   2.0000      -0.746493       -20.3131
 134   2.0000      -0.744264       -20.2525
 135   2.0000      -0.734496       -19.9866
 136   2.0000      -0.719480       -19.5780
 137   2.0000      -0.713826       -19.4242
 138   2.0000      -0.702749       -19.1228
 139   2.0000      -0.692064       -18.8320
 140   2.0000      -0.684960       -18.6387
 141   2.0000      -0.676887       -18.4190
 142   2.0000      -0.671789       -18.2803
 143   2.0000      -0.666214       -18.1286
 144   2.0000      -0.660686       -17.9782
 145   2.0000      -0.655347       -17.8329
 146   2.0000      -0.653275       -17.7765
 147   2.0000      -0.642670       -17.4879
 148   2.0000      -0.638140       -17.3647
 149   2.0000      -0.628730       -17.1086
 150   2.0000      -0.626629       -17.0514
 151   2.0000      -0.624086       -16.9822
 152   2.0000      -0.621722       -16.9179
 153   2.0000      -0.619352       -16.8534
 154   2.0000      -0.614720       -16.7274
 155   2.0000      -0.614016       -16.7082
 156   2.0000      -0.612944       -16.6791
 157   2.0000      -0.607697       -16.5363
 158   2.0000      -0.602792       -16.4028
 159   2.0000      -0.595791       -16.2123
 160   2.0000      -0.592531       -16.1236
 161   2.0000      -0.586024       -15.9465
 162   2.0000      -0.578536       -15.7428
 163   2.0000      -0.574347       -15.6288
 164   2.0000      -0.571015       -15.5381
 165   2.0000      -0.566264       -15.4088
 166   2.0000      -0.562617       -15.3096
 167   2.0000      -0.553034       -15.0488
 168   2.0000      -0.548789       -14.9333
 169   2.0000      -0.542056       -14.7501
 170   2.0000      -0.532708       -14.4957
 171   2.0000      -0.531576       -14.4649
 172   2.0000      -0.529589       -14.4108
 173   2.0000      -0.526893       -14.3375
 174   2.0000      -0.519533       -14.1372
 175   2.0000      -0.514013       -13.9870
 176   2.0000      -0.511248       -13.9118
 177   2.0000      -0.510903       -13.9024
 178   2.0000      -0.506063       -13.7707
 179   2.0000      -0.504562       -13.7298
 180   2.0000      -0.503709       -13.7066
 181   2.0000      -0.501878       -13.6568
 182   2.0000      -0.500488       -13.6190
 183   2.0000      -0.495983       -13.4964
 184   2.0000      -0.495065       -13.4714
 185   2.0000      -0.490372       -13.3437
 186   2.0000      -0.490063       -13.3353
 187   2.0000      -0.487160       -13.2563
 188   2.0000      -0.482198       -13.1213
 189   2.0000      -0.478429       -13.0187
 190   2.0000      -0.477172       -12.9845
 191   2.0000      -0.476925       -12.9778
 192   2.0000      -0.471372       -12.8267
 193   2.0000      -0.470217       -12.7953
 194   2.0000      -0.468858       -12.7583
 195   2.0000      -0.466479       -12.6935
 196   2.0000      -0.465344       -12.6626
 197   2.0000      -0.460282       -12.5249
 198   2.0000      -0.458335       -12.4719
 199   2.0000      -0.457945       -12.4613
 200   2.0000      -0.456432       -12.4201
 201   2.0000      -0.453898       -12.3512
 202   2.0000      -0.451684       -12.2909
 203   2.0000      -0.448886       -12.2148
 204   2.0000      -0.448511       -12.2046
 205   2.0000      -0.445398       -12.1199
 206   2.0000      -0.440023       -11.9736
 207   2.0000      -0.438482       -11.9317
 208   2.0000      -0.434877       -11.8336
 209   2.0000      -0.432941       -11.7809
 210   2.0000      -0.428565       -11.6619
 211   2.0000      -0.426750       -11.6125
 212   2.0000      -0.423689       -11.5292
 213   2.0000      -0.421670       -11.4742
 214   2.0000      -0.417718       -11.3667
 215   2.0000      -0.416327       -11.3288
 216   2.0000      -0.414344       -11.2749
 217   2.0000      -0.410835       -11.1794
 218   2.0000      -0.406200       -11.0533
 219   2.0000      -0.403138       -10.9699
 220   2.0000      -0.398714       -10.8496
 221   2.0000      -0.397302       -10.8111
 222   2.0000      -0.390457       -10.6249
 223   2.0000      -0.383141       -10.4258
 224   2.0000      -0.379944       -10.3388
 225   2.0000      -0.373439       -10.1618
 226   2.0000      -0.372400       -10.1335
 227   2.0000      -0.367174        -9.9913
 228   2.0000      -0.366249        -9.9662
 229   2.0000      -0.363556        -9.8929
 230   2.0000      -0.360988        -9.8230
 231   2.0000      -0.354505        -9.6466
 232   2.0000      -0.351273        -9.5586
 233   2.0000      -0.344930        -9.3860
 234   2.0000      -0.335745        -9.1361
 235   2.0000      -0.331300        -9.0151
 236   2.0000      -0.324793        -8.8381
 237   2.0000      -0.321394        -8.7456
 238   2.0000      -0.315979        -8.5982
 239   2.0000      -0.311237        -8.4692
 240   2.0000      -0.302022        -8.2184
 241   2.0000      -0.297401        -8.0927
 242   2.0000      -0.279620        -7.6088
 243   2.0000      -0.271132        -7.3779
 244   2.0000      -0.262804        -7.1513
 245   2.0000      -0.259768        -7.0686
 246   2.0000      -0.232545        -6.3279
 247   2.0000      -0.209162        -5.6916
 248   2.0000      -0.199976        -5.4416
 249   0.0000      -0.096583        -2.6282
 250   0.0000      -0.084651        -2.3035
 251   0.0000      -0.056246        -1.5305
 252   0.0000      -0.036562        -0.9949
 253   0.0000      -0.033146        -0.9020

MULLIKEN ATOMIC CHARGES
-----------------------
   0 C :   -0.037572
   1 C :   -0.053784
   2 C :    0.032775
   3 C :    0.049525
   4 C :   -0.091863
   5 S :    0.059564
   6 C :   -0.020693
   7 C :    0.018143
   8 C :    0.050328
   9 C :   -0.025516
  10 S :    0.064144
  11 C :    0.000378
  12 N :   -0.011496
  13 C :   -0.099767
  14 S :    0.149991
  15 C :   -0.018100
  16 N :    0.300364
  17 O :   -0.262294
  18 O :   -0.295141
  19 C :    0.006935
  20 C :    0.079348
  21 C :   -0.023144
  22 C :   -0.045568
  23 C :    0.008574
  24 C :   -0.031478
  25 C :    0.039356
  26 C :    0.028679
  27 C :   -0.028916
  28 S :    0.062606
  29 C :   -0.045113
  30 C :    0.041540
  31 C :    0.021938
  32 C :   -0.010451
  33 S :    0.089974
  34 C :    0.009306
  35 C :   -0.101909
  36 C :    0.012370
  37 C :   -0.310321
  38 N :    0.154076
  39 C :    0.116548
  40 C :   -0.231387
  41 S :    0.150318
  42 S :    0.171373
  43 C :   -0.231380
  44 C :    0.144532
  45 C :   -0.039050
  46 C :   -0.209262
  47 N :    0.115459
  48 C :   -0.041037
  49 S :    0.149875
  50 C :    0.025126
  51 C :   -0.046422
  52 C :    0.054043
  53 C :    0.008195
  54 C :    0.035959
  55 C :   -0.006464
  56 C :    0.052179
  57 C :   -0.001386
  58 C :    0.032791
  59 C :    0.032502
  60 C :    0.043168
  61 C :   -0.032724
  62 C :    0.013322
  63 C :   -0.024045
  64 H :    0.009777
  65 H :    0.007646
  66 H :   -0.022862
  67 H :   -0.019872
  68 H :   -0.022350
  69 H :   -0.016669
  70 H :    0.028476
  71 H :    0.140232
  72 H :    0.003380
  73 H :   -0.010752
  74 H :    0.054791
  75 H :   -0.015137
  76 H :   -0.012507
  77 H :   -0.015454
  78 H :   -0.016042
  79 H :   -0.016153
  80 H :   -0.023987
  81 H :   -0.019474
  82 H :   -0.024531
  83 H :   -0.022658
  84 H :   -0.004622
  85 H :   -0.026185
  86 H :   -0.010971
  87 H :   -0.016620
  88 H :    0.003741
  89 H :    0.019782
Sum of atomic charges:   -0.0000000

LOEWDIN ATOMIC CHARGES
----------------------
   0 C :   -0.103151
   1 C :   -0.140574
   2 C :   -0.048487
   3 C :   -0.022863
   4 C :   -0.195748
   5 S :    0.360482
   6 C :   -0.175296
   7 C :   -0.051018
   8 C :   -0.027845
   9 C :   -0.187639
  10 S :    0.379753
  11 C :   -0.006179
  12 N :    0.050672
  13 C :   -0.087067
  14 S :    0.444862
  15 C :   -0.223909
  16 N :    0.280584
  17 O :   -0.227452
  18 O :   -0.261897
  19 C :    0.007894
  20 C :   -0.112549
  21 C :   -0.024188
  22 C :   -0.049147
  23 C :   -0.043831
  24 C :   -0.152102
  25 C :   -0.029280
  26 C :   -0.039968
  27 C :   -0.166235
  28 S :    0.421137
  29 C :   -0.189912
  30 C :   -0.029201
  31 C :   -0.042903
  32 C :   -0.135298
  33 S :    0.457341
  34 C :   -0.103438
  35 C :   -0.119703
  36 C :   -0.130080
  37 C :   -0.068483
  38 N :   -0.069436
  39 C :   -0.061829
  40 C :   -0.341425
  41 S :    0.451594
  42 S :    0.411682
  43 C :   -0.340392
  44 C :   -0.056547
  45 C :   -0.128213
  46 C :    0.049687
  47 N :   -0.072606
  48 C :   -0.097071
  49 S :    0.443515
  50 C :   -0.103571
  51 C :    0.022164
  52 C :   -0.074689
  53 C :    0.092160
  54 C :   -0.075275
  55 C :    0.060551
  56 C :   -0.072006
  57 C :    0.058786
  58 C :   -0.073791
  59 C :    0.104495
  60 C :   -0.073345
  61 C :    0.043523
  62 C :   -0.020543
  63 C :   -0.056821
  64 H :    0.023426
  65 H :    0.016769
  66 H :    0.028782
  67 H :    0.030040
  68 H :    0.028314
  69 H :    0.030643
  70 H :    0.035768
  71 H :    0.046766
  72 H :    0.043426
  73 H :    0.028400
  74 H :    0.022988
  75 H :    0.031813
  76 H :    0.033115
  77 H :    0.031633
  78 H :    0.031962
  79 H :    0.030994
  80 H :    0.030516
  81 H :    0.019651
  82 H :    0.035270
  83 H :    0.025645
  84 H :    0.033596
  85 H :    0.036413
  86 H :    0.025482
  87 H :    0.030247
  88 H :    0.016380
  89 H :    0.024075

  Mayer bond orders larger than 0.100000
B(  0-C ,  1-C ) :   1.8445 B(  0-C , 64-H ) :   0.9490 B(  0-C , 65-H ) :   0.9389
B(  1-C ,  2-C ) :   1.0870 B(  1-C ,  5-S ) :   1.0180 B(  2-C ,  3-C ) :   1.6401
B(  2-C , 66-H ) :   0.9940 B(  3-C ,  4-C ) :   1.1624 B(  3-C , 67-H ) :   0.9919
B(  4-C ,  5-S ) :   1.0322 B(  4-C ,  6-C ) :   1.5491 B(  6-C ,  7-C ) :   1.1630
B(  6-C , 10-S ) :   1.0465 B(  7-C ,  8-C ) :   1.6162 B(  7-C , 68-H ) :   0.9948
B(  8-C ,  9-C ) :   1.1397 B(  8-C , 69-H ) :   0.9960 B(  9-C , 10-S ) :   1.0223
B(  9-C , 11-C ) :   1.5917 B( 11-C , 12-N ) :   1.1860 B( 11-C , 70-H ) :   0.9532
B( 12-N , 13-C ) :   1.2559 B( 12-N , 71-H ) :   0.8159 B( 13-C , 14-S ) :   1.1400
B( 13-C , 20-C ) :   1.3089 B( 14-S , 15-C ) :   1.0640 B( 15-C , 16-N ) :   1.0092
B( 15-C , 19-C ) :   1.4505 B( 16-N , 17-O ) :   1.5252 B( 16-N , 18-O ) :   1.4264
B( 17-O , 18-O ) :   0.2368 B( 19-C , 20-C ) :   1.2504 B( 19-C , 72-H ) :   1.0047
B( 20-C , 21-C ) :   1.0856 B( 21-C , 22-C ) :   1.6453 B( 21-C , 73-H ) :   0.9769
B( 22-C , 23-C ) :   1.1638 B( 22-C , 74-H ) :   0.9478 B( 23-C , 24-C ) :   1.5512
B( 23-C , 75-H ) :   0.9911 B( 24-C , 25-C ) :   1.1457 B( 24-C , 28-S ) :   1.0384
B( 25-C , 26-C ) :   1.5776 B( 25-C , 76-H ) :   0.9974 B( 26-C , 27-C ) :   1.1990
B( 26-C , 77-H ) :   0.9957 B( 27-C , 28-S ) :   1.0747 B( 27-C , 29-C ) :   1.4571
B( 29-C , 30-C ) :   1.2008 B( 29-C , 33-S ) :   1.0625 B( 30-C , 31-C ) :   1.5766
B( 30-C , 78-H ) :   0.9932 B( 31-C , 32-C ) :   1.1498 B( 31-C , 79-H ) :   0.9974
B( 32-C , 33-S ) :   1.0760 B( 32-C , 34-C ) :   1.5664 B( 34-C , 35-C ) :   1.2058
B( 34-C , 80-H ) :   0.9361 B( 35-C , 36-C ) :   1.3891 B( 35-C , 41-S ) :   1.1297
B( 36-C , 37-C ) :   1.1470 B( 36-C , 39-C ) :   1.2673 B( 37-C , 38-N ) :   2.9579
B( 39-C , 40-C ) :   1.4172 B( 39-C , 44-C ) :   1.0978 B( 40-C , 41-S ) :   1.0844
B( 40-C , 42-S ) :   1.0783 B( 42-S , 43-C ) :   1.0765 B( 43-C , 44-C ) :   1.4486
B( 43-C , 49-S ) :   1.0614 B( 44-C , 45-C ) :   1.2040 B( 45-C , 46-C ) :   1.1985
B( 45-C , 48-C ) :   1.4748 B( 46-C , 47-N ) :   2.7879 B( 47-N , 71-H ) :   0.1956
B( 48-C , 49-S ) :   1.1505 B( 48-C , 50-C ) :   1.1207 B( 50-C , 51-C ) :   1.3577
B( 50-C , 61-C ) :   1.2418 B( 51-C , 52-C ) :   1.2155 B( 51-C , 81-H ) :   1.0035
B( 52-C , 53-C ) :   1.2950 B( 52-C , 60-C ) :   1.1657 B( 53-C , 54-C ) :   1.2491
B( 53-C , 82-H ) :   1.0045 B( 54-C , 55-C ) :   1.2784 B( 54-C , 58-C ) :   1.1426
B( 55-C , 56-C ) :   1.2711 B( 55-C , 83-H ) :   1.0084 B( 56-C , 57-C ) :   1.3689
B( 56-C , 62-C ) :   1.0771 B( 57-C , 58-C ) :   1.1688 B( 57-C , 84-H ) :   1.0180
B( 58-C , 59-C ) :   1.3714 B( 59-C , 60-C ) :   1.1664 B( 59-C , 85-H ) :   0.9981
B( 60-C , 61-C ) :   1.3424 B( 61-C , 86-H ) :   1.0025 B( 62-C , 63-C ) :   1.9457
B( 62-C , 87-H ) :   0.9663 B( 63-C , 88-H ) :   0.9518 B( 63-C , 89-H ) :   0.9489

-----------------------------------------------------------------------------
         ABSORPTION SPECTRUM VIA TRANSITION ELECTRIC DIPOLE MOMENTS
-----------------------------------------------------------------------------
State   Energy  Wavelength   fosc         T2         TX        TY        TZ
        (cm-1)    (nm)                  (au**2)     (au)      (au)      (au)
-----------------------------------------------------------------------------
   0    7096.7   1409.1   0.001664352   0.07721  -0.22479  -0.15491  -0.05176
   1    8643.4   1157.0   0.027443432   1.04528  -0.24683  -0.03211  -0.99163
   2   11115.1    899.7   0.000099397   0.00294  -0.04473   0.00154  -0.03067
   3   12094.5    826.8   0.226629717   6.16887   0.66745  -2.36848  -0.33719
   4   14243.6    702.1   0.000748749   0.01731   0.10933   0.03569   0.06387
   5   16751.2    597.0   0.520461319  10.22862   0.53232   3.02746  -0.88302
   6   17538.6    570.2   0.702326694  13.18315   1.30061   3.30557  -0.75150
   7   20762.0    481.6   0.171068756   2.71254  -1.54108   0.50818  -0.28175
   8   20941.7    477.5   0.010832992   0.17030   0.23751   0.33723  -0.01294
   9   21152.8    472.8   0.037255408   0.57983  -0.30372   0.69509  -0.06652
  10   21910.6    456.4   0.267871193   4.02483  -1.55996  -1.19604  -0.40106
  11   22370.7    447.0   0.017897180   0.26338   0.48743  -0.02313   0.15893
  12   23274.8    429.6   0.105488649   1.49209   1.12770   0.42306   0.20351
  13   23526.1    425.1   0.012989487   0.18177  -0.10994  -0.40491   0.07571
  14   24169.7    413.7   0.047405556   0.64570   0.51652  -0.53206   0.30956
  15   24406.8    409.7   0.094569136   1.27560  -1.01195  -0.45042  -0.22063
  16   24527.4    407.7   0.088761980   1.19138   0.64178  -0.81115   0.34860
  17   25084.7    398.6   0.411608550   5.40196   1.49657   1.77209   0.14810
  18   25182.9    397.1   0.023659185   0.30929   0.50049   0.23691   0.05170
  19   25893.7    386.2   2.270291521  28.86443   4.62569   2.29727   1.47984
  20   26505.1    377.3   0.064765951   0.80444   0.73669  -0.35033   0.37282
  21   26725.6    374.2   0.131420711   1.61887   0.48093   1.17720  -0.04209
  22   28524.5    350.6   0.077846951   0.89846  -0.92008   0.22556   0.03215
  23   28809.7    347.1   0.043654391   0.49884  -0.70364   0.00047  -0.06109
  24   29048.2    344.3   0.134218478   1.52114   1.20526   0.19475   0.17481
  25   29656.9    337.2   0.015711358   0.17441  -0.02885   0.32345  -0.26259
  26   29924.3    334.2   0.023122654   0.25438   0.45711   0.14057   0.16024
  27   30241.1    330.7   0.003528358   0.03841   0.17826  -0.07193   0.03823
  28   30344.7    329.5   0.136689759   1.48296   1.19006  -0.19060   0.17432
  29   30547.2    327.4   0.043308461   0.46674  -0.45766   0.50309  -0.06476
  30   31077.2    321.8   0.010466258   0.11087  -0.17995   0.01898  -0.27952
  31   31092.8    321.6   0.028263581   0.29926  -0.48536   0.19324  -0.16229
  32   31263.1    319.9   0.015979549   0.16827   0.13874   0.36394  -0.12871
  33   31302.4    319.5   0.000203989   0.00215  -0.01274   0.00403  -0.04435
  34   31452.6    317.9   0.001769975   0.01853  -0.05520  -0.11161   0.05497
  35   31701.3    315.4   0.107692753   1.11837  -0.92819  -0.50640   0.01968
  36   31924.4    313.2   0.091221388   0.94070   0.94519  -0.09849   0.19393
  37   32371.0    308.9   0.131601059   1.33838   1.15102   0.06459   0.09671
  38   32558.7    307.1   0.030851443   0.31195  -0.49872  -0.22165  -0.11875
  39   33340.4    299.9   0.015439864   0.15246  -0.05864   0.36626  -0.12195
  40   33413.3    299.3   0.011011351   0.10849  -0.05170   0.30427  -0.11505
  41   33519.7    298.3   0.039025946   0.38329   0.51750   0.30650   0.14678
  42   33988.0    294.2   0.021219419   0.20553  -0.37360   0.04529  -0.25280
  43   34204.9    292.4   0.003351203   0.03225   0.13069   0.08588   0.08832
  44   34428.4    290.5   0.041292591   0.39485   0.53523   0.32127   0.07183
  45   34658.2    288.5   0.001793553   0.01704   0.08355  -0.05555  -0.08349
  46   35045.2    285.3   0.018802992   0.17663  -0.39455  -0.06973  -0.12690
  47   35285.9    283.4   0.004695700   0.04381  -0.18142  -0.10103  -0.02627
  48   35429.0    282.3   0.003184660   0.02959  -0.07764   0.14918   0.03616
  49   35469.0    281.9   0.015573244   0.14455  -0.02144  -0.32505   0.19603
  50   35807.0    279.3   0.025105496   0.23082  -0.15325  -0.44510  -0.09605
  51   35981.2    277.9   0.039285056   0.35944  -0.35348   0.46736   0.12674
  52   36172.8    276.5   0.038340400   0.34894  -0.48908  -0.32458  -0.06628
  53   36348.0    275.1   0.013452141   0.12184  -0.33366   0.07854  -0.06588
  54   36367.1    275.0   0.004281247   0.03876   0.03682   0.18925  -0.03981
  55   36450.6    274.3   0.039824729   0.35969   0.47411   0.35848  -0.07998
  56   36684.1    272.6   0.006328832   0.05680   0.16786   0.15126   0.07576
  57   36971.8    270.5   0.049437000   0.44021  -0.39676   0.49419  -0.19636
  58   37114.8    269.4   0.000793837   0.00704   0.07588   0.02257   0.02783
  59   37276.6    268.3   0.021932319   0.19370  -0.17830   0.38073  -0.13019
  60   37452.9    267.0   0.001405073   0.01235  -0.09065  -0.05867  -0.02630
  61   37894.9    263.9   0.005801787   0.05040   0.10979  -0.19515   0.01630
  62   38027.3    263.0   0.000792944   0.00686   0.04056   0.06775   0.02509
  63   38101.6    262.5   0.070856959   0.61223   0.65809  -0.40828   0.11159
  64   38182.0    261.9   0.045012911   0.38811   0.56326   0.16835   0.20617
  65   38289.4    261.2   0.010814664   0.09298  -0.20590   0.15604  -0.16200
  66   38337.0    260.8   0.008836724   0.07588   0.24289  -0.01542   0.12904
  67   38799.3    257.7   0.048516702   0.41166  -0.29848  -0.53831   0.18109
  68   38929.9    256.9   0.091861750   0.77683   0.45845   0.75038  -0.05994
  69   39193.5    255.1   0.033828484   0.28415  -0.45299  -0.23235  -0.15801
  70   39226.1    254.9   0.440984482   3.70104  -1.61845  -0.89035  -0.53752
  71   39462.0    253.4   0.003956866   0.03301   0.00256   0.01642   0.18093
  72   39659.6    252.1   0.097089342   0.80593  -0.54035  -0.71362  -0.06860
  73   39828.2    251.1   0.011969397   0.09894  -0.21617  -0.19318  -0.12203
  74   39875.2    250.8   0.062895238   0.51927  -0.69009   0.03719  -0.20410
  75   39969.7    250.2   0.029464873   0.24269   0.06189   0.48855  -0.01346
  76   40121.5    249.2   0.011757861   0.09648   0.15769   0.26129  -0.05778
  77   40293.7    248.2   0.020443784   0.16703   0.32133  -0.25255  -0.00033

FINAL SINGLE POINT ENERGY     -5471.737952433486

DIPOLE MOMENT
-------------
                                X             Y             Z
Electronic contribution:     -6.34504     -25.68655      -9.65251
Nuclear contribution   :      3.84533      24.49494      10.09310
                        -----------------------------------------
Total Dipole Moment    :     -2.49971      -1.19161       0.44059
                        -----------------------------------------
Magnitude (a.u.)       :      2.80403
Magnitude (Debye)      :      7.12728

Rotational constants in cm-1:     0.001454     0.000777     0.000550
Rotational constants in MHz :    43.599048    23.293981    16.481728

                             ****ORCA TERMINATED NORMALLY****
TOTAL RUN TIME: 0 days 0 hours 12 minutes 35 seconds 224 msec
