                         Program Version 4.2.0 -  RELEASE  -
|  1> # ORCA input file
|  2> # SCF done       -136.302337579704          0.000652532542
|  3> ! CAM-B3LYP def2-SVP def2/J RIJCOSX Grid4 TightSCF
|  4> %maxcore 5000
|  5> %tddft
|  6>     Mode sTDDFT
|  7>     Ethresh 5.0
|  8>     maxcore 5000
|  9> end
| 10>
| 11> %pal
| 12>   nprocs 6
| 13>   end
| 14> * xyz 0 1
| 15>    C       -1.35170       -15.97270        -6.04626
| 16>    C       -0.48453       -16.03252        -5.02768
| 17>    C       -0.19445       -17.15304        -4.17782
| 18>    C        0.74058       -16.91392        -3.23329
| 19>    C        1.27058       -15.59210        -3.25490
| 20>    S        0.51152       -14.65659        -4.53016
| 21>    C        2.23641       -15.06090        -2.44009
| 22>    C        2.92000       -15.68438        -1.36478
| 23>    C        3.82495       -14.89112        -0.73984
| 24>    C        3.92556       -13.58037        -1.28155
| 25>    S        2.79992       -13.40732        -2.63311
| 26>    C        4.74774       -12.58607        -0.85169
| 27>    N        4.80129       -11.35397        -1.42438
| 28>    C        5.59294       -10.33252        -1.03415
| 29>    S        6.67680       -10.55294         0.31001
| 30>    C        7.25175        -8.92644         0.10170
| 31>    N        8.23498        -8.48336         0.98213
| 32>    O        8.65039        -7.34414         0.85356
| 33>    O        8.60911        -9.28184         1.83062
| 34>    C        6.64417        -8.27200        -0.93351
| 35>    C        5.67776        -9.04932        -1.60759
| 36>    C        4.95866        -8.47996        -2.70690
| 37>    C        3.93390        -8.96903        -3.44598
| 38>    C        3.32959        -8.23201        -4.49702
| 39>    S        2.01009        -8.91832        -5.39419
| 40>    C        1.79441        -7.51140        -6.39512
| 41>    C        2.73661        -6.53571        -6.04244
| 42>    C        3.60857        -6.94341        -4.97016
| 43>    N        4.57620        -6.13611        -4.50039
| 44>    C        4.68675        -4.96601        -5.06534
| 45>    N        3.94724        -4.47808        -6.06392
| 46>    C        2.98706        -5.23952        -6.55219
| 47>    C        2.23177        -4.67679        -7.61845
| 48>    N        1.63809        -4.20550        -8.47780
| 49>    C        0.78438        -7.44171        -7.37391
| 50>    C       -0.03311        -8.48606        -7.68078
| 51>    C       -1.09725        -8.43382        -8.60286
| 52>    S       -1.61343        -6.87571        -9.19871
| 53>    C       -2.88433        -7.54871       -10.08860
| 54>    C       -2.93252        -8.92243        -9.97072
| 55>    C       -1.90600        -9.46202        -9.12043
| 56>    C       -1.82122       -10.88365        -8.99922
| 57>    C       -2.75326       -11.64928        -9.67550
| 58>    C       -3.77816       -11.11215       -10.45973
| 59>    C       -3.88005        -9.75618       -10.62357
| 60>    O       -4.82574        -9.15673       -11.38094
| 61>    C       -0.80490       -11.61188        -8.26523
| 62>    S       -0.22332       -13.15493        -8.91492
| 63>    C        0.81861       -13.28573        -7.55771
| 64>    C        0.66292       -12.21435        -6.73767
| 65>    N       -0.24280       -11.30400        -7.14773
| 66>    H       -1.94037       -16.83085        -6.31809
| 67>    H       -1.49090       -15.07342        -6.61798
| 68>    H       -0.70292       -18.09053        -4.31721
| 69>    H        1.07921       -17.64091        -2.51656
| 70>    H        2.71485       -16.70238        -1.08735
| 71>    H        4.43180       -15.19323         0.09453
| 72>    H        5.40359       -12.75532        -0.01086
| 73>    H        4.20325       -11.20060        -2.22796
| 74>    H        6.88618        -7.25772        -1.19508
| 75>    H        5.28996        -7.48471        -2.97013
| 76>    H        3.48532        -9.93994        -3.27817
| 77>    H        5.46202        -4.31008        -4.69272
| 78>    H        0.67789        -6.49923        -7.89373
| 79>    H        0.11318        -9.43253        -7.17798
| 80>    H       -3.54314        -6.93406       -10.66791
| 81>    H       -2.69950       -12.72466        -9.58999
| 82>    H       -4.48077       -11.77653       -10.94269
| 83>    H       -5.40259        -9.82197       -11.77763
| 84>    H        1.46528       -14.13085        -7.44388
| 85>    H        1.18679       -12.04572        -5.81496
| 86> *
| 87>
| 88>                          ****END OF INPUT****

CARTESIAN COORDINATES (ANGSTROEM)
---------------------------------
  C     -1.351700  -15.972700   -6.046260
  C     -0.484530  -16.032520   -5.027680
  C     -0.194450  -17.153040   -4.177820
  C      0.740580  -16.913920   -3.233290
  C      1.270580  -15.592100   -3.254900
  S      0.511520  -14.656590   -4.530160
  C      2.236410  -15.060900   -2.440090
  C      2.920000  -15.684380   -1.364780
  C      3.824950  -14.891120   -0.739840
  C      3.925560  -13.580370   -1.281550
  S      2.799920  -13.407320   -2.633110
  C      4.747740  -12.586070   -0.851690
  N      4.801290  -11.353970   -1.424380
  C      5.592940  -10.332520   -1.034150
  S      6.676800  -10.552940    0.310010
  C      7.251750   -8.926440    0.101700
  N      8.234980   -8.483360    0.982130
  O      8.650390   -7.344140    0.853560
  O      8.609110   -9.281840    1.830620
  C      6.644170   -8.272000   -0.933510
  C      5.677760   -9.049320   -1.607590
  C      4.958660   -8.479960   -2.706900
  C      3.933900   -8.969030   -3.445980
  C      3.329590   -8.232010   -4.497020
  S      2.010090   -8.918320   -5.394190
  C      1.794410   -7.511400   -6.395120
  C      2.736610   -6.535710   -6.042440
  C      3.608570   -6.943410   -4.970160
  N      4.576200   -6.136110   -4.500390
  C      4.686750   -4.966010   -5.065340
  N      3.947240   -4.478080   -6.063920
  C      2.987060   -5.239520   -6.552190
  C      2.231770   -4.676790   -7.618450
  N      1.638090   -4.205500   -8.477800
  C      0.784380   -7.441710   -7.373910
  C     -0.033110   -8.486060   -7.680780
  C     -1.097250   -8.433820   -8.602860
  S     -1.613430   -6.875710   -9.198710
  C     -2.884330   -7.548710  -10.088600
  C     -2.932520   -8.922430   -9.970720
  C     -1.906000   -9.462020   -9.120430
  C     -1.821220  -10.883650   -8.999220
  C     -2.753260  -11.649280   -9.675500
  C     -3.778160  -11.112150  -10.459730
  C     -3.880050   -9.756180  -10.623570
  O     -4.825740   -9.156730  -11.380940
  C     -0.804900  -11.611880   -8.265230
  S     -0.223320  -13.154930   -8.914920
  C      0.818610  -13.285730   -7.557710
  C      0.662920  -12.214350   -6.737670
  N     -0.242800  -11.304000   -7.147730
  H     -1.940370  -16.830850   -6.318090
  H     -1.490900  -15.073420   -6.617980
  H     -0.702920  -18.090530   -4.317210
  H      1.079210  -17.640910   -2.516560
  H      2.714850  -16.702380   -1.087350
  H      4.431800  -15.193230    0.094530
  H      5.403590  -12.755320   -0.010860
  H      4.203250  -11.200600   -2.227960
  H      6.886180   -7.257720   -1.195080
  H      5.289960   -7.484710   -2.970130
  H      3.485320   -9.939940   -3.278170
  H      5.462020   -4.310080   -4.692720
  H      0.677890   -6.499230   -7.893730
  H      0.113180   -9.432530   -7.177980
  H     -3.543140   -6.934060  -10.667910
  H     -2.699500  -12.724660   -9.589990
  H     -4.480770  -11.776530  -10.942690
  H     -5.402590   -9.821970  -11.777630
  H      1.465280  -14.130850   -7.443880
  H      1.186790  -12.045720   -5.814960

 Total Charge           Charge          ....    0
 Multiplicity           Mult            ....    1
 Number of Electrons    NEL             ....  398
 Basis Dimension        Dim             ....  838

ORBITAL ENERGIES
----------------

  NO   OCC          E(Eh)            E(eV)
   0   2.0000     -88.976317     -2421.1687
   1   2.0000     -88.975139     -2421.1366
   2   2.0000     -88.968300     -2420.9505
   3   2.0000     -88.962116     -2420.7822
   4   2.0000     -88.954714     -2420.5808
   5   2.0000     -88.941709     -2420.2269
   6   2.0000     -19.266523      -524.2687
   7   2.0000     -19.223765      -523.1052
   8   2.0000     -19.223421      -523.0959
   9   2.0000     -14.635658      -398.2565
  10   2.0000     -14.488129      -394.2420
  11   2.0000     -14.421997      -392.4425
  12   2.0000     -14.420627      -392.4052
  13   2.0000     -14.418798      -392.3554
  14   2.0000     -14.408256      -392.0686
  15   2.0000     -10.365699      -282.0650
  16   2.0000     -10.365545      -282.0608
  17   2.0000     -10.352823      -281.7146
  18   2.0000     -10.339387      -281.3490
  19   2.0000     -10.338673      -281.3296
  20   2.0000     -10.335987      -281.2565
  21   2.0000     -10.329373      -281.0765
  22   2.0000     -10.320590      -280.8375
  23   2.0000     -10.318700      -280.7861
  24   2.0000     -10.316560      -280.7279
  25   2.0000     -10.315012      -280.6857
  26   2.0000     -10.314829      -280.6808
  27   2.0000     -10.310928      -280.5746
  28   2.0000     -10.309487      -280.5354
  29   2.0000     -10.307586      -280.4837
  30   2.0000     -10.303449      -280.3711
  31   2.0000     -10.303293      -280.3668
  32   2.0000     -10.301052      -280.3059
  33   2.0000     -10.299473      -280.2629
  34   2.0000     -10.299231      -280.2563
  35   2.0000     -10.296231      -280.1747
  36   2.0000     -10.295360      -280.1510
  37   2.0000     -10.294001      -280.1140
  38   2.0000     -10.292878      -280.0834
  39   2.0000     -10.291703      -280.0515
  40   2.0000     -10.291375      -280.0426
  41   2.0000     -10.290841      -280.0280
  42   2.0000     -10.288860      -279.9741
  43   2.0000     -10.288794      -279.9723
  44   2.0000     -10.287277      -279.9310
  45   2.0000     -10.287071      -279.9254
  46   2.0000     -10.278489      -279.6919
  47   2.0000     -10.276486      -279.6374
  48   2.0000     -10.276048      -279.6255
  49   2.0000     -10.273994      -279.5696
  50   2.0000     -10.271298      -279.4962
  51   2.0000      -8.071684      -219.6417
  52   2.0000      -8.069628      -219.5858
  53   2.0000      -8.063597      -219.4216
  54   2.0000      -8.058080      -219.2715
  55   2.0000      -8.050801      -219.0734
  56   2.0000      -8.038004      -218.7252
  57   2.0000      -6.041452      -164.3963
  58   2.0000      -6.038542      -164.3171
  59   2.0000      -6.037002      -164.2752
  60   2.0000      -6.034562      -164.2088
  61   2.0000      -6.033007      -164.1665
  62   2.0000      -6.032515      -164.1531
  63   2.0000      -6.032391      -164.1497
  64   2.0000      -6.028168      -164.0348
  65   2.0000      -6.027151      -164.0071
  66   2.0000      -6.026844      -163.9988
  67   2.0000      -6.023040      -163.8952
  68   2.0000      -6.020695      -163.8314
  69   2.0000      -6.020518      -163.8266
  70   2.0000      -6.016814      -163.7258
  71   2.0000      -6.011386      -163.5781
  72   2.0000      -6.007858      -163.4821
  73   2.0000      -6.003925      -163.3751
  74   2.0000      -5.998517      -163.2280
  75   2.0000      -1.303230       -35.4627
  76   2.0000      -1.161722       -31.6121
  77   2.0000      -1.122212       -30.5369
  78   2.0000      -1.094122       -29.7726
  79   2.0000      -1.091575       -29.7033
  80   2.0000      -1.065577       -28.9958
  81   2.0000      -1.010308       -27.4919
  82   2.0000      -1.000545       -27.2262
  83   2.0000      -0.998781       -27.1782
  84   2.0000      -0.995997       -27.1025
  85   2.0000      -0.992135       -26.9974
  86   2.0000      -0.977851       -26.6087
  87   2.0000      -0.971860       -26.4457
  88   2.0000      -0.940493       -25.5921
  89   2.0000      -0.916217       -24.9315
  90   2.0000      -0.901644       -24.5350
  91   2.0000      -0.893215       -24.3056
  92   2.0000      -0.891953       -24.2713
  93   2.0000      -0.882309       -24.0088
  94   2.0000      -0.876518       -23.8513
  95   2.0000      -0.870043       -23.6751
  96   2.0000      -0.853939       -23.2369
  97   2.0000      -0.850328       -23.1386
  98   2.0000      -0.848682       -23.0938
  99   2.0000      -0.837808       -22.7979
 100   2.0000      -0.828779       -22.5522
 101   2.0000      -0.825489       -22.4627
 102   2.0000      -0.807572       -21.9752
 103   2.0000      -0.797090       -21.6899
 104   2.0000      -0.789373       -21.4799
 105   2.0000      -0.780086       -21.2272
 106   2.0000      -0.759976       -20.6800
 107   2.0000      -0.740080       -20.1386
 108   2.0000      -0.736169       -20.0322
 109   2.0000      -0.724830       -19.7236
 110   2.0000      -0.723836       -19.6966
 111   2.0000      -0.703028       -19.1304
 112   2.0000      -0.696484       -18.9523
 113   2.0000      -0.694569       -18.9002
 114   2.0000      -0.685258       -18.6468
 115   2.0000      -0.678864       -18.4728
 116   2.0000      -0.666282       -18.1305
 117   2.0000      -0.659532       -17.9468
 118   2.0000      -0.651633       -17.7318
 119   2.0000      -0.645647       -17.5689
 120   2.0000      -0.633560       -17.2400
 121   2.0000      -0.630626       -17.1602
 122   2.0000      -0.623931       -16.9780
 123   2.0000      -0.619364       -16.8538
 124   2.0000      -0.618344       -16.8260
 125   2.0000      -0.616751       -16.7827
 126   2.0000      -0.607109       -16.5203
 127   2.0000      -0.606067       -16.4919
 128   2.0000      -0.601335       -16.3632
 129   2.0000      -0.596477       -16.2310
 130   2.0000      -0.587206       -15.9787
 131   2.0000      -0.582184       -15.8420
 132   2.0000      -0.575977       -15.6731
 133   2.0000      -0.566877       -15.4255
 134   2.0000      -0.562682       -15.3113
 135   2.0000      -0.550318       -14.9749
 136   2.0000      -0.545419       -14.8416
 137   2.0000      -0.542974       -14.7751
 138   2.0000      -0.538190       -14.6449
 139   2.0000      -0.536754       -14.6058
 140   2.0000      -0.533743       -14.5239
 141   2.0000      -0.532307       -14.4848
 142   2.0000      -0.527262       -14.3475
 143   2.0000      -0.521946       -14.2029
 144   2.0000      -0.520994       -14.1770
 145   2.0000      -0.516629       -14.0582
 146   2.0000      -0.512623       -13.9492
 147   2.0000      -0.507909       -13.8209
 148   2.0000      -0.502538       -13.6748
 149   2.0000      -0.499283       -13.5862
 150   2.0000      -0.498741       -13.5714
 151   2.0000      -0.497080       -13.5262
 152   2.0000      -0.493471       -13.4280
 153   2.0000      -0.487973       -13.2784
 154   2.0000      -0.483941       -13.1687
 155   2.0000      -0.479260       -13.0413
 156   2.0000      -0.473412       -12.8822
 157   2.0000      -0.470594       -12.8055
 158   2.0000      -0.469827       -12.7846
 159   2.0000      -0.467088       -12.7101
 160   2.0000      -0.462911       -12.5964
 161   2.0000      -0.461847       -12.5675
 162   2.0000      -0.455498       -12.3947
 163   2.0000      -0.455205       -12.3868
 164   2.0000      -0.448260       -12.1978
 165   2.0000      -0.447131       -12.1671
 166   2.0000      -0.445497       -12.1226
 167   2.0000      -0.440366       -11.9830
 168   2.0000      -0.435835       -11.8597
 169   2.0000      -0.431704       -11.7473
 170   2.0000      -0.430390       -11.7115
 171   2.0000      -0.427880       -11.6432
 172   2.0000      -0.422760       -11.5039
 173   2.0000      -0.420708       -11.4481
 174   2.0000      -0.415116       -11.2959
 175   2.0000      -0.408115       -11.1054
 176   2.0000      -0.403691       -10.9850
 177   2.0000      -0.387133       -10.5344
 178   2.0000      -0.385412       -10.4876
 179   2.0000      -0.380624       -10.3573
 180   2.0000      -0.377636       -10.2760
 181   2.0000      -0.372614       -10.1394
 182   2.0000      -0.364698        -9.9239
 183   2.0000      -0.358335        -9.7508
 184   2.0000      -0.352645        -9.5960
 185   2.0000      -0.348537        -9.4842
 186   2.0000      -0.345047        -9.3892
 187   2.0000      -0.342544        -9.3211
 188   2.0000      -0.340722        -9.2715
 189   2.0000      -0.338501        -9.2111
 190   2.0000      -0.334686        -9.1073
 191   2.0000      -0.329476        -8.9655
 192   2.0000      -0.323785        -8.8106
 193   2.0000      -0.322567        -8.7775
 194   2.0000      -0.308771        -8.4021
 195   2.0000      -0.288100        -7.8396
 196   2.0000      -0.265444        -7.2231
 197   2.0000      -0.228809        -6.2262
 198   2.0000      -0.214062        -5.8249
 199   0.0000      -0.086370        -2.3503
 200   0.0000      -0.066581        -1.8117
 201   0.0000      -0.045132        -1.2281
 202   0.0000      -0.034378        -0.9355
 203   0.0000      -0.018211        -0.4955

MULLIKEN ATOMIC CHARGES
-----------------------
   0 C :   -0.035890
   1 C :   -0.054637
   2 C :    0.049569
   3 C :    0.031124
   4 C :   -0.062311
   5 S :    0.054076
   6 C :   -0.042128
   7 C :    0.025854
   8 C :    0.039977
   9 C :   -0.035697
  10 S :    0.027925
  11 C :    0.018914
  12 N :   -0.022843
  13 C :   -0.124346
  14 S :    0.132813
  15 C :    0.002012
  16 N :    0.281247
  17 O :   -0.258559
  18 O :   -0.277794
  19 C :    0.000611
  20 C :    0.137217
  21 C :   -0.019945
  22 C :    0.024332
  23 C :   -0.142409
  24 S :    0.151151
  25 C :   -0.100729
  26 C :    0.170636
  27 C :    0.029797
  28 N :   -0.053923
  29 C :    0.085805
  30 N :   -0.071080
  31 C :   -0.195208
  32 C :   -0.146264
  33 N :    0.145352
  34 C :   -0.039301
  35 C :    0.008304
  36 C :   -0.185811
  37 S :    0.174390
  38 C :   -0.108127
  39 C :    0.013642
  40 C :    0.180814
  41 C :    0.108079
  42 C :   -0.036525
  43 C :   -0.092592
  44 C :    0.174973
  45 O :   -0.170969
  46 C :   -0.163665
  47 S :    0.098315
  48 C :   -0.086678
  49 C :    0.097339
  50 N :   -0.098348
  51 H :    0.017993
  52 H :    0.022490
  53 H :   -0.011903
  54 H :   -0.012077
  55 H :   -0.012195
  56 H :   -0.008614
  57 H :    0.028647
  58 H :    0.149809
  59 H :    0.013834
  60 H :    0.000390
  61 H :   -0.066808
  62 H :    0.014985
  63 H :    0.005037
  64 H :    0.012289
  65 H :    0.032580
  66 H :   -0.007891
  67 H :   -0.039855
  68 H :    0.189159
  69 H :    0.038635
  70 H :   -0.004990
Sum of atomic charges:    0.0000000

LOEWDIN ATOMIC CHARGES
----------------------
   0 C :   -0.080559
   1 C :   -0.138378
   2 C :   -0.033043
   3 C :   -0.025796
   4 C :   -0.185678
   5 S :    0.364642
   6 C :   -0.174055
   7 C :   -0.039165
   8 C :   -0.028320
   9 C :   -0.181263
  10 S :    0.327769
  11 C :   -0.015345
  12 N :    0.053633
  13 C :   -0.092633
  14 S :    0.444653
  15 C :   -0.219469
  16 N :    0.274579
  17 O :   -0.224232
  18 O :   -0.244190
  19 C :    0.011286
  20 C :   -0.107979
  21 C :   -0.009406
  22 C :   -0.074727
  23 C :   -0.185714
  24 S :    0.502248
  25 C :   -0.151450
  26 C :   -0.077150
  27 C :   -0.023767
  28 N :   -0.063845
  29 C :    0.039431
  30 N :   -0.073092
  31 C :    0.009765
  32 C :   -0.020149
  33 N :   -0.029104
  34 C :   -0.078020
  35 C :   -0.024609
  36 C :   -0.179480
  37 S :    0.515000
  38 C :   -0.169045
  39 C :   -0.074700
  40 C :   -0.022164
  41 C :   -0.072795
  42 C :   -0.003410
  43 C :   -0.106369
  44 C :    0.077475
  45 O :   -0.037690
  46 C :   -0.107517
  47 S :    0.413031
  48 C :   -0.206092
  49 C :   -0.039365
  50 N :   -0.094908
  51 H :    0.028000
  52 H :    0.022460
  53 H :    0.033473
  54 H :    0.032205
  55 H :    0.032940
  56 H :    0.034993
  57 H :    0.030037
  58 H :    0.084789
  59 H :    0.047815
  60 H :    0.034992
  61 H :    0.010315
  62 H :    0.021913
  63 H :    0.026142
  64 H :    0.020959
  65 H :    0.030964
  66 H :    0.023052
  67 H :    0.026175
  68 H :    0.101584
  69 H :    0.025558
  70 H :    0.012797

  Mayer bond orders larger than 0.100000
B(  0-C ,  1-C ) :   1.8685 B(  0-C , 51-H ) :   0.9500 B(  0-C , 52-H ) :   0.9375
B(  1-C ,  2-C ) :   1.0782 B(  1-C ,  5-S ) :   1.0074 B(  2-C ,  3-C ) :   1.6663
B(  2-C , 53-H ) :   0.9926 B(  3-C ,  4-C ) :   1.1484 B(  3-C , 54-H ) :   0.9911
B(  4-C ,  5-S ) :   1.0276 B(  4-C ,  6-C ) :   1.5757 B(  6-C ,  7-C ) :   1.1635
B(  6-C , 10-S ) :   1.0300 B(  7-C ,  8-C ) :   1.6339 B(  7-C , 55-H ) :   0.9909
B(  8-C ,  9-C ) :   1.1381 B(  8-C , 56-H ) :   0.9951 B(  9-C , 10-S ) :   1.0051
B(  9-C , 11-C ) :   1.6302 B( 11-C , 12-N ) :   1.1281 B( 11-C , 57-H ) :   0.9567
B( 12-N , 13-C ) :   1.2540 B( 12-N , 58-H ) :   0.9102 B( 13-C , 14-S ) :   1.1344
B( 13-C , 20-C ) :   1.3113 B( 14-S , 15-C ) :   1.0512 B( 15-C , 16-N ) :   0.9872
B( 15-C , 19-C ) :   1.4736 B( 16-N , 17-O ) :   1.5253 B( 16-N , 18-O ) :   1.4979
B( 17-O , 18-O ) :   0.2508 B( 19-C , 20-C ) :   1.2216 B( 19-C , 59-H ) :   1.0099
B( 20-C , 21-C ) :   1.1075 B( 21-C , 22-C ) :   1.6390 B( 21-C , 60-H ) :   0.9383
B( 22-C , 23-C ) :   1.1851 B( 22-C , 61-H ) :   0.9188 B( 23-C , 24-S ) :   1.1405
B( 23-C , 25-C ) :   0.1064 B( 23-C , 27-C ) :   1.3513 B( 24-S , 25-C ) :   1.1517
B( 25-C , 26-C ) :   1.3045 B( 25-C , 34-C ) :   1.2078 B( 26-C , 27-C ) :   1.1559
B( 26-C , 31-C ) :   1.2228 B( 27-C , 28-N ) :   1.3966 B( 28-N , 29-C ) :   1.6304
B( 28-N , 60-H ) :   0.1059 B( 29-C , 30-N ) :   1.3456 B( 29-C , 62-H ) :   0.9737
B( 30-N , 31-C ) :   1.7351 B( 31-C , 32-C ) :   1.1017 B( 32-C , 33-N ) :   3.0063
B( 34-C , 35-C ) :   1.5786 B( 34-C , 63-H ) :   0.9574 B( 35-C , 36-C ) :   1.1996
B( 35-C , 64-H ) :   0.9365 B( 36-C , 37-S ) :   1.1489 B( 36-C , 38-C ) :   0.1011
B( 36-C , 40-C ) :   1.3535 B( 37-S , 38-C ) :   1.2283 B( 38-C , 39-C ) :   1.4170
B( 38-C , 65-H ) :   0.9716 B( 39-C , 40-C ) :   1.2127 B( 39-C , 44-C ) :   1.1632
B( 40-C , 41-C ) :   1.1863 B( 41-C , 42-C ) :   1.4950 B( 41-C , 46-C ) :   1.0052
B( 42-C , 43-C ) :   1.2212 B( 42-C , 66-H ) :   0.9762 B( 43-C , 44-C ) :   1.4489
B( 43-C , 67-H ) :   0.9901 B( 44-C , 45-O ) :   1.2755 B( 45-O , 68-H ) :   0.9559
B( 46-C , 47-S ) :   1.1299 B( 46-C , 50-N ) :   1.6947 B( 47-S , 48-C ) :   1.1488
B( 48-C , 49-C ) :   1.5737 B( 48-C , 69-H ) :   0.9686 B( 49-C , 50-N ) :   1.2947
B( 49-C , 70-H ) :   0.9881 B( 50-N , 64-H ) :   0.1284

-----------------------------------------------------------------------------
         ABSORPTION SPECTRUM VIA TRANSITION ELECTRIC DIPOLE MOMENTS
-----------------------------------------------------------------------------
State   Energy  Wavelength   fosc         T2         TX        TY        TZ
        (cm-1)    (nm)                  (au**2)     (au)      (au)      (au)
-----------------------------------------------------------------------------
   0   12322.1    811.5   0.331068993   8.84521   1.73165  -1.07563   2.16555
   1   17233.9    580.3   0.432883878   8.26920   1.93035   1.82645   1.09865
   2   18446.2    542.1   0.615260625  10.98066   2.06192   2.32581   1.14881
   3   21801.0    458.7   0.867129089  13.09432  -2.80191  -0.83822  -2.13096
   4   22511.7    444.2   0.208622283   3.05091  -1.16169  -0.75627  -1.06275
   5   23556.7    424.5   0.047136726   0.65875  -0.28712   0.52615  -0.54725
   6   25214.9    396.6   0.051663729   0.67453  -0.34735   0.25685  -0.69851
   7   26802.6    373.1   0.153103396   1.88054   0.95586  -0.12609   0.97518
   8   27279.8    366.6   0.336187964   4.05711   1.22857   0.55579   1.49627
   9   28633.0    349.2   0.078422986   0.90168  -0.48009   0.51787  -0.63482
  10   28936.5    345.6   0.003565122   0.04056  -0.17887   0.00582   0.09238
  11   29083.6    343.8   0.016642584   0.18839   0.25058  -0.07877   0.34553
  12   29664.9    337.1   0.194374546   2.15711  -0.13075   1.30720  -0.65670
  13   30557.0    327.3   0.071981456   0.77551   0.46798  -0.29501   0.68518
  14   30777.1    324.9   0.055280823   0.59132  -0.29415   0.49246  -0.51213
  15   31756.1    314.9   0.040372336   0.41854   0.07022  -0.59338   0.24800
  16   31911.6    313.4   0.053065183   0.54744  -0.35775   0.53562  -0.36409
  17   32985.0    303.2   0.103681202   1.03481  -0.32593   0.87867  -0.39563
  18   33451.5    298.9   0.003637104   0.03579  -0.18139   0.05264   0.01102
  19   33580.7    297.8   0.077518278   0.75996  -0.57107  -0.65838   0.01936
  20   35251.7    283.7   0.027694581   0.25864   0.17866  -0.43085   0.20271
  21   35522.8    281.5   0.009191254   0.08518  -0.19683  -0.09270  -0.19454
  22   36085.9    277.1   0.008391701   0.07656   0.09821   0.23183   0.11475
  23   36233.1    276.0   0.036722230   0.33366   0.26098   0.48128   0.18415
  24   36623.8    273.0   0.079986445   0.71900   0.30369  -0.54856   0.57084
  25   36896.5    271.0   0.013243438   0.11817  -0.09722   0.24320  -0.22264
  26   37227.0    268.6   0.055803575   0.49349   0.09298  -0.63039   0.29572
  27   37541.9    266.4   0.058282680   0.51109   0.53896  -0.03328   0.46852
  28   38213.5    261.7   0.272406223   2.34680  -1.03796   0.68988  -0.89079
  29   38582.2    259.2   0.046170951   0.39396   0.51075  -0.11855   0.34503
  30   38853.0    257.4   0.232625394   1.97110   0.45590   1.32768  -0.02316
  31   38956.6    256.7   0.070554101   0.59623  -0.11842  -0.75909   0.07737
  32   39215.4    255.0   0.090013272   0.75566   0.43132   0.69980  -0.28267
  33   39536.8    252.9   0.014623421   0.12177   0.08119   0.32992  -0.07952
  34   40035.4    249.8   0.007427026   0.06107  -0.12091   0.15368  -0.15112

FINAL SINGLE POINT ENERGY     -4323.846896237103

DIPOLE MOMENT
-------------
                                X             Y             Z
Electronic contribution:     12.38710      22.52892       3.15231
Nuclear contribution   :    -15.50433     -26.45346      -4.90920
                        -----------------------------------------
Total Dipole Moment    :     -3.11723      -3.92453      -1.75689
                        -----------------------------------------
Magnitude (a.u.)       :      5.31091
Magnitude (Debye)      :     13.49926

Rotational constants in cm-1:     0.001721     0.000944     0.000620
Rotational constants in MHz :    51.581558    28.302317    18.577840

                             ****ORCA TERMINATED NORMALLY****
TOTAL RUN TIME: 0 days 0 hours 5 minutes 14 seconds 942 msec
