                         Program Version 4.2.0 -  RELEASE  -
|  1> # ORCA input file
|  2> # SCF done       -142.717829467978          0.000329157374
|  3> ! CAM-B3LYP def2-SVP def2/J RIJCOSX Grid4 TightSCF
|  4> %maxcore 5000
|  5> %tddft
|  6>     Mode sTDDFT
|  7>     Ethresh 5.0
|  8>     maxcore 5000
|  9> end
| 10>
| 11> %pal
| 12>   nprocs 6
| 13>   end
| 14> * xyz 0 1
| 15>    C        4.38329        -0.80859        -9.86426
| 16>    C        4.55750        -0.89901        -8.53846
| 17>    C        4.88567         0.15339        -7.62050
| 18>    C        5.00010        -0.24366        -6.33339
| 19>    C        4.77279        -1.63208        -6.12606
| 20>    S        4.40178        -2.42043        -7.64591
| 21>    C        4.81571        -2.31782        -4.93425
| 22>    C        5.10491        -1.81637        -3.64349
| 23>    C        5.05436        -2.75782        -2.66376
| 24>    C        4.72783        -4.06506        -3.11042
| 25>    S        4.49117        -4.03967        -4.85021
| 26>    C        4.50923        -5.12807        -2.26577
| 27>    C        4.14850        -6.45714        -2.53007
| 28>    S        3.27710        -7.28933        -1.26554
| 29>    C        3.01759        -8.71105        -2.22418
| 30>    C        3.65292        -8.57026        -3.47122
| 31>    C        4.31235        -7.31276        -3.63895
| 32>    C        5.10904        -7.10226        -4.77760
| 33>    C        5.16941        -8.06951        -5.74032
| 34>    F        5.93688        -7.88146        -6.82804
| 35>    C        4.45679        -9.27911        -5.60747
| 36>    F        4.53528       -10.19872        -6.58625
| 37>    C        3.71794        -9.53890        -4.48965
| 38>    C        2.25451        -9.80013        -1.76244
| 39>    C        1.67335        -9.88700        -0.53547
| 40>    C        0.86319       -10.97885        -0.13812
| 41>    C        0.25592       -11.06586         1.06755
| 42>    C       -0.62622       -12.12156         1.47630
| 43>    C       -1.24313       -12.14371         2.70731
| 44>    S       -2.29035       -13.47856         2.90686
| 45>    C       -1.91406       -14.06624         1.30384
| 46>    C       -1.01791       -13.23657         0.68827
| 47>    C       -2.56129       -15.24321         0.81131
| 48>    C       -2.23833       -15.87466        -0.33419
| 49>    C       -2.96929       -17.00003        -0.83475
| 50>    C       -2.68080       -17.73482        -1.92214
| 51>    C       -1.49278       -17.54923        -2.80964
| 52>    C       -3.64906       -18.79286        -2.39445
| 53>    N       -4.38184       -18.31064        -3.55100
| 54>    C       -3.87651       -18.42993        -4.80790
| 55>    C       -4.14368       -17.58203        -5.83165
| 56>    C       -3.66657       -17.77490        -7.14541
| 57>    C       -3.82729       -16.88555        -8.16889
| 58>    C       -3.35353       -17.01466        -9.50085
| 59>    C       -3.63106       -15.95665       -10.30423
| 60>    C       -4.34321       -14.91064        -9.66187
| 61>    S       -4.66086       -15.33882        -7.99095
| 62>    C       -4.74253       -13.71257       -10.19839
| 63>    C       -4.53792       -13.24640       -11.52584
| 64>    C       -5.02974       -12.01123       -11.76895
| 65>    C       -5.66947       -11.39321       -10.64338
| 66>    S       -5.60427       -12.49887        -9.26185
| 67>    C       -6.23810       -10.18103       -10.58603
| 68>    H        4.48502         0.13616       -10.36843
| 69>    H        4.13860        -1.66724       -10.46173
| 70>    H        5.02192         1.16184        -7.96866
| 71>    H        5.24035         0.41189        -5.51515
| 72>    H        5.33661        -0.78015        -3.47498
| 73>    H        5.24033        -2.55895        -1.62274
| 74>    H        4.51373        -4.86850        -1.21245
| 75>    H        5.69376        -6.20736        -4.89621
| 76>    H        3.21055       -10.48476        -4.39646
| 77>    H        2.11667       -10.61484        -2.46062
| 78>    H        1.81428        -9.07919         0.17147
| 79>    H        0.72206       -11.76385        -0.86852
| 80>    H        0.41165       -10.27629         1.79161
| 81>    H       -1.13485       -11.43355         3.50343
| 82>    H       -0.66434       -13.40472        -0.31153
| 83>    H       -3.36821       -15.62721         1.42197
| 84>    H       -1.40884       -15.50775        -0.91907
| 85>    H       -3.85410       -17.26079        -0.26517
| 86>    H       -0.85320       -16.73855        -2.47934
| 87>    H       -1.81460       -17.34491        -3.83256
| 88>    H       -0.90223       -18.46585        -2.82930
| 89>    H       -4.36951       -19.03672        -1.60878
| 90>    H       -3.12194       -19.70493        -2.68598
| 91>    H       -4.89981       -17.45762        -3.38062
| 92>    H       -3.26337       -19.30729        -4.96942
| 93>    H       -4.73813       -16.69664        -5.64663
| 94>    H       -3.11427       -18.68184        -7.35625
| 95>    H       -2.81831       -17.89392        -9.81568
| 96>    H       -3.34361       -15.89000       -11.33841
| 97>    H       -4.02753       -13.84908       -12.25665
| 98>    H       -4.96577       -11.49782       -12.71217
| 99>    H       -6.25415        -9.54165       -11.45099
|100>    H       -6.69202        -9.81072        -9.68546
|101> *
|102>
|103>                          ****END OF INPUT****

CARTESIAN COORDINATES (ANGSTROEM)
---------------------------------
  C      4.383290   -0.808590   -9.864260
  C      4.557500   -0.899010   -8.538460
  C      4.885670    0.153390   -7.620500
  C      5.000100   -0.243660   -6.333390
  C      4.772790   -1.632080   -6.126060
  S      4.401780   -2.420430   -7.645910
  C      4.815710   -2.317820   -4.934250
  C      5.104910   -1.816370   -3.643490
  C      5.054360   -2.757820   -2.663760
  C      4.727830   -4.065060   -3.110420
  S      4.491170   -4.039670   -4.850210
  C      4.509230   -5.128070   -2.265770
  C      4.148500   -6.457140   -2.530070
  S      3.277100   -7.289330   -1.265540
  C      3.017590   -8.711050   -2.224180
  C      3.652920   -8.570260   -3.471220
  C      4.312350   -7.312760   -3.638950
  C      5.109040   -7.102260   -4.777600
  C      5.169410   -8.069510   -5.740320
  F      5.936880   -7.881460   -6.828040
  C      4.456790   -9.279110   -5.607470
  F      4.535280  -10.198720   -6.586250
  C      3.717940   -9.538900   -4.489650
  C      2.254510   -9.800130   -1.762440
  C      1.673350   -9.887000   -0.535470
  C      0.863190  -10.978850   -0.138120
  C      0.255920  -11.065860    1.067550
  C     -0.626220  -12.121560    1.476300
  C     -1.243130  -12.143710    2.707310
  S     -2.290350  -13.478560    2.906860
  C     -1.914060  -14.066240    1.303840
  C     -1.017910  -13.236570    0.688270
  C     -2.561290  -15.243210    0.811310
  C     -2.238330  -15.874660   -0.334190
  C     -2.969290  -17.000030   -0.834750
  C     -2.680800  -17.734820   -1.922140
  C     -1.492780  -17.549230   -2.809640
  C     -3.649060  -18.792860   -2.394450
  N     -4.381840  -18.310640   -3.551000
  C     -3.876510  -18.429930   -4.807900
  C     -4.143680  -17.582030   -5.831650
  C     -3.666570  -17.774900   -7.145410
  C     -3.827290  -16.885550   -8.168890
  C     -3.353530  -17.014660   -9.500850
  C     -3.631060  -15.956650  -10.304230
  C     -4.343210  -14.910640   -9.661870
  S     -4.660860  -15.338820   -7.990950
  C     -4.742530  -13.712570  -10.198390
  C     -4.537920  -13.246400  -11.525840
  C     -5.029740  -12.011230  -11.768950
  C     -5.669470  -11.393210  -10.643380
  S     -5.604270  -12.498870   -9.261850
  C     -6.238100  -10.181030  -10.586030
  H      4.485020    0.136160  -10.368430
  H      4.138600   -1.667240  -10.461730
  H      5.021920    1.161840   -7.968660
  H      5.240350    0.411890   -5.515150
  H      5.336610   -0.780150   -3.474980
  H      5.240330   -2.558950   -1.622740
  H      4.513730   -4.868500   -1.212450
  H      5.693760   -6.207360   -4.896210
  H      3.210550  -10.484760   -4.396460
  H      2.116670  -10.614840   -2.460620
  H      1.814280   -9.079190    0.171470
  H      0.722060  -11.763850   -0.868520
  H      0.411650  -10.276290    1.791610
  H     -1.134850  -11.433550    3.503430
  H     -0.664340  -13.404720   -0.311530
  H     -3.368210  -15.627210    1.421970
  H     -1.408840  -15.507750   -0.919070
  H     -3.854100  -17.260790   -0.265170
  H     -0.853200  -16.738550   -2.479340
  H     -1.814600  -17.344910   -3.832560
  H     -0.902230  -18.465850   -2.829300
  H     -4.369510  -19.036720   -1.608780
  H     -3.121940  -19.704930   -2.685980
  H     -4.899810  -17.457620   -3.380620
  H     -3.263370  -19.307290   -4.969420
  H     -4.738130  -16.696640   -5.646630
  H     -3.114270  -18.681840   -7.356250
  H     -2.818310  -17.893920   -9.815680
  H     -3.343610  -15.890000  -11.338410
  H     -4.027530  -13.849080  -12.256650
  H     -4.965770  -11.497820  -12.712170
  H     -6.254150   -9.541650  -11.450990
  H     -6.692020   -9.810720   -9.685460

 Total Charge           Charge          ....    0
 Multiplicity           Mult            ....    1
 Number of Electrons    NEL             ....  418
 Basis Dimension        Dim             ....  931

ORBITAL ENERGIES
----------------

  NO   OCC          E(Eh)            E(eV)
   0   2.0000     -88.957836     -2420.6658
   1   2.0000     -88.950476     -2420.4655
   2   2.0000     -88.940543     -2420.1952
   3   2.0000     -88.933646     -2420.0075
   4   2.0000     -88.920328     -2419.6451
   5   2.0000     -88.915760     -2419.5208
   6   2.0000     -24.776811      -674.2113
   7   2.0000     -24.774644      -674.1523
   8   2.0000     -14.428750      -392.6263
   9   2.0000     -10.357885      -281.8524
  10   2.0000     -10.355909      -281.7986
  11   2.0000     -10.308996      -280.5220
  12   2.0000     -10.308683      -280.5135
  13   2.0000     -10.305388      -280.4239
  14   2.0000     -10.305130      -280.4169
  15   2.0000     -10.303940      -280.3845
  16   2.0000     -10.303467      -280.3716
  17   2.0000     -10.301841      -280.3273
  18   2.0000     -10.300242      -280.2838
  19   2.0000     -10.295631      -280.1584
  20   2.0000     -10.289088      -279.9803
  21   2.0000     -10.287792      -279.9450
  22   2.0000     -10.285463      -279.8817
  23   2.0000     -10.285336      -279.8782
  24   2.0000     -10.285190      -279.8742
  25   2.0000     -10.284893      -279.8662
  26   2.0000     -10.283550      -279.8296
  27   2.0000     -10.283059      -279.8163
  28   2.0000     -10.282238      -279.7939
  29   2.0000     -10.280497      -279.7466
  30   2.0000     -10.280397      -279.7438
  31   2.0000     -10.279977      -279.7324
  32   2.0000     -10.279259      -279.7128
  33   2.0000     -10.279001      -279.7059
  34   2.0000     -10.278621      -279.6955
  35   2.0000     -10.278111      -279.6816
  36   2.0000     -10.276341      -279.6335
  37   2.0000     -10.274998      -279.5969
  38   2.0000     -10.272780      -279.5366
  39   2.0000     -10.272137      -279.5190
  40   2.0000     -10.271911      -279.5129
  41   2.0000     -10.269111      -279.4367
  42   2.0000     -10.269083      -279.4360
  43   2.0000     -10.268996      -279.4336
  44   2.0000     -10.266546      -279.3669
  45   2.0000     -10.266466      -279.3647
  46   2.0000     -10.266318      -279.3607
  47   2.0000     -10.265686      -279.3435
  48   2.0000     -10.265486      -279.3381
  49   2.0000     -10.264434      -279.3095
  50   2.0000     -10.261261      -279.2231
  51   2.0000     -10.251229      -278.9501
  52   2.0000     -10.246394      -278.8186
  53   2.0000      -8.053100      -219.1360
  54   2.0000      -8.046531      -218.9572
  55   2.0000      -8.036482      -218.6838
  56   2.0000      -8.030328      -218.5163
  57   2.0000      -8.016627      -218.1435
  58   2.0000      -8.012323      -218.0264
  59   2.0000      -6.022071      -163.8689
  60   2.0000      -6.018178      -163.7629
  61   2.0000      -6.015693      -163.6953
  62   2.0000      -6.015686      -163.6951
  63   2.0000      -6.011539      -163.5823
  64   2.0000      -6.008932      -163.5114
  65   2.0000      -6.006282      -163.4393
  66   2.0000      -6.002169      -163.3273
  67   2.0000      -6.000176      -163.2731
  68   2.0000      -5.997327      -163.1956
  69   2.0000      -5.996215      -163.1653
  70   2.0000      -5.990855      -163.0195
  71   2.0000      -5.986409      -162.8985
  72   2.0000      -5.982541      -162.7932
  73   2.0000      -5.982187      -162.7836
  74   2.0000      -5.978320      -162.6784
  75   2.0000      -5.977318      -162.6511
  76   2.0000      -5.972798      -162.5281
  77   2.0000      -1.297078       -35.2953
  78   2.0000      -1.282189       -34.8901
  79   2.0000      -1.031454       -28.0673
  80   2.0000      -0.995694       -27.0942
  81   2.0000      -0.986947       -26.8562
  82   2.0000      -0.978242       -26.6193
  83   2.0000      -0.969255       -26.3748
  84   2.0000      -0.964618       -26.2486
  85   2.0000      -0.946500       -25.7556
  86   2.0000      -0.934869       -25.4391
  87   2.0000      -0.917092       -24.9553
  88   2.0000      -0.910923       -24.7875
  89   2.0000      -0.892832       -24.2952
  90   2.0000      -0.885176       -24.0869
  91   2.0000      -0.875097       -23.8126
  92   2.0000      -0.869278       -23.6543
  93   2.0000      -0.852006       -23.1843
  94   2.0000      -0.847684       -23.0667
  95   2.0000      -0.845100       -22.9963
  96   2.0000      -0.839106       -22.8332
  97   2.0000      -0.826637       -22.4939
  98   2.0000      -0.822727       -22.3875
  99   2.0000      -0.819518       -22.3002
 100   2.0000      -0.818250       -22.2657
 101   2.0000      -0.811710       -22.0878
 102   2.0000      -0.809238       -22.0205
 103   2.0000      -0.796021       -21.6608
 104   2.0000      -0.789959       -21.4959
 105   2.0000      -0.778098       -21.1731
 106   2.0000      -0.766995       -20.8710
 107   2.0000      -0.755587       -20.5606
 108   2.0000      -0.741464       -20.1763
 109   2.0000      -0.726882       -19.7795
 110   2.0000      -0.725262       -19.7354
 111   2.0000      -0.706859       -19.2346
 112   2.0000      -0.702629       -19.1195
 113   2.0000      -0.688956       -18.7474
 114   2.0000      -0.681612       -18.5476
 115   2.0000      -0.674677       -18.3589
 116   2.0000      -0.663895       -18.0655
 117   2.0000      -0.657281       -17.8855
 118   2.0000      -0.652312       -17.7503
 119   2.0000      -0.641256       -17.4495
 120   2.0000      -0.640659       -17.4332
 121   2.0000      -0.631779       -17.1916
 122   2.0000      -0.620081       -16.8733
 123   2.0000      -0.618688       -16.8354
 124   2.0000      -0.614277       -16.7153
 125   2.0000      -0.610842       -16.6219
 126   2.0000      -0.608586       -16.5605
 127   2.0000      -0.603559       -16.4237
 128   2.0000      -0.602910       -16.4060
 129   2.0000      -0.599298       -16.3077
 130   2.0000      -0.595751       -16.2112
 131   2.0000      -0.593707       -16.1556
 132   2.0000      -0.583117       -15.8674
 133   2.0000      -0.581591       -15.8259
 134   2.0000      -0.577426       -15.7126
 135   2.0000      -0.568417       -15.4674
 136   2.0000      -0.562969       -15.3192
 137   2.0000      -0.560935       -15.2638
 138   2.0000      -0.558536       -15.1985
 139   2.0000      -0.549394       -14.9498
 140   2.0000      -0.540252       -14.7010
 141   2.0000      -0.537919       -14.6375
 142   2.0000      -0.530563       -14.4374
 143   2.0000      -0.529586       -14.4108
 144   2.0000      -0.528370       -14.3777
 145   2.0000      -0.524785       -14.2801
 146   2.0000      -0.520428       -14.1616
 147   2.0000      -0.511789       -13.9265
 148   2.0000      -0.509767       -13.8715
 149   2.0000      -0.505122       -13.7451
 150   2.0000      -0.498874       -13.5750
 151   2.0000      -0.496721       -13.5165
 152   2.0000      -0.494527       -13.4568
 153   2.0000      -0.490747       -13.3539
 154   2.0000      -0.489254       -13.3133
 155   2.0000      -0.487203       -13.2575
 156   2.0000      -0.484536       -13.1849
 157   2.0000      -0.481035       -13.0896
 158   2.0000      -0.479847       -13.0573
 159   2.0000      -0.477729       -12.9997
 160   2.0000      -0.475891       -12.9497
 161   2.0000      -0.474577       -12.9139
 162   2.0000      -0.473135       -12.8747
 163   2.0000      -0.467565       -12.7231
 164   2.0000      -0.467069       -12.7096
 165   2.0000      -0.461416       -12.5558
 166   2.0000      -0.459858       -12.5134
 167   2.0000      -0.457948       -12.4614
 168   2.0000      -0.457837       -12.4584
 169   2.0000      -0.451669       -12.2905
 170   2.0000      -0.450229       -12.2514
 171   2.0000      -0.449669       -12.2361
 172   2.0000      -0.443628       -12.0717
 173   2.0000      -0.442186       -12.0325
 174   2.0000      -0.441133       -12.0038
 175   2.0000      -0.433984       -11.8093
 176   2.0000      -0.433439       -11.7945
 177   2.0000      -0.428815       -11.6687
 178   2.0000      -0.426771       -11.6130
 179   2.0000      -0.425195       -11.5702
 180   2.0000      -0.420911       -11.4536
 181   2.0000      -0.416466       -11.3326
 182   2.0000      -0.412269       -11.2184
 183   2.0000      -0.409745       -11.1497
 184   2.0000      -0.408804       -11.1241
 185   2.0000      -0.405680       -11.0391
 186   2.0000      -0.403634       -10.9834
 187   2.0000      -0.402538       -10.9536
 188   2.0000      -0.398280       -10.8378
 189   2.0000      -0.393245       -10.7007
 190   2.0000      -0.384740       -10.4693
 191   2.0000      -0.375213       -10.2101
 192   2.0000      -0.369935       -10.0665
 193   2.0000      -0.367569       -10.0021
 194   2.0000      -0.340768        -9.2728
 195   2.0000      -0.332974        -9.0607
 196   2.0000      -0.330400        -8.9906
 197   2.0000      -0.327965        -8.9244
 198   2.0000      -0.325010        -8.8440
 199   2.0000      -0.316566        -8.6142
 200   2.0000      -0.311554        -8.4778
 201   2.0000      -0.304734        -8.2922
 202   2.0000      -0.300618        -8.1802
 203   2.0000      -0.288695        -7.8558
 204   2.0000      -0.267383        -7.2759
 205   2.0000      -0.256260        -6.9732
 206   2.0000      -0.243607        -6.6289
 207   2.0000      -0.200001        -5.4423
 208   2.0000      -0.191930        -5.2227
 209   0.0000      -0.076460        -2.0806
 210   0.0000      -0.039853        -1.0844
 211   0.0000      -0.032489        -0.8841
 212   0.0000      -0.022074        -0.6007
 213   0.0000       0.001557         0.0424

MULLIKEN ATOMIC CHARGES
-----------------------
   0 C :   -0.030262
   1 C :   -0.063962
   2 C :    0.052234
   3 C :    0.028759
   4 C :   -0.067834
   5 S :    0.082809
   6 C :   -0.055346
   7 C :    0.034138
   8 C :    0.026997
   9 C :   -0.028099
  10 S :    0.080360
  11 C :   -0.015898
  12 C :   -0.132151
  13 S :    0.134971
  14 C :   -0.084166
  15 C :    0.117161
  16 C :    0.134194
  17 C :   -0.112159
  18 C :    0.217442
  19 F :   -0.181753
  20 C :    0.225058
  21 F :   -0.183548
  22 C :   -0.115330
  23 C :   -0.010348
  24 C :    0.011488
  25 C :    0.021568
  26 C :   -0.001649
  27 C :    0.119441
  28 C :   -0.130022
  29 S :    0.120405
  30 C :   -0.092455
  31 C :   -0.014868
  32 C :    0.050155
  33 C :    0.006578
  34 C :    0.012862
  35 C :   -0.193119
  36 C :    0.096881
  37 C :    0.197941
  38 N :   -0.142792
  39 C :    0.032958
  40 C :   -0.015085
  41 C :   -0.017418
  42 C :   -0.035752
  43 C :    0.041538
  44 C :    0.013501
  45 C :   -0.041181
  46 S :    0.048295
  47 C :   -0.076358
  48 C :    0.029817
  49 C :    0.041034
  50 C :   -0.058254
  51 S :    0.060078
  52 C :   -0.042693
  53 H :    0.019056
  54 H :    0.023102
  55 H :   -0.012783
  56 H :   -0.012485
  57 H :   -0.016120
  58 H :   -0.013487
  59 H :   -0.010980
  60 H :   -0.003764
  61 H :   -0.015902
  62 H :   -0.018143
  63 H :   -0.011306
  64 H :   -0.019543
  65 H :   -0.027697
  66 H :    0.018264
  67 H :   -0.022444
  68 H :   -0.021425
  69 H :   -0.013520
  70 H :   -0.031769
  71 H :    0.006319
  72 H :    0.043669
  73 H :    0.017877
  74 H :    0.007740
  75 H :    0.009446
  76 H :    0.115584
  77 H :   -0.002653
  78 H :   -0.014156
  79 H :   -0.026839
  80 H :   -0.023169
  81 H :   -0.023283
  82 H :   -0.018302
  83 H :   -0.020888
  84 H :    0.010842
  85 H :    0.012598
Sum of atomic charges:   -0.0000000

LOEWDIN ATOMIC CHARGES
----------------------
   0 C :   -0.076180
   1 C :   -0.139577
   2 C :   -0.031692
   3 C :   -0.027355
   4 C :   -0.177768
   5 S :    0.353647
   6 C :   -0.182963
   7 C :   -0.036949
   8 C :   -0.034871
   9 C :   -0.152177
  10 S :    0.391625
  11 C :   -0.087416
  12 C :   -0.173222
  13 S :    0.465191
  14 C :   -0.176709
  15 C :   -0.042543
  16 C :   -0.051710
  17 C :   -0.045053
  18 C :    0.059103
  19 F :   -0.059327
  20 C :    0.061154
  21 F :   -0.060784
  22 C :   -0.041677
  23 C :   -0.047217
  24 C :   -0.026282
  25 C :   -0.028626
  26 C :   -0.019256
  27 C :   -0.064140
  28 C :   -0.188246
  29 S :    0.435012
  30 C :   -0.168159
  31 C :   -0.051630
  32 C :   -0.041367
  33 C :   -0.021267
  34 C :   -0.050824
  35 C :   -0.041219
  36 C :   -0.051139
  37 C :    0.046113
  38 N :   -0.008920
  39 C :    0.035906
  40 C :   -0.119862
  41 C :   -0.043642
  42 C :   -0.171684
  43 C :   -0.031051
  44 C :   -0.049706
  45 C :   -0.172625
  46 S :    0.344010
  47 C :   -0.194693
  48 C :   -0.026173
  49 C :   -0.046507
  50 C :   -0.137009
  51 S :    0.334358
  52 C :   -0.098314
  53 H :    0.028284
  54 H :    0.026755
  55 H :    0.032901
  56 H :    0.031954
  57 H :    0.030714
  58 H :    0.032228
  59 H :    0.033381
  60 H :    0.027059
  61 H :    0.038281
  62 H :    0.031138
  63 H :    0.020783
  64 H :    0.024970
  65 H :    0.027586
  66 H :    0.021490
  67 H :    0.024251
  68 H :    0.025811
  69 H :    0.024266
  70 H :    0.023780
  71 H :    0.028067
  72 H :    0.039623
  73 H :    0.035542
  74 H :    0.025116
  75 H :    0.026806
  76 H :    0.077318
  77 H :    0.024075
  78 H :    0.018562
  79 H :    0.028391
  80 H :    0.029383
  81 H :    0.027512
  82 H :    0.029615
  83 H :    0.029314
  84 H :    0.024408
  85 H :    0.022053

  Mayer bond orders larger than 0.100000
B(  0-C ,  1-C ) :   1.8605 B(  0-C , 53-H ) :   0.9513 B(  0-C , 54-H ) :   0.9418
B(  1-C ,  2-C ) :   1.0811 B(  1-C ,  5-S ) :   1.0086 B(  2-C ,  3-C ) :   1.6584
B(  2-C , 55-H ) :   0.9930 B(  3-C ,  4-C ) :   1.1562 B(  3-C , 56-H ) :   0.9913
B(  4-C ,  5-S ) :   1.0461 B(  4-C ,  6-C ) :   1.5495 B(  6-C ,  7-C ) :   1.1742
B(  6-C , 10-S ) :   1.0341 B(  7-C ,  8-C ) :   1.5977 B(  7-C , 57-H ) :   0.9917
B(  8-C ,  9-C ) :   1.1448 B(  8-C , 58-H ) :   0.9978 B(  9-C , 10-S ) :   1.0303
B(  9-C , 11-C ) :   1.5971 B( 11-C , 12-C ) :   1.1844 B( 11-C , 59-H ) :   0.9410
B( 12-C , 13-S ) :   1.1398 B( 12-C , 14-C ) :   0.1009 B( 12-C , 16-C ) :   1.3238
B( 13-S , 14-C ) :   1.1312 B( 14-C , 15-C ) :   1.3213 B( 14-C , 23-C ) :   1.1810
B( 15-C , 16-C ) :   1.2153 B( 15-C , 22-C ) :   1.1680 B( 16-C , 17-C ) :   1.1643
B( 17-C , 18-C ) :   1.5141 B( 17-C , 22-C ) :   0.1105 B( 17-C , 60-H ) :   0.9772
B( 18-C , 19-F ) :   1.1219 B( 18-C , 20-C ) :   1.1612 B( 20-C , 21-F ) :   1.1231
B( 20-C , 22-C ) :   1.5025 B( 22-C , 61-H ) :   0.9980 B( 23-C , 24-C ) :   1.6069
B( 23-C , 62-H ) :   0.9723 B( 24-C , 25-C ) :   1.1516 B( 24-C , 63-H ) :   0.9859
B( 25-C , 26-C ) :   1.6539 B( 25-C , 64-H ) :   0.9801 B( 26-C , 27-C ) :   1.0745
B( 26-C , 65-H ) :   0.9870 B( 27-C , 28-C ) :   1.4950 B( 27-C , 31-C ) :   1.2282
B( 28-C , 29-S ) :   1.1579 B( 28-C , 66-H ) :   0.9728 B( 29-S , 30-C ) :   1.1251
B( 30-C , 31-C ) :   1.5588 B( 30-C , 32-C ) :   1.0666 B( 31-C , 67-H ) :   0.9869
B( 32-C , 33-C ) :   1.7448 B( 32-C , 68-H ) :   0.9716 B( 33-C , 34-C ) :   1.1046
B( 33-C , 69-H ) :   0.9691 B( 34-C , 35-C ) :   1.7595 B( 34-C , 70-H ) :   0.9735
B( 35-C , 36-C ) :   1.0780 B( 35-C , 37-C ) :   1.0374 B( 36-C , 71-H ) :   0.9501
B( 36-C , 72-H ) :   0.9379 B( 36-C , 73-H ) :   0.9446 B( 37-C , 38-N ) :   1.0174
B( 37-C , 74-H ) :   0.9429 B( 37-C , 75-H ) :   0.9317 B( 38-N , 39-C ) :   1.2115
B( 38-N , 76-H ) :   0.9366 B( 39-C , 40-C ) :   1.6109 B( 39-C , 77-H ) :   0.9666
B( 40-C , 41-C ) :   1.1518 B( 40-C , 78-H ) :   0.9622 B( 41-C , 42-C ) :   1.6136
B( 41-C , 79-H ) :   0.9774 B( 42-C , 43-C ) :   1.1317 B( 42-C , 46-S ) :   1.0057
B( 43-C , 44-C ) :   1.6140 B( 43-C , 80-H ) :   0.9963 B( 44-C , 45-C ) :   1.1681
B( 44-C , 81-H ) :   0.9917 B( 45-C , 46-S ) :   1.0410 B( 45-C , 47-C ) :   1.5635
B( 47-C , 48-C ) :   1.1591 B( 47-C , 51-S ) :   1.0264 B( 48-C , 49-C ) :   1.6565
B( 48-C , 82-H ) :   0.9908 B( 49-C , 50-C ) :   1.0824 B( 49-C , 83-H ) :   0.9925
B( 50-C , 51-S ) :   1.0112 B( 50-C , 52-C ) :   1.8612 B( 52-C , 84-H ) :   0.9499
B( 52-C , 85-H ) :   0.9411

-----------------------------------------------------------------------------
         ABSORPTION SPECTRUM VIA TRANSITION ELECTRIC DIPOLE MOMENTS
-----------------------------------------------------------------------------
State   Energy  Wavelength   fosc         T2         TX        TY        TZ
        (cm-1)    (nm)                  (au**2)     (au)      (au)      (au)
-----------------------------------------------------------------------------
   0   13692.0    730.4   1.353794594  32.55081   1.70224   4.50939  -3.05264
   1   17354.4    576.2   0.002683560   0.05091  -0.08989   0.10858  -0.17617
   2   19809.1    504.8   1.364026425  22.66911  -1.09859   3.15400  -3.39330
   3   20693.8    483.2   0.051896541   0.82561  -0.04968  -0.81454   0.39957
   4   24128.1    414.5   0.234981151   3.20616   1.49534   0.81559   0.55222
   5   24612.8    406.3   0.146156650   1.95494   0.37230  -1.34183   0.12577
   6   26463.4    377.9   0.020757252   0.25823   0.15478  -0.46373  -0.13867
   7   27102.3    369.0   0.003217282   0.03908  -0.10560  -0.09993  -0.13395
   8   27514.4    363.4   0.157769666   1.88773   0.97037   0.85950  -0.45538
   9   28203.0    354.6   0.134778986   1.57327  -0.54276  -0.70109   0.88722
  10   28910.3    345.9   0.101933274   1.16075  -0.24518   0.06569   1.04705
  11   29993.5    333.4   0.044899800   0.49283  -0.15444   0.54443   0.41542
  12   30760.6    325.1   0.091929883   0.98387  -0.59481  -0.48836   0.62576
  13   32043.5    312.1   0.301067424   3.09313  -0.69634  -0.64596   1.48019
  14   32673.5    306.1   0.099091159   0.99842  -0.16418  -0.20535   0.96400
  15   32942.1    303.6   0.016011429   0.16001   0.25224   0.29635   0.09255
  16   33139.6    301.8   0.033145846   0.32927  -0.21802  -0.50165  -0.17346
  17   33306.5    300.2   0.031880591   0.31512  -0.22312   0.02527   0.51449
  18   33389.5    299.5   0.015435055   0.15219  -0.10736   0.16561   0.33650
  19   33603.6    297.6   0.291469906   2.85551  -0.21919   0.85369   1.44176
  20   33673.3    297.0   0.508365439   4.97010   0.47756  -0.93673  -1.96585
  21   34362.7    291.0   0.080437257   0.77063   0.52796   0.15666  -0.68363
  22   35152.0    284.5   0.063207138   0.59196   0.31286   0.59026   0.38167
  23   36323.1    275.3   0.207531961   1.88095  -0.13812  -0.96216  -0.96753
  24   36718.5    272.3   0.062292115   0.55850  -0.09228  -0.32772  -0.66527
  25   36917.7    270.9   0.051572596   0.45990   0.12444  -0.13389  -0.65306
  26   37724.9    265.1   0.084512956   0.73751  -0.05358  -0.46060   0.72283
  27   37986.8    263.2   0.170763053   1.47991   0.43428   1.11879  -0.19906
  28   38347.0    260.8   0.005046631   0.04333  -0.06826  -0.10679  -0.16511
  29   38758.7    258.0   0.013996916   0.11889   0.25663  -0.13044  -0.18978
  30   39310.2    254.4   0.184854678   1.54811   0.34896   0.04273  -1.19353
  31   39536.5    252.9   0.009388573   0.07818  -0.14570  -0.21116  -0.11116
  32   39606.1    252.5   0.053933420   0.44830   0.36882   0.49225   0.26451

FINAL SINGLE POINT ENERGY     -4336.750216388627

DIPOLE MOMENT
-------------
                                X             Y             Z
Electronic contribution:     36.26979      43.20805      -6.04596
Nuclear contribution   :    -35.74427     -43.19136       7.70608
                        -----------------------------------------
Total Dipole Moment    :      0.52552       0.01669       1.66012
                        -----------------------------------------
Magnitude (a.u.)       :      1.74139
Magnitude (Debye)      :      4.42626

Rotational constants in cm-1:     0.001079     0.000457     0.000349
Rotational constants in MHz :    32.346039    13.706907    10.466466

                             ****ORCA TERMINATED NORMALLY****
TOTAL RUN TIME: 0 days 0 hours 5 minutes 25 seconds 493 msec
