                         Program Version 4.2.0 -  RELEASE  -
|  1> # ORCA input file
|  2> # SCF done       -176.603157380742          0.000733294783
|  3> ! CAM-B3LYP def2-SVP def2/J RIJCOSX Grid4 TightSCF
|  4> %maxcore 5000
|  5> %tddft
|  6>     Mode sTDDFT
|  7>     Ethresh 5.0
|  8>     maxcore 5000
|  9> end
| 10>
| 11> %pal
| 12>   nprocs 6
| 13>   end
| 14> * xyz 0 1
| 15>    C       -0.90922        -8.70339         6.87140
| 16>    C        0.38313        -8.35314         6.85486
| 17>    C        1.12179        -7.66220         7.87376
| 18>    C        2.42141        -7.44842         7.57632
| 19>    C        2.82175        -7.94879         6.30431
| 20>    S        1.46225        -8.70532         5.49534
| 21>    C        4.06978        -7.88363         5.73799
| 22>    C        5.25071        -7.30865         6.27259
| 23>    C        6.33778        -7.40365         5.46524
| 24>    C        6.09026        -8.06243         4.23164
| 25>    S        4.39617        -8.55819         4.14996
| 26>    C        6.97794        -8.29816         3.22602
| 27>    N        6.62651        -8.93639         2.07890
| 28>    C        7.42788        -9.22954         1.03640
| 29>    S        9.13908        -8.93204         1.12063
| 30>    C        9.33163        -9.68975        -0.43378
| 31>    N       10.62317        -9.75260        -0.95349
| 32>    O       10.77859       -10.28808        -2.03775
| 33>    O       11.51150        -9.26207        -0.27104
| 34>    C        8.15584       -10.13589        -0.96984
| 35>    C        7.03207        -9.86191        -0.16094
| 36>    C        5.71279       -10.21058        -0.57537
| 37>    C        4.52808        -9.70326        -0.12208
| 38>    C        3.24015       -10.08414        -0.53731
| 39>    C        2.84083       -11.09256        -1.39018
| 40>    C        1.49709       -11.35379        -1.74252
| 41>    C        1.32862       -12.38980        -2.61834
| 42>    C        2.53032       -13.00853        -3.00044
| 43>    S        3.88293       -12.24244        -2.20829
| 44>    C        2.70755       -14.06105        -3.89554
| 45>    C        1.73228       -14.72125        -4.65486
| 46>    C        2.24192       -15.69620        -5.47735
| 47>    C        3.63150       -15.84980        -5.39146
| 48>    S        4.29050       -14.71882        -4.23445
| 49>    C        4.42120       -16.74973        -6.10792
| 50>    C        5.77690       -16.89618        -5.94622
| 51>    C        6.57873       -17.77893        -6.66968
| 52>    C        7.94936       -17.99999        -6.48759
| 53>    C        8.48322       -18.93370        -7.34193
| 54>    C        7.55139       -19.47229        -8.24002
| 55>    S        5.97448       -18.78236        -7.96974
| 56>    C        7.78118       -20.42035        -9.23895
| 57>    C        8.98898       -21.08117        -9.52291
| 58>    C        8.88870       -21.95675       -10.56819
| 59>    C        7.61237       -21.99614       -11.17229
| 60>    S        6.53829       -20.90495       -10.35781
| 61>    C        7.27021       -22.88555       -12.18773
| 62>    C        6.09515       -23.04634       -12.90492
| 63>    C        5.06018       -22.14888       -13.14993
| 64>    C        3.79160       -22.49387       -13.73529
| 65>    C        3.28012       -23.75972       -13.91255
| 66>    C        2.02795       -24.03017       -14.49590
| 67>    N        1.02055       -24.31754       -14.96858
| 68>    C        3.91142       -24.95503       -13.51684
| 69>    N        4.33594       -25.97571       -13.20154
| 70>    C        3.08699       -21.25142       -14.04946
| 71>    C        3.89875       -20.16581       -13.64343
| 72>    C        5.16158       -20.69168       -13.08202
| 73>    O        6.11309       -20.02124       -12.71226
| 74>    C        3.51903       -18.85718       -13.79996
| 75>    C        2.27177       -18.60615       -14.38532
| 76>    C        1.46924       -19.69605       -14.78900
| 77>    C        1.85589       -21.02297       -14.63059
| 78>    S       -0.02822       -19.16127       -15.49392
| 79>    C        0.44100       -17.50232       -15.23668
| 80>    C        1.65383       -17.35361       -14.65482
| 81>   Br       -0.71687       -16.12015       -15.75894
| 82>    H       -1.52988        -8.47067         7.71847
| 83>    H       -1.36536        -9.22395         6.04936
| 84>    H        0.64068        -7.35767         8.78612
| 85>    H        3.11817        -6.94726         8.22451
| 86>    H        5.25753        -6.84203         7.24089
| 87>    H        7.31472        -7.02523         5.70666
| 88>    H        8.00243        -7.96781         3.30643
| 89>    H        5.67012        -9.27425         2.02694
| 90>    H        8.10574       -10.62396        -1.92639
| 91>    H        5.68866       -10.92059        -1.38869
| 92>    H        4.53638        -8.88090         0.58207
| 93>    H        2.42500        -9.50418        -0.12233
| 94>    H        0.69071       -10.76449        -1.34297
| 95>    H        0.37406       -12.71705        -2.98867
| 96>    H        0.68892       -14.46993        -4.59368
| 97>    H        1.64652       -16.30230        -6.13692
| 98>    H        3.91291       -17.37170        -6.83377
| 99>    H        6.27731       -16.29321        -5.19816
|100>    H        8.51311       -17.47509        -5.73670
|101>    H        9.51707       -19.22682        -7.34268
|102>    H        9.88948       -20.90921        -8.96175
|103>    H        9.70035       -22.56259       -10.93065
|104>    H        8.03799       -23.62455       -12.39009
|105>    H        6.00038       -24.00977       -13.39293
|106>    H        4.16085       -18.05054       -13.48201
|107>    H        1.20882       -21.81885       -14.95936
|108>    H        2.09758       -16.40187       -14.42565
|109> *
|110>
|111>                          ****END OF INPUT****

CARTESIAN COORDINATES (ANGSTROEM)
---------------------------------
  C     -0.909220   -8.703390    6.871400
  C      0.383130   -8.353140    6.854860
  C      1.121790   -7.662200    7.873760
  C      2.421410   -7.448420    7.576320
  C      2.821750   -7.948790    6.304310
  S      1.462250   -8.705320    5.495340
  C      4.069780   -7.883630    5.737990
  C      5.250710   -7.308650    6.272590
  C      6.337780   -7.403650    5.465240
  C      6.090260   -8.062430    4.231640
  S      4.396170   -8.558190    4.149960
  C      6.977940   -8.298160    3.226020
  N      6.626510   -8.936390    2.078900
  C      7.427880   -9.229540    1.036400
  S      9.139080   -8.932040    1.120630
  C      9.331630   -9.689750   -0.433780
  N     10.623170   -9.752600   -0.953490
  O     10.778590  -10.288080   -2.037750
  O     11.511500   -9.262070   -0.271040
  C      8.155840  -10.135890   -0.969840
  C      7.032070   -9.861910   -0.160940
  C      5.712790  -10.210580   -0.575370
  C      4.528080   -9.703260   -0.122080
  C      3.240150  -10.084140   -0.537310
  C      2.840830  -11.092560   -1.390180
  C      1.497090  -11.353790   -1.742520
  C      1.328620  -12.389800   -2.618340
  C      2.530320  -13.008530   -3.000440
  S      3.882930  -12.242440   -2.208290
  C      2.707550  -14.061050   -3.895540
  C      1.732280  -14.721250   -4.654860
  C      2.241920  -15.696200   -5.477350
  C      3.631500  -15.849800   -5.391460
  S      4.290500  -14.718820   -4.234450
  C      4.421200  -16.749730   -6.107920
  C      5.776900  -16.896180   -5.946220
  C      6.578730  -17.778930   -6.669680
  C      7.949360  -17.999990   -6.487590
  C      8.483220  -18.933700   -7.341930
  C      7.551390  -19.472290   -8.240020
  S      5.974480  -18.782360   -7.969740
  C      7.781180  -20.420350   -9.238950
  C      8.988980  -21.081170   -9.522910
  C      8.888700  -21.956750  -10.568190
  C      7.612370  -21.996140  -11.172290
  S      6.538290  -20.904950  -10.357810
  C      7.270210  -22.885550  -12.187730
  C      6.095150  -23.046340  -12.904920
  C      5.060180  -22.148880  -13.149930
  C      3.791600  -22.493870  -13.735290
  C      3.280120  -23.759720  -13.912550
  C      2.027950  -24.030170  -14.495900
  N      1.020550  -24.317540  -14.968580
  C      3.911420  -24.955030  -13.516840
  N      4.335940  -25.975710  -13.201540
  C      3.086990  -21.251420  -14.049460
  C      3.898750  -20.165810  -13.643430
  C      5.161580  -20.691680  -13.082020
  O      6.113090  -20.021240  -12.712260
  C      3.519030  -18.857180  -13.799960
  C      2.271770  -18.606150  -14.385320
  C      1.469240  -19.696050  -14.789000
  C      1.855890  -21.022970  -14.630590
  S     -0.028220  -19.161270  -15.493920
  C      0.441000  -17.502320  -15.236680
  C      1.653830  -17.353610  -14.654820
  Br    -0.716870  -16.120150  -15.758940
  H     -1.529880   -8.470670    7.718470
  H     -1.365360   -9.223950    6.049360
  H      0.640680   -7.357670    8.786120
  H      3.118170   -6.947260    8.224510
  H      5.257530   -6.842030    7.240890
  H      7.314720   -7.025230    5.706660
  H      8.002430   -7.967810    3.306430
  H      5.670120   -9.274250    2.026940
  H      8.105740  -10.623960   -1.926390
  H      5.688660  -10.920590   -1.388690
  H      4.536380   -8.880900    0.582070
  H      2.425000   -9.504180   -0.122330
  H      0.690710  -10.764490   -1.342970
  H      0.374060  -12.717050   -2.988670
  H      0.688920  -14.469930   -4.593680
  H      1.646520  -16.302300   -6.136920
  H      3.912910  -17.371700   -6.833770
  H      6.277310  -16.293210   -5.198160
  H      8.513110  -17.475090   -5.736700
  H      9.517070  -19.226820   -7.342680
  H      9.889480  -20.909210   -8.961750
  H      9.700350  -22.562590  -10.930650
  H      8.037990  -23.624550  -12.390090
  H      6.000380  -24.009770  -13.392930
  H      4.160850  -18.050540  -13.482010
  H      1.208820  -21.818850  -14.959360
  H      2.097580  -16.401870  -14.425650

 Total Charge           Charge          ....    0
 Multiplicity           Mult            ....    1
 Number of Electrons    NEL             ....  548
 Basis Dimension        Dim             .... 1123

ORBITAL ENERGIES
----------------

  NO   OCC          E(Eh)            E(eV)
   0   2.0000    -482.870543    -13139.5755
   1   2.0000     -88.990909     -2421.5658
   2   2.0000     -88.970712     -2421.0161
   3   2.0000     -88.966159     -2420.8923
   4   2.0000     -88.962692     -2420.7979
   5   2.0000     -88.958903     -2420.6948
   6   2.0000     -88.955673     -2420.6069
   7   2.0000     -88.950198     -2420.4579
   8   2.0000     -88.947591     -2420.3870
   9   2.0000     -62.548264     -1702.0248
  10   2.0000     -56.382189     -1534.2373
  11   2.0000     -56.379523     -1534.1648
  12   2.0000     -56.379478     -1534.1636
  13   2.0000     -19.237184      -523.4704
  14   2.0000     -19.236471      -523.4510
  15   2.0000     -19.182827      -521.9913
  16   2.0000     -14.648829      -398.6149
  17   2.0000     -14.500308      -394.5734
  18   2.0000     -14.386237      -391.4694
  19   2.0000     -14.384588      -391.4245
  20   2.0000     -10.380999      -282.4813
  21   2.0000     -10.344704      -281.4937
  22   2.0000     -10.344112      -281.4776
  23   2.0000     -10.339662      -281.3565
  24   2.0000     -10.335634      -281.2469
  25   2.0000     -10.329702      -281.0855
  26   2.0000     -10.328549      -281.0541
  27   2.0000     -10.327890      -281.0362
  28   2.0000     -10.327272      -281.0194
  29   2.0000     -10.325645      -280.9751
  30   2.0000     -10.324809      -280.9523
  31   2.0000     -10.324327      -280.9392
  32   2.0000     -10.322116      -280.8791
  33   2.0000     -10.317574      -280.7554
  34   2.0000     -10.315414      -280.6967
  35   2.0000     -10.314764      -280.6790
  36   2.0000     -10.308978      -280.5216
  37   2.0000     -10.308330      -280.5039
  38   2.0000     -10.307841      -280.4906
  39   2.0000     -10.307827      -280.4902
  40   2.0000     -10.307510      -280.4816
  41   2.0000     -10.305935      -280.4387
  42   2.0000     -10.305929      -280.4386
  43   2.0000     -10.305673      -280.4316
  44   2.0000     -10.304606      -280.4026
  45   2.0000     -10.303056      -280.3604
  46   2.0000     -10.302869      -280.3553
  47   2.0000     -10.301943      -280.3301
  48   2.0000     -10.301722      -280.3241
  49   2.0000     -10.301028      -280.3052
  50   2.0000     -10.300634      -280.2945
  51   2.0000     -10.299094      -280.2526
  52   2.0000     -10.297993      -280.2226
  53   2.0000     -10.297248      -280.2024
  54   2.0000     -10.295820      -280.1635
  55   2.0000     -10.293381      -280.0971
  56   2.0000     -10.290931      -280.0305
  57   2.0000     -10.290860      -280.0285
  58   2.0000     -10.289214      -279.9837
  59   2.0000     -10.284102      -279.8446
  60   2.0000     -10.283738      -279.8347
  61   2.0000     -10.281002      -279.7603
  62   2.0000     -10.280558      -279.7482
  63   2.0000     -10.280011      -279.7333
  64   2.0000     -10.278504      -279.6923
  65   2.0000     -10.278274      -279.6861
  66   2.0000     -10.275181      -279.6019
  67   2.0000     -10.273555      -279.5576
  68   2.0000     -10.264863      -279.3211
  69   2.0000     -10.264767      -279.3185
  70   2.0000     -10.258668      -279.1525
  71   2.0000      -8.777686      -238.8530
  72   2.0000      -8.086342      -220.0406
  73   2.0000      -8.066390      -219.4976
  74   2.0000      -8.062485      -219.3914
  75   2.0000      -8.058963      -219.2955
  76   2.0000      -8.055177      -219.1925
  77   2.0000      -8.051590      -219.0949
  78   2.0000      -8.046945      -218.9685
  79   2.0000      -8.042721      -218.8536
  80   2.0000      -6.613884      -179.9729
  81   2.0000      -6.599440      -179.5799
  82   2.0000      -6.599328      -179.5769
  83   2.0000      -6.056127      -164.7956
  84   2.0000      -6.051652      -164.6738
  85   2.0000      -6.047611      -164.5639
  86   2.0000      -6.036053      -164.2493
  87   2.0000      -6.032051      -164.1405
  88   2.0000      -6.031935      -164.1373
  89   2.0000      -6.028842      -164.0531
  90   2.0000      -6.028043      -164.0314
  91   2.0000      -6.027623      -164.0200
  92   2.0000      -6.024931      -163.9467
  93   2.0000      -6.024699      -163.9404
  94   2.0000      -6.023720      -163.9137
  95   2.0000      -6.021291      -163.8477
  96   2.0000      -6.020666      -163.8306
  97   2.0000      -6.019553      -163.8004
  98   2.0000      -6.017042      -163.7320
  99   2.0000      -6.016789      -163.7252
 100   2.0000      -6.016501      -163.7173
 101   2.0000      -6.012897      -163.6192
 102   2.0000      -6.012824      -163.6173
 103   2.0000      -6.012151      -163.5989
 104   2.0000      -6.007820      -163.4811
 105   2.0000      -6.007417      -163.4701
 106   2.0000      -6.004593      -163.3933
 107   2.0000      -2.729729       -74.2797
 108   2.0000      -2.725743       -74.1712
 109   2.0000      -2.725622       -74.1679
 110   2.0000      -2.714155       -73.8559
 111   2.0000      -2.714136       -73.8554
 112   2.0000      -1.316610       -35.8268
 113   2.0000      -1.135730       -30.9048
 114   2.0000      -1.107158       -30.1273
 115   2.0000      -1.096663       -29.8417
 116   2.0000      -1.016212       -27.6525
 117   2.0000      -1.013140       -27.5689
 118   2.0000      -1.003056       -27.2946
 119   2.0000      -1.002479       -27.2789
 120   2.0000      -0.998492       -27.1703
 121   2.0000      -0.993831       -27.0435
 122   2.0000      -0.985836       -26.8260
 123   2.0000      -0.980754       -26.6877
 124   2.0000      -0.975846       -26.5541
 125   2.0000      -0.964636       -26.2491
 126   2.0000      -0.961595       -26.1663
 127   2.0000      -0.936571       -25.4854
 128   2.0000      -0.920645       -25.0520
 129   2.0000      -0.918330       -24.9890
 130   2.0000      -0.909350       -24.7447
 131   2.0000      -0.896114       -24.3845
 132   2.0000      -0.889237       -24.1974
 133   2.0000      -0.884236       -24.0613
 134   2.0000      -0.881434       -23.9850
 135   2.0000      -0.871196       -23.7065
 136   2.0000      -0.864153       -23.5148
 137   2.0000      -0.861571       -23.4445
 138   2.0000      -0.861087       -23.4314
 139   2.0000      -0.858245       -23.3540
 140   2.0000      -0.853908       -23.2360
 141   2.0000      -0.848905       -23.0999
 142   2.0000      -0.844044       -22.9676
 143   2.0000      -0.837682       -22.7945
 144   2.0000      -0.834277       -22.7018
 145   2.0000      -0.824297       -22.4303
 146   2.0000      -0.821666       -22.3587
 147   2.0000      -0.808530       -22.0012
 148   2.0000      -0.806079       -21.9345
 149   2.0000      -0.800937       -21.7946
 150   2.0000      -0.783347       -21.3160
 151   2.0000      -0.768037       -20.8993
 152   2.0000      -0.759336       -20.6626
 153   2.0000      -0.742927       -20.2161
 154   2.0000      -0.734421       -19.9846
 155   2.0000      -0.730247       -19.8710
 156   2.0000      -0.721646       -19.6370
 157   2.0000      -0.713283       -19.4094
 158   2.0000      -0.701192       -19.0804
 159   2.0000      -0.695371       -18.9220
 160   2.0000      -0.690854       -18.7991
 161   2.0000      -0.684960       -18.6387
 162   2.0000      -0.670844       -18.2546
 163   2.0000      -0.666452       -18.1351
 164   2.0000      -0.661776       -18.0079
 165   2.0000      -0.656348       -17.8601
 166   2.0000      -0.651694       -17.7335
 167   2.0000      -0.645816       -17.5735
 168   2.0000      -0.642306       -17.4780
 169   2.0000      -0.638223       -17.3669
 170   2.0000      -0.635747       -17.2996
 171   2.0000      -0.633513       -17.2388
 172   2.0000      -0.633252       -17.2317
 173   2.0000      -0.630008       -17.1434
 174   2.0000      -0.628811       -17.1108
 175   2.0000      -0.628632       -17.1060
 176   2.0000      -0.615103       -16.7378
 177   2.0000      -0.612163       -16.6578
 178   2.0000      -0.606872       -16.5138
 179   2.0000      -0.606330       -16.4991
 180   2.0000      -0.601397       -16.3649
 181   2.0000      -0.599844       -16.3226
 182   2.0000      -0.595276       -16.1983
 183   2.0000      -0.589570       -16.0430
 184   2.0000      -0.582691       -15.8558
 185   2.0000      -0.575072       -15.6485
 186   2.0000      -0.571268       -15.5450
 187   2.0000      -0.567060       -15.4305
 188   2.0000      -0.557734       -15.1767
 189   2.0000      -0.555175       -15.1071
 190   2.0000      -0.549884       -14.9631
 191   2.0000      -0.548338       -14.9210
 192   2.0000      -0.542910       -14.7733
 193   2.0000      -0.536685       -14.6039
 194   2.0000      -0.531028       -14.4500
 195   2.0000      -0.526780       -14.3344
 196   2.0000      -0.525816       -14.3082
 197   2.0000      -0.524017       -14.2592
 198   2.0000      -0.519277       -14.1303
 199   2.0000      -0.517383       -14.0787
 200   2.0000      -0.516522       -14.0553
 201   2.0000      -0.514321       -13.9954
 202   2.0000      -0.510916       -13.9027
 203   2.0000      -0.508073       -13.8254
 204   2.0000      -0.507380       -13.8065
 205   2.0000      -0.504876       -13.7384
 206   2.0000      -0.502831       -13.6827
 207   2.0000      -0.501633       -13.6501
 208   2.0000      -0.501442       -13.6449
 209   2.0000      -0.497730       -13.5439
 210   2.0000      -0.496377       -13.5071
 211   2.0000      -0.491726       -13.3805
 212   2.0000      -0.488397       -13.2900
 213   2.0000      -0.485527       -13.2119
 214   2.0000      -0.484356       -13.1800
 215   2.0000      -0.481779       -13.1099
 216   2.0000      -0.480868       -13.0851
 217   2.0000      -0.479359       -13.0440
 218   2.0000      -0.475420       -12.9368
 219   2.0000      -0.474118       -12.9014
 220   2.0000      -0.469865       -12.7857
 221   2.0000      -0.469309       -12.7706
 222   2.0000      -0.465500       -12.6669
 223   2.0000      -0.460030       -12.5180
 224   2.0000      -0.458451       -12.4751
 225   2.0000      -0.455822       -12.4035
 226   2.0000      -0.454300       -12.3621
 227   2.0000      -0.450285       -12.2529
 228   2.0000      -0.448885       -12.2148
 229   2.0000      -0.445051       -12.1105
 230   2.0000      -0.441340       -12.0095
 231   2.0000      -0.436766       -11.8850
 232   2.0000      -0.436140       -11.8680
 233   2.0000      -0.435309       -11.8454
 234   2.0000      -0.433003       -11.7826
 235   2.0000      -0.427238       -11.6257
 236   2.0000      -0.424667       -11.5558
 237   2.0000      -0.421230       -11.4622
 238   2.0000      -0.417650       -11.3648
 239   2.0000      -0.415557       -11.3079
 240   2.0000      -0.415254       -11.2996
 241   2.0000      -0.413439       -11.2502
 242   2.0000      -0.413301       -11.2465
 243   2.0000      -0.400501       -10.8982
 244   2.0000      -0.397778       -10.8241
 245   2.0000      -0.395744       -10.7687
 246   2.0000      -0.393988       -10.7210
 247   2.0000      -0.390879       -10.6364
 248   2.0000      -0.385590       -10.4924
 249   2.0000      -0.383879       -10.4459
 250   2.0000      -0.379594       -10.3293
 251   2.0000      -0.377610       -10.2753
 252   2.0000      -0.370399       -10.0791
 253   2.0000      -0.365776        -9.9533
 254   2.0000      -0.363774        -9.8988
 255   2.0000      -0.360416        -9.8074
 256   2.0000      -0.355753        -9.6805
 257   2.0000      -0.353326        -9.6145
 258   2.0000      -0.350725        -9.5437
 259   2.0000      -0.348085        -9.4719
 260   2.0000      -0.342517        -9.3204
 261   2.0000      -0.341226        -9.2852
 262   2.0000      -0.336574        -9.1586
 263   2.0000      -0.332742        -9.0544
 264   2.0000      -0.324444        -8.8286
 265   2.0000      -0.317811        -8.6481
 266   2.0000      -0.303084        -8.2473
 267   2.0000      -0.296398        -8.0654
 268   2.0000      -0.287180        -7.8146
 269   2.0000      -0.280144        -7.6231
 270   2.0000      -0.270294        -7.3551
 271   2.0000      -0.249075        -6.7777
 272   2.0000      -0.230139        -6.2624
 273   2.0000      -0.201460        -5.4820
 274   0.0000      -0.123919        -3.3720
 275   0.0000      -0.079631        -2.1669
 276   0.0000      -0.070290        -1.9127
 277   0.0000      -0.048112        -1.3092
 278   0.0000      -0.044051        -1.1987

MULLIKEN ATOMIC CHARGES
-----------------------
   0 C :   -0.026922
   1 C :   -0.064235
   2 C :    0.055214
   3 C :    0.029248
   4 C :   -0.065074
   5 S :    0.070946
   6 C :   -0.049090
   7 C :    0.033394
   8 C :    0.039178
   9 C :   -0.037433
  10 S :    0.032345
  11 C :    0.018756
  12 N :   -0.023321
  13 C :   -0.116568
  14 S :    0.150899
  15 C :   -0.004563
  16 N :    0.279000
  17 O :   -0.256566
  18 O :   -0.272179
  19 C :    0.015233
  20 C :    0.103362
  21 C :   -0.010387
  22 C :   -0.034361
  23 C :    0.009674
  24 C :   -0.033204
  25 C :    0.044041
  26 C :    0.020181
  27 C :   -0.021910
  28 S :    0.071633
  29 C :   -0.048823
  30 C :    0.028669
  31 C :    0.024184
  32 C :   -0.016605
  33 S :    0.093270
  34 C :   -0.016844
  35 C :    0.012801
  36 C :   -0.041444
  37 C :    0.041421
  38 C :    0.009400
  39 C :   -0.024388
  40 S :    0.112103
  41 C :   -0.073419
  42 C :    0.034333
  43 C :    0.018860
  44 C :    0.002626
  45 S :    0.177593
  46 C :   -0.016819
  47 C :   -0.006684
  48 C :   -0.113957
  49 C :    0.305418
  50 C :   -0.364960
  51 C :   -0.189206
  52 N :    0.131396
  53 C :   -0.210924
  54 N :    0.146718
  55 C :    0.011838
  56 C :   -0.003383
  57 C :    0.115756
  58 O :   -0.180853
  59 C :   -0.086638
  60 C :    0.119330
  61 C :   -0.095611
  62 C :   -0.026980
  63 S :    0.172680
  64 C :   -0.122807
  65 C :    0.033040
  66 Br:    0.003342
  67 H :    0.023789
  68 H :    0.022660
  69 H :   -0.008252
  70 H :   -0.008868
  71 H :   -0.010397
  72 H :   -0.007822
  73 H :    0.025422
  74 H :    0.148076
  75 H :    0.011963
  76 H :    0.004608
  77 H :   -0.015205
  78 H :   -0.003514
  79 H :   -0.004922
  80 H :   -0.008235
  81 H :   -0.005909
  82 H :   -0.002818
  83 H :    0.002125
  84 H :    0.001721
  85 H :   -0.005503
  86 H :   -0.008645
  87 H :   -0.015241
  88 H :   -0.012574
  89 H :   -0.008518
  90 H :    0.020039
  91 H :   -0.021799
  92 H :   -0.012798
  93 H :   -0.011106
Sum of atomic charges:   -0.0000000

LOEWDIN ATOMIC CHARGES
----------------------
   0 C :   -0.072310
   1 C :   -0.139142
   2 C :   -0.027688
   3 C :   -0.026445
   4 C :   -0.177181
   5 S :    0.344808
   6 C :   -0.178202
   7 C :   -0.033312
   8 C :   -0.031719
   9 C :   -0.174651
  10 S :    0.334523
  11 C :   -0.022242
  12 N :    0.058639
  13 C :   -0.090140
  14 S :    0.450601
  15 C :   -0.215215
  16 N :    0.274126
  17 O :   -0.222177
  18 O :   -0.238679
  19 C :    0.009184
  20 C :   -0.109582
  21 C :   -0.008710
  22 C :   -0.070182
  23 C :   -0.035285
  24 C :   -0.154811
  25 C :   -0.015894
  26 C :   -0.044249
  27 C :   -0.159756
  28 S :    0.399856
  29 C :   -0.186775
  30 C :   -0.020438
  31 C :   -0.040847
  32 C :   -0.128118
  33 S :    0.392899
  34 C :   -0.071578
  35 C :   -0.025888
  36 C :   -0.165140
  37 C :   -0.016581
  38 C :   -0.048067
  39 C :   -0.140991
  40 S :    0.407355
  41 C :   -0.203242
  42 C :   -0.026691
  43 C :   -0.046784
  44 C :   -0.110635
  45 S :    0.483279
  46 C :   -0.081520
  47 C :    0.034587
  48 C :   -0.129339
  49 C :    0.075549
  50 C :   -0.160712
  51 C :   -0.018563
  52 N :   -0.075557
  53 C :   -0.024997
  54 N :   -0.069995
  55 C :   -0.018880
  56 C :   -0.043337
  57 C :    0.052584
  58 O :   -0.182940
  59 C :    0.008653
  60 C :   -0.038660
  61 C :   -0.149860
  62 C :   -0.015792
  63 S :    0.421304
  64 C :   -0.278615
  65 C :   -0.072500
  66 Br:    0.121326
  67 H :    0.030450
  68 H :    0.026915
  69 H :    0.034993
  70 H :    0.033300
  71 H :    0.033881
  72 H :    0.035395
  73 H :    0.030580
  74 H :    0.084485
  75 H :    0.047092
  76 H :    0.017459
  77 H :    0.022821
  78 H :    0.039898
  79 H :    0.036697
  80 H :    0.034190
  81 H :    0.034985
  82 H :    0.037547
  83 H :    0.032047
  84 H :    0.031565
  85 H :    0.036602
  86 H :    0.033694
  87 H :    0.030920
  88 H :    0.033043
  89 H :    0.037510
  90 H :    0.044773
  91 H :    0.036080
  92 H :    0.038910
  93 H :    0.035508

  Mayer bond orders larger than 0.100000
B(  0-C ,  1-C ) :   1.8682 B(  0-C , 67-H ) :   0.9507 B(  0-C , 68-H ) :   0.9419
B(  1-C ,  2-C ) :   1.0780 B(  1-C ,  5-S ) :   1.0050 B(  2-C ,  3-C ) :   1.6690
B(  2-C , 69-H ) :   0.9928 B(  3-C ,  4-C ) :   1.1473 B(  3-C , 70-H ) :   0.9916
B(  4-C ,  5-S ) :   1.0422 B(  4-C ,  6-C ) :   1.5745 B(  6-C ,  7-C ) :   1.1661
B(  6-C , 10-S ) :   1.0296 B(  7-C ,  8-C ) :   1.6323 B(  7-C , 71-H ) :   0.9908
B(  8-C ,  9-C ) :   1.1426 B(  8-C , 72-H ) :   0.9945 B(  9-C , 10-S ) :   1.0127
B(  9-C , 11-C ) :   1.6213 B( 11-C , 12-N ) :   1.1243 B( 11-C , 73-H ) :   0.9593
B( 12-N , 13-C ) :   1.2713 B( 12-N , 74-H ) :   0.8951 B( 13-C , 14-S ) :   1.1360
B( 13-C , 20-C ) :   1.3007 B( 14-S , 15-C ) :   1.0519 B( 15-C , 16-N ) :   0.9843
B( 15-C , 19-C ) :   1.4901 B( 16-N , 17-O ) :   1.5267 B( 16-N , 18-O ) :   1.5013
B( 17-O , 18-O ) :   0.2534 B( 19-C , 20-C ) :   1.2165 B( 19-C , 75-H ) :   1.0058
B( 20-C , 21-C ) :   1.1682 B( 21-C , 22-C ) :   1.5654 B( 21-C , 76-H ) :   0.9414
B( 22-C , 23-C ) :   1.2408 B( 22-C , 77-H ) :   0.9528 B( 23-C , 24-C ) :   1.5408
B( 23-C , 78-H ) :   0.9597 B( 24-C , 25-C ) :   1.1769 B( 24-C , 28-S ) :   1.0369
B( 25-C , 26-C ) :   1.5467 B( 25-C , 79-H ) :   0.9992 B( 26-C , 27-C ) :   1.2283
B( 26-C , 80-H ) :   0.9949 B( 27-C , 28-S ) :   1.0677 B( 27-C , 29-C ) :   1.4180
B( 29-C , 30-C ) :   1.2561 B( 29-C , 33-S ) :   1.0538 B( 30-C , 31-C ) :   1.4988
B( 30-C , 81-H ) :   0.9951 B( 31-C , 32-C ) :   1.2281 B( 31-C , 82-H ) :   1.0017
B( 32-C , 33-S ) :   1.0740 B( 32-C , 34-C ) :   1.4259 B( 34-C , 35-C ) :   1.2986
B( 34-C , 83-H ) :   0.9745 B( 35-C , 36-C ) :   1.4361 B( 35-C , 84-H ) :   0.9715
B( 36-C , 37-C ) :   1.2347 B( 36-C , 40-S ) :   1.0488 B( 37-C , 38-C ) :   1.4840
B( 37-C , 85-H ) :   1.0011 B( 38-C , 39-C ) :   1.2690 B( 38-C , 86-H ) :   0.9955
B( 39-C , 40-S ) :   1.0974 B( 39-C , 41-C ) :   1.3741 B( 41-C , 42-C ) :   1.2477
B( 41-C , 45-S ) :   1.0880 B( 42-C , 43-C ) :   1.5047 B( 42-C , 87-H ) :   0.9931
B( 43-C , 44-C ) :   1.2231 B( 43-C , 88-H ) :   0.9986 B( 44-C , 45-S ) :   1.1366
B( 44-C , 46-C ) :   1.3795 B( 46-C , 47-C ) :   1.4255 B( 46-C , 89-H ) :   0.9487
B( 47-C , 48-C ) :   1.3626 B( 47-C , 90-H ) :   0.9388 B( 48-C , 49-C ) :   1.1372
B( 48-C , 57-C ) :   1.0193 B( 49-C , 50-C ) :   1.5831 B( 49-C , 55-C ) :   0.9850
B( 50-C , 51-C ) :   1.1503 B( 50-C , 53-C ) :   1.1501 B( 51-C , 52-N ) :   2.9623
B( 53-C , 54-N ) :   2.9950 B( 55-C , 56-C ) :   1.2791 B( 55-C , 62-C ) :   1.4254
B( 56-C , 57-C ) :   0.9259 B( 56-C , 59-C ) :   1.4382 B( 57-C , 58-O ) :   2.1553
B( 59-C , 60-C ) :   1.2281 B( 59-C , 91-H ) :   1.0168 B( 60-C , 61-C ) :   1.3293
B( 60-C , 65-C ) :   1.1584 B( 61-C , 62-C ) :   1.3109 B( 61-C , 63-S ) :   1.0780
B( 62-C , 92-H ) :   0.9808 B( 63-S , 64-C ) :   1.0862 B( 64-C , 65-C ) :   1.6203
B( 64-C , 66-Br) :   1.0060 B( 65-C , 93-H ) :   1.0004

-----------------------------------------------------------------------------
         ABSORPTION SPECTRUM VIA TRANSITION ELECTRIC DIPOLE MOMENTS
-----------------------------------------------------------------------------
State   Energy  Wavelength   fosc         T2         TX        TY        TZ
        (cm-1)    (nm)                  (au**2)     (au)      (au)      (au)
-----------------------------------------------------------------------------
   0    5612.8   1781.6   1.080021233  63.34727  -0.59768   5.28626   5.91993
   1   12274.7    814.7   0.027353412   0.73363  -0.12780   0.34362   0.77409
   2   14200.9    704.2   0.013186248   0.30569  -0.37292  -0.14360   0.38210
   3   16500.5    606.0   0.180522631   3.60173  -1.55355   0.96828   0.50066
   4   17561.3    569.4   0.264127749   4.95147   0.81917   0.14310  -2.06396
   5   19699.1    507.6   0.036498307   0.60996  -0.72768  -0.07240   0.27423
   6   20306.4    492.5   0.356548447   5.78044  -1.60374   0.17012   1.78312
   7   20692.0    483.3   0.286276128   4.55469  -1.97044  -0.50809   0.64335
   8   21879.4    457.1   0.019664307   0.29588  -0.25413   0.47640  -0.06587
   9   21969.4    455.2   0.160701299   2.40811  -1.46735  -0.34661   0.36723
  10   23710.0    421.8   0.358455601   4.97714   2.13363  -0.41966   0.49862
  11   24425.6    409.4   0.394634476   5.31895  -2.27299   0.25655   0.29435
  12   25352.8    394.4   0.087697604   1.13877   1.01286  -0.24786   0.22683
  13   25607.0    390.5   0.404545239   5.20096   2.20497   0.04984   0.58016
  14   26033.3    384.1   0.038624540   0.48844   0.68112  -0.01092   0.15619
  15   26621.4    375.6   0.374597744   4.63244   2.11160   0.22294   0.35196
  16   27246.6    367.0   0.125234523   1.51317   1.19594   0.17301  -0.23014
  17   28179.2    354.9   0.109420705   1.27834   1.11893   0.06060   0.15053
  18   28557.5    350.2   0.013709419   0.15804  -0.24800   0.30505   0.05901
  19   28980.2    345.1   0.033802399   0.38399   0.54795  -0.03464   0.28731
  20   29515.6    338.8   0.015574165   0.17371  -0.01496  -0.41566   0.02677
  21   29778.4    335.8   0.035589659   0.39346   0.26306  -0.56501  -0.07085
  22   30604.1    326.8   0.043103253   0.46367  -0.42961  -0.42374   0.31551
  23   30755.7    325.1   0.095857091   1.02606  -0.69900   0.72502  -0.10863
  24   31052.4    322.0   0.410525651   4.35232   1.52380  -1.29125   0.60250
  25   31365.7    318.8   0.011298080   0.11858  -0.27893  -0.16531  -0.11600
  26   31400.9    318.5   0.011513261   0.12071  -0.06970  -0.32125  -0.11247
  27   31925.6    313.2   0.009805607   0.10111  -0.04311  -0.09637  -0.29995
  28   32376.4    308.9   0.034861169   0.35448   0.09342   0.50241   0.30551
  29   32505.3    307.6   0.088635165   0.89769   0.00668  -0.91261  -0.25453
  30   32620.7    306.6   0.120386053   1.21495  -0.86007  -0.19446  -0.66137
  31   32789.2    305.0   0.059410592   0.59650   0.27329  -0.72197  -0.02388
  32   33292.4    300.4   0.072294751   0.71489   0.48533   0.64475  -0.25228
  33   33674.1    297.0   0.053796069   0.52593   0.60419   0.39268  -0.08180
  34   33810.9    295.8   0.012737241   0.12402   0.08940   0.23622  -0.24541
  35   34046.4    293.7   0.034699739   0.33553  -0.05610  -0.52165   0.24549
  36   34574.7    289.2   0.013041186   0.12417  -0.14999  -0.29142  -0.12943
  37   34743.0    287.8   0.131819523   1.24907   0.04822   1.11508  -0.05782
  38   35067.5    285.2   0.029651810   0.27837   0.00747  -0.52621  -0.03758
  39   35281.3    283.4   0.013412788   0.12516   0.09592  -0.33866  -0.03556
  40   35538.5    281.4   0.009339572   0.08652   0.13994   0.25872  -0.00064
  41   35593.6    280.9   0.116698094   1.07936  -0.26848   0.97727   0.22852
  42   36213.3    276.1   0.071080585   0.64619  -0.46761  -0.65360   0.01827
  43   36340.8    275.2   0.050618849   0.45856   0.09804   0.53855   0.39863
  44   36414.2    274.6   0.017825137   0.16115   0.32336  -0.05932  -0.23037
  45   37198.3    268.8   0.026829325   0.23744   0.44982  -0.13088  -0.13408
  46   37619.9    265.8   0.011683221   0.10224  -0.01859  -0.31263  -0.06447
  47   37714.1    265.2   0.065978332   0.57593  -0.64211   0.37511   0.15141
  48   37996.9    263.2   0.009924742   0.08599  -0.23000  -0.16885   0.06768
  49   38430.4    260.2   0.052500518   0.44974  -0.64796   0.17284   0.00444
  50   38622.7    258.9   0.017809544   0.15180   0.27554   0.09604   0.25818
  51   38764.4    258.0   0.099757127   0.84720   0.82313  -0.26184  -0.31796
  52   39042.2    256.1   0.038997665   0.32884   0.16371  -0.01588  -0.54935
  53   39268.8    254.7   0.020479401   0.17169  -0.40342   0.08971   0.02998
  54   39310.8    254.4   0.084802633   0.71019   0.36735   0.73324   0.19390
  55   39542.1    252.9   0.016124414   0.13425  -0.08446   0.27113   0.23153
  56   39555.9    252.8   0.039322714   0.32727   0.18542   0.46189   0.28204
  57   39822.3    251.1   0.027041118   0.22355   0.42576  -0.20549  -0.00685
  58   39877.4    250.8   0.032486306   0.26819  -0.39839   0.29827   0.14321
  59   39972.5    250.2   0.043939542   0.36188   0.43397  -0.41368   0.04922
  60   40201.5    248.7   0.025150398   0.20596   0.28250   0.35429  -0.02501

FINAL SINGLE POINT ENERGY     -8159.553981270482

DIPOLE MOMENT
-------------
                                X             Y             Z
Electronic contribution:    -51.01914     -33.36833    -152.47889
Nuclear contribution   :     50.06475      40.03342     160.33954
                        -----------------------------------------
Total Dipole Moment    :     -0.95439       6.66509       7.86065
                        -----------------------------------------
Magnitude (a.u.)       :     10.35008
Magnitude (Debye)      :     26.30781

Rotational constants in cm-1:     0.001121     0.000181     0.000168
Rotational constants in MHz :    33.593825     5.434604     5.041846

                             ****ORCA TERMINATED NORMALLY****
TOTAL RUN TIME: 0 days 0 hours 16 minutes 18 seconds 49 msec
