                         Program Version 4.2.0 -  RELEASE  -
|  1> # ORCA input file
|  2> # SCF done       -152.352451808206          0.000882543395
|  3> ! CAM-B3LYP def2-SVP def2/J RIJCOSX Grid4 TightSCF
|  4> %maxcore 5000
|  5> %tddft
|  6>     Mode sTDDFT
|  7>     Ethresh 5.0
|  8>     maxcore 5000
|  9> end
| 10>
| 11> %pal
| 12>   nprocs 6
| 13>   end
| 14> * xyz 0 1
| 15>    C       13.89529        -8.03370        -6.07901
| 16>    C       13.31866        -7.30764        -5.11341
| 17>    C       13.91732        -6.27340        -4.31598
| 18>    C       13.08724        -5.71528        -3.41085
| 19>    C       11.76764        -6.25765        -3.41223
| 20>    S       11.62778        -7.51142        -4.62653
| 21>    C       10.72040        -5.89176        -2.60670
| 22>    C       10.70312        -4.91397        -1.57700
| 23>    C        9.50706        -4.78449        -0.95622
| 24>    C        8.49152        -5.66297        -1.44132
| 25>    S        9.13932        -6.64458        -2.74859
| 26>    C        7.20318        -5.65458        -1.00295
| 27>    N        6.18288        -6.49009        -1.36506
| 28>    C        6.23299        -7.79118        -1.72204
| 29>    S        7.61884        -8.79453        -1.42552
| 30>    C        6.68044       -10.20051        -1.85466
| 31>    N        7.22065       -11.45688        -1.67073
| 32>    O        6.43877       -12.41231        -1.70435
| 33>    O        8.41416       -11.55003        -1.42847
| 34>    C        5.40078        -9.89199        -2.25095
| 35>    C        5.11486        -8.52410        -2.18161
| 36>    C        3.83439        -7.93230        -2.43867
| 37>    C        2.70332        -8.64135        -2.63389
| 38>    C        1.41388        -8.06377        -2.82255
| 39>    S        1.26813        -6.34274        -3.12116
| 40>    C       -0.44906        -6.43498        -3.22821
| 41>    C       -0.87809        -7.70161        -3.04423
| 42>    C        0.15801        -8.64380        -2.80267
| 43>    C       -0.37898        -9.98420        -2.61031
| 44>    C       -1.71962       -10.03617        -2.73990
| 45>    S       -2.53836        -8.44010        -3.00792
| 46>    O       -3.06549        -8.41138        -4.37006
| 47>    N        0.46633       -11.03314        -2.30806
| 48>    C        0.24144       -12.37042        -2.38624
| 49>    S       -1.19540       -13.03948        -3.08121
| 50>    C       -0.52694       -14.63472        -2.92232
| 51>    N       -1.31345       -15.71129        -3.33402
| 52>    O       -0.84974       -16.83160        -3.21939
| 53>    O       -2.41787       -15.44380        -3.77896
| 54>    C        0.72560       -14.63874        -2.37163
| 55>    C        1.18088       -13.35155        -2.03475
| 56>    C        2.47000       -13.15093        -1.41482
| 57>    C        2.82865       -12.14474        -0.60151
| 58>    N        4.07751       -12.06056        -0.03538
| 59>    C        4.55636       -10.96135         0.58142
| 60>    S        3.67998        -9.46161         0.55025
| 61>    C        5.05264        -8.66254         1.26327
| 62>    N        5.04965        -7.28834         1.28060
| 63>    O        4.11047        -6.72167         0.71149
| 64>    O        6.00039        -6.69904         1.77982
| 65>    C        6.08278        -9.52773         1.56162
| 66>    C        5.81578       -10.84729         1.19017
| 67>    C        6.71250       -11.97705         1.36621
| 68>    C        8.01866       -11.87483         1.58122
| 69>    H       14.92668        -7.87753        -6.34200
| 70>    H       13.35484        -8.79026        -6.61747
| 71>    H       14.94713        -5.99867        -4.46021
| 72>    H       13.36730        -4.92932        -2.73244
| 73>    H       11.57853        -4.34252        -1.32735
| 74>    H        9.30453        -4.10167        -0.15101
| 75>    H        6.91367        -4.88738        -0.29855
| 76>    H        5.24808        -6.13748        -1.17181
| 77>    H        4.72171       -10.65267        -2.58880
| 78>    H        3.76757        -6.85378        -2.42742
| 79>    H        2.76666        -9.71938        -2.65553
| 80>    H       -1.02050        -5.55199        -3.42936
| 81>    H       -2.34763       -10.89624        -2.61832
| 82>    H        1.42144       -10.77322        -2.10051
| 83>    H        1.28196       -15.54253        -2.20177
| 84>    H        3.19197       -13.93409        -1.60461
| 85>    H        2.14871       -11.36593        -0.28455
| 86>    H        4.76385       -12.75982        -0.31128
| 87>    H        6.99579        -9.18854         2.01474
| 88>    H        6.25279       -12.95427         1.30572
| 89>    H        8.52555       -10.92637         1.61643
| 90>    H        8.63258       -12.74892         1.69995
| 91> *
| 92>
| 93>                          ****END OF INPUT****

CARTESIAN COORDINATES (ANGSTROEM)
---------------------------------
  C     13.895290   -8.033700   -6.079010
  C     13.318660   -7.307640   -5.113410
  C     13.917320   -6.273400   -4.315980
  C     13.087240   -5.715280   -3.410850
  C     11.767640   -6.257650   -3.412230
  S     11.627780   -7.511420   -4.626530
  C     10.720400   -5.891760   -2.606700
  C     10.703120   -4.913970   -1.577000
  C      9.507060   -4.784490   -0.956220
  C      8.491520   -5.662970   -1.441320
  S      9.139320   -6.644580   -2.748590
  C      7.203180   -5.654580   -1.002950
  N      6.182880   -6.490090   -1.365060
  C      6.232990   -7.791180   -1.722040
  S      7.618840   -8.794530   -1.425520
  C      6.680440  -10.200510   -1.854660
  N      7.220650  -11.456880   -1.670730
  O      6.438770  -12.412310   -1.704350
  O      8.414160  -11.550030   -1.428470
  C      5.400780   -9.891990   -2.250950
  C      5.114860   -8.524100   -2.181610
  C      3.834390   -7.932300   -2.438670
  C      2.703320   -8.641350   -2.633890
  C      1.413880   -8.063770   -2.822550
  S      1.268130   -6.342740   -3.121160
  C     -0.449060   -6.434980   -3.228210
  C     -0.878090   -7.701610   -3.044230
  C      0.158010   -8.643800   -2.802670
  C     -0.378980   -9.984200   -2.610310
  C     -1.719620  -10.036170   -2.739900
  S     -2.538360   -8.440100   -3.007920
  O     -3.065490   -8.411380   -4.370060
  N      0.466330  -11.033140   -2.308060
  C      0.241440  -12.370420   -2.386240
  S     -1.195400  -13.039480   -3.081210
  C     -0.526940  -14.634720   -2.922320
  N     -1.313450  -15.711290   -3.334020
  O     -0.849740  -16.831600   -3.219390
  O     -2.417870  -15.443800   -3.778960
  C      0.725600  -14.638740   -2.371630
  C      1.180880  -13.351550   -2.034750
  C      2.470000  -13.150930   -1.414820
  C      2.828650  -12.144740   -0.601510
  N      4.077510  -12.060560   -0.035380
  C      4.556360  -10.961350    0.581420
  S      3.679980   -9.461610    0.550250
  C      5.052640   -8.662540    1.263270
  N      5.049650   -7.288340    1.280600
  O      4.110470   -6.721670    0.711490
  O      6.000390   -6.699040    1.779820
  C      6.082780   -9.527730    1.561620
  C      5.815780  -10.847290    1.190170
  C      6.712500  -11.977050    1.366210
  C      8.018660  -11.874830    1.581220
  H     14.926680   -7.877530   -6.342000
  H     13.354840   -8.790260   -6.617470
  H     14.947130   -5.998670   -4.460210
  H     13.367300   -4.929320   -2.732440
  H     11.578530   -4.342520   -1.327350
  H      9.304530   -4.101670   -0.151010
  H      6.913670   -4.887380   -0.298550
  H      5.248080   -6.137480   -1.171810
  H      4.721710  -10.652670   -2.588800
  H      3.767570   -6.853780   -2.427420
  H      2.766660   -9.719380   -2.655530
  H     -1.020500   -5.551990   -3.429360
  H     -2.347630  -10.896240   -2.618320
  H      1.421440  -10.773220   -2.100510
  H      1.281960  -15.542530   -2.201770
  H      3.191970  -13.934090   -1.604610
  H      2.148710  -11.365930   -0.284550
  H      4.763850  -12.759820   -0.311280
  H      6.995790   -9.188540    2.014740
  H      6.252790  -12.954270    1.305720
  H      8.525550  -10.926370    1.616430
  H      8.632580  -12.748920    1.699950

 Total Charge           Charge          ....    0
 Multiplicity           Mult            ....    1
 Number of Electrons    NEL             ....  436
 Basis Dimension        Dim             ....  894

ORBITAL ENERGIES
----------------

  NO   OCC          E(Eh)            E(eV)
   0   2.0000     -89.041358     -2422.9385
   1   2.0000     -88.987698     -2421.4784
   2   2.0000     -88.987224     -2421.4655
   3   2.0000     -88.986885     -2421.4562
   4   2.0000     -88.973421     -2421.0899
   5   2.0000     -88.952284     -2420.5147
   6   2.0000     -88.941957     -2420.2337
   7   2.0000     -19.244495      -523.6693
   8   2.0000     -19.243791      -523.6502
   9   2.0000     -19.243125      -523.6321
  10   2.0000     -19.240480      -523.5601
  11   2.0000     -19.232293      -523.3373
  12   2.0000     -19.231723      -523.3218
  13   2.0000     -19.155343      -521.2434
  14   2.0000     -14.653565      -398.7438
  15   2.0000     -14.651050      -398.6753
  16   2.0000     -14.644371      -398.4936
  17   2.0000     -14.489932      -394.2911
  18   2.0000     -14.487066      -394.2131
  19   2.0000     -14.484265      -394.1369
  20   2.0000     -10.374749      -282.3113
  21   2.0000     -10.374059      -282.2925
  22   2.0000     -10.373440      -282.2756
  23   2.0000     -10.357687      -281.8470
  24   2.0000     -10.344754      -281.4951
  25   2.0000     -10.342271      -281.4275
  26   2.0000     -10.340263      -281.3729
  27   2.0000     -10.338232      -281.3176
  28   2.0000     -10.329954      -281.0923
  29   2.0000     -10.328927      -281.0644
  30   2.0000     -10.316800      -280.7344
  31   2.0000     -10.315471      -280.6982
  32   2.0000     -10.314774      -280.6793
  33   2.0000     -10.314535      -280.6728
  34   2.0000     -10.312412      -280.6150
  35   2.0000     -10.311675      -280.5949
  36   2.0000     -10.309885      -280.5462
  37   2.0000     -10.308649      -280.5126
  38   2.0000     -10.305883      -280.4373
  39   2.0000     -10.305798      -280.4350
  40   2.0000     -10.304862      -280.4095
  41   2.0000     -10.304391      -280.3967
  42   2.0000     -10.304181      -280.3910
  43   2.0000     -10.301646      -280.3221
  44   2.0000     -10.297932      -280.2210
  45   2.0000     -10.295209      -280.1469
  46   2.0000     -10.293388      -280.0973
  47   2.0000     -10.291258      -280.0394
  48   2.0000     -10.290549      -280.0201
  49   2.0000     -10.289105      -279.9808
  50   2.0000     -10.286237      -279.9027
  51   2.0000     -10.286004      -279.8964
  52   2.0000     -10.273827      -279.5651
  53   2.0000     -10.272068      -279.5172
  54   2.0000      -8.123109      -221.0410
  55   2.0000      -8.082216      -219.9283
  56   2.0000      -8.082185      -219.9274
  57   2.0000      -8.081190      -219.9004
  58   2.0000      -8.069008      -219.5689
  59   2.0000      -8.048373      -219.0074
  60   2.0000      -8.038695      -218.7440
  61   2.0000      -6.092475      -165.7847
  62   2.0000      -6.091839      -165.7674
  63   2.0000      -6.084574      -165.5697
  64   2.0000      -6.052014      -164.6837
  65   2.0000      -6.051847      -164.6791
  66   2.0000      -6.050831      -164.6515
  67   2.0000      -6.047697      -164.5662
  68   2.0000      -6.047298      -164.5553
  69   2.0000      -6.046510      -164.5339
  70   2.0000      -6.043781      -164.4596
  71   2.0000      -6.043466      -164.4511
  72   2.0000      -6.042642      -164.4286
  73   2.0000      -6.038481      -164.3154
  74   2.0000      -6.034076      -164.1955
  75   2.0000      -6.031003      -164.1119
  76   2.0000      -6.018185      -163.7631
  77   2.0000      -6.014047      -163.6506
  78   2.0000      -6.009124      -163.5166
  79   2.0000      -6.008538      -163.5006
  80   2.0000      -6.004603      -163.3936
  81   2.0000      -5.999191      -163.2463
  82   2.0000      -1.318876       -35.8884
  83   2.0000      -1.316178       -35.8150
  84   2.0000      -1.313124       -35.7319
  85   2.0000      -1.135697       -30.9039
  86   2.0000      -1.134619       -30.8746
  87   2.0000      -1.132017       -30.8038
  88   2.0000      -1.107819       -30.1453
  89   2.0000      -1.097120       -29.8542
  90   2.0000      -1.094034       -29.7702
  91   2.0000      -1.091927       -29.7128
  92   2.0000      -1.013886       -27.5892
  93   2.0000      -1.008978       -27.4557
  94   2.0000      -1.003445       -27.3051
  95   2.0000      -0.999764       -27.2050
  96   2.0000      -0.995811       -27.0974
  97   2.0000      -0.972767       -26.4703
  98   2.0000      -0.939351       -25.5610
  99   2.0000      -0.928466       -25.2649
 100   2.0000      -0.923637       -25.1334
 101   2.0000      -0.908779       -24.7291
 102   2.0000      -0.900283       -24.4979
 103   2.0000      -0.887929       -24.1618
 104   2.0000      -0.885419       -24.0935
 105   2.0000      -0.878620       -23.9085
 106   2.0000      -0.868579       -23.6352
 107   2.0000      -0.854083       -23.2408
 108   2.0000      -0.851472       -23.1697
 109   2.0000      -0.849467       -23.1152
 110   2.0000      -0.836395       -22.7595
 111   2.0000      -0.831687       -22.6314
 112   2.0000      -0.826716       -22.4961
 113   2.0000      -0.825110       -22.4524
 114   2.0000      -0.805378       -21.9154
 115   2.0000      -0.796423       -21.6718
 116   2.0000      -0.781928       -21.2774
 117   2.0000      -0.768504       -20.9121
 118   2.0000      -0.753917       -20.5151
 119   2.0000      -0.737279       -20.0624
 120   2.0000      -0.730789       -19.8858
 121   2.0000      -0.723607       -19.6903
 122   2.0000      -0.714774       -19.4500
 123   2.0000      -0.707065       -19.2402
 124   2.0000      -0.698498       -19.0071
 125   2.0000      -0.688716       -18.7409
 126   2.0000      -0.679899       -18.5010
 127   2.0000      -0.669785       -18.2258
 128   2.0000      -0.664264       -18.0756
 129   2.0000      -0.661014       -17.9871
 130   2.0000      -0.651494       -17.7280
 131   2.0000      -0.648543       -17.6478
 132   2.0000      -0.642011       -17.4700
 133   2.0000      -0.637988       -17.3605
 134   2.0000      -0.635626       -17.2963
 135   2.0000      -0.633965       -17.2511
 136   2.0000      -0.630480       -17.1562
 137   2.0000      -0.629015       -17.1164
 138   2.0000      -0.627531       -17.0760
 139   2.0000      -0.625936       -17.0326
 140   2.0000      -0.625634       -17.0244
 141   2.0000      -0.616480       -16.7753
 142   2.0000      -0.608395       -16.5553
 143   2.0000      -0.606879       -16.5140
 144   2.0000      -0.604225       -16.4418
 145   2.0000      -0.597853       -16.2684
 146   2.0000      -0.595928       -16.2160
 147   2.0000      -0.587987       -15.9999
 148   2.0000      -0.586473       -15.9587
 149   2.0000      -0.575000       -15.6466
 150   2.0000      -0.573235       -15.5985
 151   2.0000      -0.564904       -15.3718
 152   2.0000      -0.559705       -15.2303
 153   2.0000      -0.550903       -14.9908
 154   2.0000      -0.548264       -14.9190
 155   2.0000      -0.545734       -14.8502
 156   2.0000      -0.538465       -14.6524
 157   2.0000      -0.534898       -14.5553
 158   2.0000      -0.532631       -14.4936
 159   2.0000      -0.530643       -14.4395
 160   2.0000      -0.527802       -14.3622
 161   2.0000      -0.524923       -14.2839
 162   2.0000      -0.520068       -14.1518
 163   2.0000      -0.518620       -14.1124
 164   2.0000      -0.512721       -13.9519
 165   2.0000      -0.509954       -13.8766
 166   2.0000      -0.504507       -13.7283
 167   2.0000      -0.502190       -13.6653
 168   2.0000      -0.499447       -13.5906
 169   2.0000      -0.495070       -13.4715
 170   2.0000      -0.493546       -13.4301
 171   2.0000      -0.488140       -13.2830
 172   2.0000      -0.487333       -13.2610
 173   2.0000      -0.487237       -13.2584
 174   2.0000      -0.483695       -13.1620
 175   2.0000      -0.479273       -13.0417
 176   2.0000      -0.473430       -12.8827
 177   2.0000      -0.469531       -12.7766
 178   2.0000      -0.464557       -12.6412
 179   2.0000      -0.463837       -12.6217
 180   2.0000      -0.458661       -12.4808
 181   2.0000      -0.455489       -12.3945
 182   2.0000      -0.450549       -12.2601
 183   2.0000      -0.445523       -12.1233
 184   2.0000      -0.439983       -11.9725
 185   2.0000      -0.438229       -11.9248
 186   2.0000      -0.436667       -11.8823
 187   2.0000      -0.429802       -11.6955
 188   2.0000      -0.428166       -11.6510
 189   2.0000      -0.416726       -11.3397
 190   2.0000      -0.402559       -10.9542
 191   2.0000      -0.396988       -10.8026
 192   2.0000      -0.394984       -10.7481
 193   2.0000      -0.392522       -10.6811
 194   2.0000      -0.388304       -10.5663
 195   2.0000      -0.387527       -10.5452
 196   2.0000      -0.383845       -10.4449
 197   2.0000      -0.383282       -10.4296
 198   2.0000      -0.380607       -10.3568
 199   2.0000      -0.379432       -10.3249
 200   2.0000      -0.371969       -10.1218
 201   2.0000      -0.371591       -10.1115
 202   2.0000      -0.369462       -10.0536
 203   2.0000      -0.361116        -9.8265
 204   2.0000      -0.359713        -9.7883
 205   2.0000      -0.345759        -9.4086
 206   2.0000      -0.342036        -9.3073
 207   2.0000      -0.341307        -9.2874
 208   2.0000      -0.336664        -9.1611
 209   2.0000      -0.324186        -8.8215
 210   2.0000      -0.317354        -8.6356
 211   2.0000      -0.315987        -8.5984
 212   2.0000      -0.304627        -8.2893
 213   2.0000      -0.296127        -8.0580
 214   2.0000      -0.291431        -7.9302
 215   2.0000      -0.268971        -7.3191
 216   2.0000      -0.256098        -6.9688
 217   2.0000      -0.223830        -6.0907
 218   0.0000      -0.079474        -2.1626
 219   0.0000      -0.068757        -1.8710
 220   0.0000      -0.060109        -1.6357
 221   0.0000      -0.052894        -1.4393
 222   0.0000      -0.036571        -0.9951

MULLIKEN ATOMIC CHARGES
-----------------------
   0 C :   -0.026058
   1 C :   -0.064570
   2 C :    0.055508
   3 C :    0.030269
   4 C :   -0.065079
   5 S :    0.082166
   6 C :   -0.061640
   7 C :    0.032365
   8 C :    0.035183
   9 C :   -0.062462
  10 S :    0.087159
  11 C :    0.003007
  12 N :   -0.030717
  13 C :   -0.108130
  14 S :    0.189986
  15 C :   -0.050285
  16 N :    0.290779
  17 O :   -0.312151
  18 O :   -0.250678
  19 C :    0.029561
  20 C :    0.107582
  21 C :   -0.020079
  22 C :   -0.035211
  23 C :   -0.121574
  24 S :    0.119772
  25 C :   -0.118712
  26 C :   -0.048901
  27 C :    0.115749
  28 C :    0.164050
  29 C :   -0.239618
  30 S :    0.585765
  31 O :   -0.548400
  32 N :   -0.029591
  33 C :   -0.098127
  34 S :    0.171753
  35 C :   -0.006116
  36 N :    0.277168
  37 O :   -0.255162
  38 O :   -0.265695
  39 C :    0.010126
  40 C :    0.099832
  41 C :   -0.032514
  42 C :    0.008366
  43 N :   -0.033990
  44 C :   -0.125830
  45 S :    0.128485
  46 C :   -0.024475
  47 N :    0.277940
  48 O :   -0.315225
  49 O :   -0.262019
  50 C :    0.023281
  51 C :    0.106623
  52 C :   -0.041472
  53 C :    0.001133
  54 H :    0.021913
  55 H :    0.024837
  56 H :   -0.009405
  57 H :   -0.010858
  58 H :   -0.013294
  59 H :   -0.006688
  60 H :    0.023449
  61 H :    0.160460
  62 H :    0.005847
  63 H :   -0.009724
  64 H :   -0.015590
  65 H :    0.034707
  66 H :    0.033938
  67 H :    0.113464
  68 H :    0.007860
  69 H :    0.010599
  70 H :    0.038836
  71 H :    0.160122
  72 H :    0.009219
  73 H :   -0.008362
  74 H :    0.016980
  75 H :    0.032566
Sum of atomic charges:   -0.0000000

LOEWDIN ATOMIC CHARGES
----------------------
   0 C :   -0.071094
   1 C :   -0.139557
   2 C :   -0.026886
   3 C :   -0.026642
   4 C :   -0.174611
   5 S :    0.352977
   6 C :   -0.184203
   7 C :   -0.036624
   8 C :   -0.028631
   9 C :   -0.189335
  10 S :    0.366115
  11 C :   -0.025062
  12 N :    0.052625
  13 C :   -0.108031
  14 S :    0.479449
  15 C :   -0.225245
  16 N :    0.285070
  17 O :   -0.265375
  18 O :   -0.215962
  19 C :   -0.006205
  20 C :   -0.115857
  21 C :   -0.013993
  22 C :   -0.066342
  23 C :   -0.157465
  24 S :    0.448877
  25 C :   -0.164993
  26 C :   -0.204143
  27 C :   -0.084034
  28 C :    0.020591
  29 C :   -0.246477
  30 S :    0.848740
  31 O :   -0.576856
  32 N :    0.031271
  33 C :   -0.096970
  34 S :    0.490899
  35 C :   -0.217968
  36 N :    0.274230
  37 O :   -0.220481
  38 O :   -0.232492
  39 C :    0.000802
  40 C :   -0.105091
  41 C :   -0.058661
  42 C :   -0.004632
  43 N :    0.045853
  44 C :   -0.086868
  45 S :    0.461377
  46 C :   -0.230259
  47 N :    0.278696
  48 O :   -0.279009
  49 O :   -0.231367
  50 C :    0.018556
  51 C :   -0.111910
  52 C :   -0.041809
  53 C :   -0.024678
  54 H :    0.029692
  55 H :    0.027706
  56 H :    0.034438
  57 H :    0.032614
  58 H :    0.032371
  59 H :    0.035084
  60 H :    0.037826
  61 H :    0.092135
  62 H :    0.035960
  63 H :    0.020110
  64 H :    0.017893
  65 H :    0.033570
  66 H :    0.010506
  67 H :    0.079015
  68 H :    0.045609
  69 H :    0.039307
  70 H :    0.018947
  71 H :    0.093150
  72 H :    0.044353
  73 H :    0.026542
  74 H :    0.021634
  75 H :    0.031227

  Mayer bond orders larger than 0.100000
B(  0-C ,  1-C ) :   1.8695 B(  0-C , 54-H ) :   0.9506 B(  0-C , 55-H ) :   0.9419
B(  1-C ,  2-C ) :   1.0765 B(  1-C ,  5-S ) :   1.0054 B(  2-C ,  3-C ) :   1.6707
B(  2-C , 56-H ) :   0.9928 B(  3-C ,  4-C ) :   1.1422 B(  3-C , 57-H ) :   0.9928
B(  4-C ,  5-S ) :   1.0470 B(  4-C ,  6-C ) :   1.5817 B(  6-C ,  7-C ) :   1.1523
B(  6-C , 10-S ) :   1.0256 B(  7-C ,  8-C ) :   1.6454 B(  7-C , 58-H ) :   0.9919
B(  8-C ,  9-C ) :   1.1228 B(  8-C , 59-H ) :   0.9989 B(  9-C , 10-S ) :   1.0227
B(  9-C , 11-C ) :   1.6298 B( 11-C , 12-N ) :   1.1332 B( 11-C , 60-H ) :   0.9565
B( 12-N , 13-C ) :   1.2559 B( 12-N , 61-H ) :   0.8864 B( 13-C , 14-S ) :   1.1507
B( 13-C , 20-C ) :   1.2915 B( 14-S , 15-C ) :   1.0644 B( 15-C , 16-N ) :   1.0281
B( 15-C , 19-C ) :   1.4140 B( 16-N , 17-O ) :   1.4351 B( 16-N , 18-O ) :   1.5079
B( 17-O , 18-O ) :   0.2233 B( 19-C , 20-C ) :   1.2967 B( 19-C , 62-H ) :   0.9905
B( 20-C , 21-C ) :   1.0892 B( 21-C , 22-C ) :   1.7118 B( 21-C , 63-H ) :   0.9697
B( 22-C , 23-C ) :   1.1279 B( 22-C , 64-H ) :   0.9457 B( 23-C , 24-S ) :   1.1167
B( 23-C , 27-C ) :   1.4857 B( 24-S , 25-C ) :   1.1544 B( 25-C , 26-C ) :   1.6674
B( 25-C , 65-H ) :   0.9713 B( 26-C , 27-C ) :   1.2283 B( 26-C , 30-S ) :   0.8274
B( 27-C , 28-C ) :   1.0502 B( 28-C , 29-C ) :   1.6844 B( 28-C , 32-N ) :   1.1290
B( 29-C , 30-S ) :   0.8965 B( 29-C , 66-H ) :   0.9466 B( 30-S , 31-O ) :   1.5990
B( 32-N , 33-C ) :   1.1949 B( 32-N , 67-H ) :   0.8846 B( 33-C , 34-S ) :   1.1508
B( 33-C , 40-C ) :   1.3766 B( 34-S , 35-C ) :   1.0775 B( 35-C , 36-N ) :   0.9780
B( 35-C , 39-C ) :   1.4732 B( 36-N , 37-O ) :   1.5314 B( 36-N , 38-O ) :   1.5086
B( 37-O , 38-O ) :   0.2559 B( 39-C , 40-C ) :   1.2427 B( 39-C , 68-H ) :   1.0077
B( 40-C , 41-C ) :   1.0880 B( 41-C , 42-C ) :   1.6975 B( 41-C , 69-H ) :   0.9594
B( 42-C , 43-N ) :   1.1067 B( 42-C , 70-H ) :   0.9562 B( 43-N , 44-C ) :   1.2545
B( 43-N , 71-H ) :   0.8916 B( 44-C , 45-S ) :   1.1509 B( 44-C , 51-C ) :   1.3227
B( 45-S , 46-C ) :   1.0579 B( 46-C , 47-N ) :   1.0362 B( 46-C , 50-C ) :   1.4136
B( 47-N , 48-O ) :   1.4240 B( 47-N , 49-O ) :   1.5043 B( 48-O , 49-O ) :   0.2128
B( 50-C , 51-C ) :   1.2946 B( 50-C , 72-H ) :   1.0004 B( 51-C , 52-C ) :   1.0637
B( 52-C , 53-C ) :   1.9578 B( 52-C , 73-H ) :   0.9656 B( 53-C , 74-H ) :   0.9540
B( 53-C , 75-H ) :   0.9481

-----------------------------------------------------------------------------
         ABSORPTION SPECTRUM VIA TRANSITION ELECTRIC DIPOLE MOMENTS
-----------------------------------------------------------------------------
State   Energy  Wavelength   fosc         T2         TX        TY        TZ
        (cm-1)    (nm)                  (au**2)     (au)      (au)      (au)
-----------------------------------------------------------------------------
   0   15681.6    637.7   0.367422412   7.71350   2.47103   0.79089  -0.99095
   1   18345.0    545.1   0.219791556   3.94429  -1.32195  -1.21595   0.84748
   2   20695.6    483.2   0.489900086   7.79301   2.71519   0.57837  -0.29368
   3   21084.0    474.3   0.257563269   4.02166  -1.83476   0.63912   0.49684
   4   22164.5    451.2   0.192567654   2.86023   1.33389   1.01491   0.22564
   5   24809.1    403.1   0.079848172   1.05957   1.01022   0.13632   0.14296
   6   25884.6    386.3   0.053627156   0.68205   0.03716  -0.09053   0.82005
   7   26693.1    374.6   0.392263355   4.83787  -0.70012  -1.82712  -1.00465
   8   27417.7    364.7   0.175791223   2.11077  -1.41200  -0.00916  -0.34196
   9   27704.9    360.9   0.472262249   5.61179  -0.99782   1.74674   1.25101
  10   28008.7    357.0   0.203832869   2.39583  -0.29324   1.49512  -0.27285
  11   29584.9    338.0   0.072720614   0.80921   0.54662   0.40495   0.58859
  12   30004.6    333.3   0.006666990   0.07315   0.05488   0.26013   0.04971
  13   30637.7    326.4   0.269545116   2.89635   0.56804   1.23661   1.02200
  14   31156.1    321.0   0.009971322   0.10536  -0.12471   0.29931   0.01490
  15   31468.4    317.8   0.020482147   0.21428   0.15614   0.42922  -0.07528
  16   31615.1    316.3   0.148646243   1.54787  -0.64098   1.05273   0.16965
  17   32744.9    305.4   0.074820081   0.75223  -0.08891  -0.75971  -0.40887
  18   33131.4    301.8   0.044885717   0.44601  -0.56413  -0.33885  -0.11380
  19   33454.9    298.9   0.013033175   0.12825   0.01826   0.08901  -0.34641
  20   33568.5    297.9   0.024572765   0.24099   0.16534   0.22999   0.40094
  21   33911.3    294.9   0.196165086   1.90438   1.20754  -0.03980   0.66682
  22   34151.5    292.8   0.126531925   1.21973   0.39237  -1.02304  -0.13842
  23   34539.9    289.5   0.391775998   3.73416   1.73079  -0.24556   0.82354
  24   34879.5    286.7   0.027435738   0.25895   0.33643  -0.38003   0.03677
  25   35046.3    285.3   0.056786383   0.53343  -0.72801   0.04617  -0.03615
  26   35467.6    281.9   0.016039005   0.14888   0.32866   0.20124  -0.01907
  27   35681.7    280.3   0.042198569   0.38934   0.58160   0.21214  -0.07797
  28   36016.1    277.7   0.015229763   0.13921   0.33783   0.08582   0.13311
  29   36323.8    275.3   0.261028823   2.36577  -0.50943  -1.44540  -0.13067
  30   36929.5    270.8   0.026614390   0.23726   0.34752  -0.31829   0.12318
  31   37033.2    270.0   0.050032412   0.44477   0.20695  -0.62247  -0.12032
  32   37238.3    268.5   0.112026520   0.99039  -0.84610   0.52372  -0.01490
  33   37819.2    264.4   0.002981013   0.02595  -0.06687  -0.10218   0.10505
  34   38525.2    259.6   0.037340541   0.31909  -0.44216  -0.30109  -0.18146
  35   38730.2    258.2   0.009538864   0.08108   0.13464  -0.24474  -0.05528
  36   38889.1    257.1   0.005995567   0.05075  -0.09796   0.19804  -0.04404
  37   38937.2    256.8   0.003570277   0.03019  -0.13355   0.01901  -0.10949
  38   39213.1    255.0   0.011365772   0.09542  -0.13868  -0.14732  -0.23342
  39   39389.0    253.9   0.024128859   0.20167  -0.44752  -0.02152  -0.03044
  40   39813.5    251.2   0.109204490   0.90299  -0.89742  -0.30957  -0.04240
  41   40128.0    249.2   0.138028578   1.13239   0.85037  -0.56309  -0.30364
  42   40274.9    248.3   0.016985577   0.13884  -0.03906   0.11387   0.35263

FINAL SINGLE POINT ENERGY     -4947.287755541217

DIPOLE MOMENT
-------------
                                X             Y             Z
Electronic contribution:    -33.69535      -2.44913      -4.56989
Nuclear contribution   :     37.26348       4.76837       6.16827
                        -----------------------------------------
Total Dipole Moment    :      3.56813       2.31924       1.59838
                        -----------------------------------------
Magnitude (a.u.)       :      4.54590
Magnitude (Debye)      :     11.55476

Rotational constants in cm-1:     0.002203     0.000703     0.000646
Rotational constants in MHz :    66.056085    21.079167    19.361446

                             ****ORCA TERMINATED NORMALLY****
TOTAL RUN TIME: 0 days 0 hours 6 minutes 33 seconds 114 msec
