                         Program Version 4.2.0 -  RELEASE  -
|  1> # ORCA input file
|  2> # SCF done       -174.278067210424          0.000574859091
|  3> ! CAM-B3LYP def2-SVP def2/J RIJCOSX Grid4 TightSCF
|  4> %maxcore 5000
|  5> %tddft
|  6>     Mode sTDDFT
|  7>     Ethresh 5.0
|  8>     maxcore 5000
|  9> end
| 10>
| 11> %pal
| 12>   nprocs 6
| 13>   end
| 14> * xyz 0 1
| 15>    C       13.86141       -12.88143        -5.49178
| 16>    C       12.92699       -11.92934        -5.62108
| 17>    C       12.87923       -10.87029        -6.58774
| 18>    C       11.80401       -10.05915        -6.47353
| 19>    C       10.91900       -10.40620        -5.41514
| 20>    S       11.51175       -11.81509        -4.56284
| 21>    C        9.74712        -9.77307        -5.06669
| 22>    C        9.14970        -8.64518        -5.67513
| 23>    C        7.97149        -8.27400        -5.10586
| 24>    C        7.56495        -9.07308        -4.00619
| 25>    S        8.75888       -10.32782        -3.72812
| 26>    C        6.34924        -8.93145        -3.37463
| 27>    C        5.76970        -9.62052        -2.30222
| 28>    S        4.03225        -9.64515        -2.24128
| 29>    C        3.97110       -10.70002        -0.85853
| 30>    C        5.28270       -10.96542        -0.40091
| 31>    C        6.29071       -10.34109        -1.20168
| 32>    C        7.63340       -10.38778        -0.79636
| 33>    C        7.97235       -11.09941         0.32033
| 34>    F        9.25386       -11.14186         0.72088
| 35>    C        6.99095       -11.77105         1.07277
| 36>    F        7.36393       -12.46563         2.15902
| 37>    C        5.66726       -11.70053         0.73473
| 38>    C        2.69242       -11.10186        -0.44449
| 39>    C        2.34487       -11.97060         0.55007
| 40>    C        1.01502       -12.31150         0.84666
| 41>    S       -0.32849       -11.66660        -0.06242
| 42>    C       -1.51019       -12.56758         0.86927
| 43>    C       -0.85482       -13.32173         1.85940
| 44>    C        0.55645       -13.16360         1.85083
| 45>    C        1.43574       -13.81017         2.81925
| 46>    O        2.65705       -13.72736         2.79300
| 47>    C        0.74348       -14.57515         3.87561
| 48>    C        1.50685       -15.16189         4.88290
| 49>    C        0.90364       -15.88253         5.89489
| 50>    C       -0.47659       -16.03282         5.91007
| 51>    C       -1.24395       -15.46136         4.91431
| 52>    C       -0.64756       -14.72513         3.89164
| 53>    C       -1.51416       -14.14564         2.84793
| 54>    O       -2.72315       -14.37077         2.85076
| 55>    C       -2.86756       -12.49266         0.50614
| 56>    S       -4.01582       -13.72409         0.94918
| 57>    C       -5.24474       -13.08931        -0.09298
| 58>    C       -4.81894       -11.88401        -0.69885
| 59>    C       -3.47969       -11.54184        -0.35515
| 60>    C       -2.95200       -10.32904        -0.82816
| 61>    C       -3.71230        -9.53375        -1.64363
| 62>    F       -3.20592        -8.36930        -2.08576
| 63>    C       -5.01574        -9.90152        -2.01736
| 64>    F       -5.72514        -9.09807        -2.83010
| 65>    C       -5.57308       -11.05780        -1.54267
| 66>    C       -6.48631       -13.71641        -0.24013
| 67>    C       -6.83683       -14.88112         0.39895
| 68>    C       -8.06744       -15.51501         0.24379
| 69>    C       -8.42384       -16.68568         0.87946
| 70>    C       -9.65104       -17.37754         0.75794
| 71>    C       -9.72959       -18.51618         1.50135
| 72>    C       -8.56382       -18.78778         2.25462
| 73>    S       -7.36359       -17.53993         1.98332
| 74>    C       -8.33056       -19.85335         3.09680
| 75>    C       -9.21504       -20.92557         3.39628
| 76>    C       -8.71378       -21.83678         4.26060
| 77>    C       -7.38351       -21.55170         4.71454
| 78>    S       -6.82348       -20.04817         3.96455
| 79>    C       -6.63469       -22.26760         5.56538
| 80>    H       14.70460       -12.91763        -6.15890
| 81>    H       13.79922       -13.63445        -4.72784
| 82>    H       13.65498       -10.76498        -7.32513
| 83>    H       11.60927        -9.21632        -7.11280
| 84>    H        9.59884        -8.14631        -6.51468
| 85>    H        7.37271        -7.44486        -5.43974
| 86>    H        5.68168        -8.22646        -3.85886
| 87>    H        8.39846        -9.85158        -1.32917
| 88>    H        4.95232       -12.19810         1.36554
| 89>    H        1.88075       -10.66452        -1.01824
| 90>    H        3.07863       -12.46406         1.16398
| 91>    H        2.57864       -15.03417         4.84732
| 92>    H        1.50571       -16.32914         6.67216
| 93>    H       -0.95108       -16.59733         6.69896
| 94>    H       -2.31839       -15.56963         4.90368
| 95>    H       -1.97346        -9.97948        -0.54827
| 96>    H       -6.58353       -11.31101        -1.81761
| 97>    H       -7.20497       -13.25608        -0.90507
| 98>    H       -6.11667       -15.33788         1.06652
| 99>    H       -8.79991       -15.07209        -0.41920
|100>    H      -10.43885       -17.01147         0.12303
|101>    H      -10.58825       -19.16270         1.52748
|102>    H      -10.19526       -20.98231         2.95718
|103>    H       -9.23478       -22.71313         4.60301
|104>    H       -7.01312       -23.17660         5.99849
|105>    H       -5.64183       -21.96178         5.83955
|106> *
|107>
|108>                          ****END OF INPUT****

CARTESIAN COORDINATES (ANGSTROEM)
---------------------------------
  C     13.861410  -12.881430   -5.491780
  C     12.926990  -11.929340   -5.621080
  C     12.879230  -10.870290   -6.587740
  C     11.804010  -10.059150   -6.473530
  C     10.919000  -10.406200   -5.415140
  S     11.511750  -11.815090   -4.562840
  C      9.747120   -9.773070   -5.066690
  C      9.149700   -8.645180   -5.675130
  C      7.971490   -8.274000   -5.105860
  C      7.564950   -9.073080   -4.006190
  S      8.758880  -10.327820   -3.728120
  C      6.349240   -8.931450   -3.374630
  C      5.769700   -9.620520   -2.302220
  S      4.032250   -9.645150   -2.241280
  C      3.971100  -10.700020   -0.858530
  C      5.282700  -10.965420   -0.400910
  C      6.290710  -10.341090   -1.201680
  C      7.633400  -10.387780   -0.796360
  C      7.972350  -11.099410    0.320330
  F      9.253860  -11.141860    0.720880
  C      6.990950  -11.771050    1.072770
  F      7.363930  -12.465630    2.159020
  C      5.667260  -11.700530    0.734730
  C      2.692420  -11.101860   -0.444490
  C      2.344870  -11.970600    0.550070
  C      1.015020  -12.311500    0.846660
  S     -0.328490  -11.666600   -0.062420
  C     -1.510190  -12.567580    0.869270
  C     -0.854820  -13.321730    1.859400
  C      0.556450  -13.163600    1.850830
  C      1.435740  -13.810170    2.819250
  O      2.657050  -13.727360    2.793000
  C      0.743480  -14.575150    3.875610
  C      1.506850  -15.161890    4.882900
  C      0.903640  -15.882530    5.894890
  C     -0.476590  -16.032820    5.910070
  C     -1.243950  -15.461360    4.914310
  C     -0.647560  -14.725130    3.891640
  C     -1.514160  -14.145640    2.847930
  O     -2.723150  -14.370770    2.850760
  C     -2.867560  -12.492660    0.506140
  S     -4.015820  -13.724090    0.949180
  C     -5.244740  -13.089310   -0.092980
  C     -4.818940  -11.884010   -0.698850
  C     -3.479690  -11.541840   -0.355150
  C     -2.952000  -10.329040   -0.828160
  C     -3.712300   -9.533750   -1.643630
  F     -3.205920   -8.369300   -2.085760
  C     -5.015740   -9.901520   -2.017360
  F     -5.725140   -9.098070   -2.830100
  C     -5.573080  -11.057800   -1.542670
  C     -6.486310  -13.716410   -0.240130
  C     -6.836830  -14.881120    0.398950
  C     -8.067440  -15.515010    0.243790
  C     -8.423840  -16.685680    0.879460
  C     -9.651040  -17.377540    0.757940
  C     -9.729590  -18.516180    1.501350
  C     -8.563820  -18.787780    2.254620
  S     -7.363590  -17.539930    1.983320
  C     -8.330560  -19.853350    3.096800
  C     -9.215040  -20.925570    3.396280
  C     -8.713780  -21.836780    4.260600
  C     -7.383510  -21.551700    4.714540
  S     -6.823480  -20.048170    3.964550
  C     -6.634690  -22.267600    5.565380
  H     14.704600  -12.917630   -6.158900
  H     13.799220  -13.634450   -4.727840
  H     13.654980  -10.764980   -7.325130
  H     11.609270   -9.216320   -7.112800
  H      9.598840   -8.146310   -6.514680
  H      7.372710   -7.444860   -5.439740
  H      5.681680   -8.226460   -3.858860
  H      8.398460   -9.851580   -1.329170
  H      4.952320  -12.198100    1.365540
  H      1.880750  -10.664520   -1.018240
  H      3.078630  -12.464060    1.163980
  H      2.578640  -15.034170    4.847320
  H      1.505710  -16.329140    6.672160
  H     -0.951080  -16.597330    6.698960
  H     -2.318390  -15.569630    4.903680
  H     -1.973460   -9.979480   -0.548270
  H     -6.583530  -11.311010   -1.817610
  H     -7.204970  -13.256080   -0.905070
  H     -6.116670  -15.337880    1.066520
  H     -8.799910  -15.072090   -0.419200
  H    -10.438850  -17.011470    0.123030
  H    -10.588250  -19.162700    1.527480
  H    -10.195260  -20.982310    2.957180
  H     -9.234780  -22.713130    4.603010
  H     -7.013120  -23.176600    5.998490
  H     -5.641830  -21.961780    5.839550

 Total Charge           Charge          ....    0
 Multiplicity           Mult            ....    1
 Number of Electrons    NEL             ....  502
 Basis Dimension        Dim             .... 1068

ORBITAL ENERGIES
----------------

  NO   OCC          E(Eh)            E(eV)
   0   2.0000     -88.962702     -2420.7982
   1   2.0000     -88.959885     -2420.7215
   2   2.0000     -88.956383     -2420.6263
   3   2.0000     -88.946406     -2420.3547
   4   2.0000     -88.941622     -2420.2246
   5   2.0000     -88.939437     -2420.1651
   6   2.0000     -88.938390     -2420.1366
   7   2.0000     -24.780501      -674.3117
   8   2.0000     -24.779531      -674.2853
   9   2.0000     -24.777804      -674.2383
  10   2.0000     -24.777402      -674.2274
  11   2.0000     -19.197696      -522.3959
  12   2.0000     -19.195502      -522.3362
  13   2.0000     -10.361495      -281.9506
  14   2.0000     -10.359908      -281.9074
  15   2.0000     -10.359422      -281.8942
  16   2.0000     -10.358329      -281.8645
  17   2.0000     -10.352140      -281.6960
  18   2.0000     -10.351636      -281.6823
  19   2.0000     -10.325030      -280.9584
  20   2.0000     -10.312096      -280.6064
  21   2.0000     -10.312050      -280.6052
  22   2.0000     -10.311625      -280.5936
  23   2.0000     -10.310537      -280.5640
  24   2.0000     -10.309992      -280.5492
  25   2.0000     -10.308430      -280.5067
  26   2.0000     -10.307502      -280.4814
  27   2.0000     -10.307142      -280.4716
  28   2.0000     -10.306215      -280.4464
  29   2.0000     -10.305875      -280.4371
  30   2.0000     -10.304583      -280.4020
  31   2.0000     -10.304419      -280.3975
  32   2.0000     -10.297220      -280.2016
  33   2.0000     -10.290697      -280.0241
  34   2.0000     -10.290692      -280.0240
  35   2.0000     -10.290327      -280.0140
  36   2.0000     -10.289942      -280.0036
  37   2.0000     -10.289264      -279.9851
  38   2.0000     -10.287956      -279.9495
  39   2.0000     -10.287860      -279.9469
  40   2.0000     -10.287801      -279.9453
  41   2.0000     -10.287414      -279.9348
  42   2.0000     -10.286216      -279.9022
  43   2.0000     -10.284867      -279.8655
  44   2.0000     -10.284687      -279.8606
  45   2.0000     -10.284254      -279.8488
  46   2.0000     -10.284127      -279.8453
  47   2.0000     -10.282351      -279.7970
  48   2.0000     -10.281176      -279.7650
  49   2.0000     -10.279938      -279.7313
  50   2.0000     -10.279510      -279.7197
  51   2.0000     -10.278283      -279.6863
  52   2.0000     -10.277955      -279.6774
  53   2.0000     -10.277444      -279.6635
  54   2.0000     -10.277254      -279.6583
  55   2.0000     -10.276532      -279.6387
  56   2.0000     -10.276384      -279.6346
  57   2.0000     -10.275373      -279.6071
  58   2.0000     -10.274669      -279.5879
  59   2.0000     -10.274251      -279.5766
  60   2.0000     -10.271624      -279.5051
  61   2.0000     -10.270893      -279.4852
  62   2.0000     -10.270679      -279.4794
  63   2.0000     -10.270639      -279.4783
  64   2.0000     -10.269781      -279.4549
  65   2.0000      -8.058256      -219.2763
  66   2.0000      -8.055203      -219.1932
  67   2.0000      -8.049187      -219.0295
  68   2.0000      -8.042370      -218.8440
  69   2.0000      -8.037880      -218.7218
  70   2.0000      -8.036200      -218.6761
  71   2.0000      -8.035184      -218.6485
  72   2.0000      -6.027180      -164.0079
  73   2.0000      -6.024539      -163.9360
  74   2.0000      -6.023275      -163.9016
  75   2.0000      -6.020909      -163.8373
  76   2.0000      -6.020410      -163.8237
  77   2.0000      -6.018420      -163.7695
  78   2.0000      -6.017129      -163.7344
  79   2.0000      -6.013923      -163.6472
  80   2.0000      -6.012157      -163.5991
  81   2.0000      -6.011839      -163.5905
  82   2.0000      -6.008023      -163.4866
  83   2.0000      -6.007589      -163.4748
  84   2.0000      -6.006001      -163.4316
  85   2.0000      -6.004984      -163.4039
  86   2.0000      -6.003647      -163.3675
  87   2.0000      -6.003255      -163.3569
  88   2.0000      -6.002076      -163.3248
  89   2.0000      -6.001063      -163.2972
  90   2.0000      -5.998756      -163.2344
  91   2.0000      -5.996747      -163.1798
  92   2.0000      -5.995728      -163.1521
  93   2.0000      -1.301265       -35.4092
  94   2.0000      -1.299558       -35.3628
  95   2.0000      -1.286591       -35.0099
  96   2.0000      -1.284698       -34.9584
  97   2.0000      -1.115392       -30.3514
  98   2.0000      -1.110413       -30.2159
  99   2.0000      -1.000914       -27.2363
 100   2.0000      -0.999490       -27.1975
 101   2.0000      -0.992322       -27.0025
 102   2.0000      -0.991859       -26.9899
 103   2.0000      -0.982984       -26.7484
 104   2.0000      -0.970202       -26.4005
 105   2.0000      -0.969100       -26.3706
 106   2.0000      -0.955293       -25.9948
 107   2.0000      -0.937929       -25.5224
 108   2.0000      -0.936056       -25.4714
 109   2.0000      -0.913216       -24.8499
 110   2.0000      -0.906426       -24.6651
 111   2.0000      -0.889750       -24.2113
 112   2.0000      -0.888714       -24.1831
 113   2.0000      -0.876416       -23.8485
 114   2.0000      -0.869170       -23.6513
 115   2.0000      -0.860026       -23.4025
 116   2.0000      -0.848950       -23.1011
 117   2.0000      -0.844057       -22.9680
 118   2.0000      -0.843974       -22.9657
 119   2.0000      -0.840560       -22.8728
 120   2.0000      -0.839761       -22.8510
 121   2.0000      -0.835958       -22.7476
 122   2.0000      -0.832680       -22.6584
 123   2.0000      -0.830706       -22.6047
 124   2.0000      -0.824246       -22.4289
 125   2.0000      -0.819628       -22.3032
 126   2.0000      -0.816998       -22.2316
 127   2.0000      -0.803527       -21.8651
 128   2.0000      -0.794120       -21.6091
 129   2.0000      -0.771081       -20.9822
 130   2.0000      -0.766748       -20.8643
 131   2.0000      -0.744713       -20.2647
 132   2.0000      -0.736551       -20.0426
 133   2.0000      -0.730070       -19.8662
 134   2.0000      -0.728371       -19.8200
 135   2.0000      -0.725710       -19.7476
 136   2.0000      -0.721612       -19.6361
 137   2.0000      -0.710993       -19.3471
 138   2.0000      -0.700433       -19.0597
 139   2.0000      -0.687464       -18.7069
 140   2.0000      -0.686836       -18.6898
 141   2.0000      -0.672711       -18.3054
 142   2.0000      -0.667666       -18.1681
 143   2.0000      -0.661022       -17.9873
 144   2.0000      -0.657386       -17.8884
 145   2.0000      -0.652125       -17.7452
 146   2.0000      -0.645806       -17.5733
 147   2.0000      -0.638398       -17.3717
 148   2.0000      -0.634687       -17.2707
 149   2.0000      -0.626462       -17.0469
 150   2.0000      -0.624166       -16.9844
 151   2.0000      -0.619352       -16.8534
 152   2.0000      -0.618018       -16.8171
 153   2.0000      -0.616714       -16.7816
 154   2.0000      -0.613099       -16.6833
 155   2.0000      -0.611053       -16.6276
 156   2.0000      -0.603456       -16.4209
 157   2.0000      -0.601380       -16.3644
 158   2.0000      -0.599715       -16.3191
 159   2.0000      -0.597918       -16.2702
 160   2.0000      -0.596681       -16.2365
 161   2.0000      -0.589104       -16.0303
 162   2.0000      -0.584220       -15.8974
 163   2.0000      -0.575243       -15.6532
 164   2.0000      -0.566919       -15.4266
 165   2.0000      -0.565027       -15.3752
 166   2.0000      -0.564361       -15.3570
 167   2.0000      -0.560060       -15.2400
 168   2.0000      -0.553613       -15.0646
 169   2.0000      -0.544486       -14.8162
 170   2.0000      -0.543810       -14.7978
 171   2.0000      -0.538972       -14.6662
 172   2.0000      -0.537678       -14.6310
 173   2.0000      -0.533657       -14.5215
 174   2.0000      -0.531071       -14.4512
 175   2.0000      -0.529037       -14.3958
 176   2.0000      -0.526726       -14.3329
 177   2.0000      -0.525059       -14.2876
 178   2.0000      -0.522990       -14.2313
 179   2.0000      -0.521948       -14.2029
 180   2.0000      -0.518578       -14.1112
 181   2.0000      -0.515983       -14.0406
 182   2.0000      -0.514308       -13.9950
 183   2.0000      -0.512188       -13.9373
 184   2.0000      -0.510426       -13.8894
 185   2.0000      -0.504775       -13.7356
 186   2.0000      -0.504452       -13.7268
 187   2.0000      -0.499932       -13.6038
 188   2.0000      -0.499264       -13.5857
 189   2.0000      -0.496155       -13.5011
 190   2.0000      -0.494816       -13.4646
 191   2.0000      -0.493050       -13.4166
 192   2.0000      -0.492791       -13.4095
 193   2.0000      -0.490522       -13.3478
 194   2.0000      -0.485946       -13.2233
 195   2.0000      -0.483149       -13.1471
 196   2.0000      -0.481759       -13.1093
 197   2.0000      -0.479443       -13.0463
 198   2.0000      -0.475343       -12.9347
 199   2.0000      -0.474281       -12.9058
 200   2.0000      -0.471182       -12.8215
 201   2.0000      -0.467757       -12.7283
 202   2.0000      -0.464529       -12.6405
 203   2.0000      -0.464171       -12.6307
 204   2.0000      -0.462598       -12.5879
 205   2.0000      -0.461134       -12.5481
 206   2.0000      -0.459488       -12.5033
 207   2.0000      -0.457106       -12.4385
 208   2.0000      -0.453059       -12.3284
 209   2.0000      -0.448059       -12.1923
 210   2.0000      -0.443010       -12.0549
 211   2.0000      -0.438632       -11.9358
 212   2.0000      -0.437240       -11.8979
 213   2.0000      -0.431226       -11.7343
 214   2.0000      -0.430065       -11.7027
 215   2.0000      -0.427584       -11.6351
 216   2.0000      -0.425902       -11.5894
 217   2.0000      -0.423207       -11.5160
 218   2.0000      -0.421844       -11.4790
 219   2.0000      -0.419973       -11.4280
 220   2.0000      -0.419564       -11.4169
 221   2.0000      -0.418640       -11.3918
 222   2.0000      -0.413982       -11.2650
 223   2.0000      -0.409417       -11.1408
 224   2.0000      -0.406873       -11.0716
 225   2.0000      -0.399921       -10.8824
 226   2.0000      -0.396928       -10.8010
 227   2.0000      -0.396130       -10.7793
 228   2.0000      -0.391021       -10.6402
 229   2.0000      -0.386982       -10.5303
 230   2.0000      -0.374649       -10.1947
 231   2.0000      -0.356086        -9.6896
 232   2.0000      -0.347202        -9.4478
 233   2.0000      -0.338084        -9.1997
 234   2.0000      -0.336330        -9.1520
 235   2.0000      -0.332283        -9.0419
 236   2.0000      -0.330921        -9.0048
 237   2.0000      -0.326319        -8.8796
 238   2.0000      -0.323787        -8.8107
 239   2.0000      -0.320464        -8.7203
 240   2.0000      -0.320163        -8.7121
 241   2.0000      -0.318157        -8.6575
 242   2.0000      -0.316754        -8.6193
 243   2.0000      -0.310391        -8.4462
 244   2.0000      -0.307611        -8.3705
 245   2.0000      -0.301144        -8.1946
 246   2.0000      -0.297674        -8.1001
 247   2.0000      -0.264064        -7.1855
 248   2.0000      -0.244656        -6.6574
 249   2.0000      -0.211682        -5.7602
 250   2.0000      -0.195794        -5.3278
 251   0.0000      -0.091574        -2.4919
 252   0.0000      -0.082046        -2.2326
 253   0.0000      -0.051441        -1.3998
 254   0.0000      -0.043953        -1.1960
 255   0.0000      -0.024518        -0.6672

MULLIKEN ATOMIC CHARGES
-----------------------
   0 C :   -0.026712
   1 C :   -0.066083
   2 C :    0.053808
   3 C :    0.027700
   4 C :   -0.064057
   5 S :    0.087602
   6 C :   -0.057347
   7 C :    0.035269
   8 C :    0.026770
   9 C :   -0.026306
  10 S :    0.087619
  11 C :   -0.013929
  12 C :   -0.125167
  13 S :    0.153719
  14 C :   -0.123288
  15 C :    0.135945
  16 C :    0.124119
  17 C :   -0.122610
  18 C :    0.216357
  19 F :   -0.180237
  20 C :    0.219778
  21 F :   -0.173561
  22 C :   -0.123466
  23 C :    0.074040
  24 C :   -0.043356
  25 C :   -0.107606
  26 S :    0.096014
  27 C :   -0.115957
  28 C :    0.041367
  29 C :    0.027729
  30 C :    0.121689
  31 O :   -0.187416
  32 C :   -0.009662
  33 C :   -0.025135
  34 C :    0.048025
  35 C :    0.049979
  36 C :   -0.024132
  37 C :   -0.005462
  38 C :    0.125640
  39 O :   -0.218508
  40 C :   -0.112713
  41 S :    0.206670
  42 C :   -0.054647
  43 C :    0.119455
  44 C :    0.114645
  45 C :   -0.124670
  46 C :    0.220139
  47 F :   -0.181395
  48 C :    0.218020
  49 F :   -0.184015
  50 C :   -0.113382
  51 C :   -0.032073
  52 C :    0.011378
  53 C :   -0.017653
  54 C :   -0.017754
  55 C :    0.033414
  56 C :    0.026012
  57 C :   -0.049367
  58 S :    0.082879
  59 C :   -0.064933
  60 C :    0.029436
  61 C :    0.054249
  62 C :   -0.065843
  63 S :    0.087028
  64 C :   -0.025862
  65 H :    0.022318
  66 H :    0.026119
  67 H :   -0.008699
  68 H :   -0.010933
  69 H :   -0.013317
  70 H :   -0.011629
  71 H :   -0.008151
  72 H :   -0.001925
  73 H :   -0.001321
  74 H :   -0.016161
  75 H :    0.013391
  76 H :   -0.001107
  77 H :   -0.007368
  78 H :   -0.008014
  79 H :   -0.000802
  80 H :   -0.000584
  81 H :   -0.014498
  82 H :   -0.021192
  83 H :    0.018131
  84 H :   -0.018929
  85 H :   -0.013756
  86 H :   -0.013424
  87 H :   -0.012474
  88 H :   -0.011295
  89 H :    0.020554
  90 H :    0.022873
Sum of atomic charges:   -0.0000000

LOEWDIN ATOMIC CHARGES
----------------------
   0 C :   -0.070537
   1 C :   -0.140234
   2 C :   -0.028103
   3 C :   -0.027458
   4 C :   -0.173368
   5 S :    0.358441
   6 C :   -0.184906
   7 C :   -0.032426
   8 C :   -0.035435
   9 C :   -0.147022
  10 S :    0.395323
  11 C :   -0.090941
  12 C :   -0.166684
  13 S :    0.477184
  14 C :   -0.178181
  15 C :   -0.035627
  16 C :   -0.050755
  17 C :   -0.044004
  18 C :    0.059203
  19 F :   -0.057568
  20 C :    0.066260
  21 F :   -0.053776
  22 C :   -0.037242
  23 C :   -0.036885
  24 C :   -0.057245
  25 C :   -0.122043
  26 S :    0.456806
  27 C :   -0.125603
  28 C :   -0.110719
  29 C :   -0.094884
  30 C :    0.084505
  31 O :   -0.168141
  32 C :   -0.047767
  33 C :    0.013064
  34 C :   -0.009239
  35 C :   -0.009117
  36 C :    0.012206
  37 C :   -0.045910
  38 C :    0.080262
  39 O :   -0.191067
  40 C :   -0.214278
  41 S :    0.553973
  42 C :   -0.168968
  43 C :   -0.049535
  44 C :   -0.038428
  45 C :   -0.058306
  46 C :    0.064000
  47 F :   -0.059376
  48 C :    0.053974
  49 F :   -0.061741
  50 C :   -0.034007
  51 C :   -0.051281
  52 C :   -0.018960
  53 C :   -0.063450
  54 C :   -0.139890
  55 C :   -0.037969
  56 C :   -0.028856
  57 C :   -0.182265
  58 S :    0.376880
  59 C :   -0.174080
  60 C :   -0.027266
  61 C :   -0.029772
  62 C :   -0.139952
  63 S :    0.357942
  64 C :   -0.072532
  65 H :    0.029612
  66 H :    0.027941
  67 H :    0.034272
  68 H :    0.032602
  69 H :    0.031863
  70 H :    0.033192
  71 H :    0.034795
  72 H :    0.027198
  73 H :    0.046749
  74 H :    0.018101
  75 H :    0.033340
  76 H :    0.035990
  77 H :    0.031407
  78 H :    0.031208
  79 H :    0.035872
  80 H :    0.023414
  81 H :    0.038925
  82 H :    0.029135
  83 H :    0.020114
  84 H :    0.031834
  85 H :    0.033130
  86 H :    0.031341
  87 H :    0.032288
  88 H :    0.033593
  89 H :    0.029018
  90 H :    0.026841

  Mayer bond orders larger than 0.100000
B(  0-C ,  1-C ) :   1.8619 B(  0-C , 65-H ) :   0.9507 B(  0-C , 66-H ) :   0.9419
B(  1-C ,  2-C ) :   1.0811 B(  1-C ,  5-S ) :   1.0076 B(  2-C ,  3-C ) :   1.6585
B(  2-C , 67-H ) :   0.9931 B(  3-C ,  4-C ) :   1.1544 B(  3-C , 68-H ) :   0.9926
B(  4-C ,  5-S ) :   1.0513 B(  4-C ,  6-C ) :   1.5440 B(  6-C ,  7-C ) :   1.1775
B(  6-C , 10-S ) :   1.0332 B(  7-C ,  8-C ) :   1.5923 B(  7-C , 69-H ) :   0.9924
B(  8-C ,  9-C ) :   1.1480 B(  8-C , 70-H ) :   0.9985 B(  9-C , 10-S ) :   1.0368
B(  9-C , 11-C ) :   1.5873 B( 11-C , 12-C ) :   1.1886 B( 11-C , 71-H ) :   0.9405
B( 12-C , 13-S ) :   1.1604 B( 12-C , 14-C ) :   0.1012 B( 12-C , 16-C ) :   1.2938
B( 13-S , 14-C ) :   1.1364 B( 14-C , 15-C ) :   1.3035 B( 14-C , 23-C ) :   1.2209
B( 15-C , 16-C ) :   1.2265 B( 15-C , 22-C ) :   1.1713 B( 16-C , 17-C ) :   1.1820
B( 17-C , 18-C ) :   1.5010 B( 17-C , 22-C ) :   0.1098 B( 17-C , 72-H ) :   0.9778
B( 18-C , 19-F ) :   1.1245 B( 18-C , 20-C ) :   1.1688 B( 20-C , 21-F ) :   1.1478
B( 20-C , 22-C ) :   1.4888 B( 22-C , 73-H ) :   1.0052 B( 23-C , 24-C ) :   1.5241
B( 23-C , 74-H ) :   0.9392 B( 24-C , 25-C ) :   1.2525 B( 24-C , 75-H ) :   0.9575
B( 25-C , 26-S ) :   1.0769 B( 25-C , 29-C ) :   1.4387 B( 26-S , 27-C ) :   1.1176
B( 27-C , 28-C ) :   1.3974 B( 27-C , 40-C ) :   1.2665 B( 28-C , 29-C ) :   1.1749
B( 28-C , 38-C ) :   1.0167 B( 29-C , 30-C ) :   0.9831 B( 30-C , 31-O ) :   2.1274
B( 30-C , 32-C ) :   0.9611 B( 32-C , 33-C ) :   1.3970 B( 32-C , 37-C ) :   1.3451
B( 33-C , 34-C ) :   1.3642 B( 33-C , 76-H ) :   0.9933 B( 34-C , 35-C ) :   1.3487
B( 34-C , 77-H ) :   0.9923 B( 35-C , 36-C ) :   1.3644 B( 35-C , 78-H ) :   0.9920
B( 36-C , 37-C ) :   1.3998 B( 36-C , 79-H ) :   0.9922 B( 37-C , 38-C ) :   0.9728
B( 38-C , 39-O ) :   2.0460 B( 40-C , 41-S ) :   1.1396 B( 40-C , 44-C ) :   1.2677
B( 41-S , 42-C ) :   1.1442 B( 42-C , 43-C ) :   1.2443 B( 42-C , 51-C ) :   1.2246
B( 43-C , 44-C ) :   1.2501 B( 43-C , 50-C ) :   1.1976 B( 44-C , 45-C ) :   1.1726
B( 45-C , 46-C ) :   1.4911 B( 45-C , 50-C ) :   0.1106 B( 45-C , 80-H ) :   0.9723
B( 46-C , 47-F ) :   1.1280 B( 46-C , 48-C ) :   1.1896 B( 48-C , 49-F ) :   1.1235
B( 48-C , 50-C ) :   1.4691 B( 50-C , 81-H ) :   0.9986 B( 51-C , 52-C ) :   1.5487
B( 51-C , 82-H ) :   0.9786 B( 52-C , 53-C ) :   1.2045 B( 52-C , 83-H ) :   0.9711
B( 53-C , 54-C ) :   1.5154 B( 53-C , 84-H ) :   0.9852 B( 54-C , 55-C ) :   1.1556
B( 54-C , 58-S ) :   1.0447 B( 55-C , 56-C ) :   1.5813 B( 55-C , 85-H ) :   0.9996
B( 56-C , 57-C ) :   1.1895 B( 56-C , 86-H ) :   0.9928 B( 57-C , 58-S ) :   1.0399
B( 57-C , 59-C ) :   1.5322 B( 59-C , 60-C ) :   1.1602 B( 59-C , 63-S ) :   1.0516
B( 60-C , 61-C ) :   1.6545 B( 60-C , 87-H ) :   0.9914 B( 61-C , 62-C ) :   1.0824
B( 61-C , 88-H ) :   0.9932 B( 62-C , 63-S ) :   1.0084 B( 62-C , 64-C ) :   1.8595
B( 64-C , 89-H ) :   0.9510 B( 64-C , 90-H ) :   0.9418

-----------------------------------------------------------------------------
         ABSORPTION SPECTRUM VIA TRANSITION ELECTRIC DIPOLE MOMENTS
-----------------------------------------------------------------------------
State   Energy  Wavelength   fosc         T2         TX        TY        TZ
        (cm-1)    (nm)                  (au**2)     (au)      (au)      (au)
-----------------------------------------------------------------------------
   0   10121.8    988.0   1.903798037  61.92082   6.55179   3.37373  -2.75913
   1   12743.9    784.7   0.297366554   7.68185  -1.61457   1.32896   1.81903
   2   15268.6    654.9   0.139932534   3.01713   1.31935  -1.06764  -0.36958
   3   17000.5    588.2   0.070148335   1.35841   0.57470   0.32439  -0.96068
   4   18859.3    530.2   0.475585833   8.30195  -0.86615   2.49218  -1.15791
   5   19842.9    504.0   0.185382498   3.07567   0.54722   1.01756  -1.31939
   6   21590.5    463.2   0.311022330   4.74246  -0.93064   0.74159  -1.82384
   7   21900.9    456.6   0.110735649   1.66456  -0.00495   0.87273  -0.95020
   8   23811.8    420.0   0.152346530   2.10628   0.52457  -1.22113   0.58304
   9   24402.2    409.8   0.199472972   2.69111   1.10218  -1.10568   0.50377
  10   25242.9    396.2   0.038611720   0.50356  -0.18733   0.21008  -0.65141
  11   25990.8    384.8   0.272153918   3.44723  -0.99851   1.41934  -0.66007
  12   26804.9    373.1   0.014529781   0.17845  -0.01522   0.14270  -0.39731
  13   27339.3    365.8   0.053543164   0.64475  -0.35348   0.42689  -0.58101
  14   28264.5    353.8   0.025916838   0.30187  -0.06589   0.54501  -0.02205
  15   28557.1    350.2   0.004699863   0.05418  -0.10161   0.10639  -0.18038
  16   29459.2    339.5   0.012603892   0.14085  -0.17281   0.09344  -0.31978
  17   30057.5    332.7   0.064397813   0.70533   0.67521  -0.49691   0.04996
  18   30229.6    330.8   0.013733591   0.14956   0.38097  -0.02953   0.05961
  19   30647.8    326.3   0.019099174   0.20516   0.15575   0.35238  -0.23818
  20   31101.9    321.5   0.108620209   1.14974  -1.03616  -0.27375   0.03413
  21   31618.3    316.3   0.011284170   0.11749  -0.04048   0.20305   0.27318
  22   31794.4    314.5   0.003508379   0.03633  -0.02623   0.09318  -0.16418
  23   31883.6    313.6   0.087474069   0.90321  -0.92982  -0.06622  -0.18509
  24   31940.8    313.1   0.088900163   0.91629  -0.33989   0.84171  -0.30378
  25   32716.1    305.7   0.027068838   0.27239  -0.01010   0.21610  -0.47496
  26   32914.9    303.8   0.031124733   0.31131  -0.01538   0.33720  -0.44426
  27   33139.2    301.8   0.202797010   2.01463  -1.22065   0.48478  -0.53816
  28   33264.4    300.6   0.078227531   0.77420   0.44498   0.68222  -0.33283
  29   33924.4    294.8   0.000087042   0.00084  -0.02632   0.01146  -0.00456
  30   34309.6    291.5   0.007600933   0.07293   0.22896   0.14292  -0.00919
  31   34526.6    289.6   0.051647651   0.49246   0.60630  -0.24387   0.25570
  32   34627.4    288.8   0.002134012   0.02029   0.03005   0.13921  -0.00263
  33   35014.4    285.6   0.025284964   0.23773   0.26194  -0.23719   0.33595
  34   35219.4    283.9   0.070230140   0.65647   0.15928   0.70304  -0.36992
  35   35305.2    283.2   0.034709170   0.32365   0.36911   0.36199  -0.23743
  36   35527.0    281.5   0.030704813   0.28453  -0.28275  -0.37657   0.25055
  37   35757.1    279.7   0.026154792   0.24080  -0.16539  -0.41930   0.19400
  38   35859.7    278.9   0.038339431   0.35198   0.04206   0.32795  -0.49260
  39   36039.5    277.5   0.054441235   0.49731   0.50162   0.01232   0.49552
  40   36427.5    274.5   0.112823692   1.01964   0.08575  -0.64957   0.76834
  41   36802.6    271.7   0.003434512   0.03072  -0.15680  -0.07579  -0.01977
  42   36847.7    271.4   0.018082968   0.16156   0.02835   0.19870  -0.34825
  43   37083.7    269.7   0.021485563   0.19074  -0.01772   0.27370  -0.33987
  44   37329.5    267.9   0.008728724   0.07698  -0.08804  -0.23353   0.12122
  45   37507.2    266.6   0.099447303   0.87288  -0.66510  -0.47976   0.44761
  46   37581.9    266.1   0.026214703   0.22964   0.16188  -0.03552  -0.44963
  47   37784.7    264.7   0.039771182   0.34652   0.57759  -0.08018  -0.08050
  48   38069.4    262.7   0.019837276   0.17155  -0.20026  -0.26647   0.24584
  49   38475.3    259.9   0.205519623   1.75852   0.71997  -0.91572   0.63373
  50   38577.0    259.2   0.016403630   0.13999   0.04415  -0.19236  -0.31786
  51   38653.5    258.7   0.001896099   0.01615   0.00165  -0.11253   0.05902
  52   38799.9    257.7   0.030384301   0.25781  -0.42732  -0.25303   0.10573
  53   38859.0    257.3   0.016986472   0.14391  -0.32840   0.15638  -0.10775
  54   38999.6    256.4   0.046019376   0.38847  -0.47507   0.34067  -0.21616
  55   40219.7    248.6   0.034244203   0.28030  -0.38861   0.14570  -0.32872
  56   40303.6    248.1   0.007598670   0.06207  -0.04068   0.05430   0.23972

FINAL SINGLE POINT ENERGY     -5330.231785174512

DIPOLE MOMENT
-------------
                                X             Y             Z
Electronic contribution:      9.13899      34.44854      -4.11005
Nuclear contribution   :     -9.90980     -35.24679       2.89414
                        -----------------------------------------
Total Dipole Moment    :     -0.77081      -0.79825      -1.21591
                        -----------------------------------------
Magnitude (a.u.)       :      1.64615
Magnitude (Debye)      :      4.18417

Rotational constants in cm-1:     0.001500     0.000284     0.000260
Rotational constants in MHz :    44.959612     8.525252     7.786612

                             ****ORCA TERMINATED NORMALLY****
TOTAL RUN TIME: 0 days 0 hours 11 minutes 18 seconds 567 msec
