                         Program Version 4.2.0 -  RELEASE  -
|  1> # ORCA input file
|  2> # SCF done       -166.844050424337          0.000447042289
|  3> ! CAM-B3LYP def2-SVP def2/J RIJCOSX Grid4 TightSCF
|  4> %maxcore 5000
|  5> %tddft
|  6>     Mode sTDDFT
|  7>     Ethresh 5.0
|  8>     maxcore 5000
|  9> end
| 10>
| 11> %pal
| 12>   nprocs 6
| 13>   end
| 14> * xyz 0 1
| 15>    C        0.32371       -15.06301        -5.30127
| 16>    C        1.61137       -15.15380        -4.94389
| 17>    C        2.40601       -16.33722        -4.77632
| 18>    C        3.67352       -16.11459        -4.36172
| 19>    C        3.99604       -14.74438        -4.16799
| 20>    S        2.61061       -13.73905        -4.57353
| 21>    C        5.16385       -14.19768        -3.70236
| 22>    C        6.35617       -14.84133        -3.28659
| 23>    C        7.31359       -14.00347        -2.80802
| 24>    C        6.94875       -12.63314        -2.81434
| 25>    S        5.32051       -12.46089        -3.49405
| 26>    C        7.64201       -11.55477        -2.35302
| 27>    N        7.12494       -10.30325        -2.44516
| 28>    C        7.58571        -9.14540        -1.91908
| 29>    S        9.14409        -9.03616        -1.16368
| 30>    C        8.90155        -7.32741        -0.95761
| 31>    N        9.91303        -6.61043        -0.33943
| 32>    O        9.75844        -5.40566        -0.19125
| 33>    O       10.90230        -7.24207         0.01763
| 34>    C        7.69079        -6.89030        -1.44111
| 35>    C        6.90628        -7.91884        -1.98126
| 36>    C        5.60025        -7.70852        -2.56874
| 37>    C        4.60984        -8.62227        -2.60580
| 38>    N        3.39557        -8.47129        -3.19180
| 39>    C        3.06585        -7.36568        -4.05743
| 40>    N        1.75093        -7.71085        -4.54473
| 41>    C        1.71332        -9.16071        -4.67474
| 42>    C        0.27212        -9.66770        -4.61836
| 43>    C        0.20047       -11.09012        -4.07187
| 44>    C        0.84995       -11.21372        -2.66504
| 45>    C        1.63277        -9.96164        -2.27981
| 46>    C        2.54103        -9.61195        -3.45947
| 47>    N       -0.28435       -11.49279        -1.80473
| 48>    C       -1.26733       -12.17473        -2.62697
| 49>    N       -1.18606       -11.53821        -3.92235
| 50>    C       -0.11789       -11.77731        -0.47569
| 51>    C       -0.95224       -12.48621         0.30288
| 52>    C       -0.71978       -12.64887         1.71149
| 53>    C       -1.46936       -13.36492         2.55999
| 54>    C       -2.71499       -14.10298         2.16450
| 55>    C       -1.08918       -13.49475         4.00916
| 56>    N       -2.18488       -13.05184         4.85648
| 57>    C       -2.09106       -13.28202         6.22500
| 58>    C       -2.59568       -12.46659         7.15689
| 59>    N       -2.68172       -12.74459         8.51336
| 60>    C       -3.18229       -11.76253         9.45258
| 61>    N       -3.30058       -12.48759        10.69746
| 62>    C       -2.15378       -13.39892        10.70743
| 63>    C       -1.03484       -12.78557        11.55297
| 64>    C        0.25388       -13.59036        11.45144
| 65>    C        0.60587       -13.96595         9.98433
| 66>    C       -0.26684       -13.20476         8.98921
| 67>    C       -1.73647       -13.58536         9.21795
| 68>    N        2.00917       -13.61085         9.87396
| 69>    C        2.52833       -13.34507        11.20788
| 70>    N        1.40479       -12.85179        11.96452
| 71>    C        2.79946       -14.14919         8.88918
| 72>    C        4.12593       -14.23672         8.90041
| 73>    H       -0.24487       -15.95079        -5.51531
| 74>    H       -0.18286       -14.11809        -5.37925
| 75>    H        1.98420       -17.30801        -4.96744
| 76>    H        4.39819       -16.88842        -4.17850
| 77>    H        6.46290       -15.90954        -3.34607
| 78>    H        8.27310       -14.31990        -2.43971
| 79>    H        8.60512       -11.66131        -1.87818
| 80>    H        6.27094       -10.21608        -2.98783
| 81>    H        7.38987        -5.86021        -1.38265
| 82>    H        5.43540        -6.72137        -2.97261
| 83>    H        4.70070        -9.56800        -2.08847
| 84>    H        3.83134        -7.26229        -4.85710
| 85>    H        3.02091        -6.42497        -3.49487
| 86>    H        1.51024        -7.22733        -5.40070
| 87>    H        2.20252        -9.51893        -5.59695
| 88>    H       -0.17564        -9.63915        -5.61252
| 89>    H       -0.29818        -8.99865        -3.97152
| 90>    H        0.71013       -11.76924        -4.76629
| 91>    H        1.54652       -12.06849        -2.67087
| 92>    H        2.24158       -10.14968        -1.39491
| 93>    H        0.96335        -9.13004        -2.06394
| 94>    H        3.14317       -10.49659        -3.70448
| 95>    H       -2.26740       -12.08916        -2.20013
| 96>    H       -1.01338       -13.24391        -2.73938
| 97>    H       -1.80227       -10.73209        -3.94724
| 98>    H        0.76119       -11.32043        -0.04135
| 99>    H       -1.82247       -12.96094        -0.12049
|100>    H        0.16290       -12.14982         2.09488
|101>    H       -2.46330       -15.03784         1.66200
|102>    H       -3.32733       -13.51129         1.48785
|103>    H       -3.29914       -14.33369         3.05161
|104>    H       -0.15866       -12.93740         4.20581
|105>    H       -0.90633       -14.54990         4.24779
|106>    H       -2.48945       -12.11237         4.63196
|107>    H       -1.63350       -14.22574         6.48061
|108>    H       -3.07603       -11.54152         6.86733
|109>    H       -4.14264       -11.35945         9.12616
|110>    H       -2.47910       -10.92262         9.59807
|111>    H       -4.16342       -13.02059        10.69307
|112>    H       -2.44074       -14.35558        11.15174
|113>    H       -1.36182       -12.73554        12.59120
|114>    H       -0.86212       -11.76174        11.21929
|115>    H        0.16528       -14.50814        12.04576
|116>    H        0.45578       -15.04532         9.82361
|117>    H        0.02326       -13.45341         7.96830
|118>    H       -0.12930       -12.13010         9.11368
|119>    H       -1.88146       -14.62772         8.90636
|120>    H        3.33993       -12.61610        11.17250
|121>    H        2.89964       -14.27133        11.67943
|122>    H        1.27707       -11.86189        11.77434
|123>    H        2.23864       -14.47651         8.02305
|124>    H        4.72337       -13.92232         9.73630
|125>    H        4.65252       -14.61865         8.04599
|126> *
|127>
|128>                          ****END OF INPUT****

CARTESIAN COORDINATES (ANGSTROEM)
---------------------------------
  C      0.323710  -15.063010   -5.301270
  C      1.611370  -15.153800   -4.943890
  C      2.406010  -16.337220   -4.776320
  C      3.673520  -16.114590   -4.361720
  C      3.996040  -14.744380   -4.167990
  S      2.610610  -13.739050   -4.573530
  C      5.163850  -14.197680   -3.702360
  C      6.356170  -14.841330   -3.286590
  C      7.313590  -14.003470   -2.808020
  C      6.948750  -12.633140   -2.814340
  S      5.320510  -12.460890   -3.494050
  C      7.642010  -11.554770   -2.353020
  N      7.124940  -10.303250   -2.445160
  C      7.585710   -9.145400   -1.919080
  S      9.144090   -9.036160   -1.163680
  C      8.901550   -7.327410   -0.957610
  N      9.913030   -6.610430   -0.339430
  O      9.758440   -5.405660   -0.191250
  O     10.902300   -7.242070    0.017630
  C      7.690790   -6.890300   -1.441110
  C      6.906280   -7.918840   -1.981260
  C      5.600250   -7.708520   -2.568740
  C      4.609840   -8.622270   -2.605800
  N      3.395570   -8.471290   -3.191800
  C      3.065850   -7.365680   -4.057430
  N      1.750930   -7.710850   -4.544730
  C      1.713320   -9.160710   -4.674740
  C      0.272120   -9.667700   -4.618360
  C      0.200470  -11.090120   -4.071870
  C      0.849950  -11.213720   -2.665040
  C      1.632770   -9.961640   -2.279810
  C      2.541030   -9.611950   -3.459470
  N     -0.284350  -11.492790   -1.804730
  C     -1.267330  -12.174730   -2.626970
  N     -1.186060  -11.538210   -3.922350
  C     -0.117890  -11.777310   -0.475690
  C     -0.952240  -12.486210    0.302880
  C     -0.719780  -12.648870    1.711490
  C     -1.469360  -13.364920    2.559990
  C     -2.714990  -14.102980    2.164500
  C     -1.089180  -13.494750    4.009160
  N     -2.184880  -13.051840    4.856480
  C     -2.091060  -13.282020    6.225000
  C     -2.595680  -12.466590    7.156890
  N     -2.681720  -12.744590    8.513360
  C     -3.182290  -11.762530    9.452580
  N     -3.300580  -12.487590   10.697460
  C     -2.153780  -13.398920   10.707430
  C     -1.034840  -12.785570   11.552970
  C      0.253880  -13.590360   11.451440
  C      0.605870  -13.965950    9.984330
  C     -0.266840  -13.204760    8.989210
  C     -1.736470  -13.585360    9.217950
  N      2.009170  -13.610850    9.873960
  C      2.528330  -13.345070   11.207880
  N      1.404790  -12.851790   11.964520
  C      2.799460  -14.149190    8.889180
  C      4.125930  -14.236720    8.900410
  H     -0.244870  -15.950790   -5.515310
  H     -0.182860  -14.118090   -5.379250
  H      1.984200  -17.308010   -4.967440
  H      4.398190  -16.888420   -4.178500
  H      6.462900  -15.909540   -3.346070
  H      8.273100  -14.319900   -2.439710
  H      8.605120  -11.661310   -1.878180
  H      6.270940  -10.216080   -2.987830
  H      7.389870   -5.860210   -1.382650
  H      5.435400   -6.721370   -2.972610
  H      4.700700   -9.568000   -2.088470
  H      3.831340   -7.262290   -4.857100
  H      3.020910   -6.424970   -3.494870
  H      1.510240   -7.227330   -5.400700
  H      2.202520   -9.518930   -5.596950
  H     -0.175640   -9.639150   -5.612520
  H     -0.298180   -8.998650   -3.971520
  H      0.710130  -11.769240   -4.766290
  H      1.546520  -12.068490   -2.670870
  H      2.241580  -10.149680   -1.394910
  H      0.963350   -9.130040   -2.063940
  H      3.143170  -10.496590   -3.704480
  H     -2.267400  -12.089160   -2.200130
  H     -1.013380  -13.243910   -2.739380
  H     -1.802270  -10.732090   -3.947240
  H      0.761190  -11.320430   -0.041350
  H     -1.822470  -12.960940   -0.120490
  H      0.162900  -12.149820    2.094880
  H     -2.463300  -15.037840    1.662000
  H     -3.327330  -13.511290    1.487850
  H     -3.299140  -14.333690    3.051610
  H     -0.158660  -12.937400    4.205810
  H     -0.906330  -14.549900    4.247790
  H     -2.489450  -12.112370    4.631960
  H     -1.633500  -14.225740    6.480610
  H     -3.076030  -11.541520    6.867330
  H     -4.142640  -11.359450    9.126160
  H     -2.479100  -10.922620    9.598070
  H     -4.163420  -13.020590   10.693070
  H     -2.440740  -14.355580   11.151740
  H     -1.361820  -12.735540   12.591200
  H     -0.862120  -11.761740   11.219290
  H      0.165280  -14.508140   12.045760
  H      0.455780  -15.045320    9.823610
  H      0.023260  -13.453410    7.968300
  H     -0.129300  -12.130100    9.113680
  H     -1.881460  -14.627720    8.906360
  H      3.339930  -12.616100   11.172500
  H      2.899640  -14.271330   11.679430
  H      1.277070  -11.861890   11.774340
  H      2.238640  -14.476510    8.023050
  H      4.723370  -13.922320    9.736300
  H      4.652520  -14.618650    8.045990

 Total Charge           Charge          ....    0
 Multiplicity           Mult            ....    1
 Number of Electrons    NEL             ....  446
 Basis Dimension        Dim             .... 1089

ORBITAL ENERGIES
----------------

  NO   OCC          E(Eh)            E(eV)
   0   2.0000     -88.970934     -2421.0222
   1   2.0000     -88.953704     -2420.5533
   2   2.0000     -88.943493     -2420.2755
   3   2.0000     -19.217148      -522.9252
   4   2.0000     -19.216762      -522.9147
   5   2.0000     -14.629087      -398.0777
   6   2.0000     -14.477719      -393.9588
   7   2.0000     -14.431742      -392.7077
   8   2.0000     -14.412268      -392.1778
   9   2.0000     -14.403685      -391.9442
  10   2.0000     -14.397489      -391.7756
  11   2.0000     -14.393196      -391.6588
  12   2.0000     -14.388775      -391.5385
  13   2.0000     -14.384287      -391.4163
  14   2.0000     -14.382414      -391.3654
  15   2.0000     -14.381216      -391.3328
  16   2.0000     -10.353766      -281.7403
  17   2.0000     -10.335481      -281.2427
  18   2.0000     -10.332138      -281.1518
  19   2.0000     -10.324256      -280.9373
  20   2.0000     -10.315975      -280.7119
  21   2.0000     -10.315646      -280.7030
  22   2.0000     -10.314643      -280.6757
  23   2.0000     -10.309999      -280.5493
  24   2.0000     -10.309773      -280.5432
  25   2.0000     -10.309284      -280.5299
  26   2.0000     -10.308329      -280.5039
  27   2.0000     -10.307059      -280.4693
  28   2.0000     -10.306348      -280.4500
  29   2.0000     -10.304718      -280.4056
  30   2.0000     -10.295805      -280.1631
  31   2.0000     -10.295181      -280.1461
  32   2.0000     -10.293353      -280.0964
  33   2.0000     -10.293060      -280.0884
  34   2.0000     -10.291226      -280.0385
  35   2.0000     -10.289954      -280.0039
  36   2.0000     -10.288977      -279.9773
  37   2.0000     -10.288906      -279.9754
  38   2.0000     -10.286539      -279.9109
  39   2.0000     -10.286446      -279.9084
  40   2.0000     -10.286293      -279.9043
  41   2.0000     -10.284900      -279.8664
  42   2.0000     -10.283557      -279.8298
  43   2.0000     -10.279805      -279.7277
  44   2.0000     -10.276131      -279.6277
  45   2.0000     -10.269195      -279.4390
  46   2.0000     -10.268918      -279.4315
  47   2.0000     -10.265289      -279.3327
  48   2.0000     -10.265017      -279.3253
  49   2.0000     -10.264387      -279.3082
  50   2.0000     -10.261332      -279.2250
  51   2.0000     -10.253259      -279.0054
  52   2.0000     -10.247229      -278.8413
  53   2.0000     -10.243468      -278.7389
  54   2.0000     -10.242293      -278.7070
  55   2.0000     -10.237393      -278.5736
  56   2.0000     -10.236782      -278.5570
  57   2.0000     -10.221751      -278.1480
  58   2.0000      -8.066339      -219.4963
  59   2.0000      -8.049417      -219.0358
  60   2.0000      -8.039214      -218.7581
  61   2.0000      -6.036058      -164.2495
  62   2.0000      -6.031697      -164.1308
  63   2.0000      -6.027695      -164.0219
  64   2.0000      -6.019269      -163.7926
  65   2.0000      -6.015393      -163.6872
  66   2.0000      -6.010159      -163.5447
  67   2.0000      -6.009099      -163.5159
  68   2.0000      -6.005197      -163.4097
  69   2.0000      -5.999820      -163.2634
  70   2.0000      -1.294646       -35.2291
  71   2.0000      -1.113186       -30.2913
  72   2.0000      -1.087040       -29.5799
  73   2.0000      -1.080948       -29.4141
  74   2.0000      -1.063016       -28.9261
  75   2.0000      -1.053593       -28.6697
  76   2.0000      -1.047188       -28.4954
  77   2.0000      -0.997758       -27.1504
  78   2.0000      -0.988462       -26.8974
  79   2.0000      -0.987348       -26.8671
  80   2.0000      -0.984052       -26.7774
  81   2.0000      -0.969295       -26.3759
  82   2.0000      -0.967592       -26.3295
  83   2.0000      -0.957018       -26.0418
  84   2.0000      -0.947401       -25.7801
  85   2.0000      -0.915588       -24.9144
  86   2.0000      -0.902833       -24.5673
  87   2.0000      -0.894522       -24.3412
  88   2.0000      -0.884126       -24.0583
  89   2.0000      -0.882853       -24.0236
  90   2.0000      -0.867279       -23.5999
  91   2.0000      -0.848916       -23.1002
  92   2.0000      -0.848000       -23.0752
  93   2.0000      -0.842498       -22.9255
  94   2.0000      -0.836257       -22.7557
  95   2.0000      -0.825856       -22.4727
  96   2.0000      -0.823425       -22.4065
  97   2.0000      -0.819908       -22.3108
  98   2.0000      -0.812779       -22.1168
  99   2.0000      -0.808185       -21.9918
 100   2.0000      -0.795451       -21.6453
 101   2.0000      -0.793872       -21.6024
 102   2.0000      -0.784233       -21.3401
 103   2.0000      -0.761253       -20.7147
 104   2.0000      -0.754929       -20.5427
 105   2.0000      -0.745777       -20.2936
 106   2.0000      -0.741194       -20.1689
 107   2.0000      -0.732619       -19.9356
 108   2.0000      -0.726533       -19.7700
 109   2.0000      -0.719298       -19.5731
 110   2.0000      -0.711843       -19.3702
 111   2.0000      -0.707923       -19.2636
 112   2.0000      -0.699775       -19.0418
 113   2.0000      -0.686985       -18.6938
 114   2.0000      -0.683481       -18.5985
 115   2.0000      -0.680510       -18.5176
 116   2.0000      -0.671514       -18.2728
 117   2.0000      -0.666240       -18.1293
 118   2.0000      -0.651405       -17.7256
 119   2.0000      -0.645978       -17.5779
 120   2.0000      -0.640012       -17.4156
 121   2.0000      -0.636223       -17.3125
 122   2.0000      -0.628506       -17.1025
 123   2.0000      -0.625844       -17.0301
 124   2.0000      -0.619592       -16.8600
 125   2.0000      -0.616722       -16.7819
 126   2.0000      -0.615380       -16.7454
 127   2.0000      -0.612504       -16.6671
 128   2.0000      -0.609780       -16.5930
 129   2.0000      -0.607958       -16.5434
 130   2.0000      -0.604824       -16.4581
 131   2.0000      -0.601590       -16.3701
 132   2.0000      -0.599756       -16.3202
 133   2.0000      -0.592874       -16.1329
 134   2.0000      -0.587728       -15.9929
 135   2.0000      -0.585113       -15.9217
 136   2.0000      -0.578416       -15.7395
 137   2.0000      -0.571209       -15.5434
 138   2.0000      -0.569437       -15.4952
 139   2.0000      -0.567805       -15.4508
 140   2.0000      -0.562350       -15.3023
 141   2.0000      -0.556175       -15.1343
 142   2.0000      -0.554978       -15.1017
 143   2.0000      -0.549528       -14.9534
 144   2.0000      -0.545442       -14.8422
 145   2.0000      -0.542873       -14.7723
 146   2.0000      -0.538884       -14.6638
 147   2.0000      -0.529364       -14.4047
 148   2.0000      -0.527163       -14.3448
 149   2.0000      -0.525005       -14.2861
 150   2.0000      -0.522847       -14.2274
 151   2.0000      -0.519849       -14.1458
 152   2.0000      -0.519036       -14.1237
 153   2.0000      -0.516071       -14.0430
 154   2.0000      -0.514023       -13.9873
 155   2.0000      -0.511470       -13.9178
 156   2.0000      -0.505059       -13.7434
 157   2.0000      -0.504324       -13.7234
 158   2.0000      -0.503825       -13.7098
 159   2.0000      -0.501265       -13.6401
 160   2.0000      -0.498726       -13.5710
 161   2.0000      -0.496281       -13.5045
 162   2.0000      -0.492126       -13.3914
 163   2.0000      -0.489870       -13.3300
 164   2.0000      -0.487778       -13.2731
 165   2.0000      -0.486913       -13.2496
 166   2.0000      -0.483427       -13.1547
 167   2.0000      -0.476654       -12.9704
 168   2.0000      -0.471491       -12.8299
 169   2.0000      -0.468755       -12.7555
 170   2.0000      -0.468274       -12.7424
 171   2.0000      -0.467583       -12.7236
 172   2.0000      -0.464355       -12.6358
 173   2.0000      -0.462333       -12.5807
 174   2.0000      -0.459373       -12.5002
 175   2.0000      -0.454329       -12.3629
 176   2.0000      -0.453500       -12.3404
 177   2.0000      -0.450544       -12.2599
 178   2.0000      -0.447948       -12.1893
 179   2.0000      -0.445905       -12.1337
 180   2.0000      -0.442522       -12.0416
 181   2.0000      -0.441320       -12.0089
 182   2.0000      -0.440505       -11.9868
 183   2.0000      -0.434173       -11.8145
 184   2.0000      -0.433967       -11.8089
 185   2.0000      -0.433110       -11.7855
 186   2.0000      -0.430679       -11.7194
 187   2.0000      -0.426808       -11.6140
 188   2.0000      -0.425834       -11.5875
 189   2.0000      -0.423690       -11.5292
 190   2.0000      -0.418277       -11.3819
 191   2.0000      -0.416564       -11.3353
 192   2.0000      -0.414403       -11.2765
 193   2.0000      -0.408883       -11.1263
 194   2.0000      -0.401200       -10.9172
 195   2.0000      -0.398494       -10.8436
 196   2.0000      -0.397475       -10.8158
 197   2.0000      -0.394863       -10.7448
 198   2.0000      -0.390801       -10.6342
 199   2.0000      -0.383553       -10.4370
 200   2.0000      -0.382973       -10.4212
 201   2.0000      -0.378322       -10.2947
 202   2.0000      -0.374189       -10.1822
 203   2.0000      -0.367137        -9.9903
 204   2.0000      -0.362386        -9.8610
 205   2.0000      -0.359026        -9.7696
 206   2.0000      -0.345902        -9.4125
 207   2.0000      -0.344235        -9.3671
 208   2.0000      -0.341839        -9.3019
 209   2.0000      -0.336707        -9.1623
 210   2.0000      -0.325777        -8.8648
 211   2.0000      -0.320274        -8.7151
 212   2.0000      -0.315953        -8.5975
 213   2.0000      -0.313527        -8.5315
 214   2.0000      -0.304311        -8.2807
 215   2.0000      -0.303832        -8.2677
 216   2.0000      -0.297323        -8.0906
 217   2.0000      -0.291704        -7.9377
 218   2.0000      -0.252737        -6.8773
 219   2.0000      -0.247274        -6.7287
 220   2.0000      -0.229801        -6.2532
 221   2.0000      -0.216118        -5.8809
 222   2.0000      -0.206025        -5.6062
 223   0.0000      -0.065029        -1.7695
 224   0.0000      -0.031768        -0.8645
 225   0.0000       0.012068         0.3284
 226   0.0000       0.023208         0.6315
 227   0.0000       0.035088         0.9548

MULLIKEN ATOMIC CHARGES
-----------------------
   0 C :   -0.046602
   1 C :   -0.051832
   2 C :    0.048376
   3 C :    0.033557
   4 C :   -0.054738
   5 S :    0.035033
   6 C :   -0.030264
   7 C :    0.016939
   8 C :    0.048238
   9 C :   -0.044956
  10 S :   -0.006398
  11 C :    0.048358
  12 N :   -0.037524
  13 C :   -0.130661
  14 S :    0.144430
  15 C :   -0.014417
  16 N :    0.282306
  17 O :   -0.268278
  18 O :   -0.283519
  19 C :    0.002663
  20 C :    0.126501
  21 C :   -0.098819
  22 C :    0.070131
  23 N :   -0.292423
  24 C :    0.290616
  25 N :   -0.259515
  26 C :   -0.019760
  27 C :    0.214286
  28 C :   -0.046151
  29 C :    0.004328
  30 C :    0.253926
  31 C :    0.013780
  32 N :   -0.296501
  33 C :    0.245899
  34 N :   -0.213280
  35 C :    0.113254
  36 C :   -0.057145
  37 C :    0.013585
  38 C :   -0.238220
  39 C :    0.100127
  40 C :    0.236039
  41 N :   -0.211577
  42 C :    0.032694
  43 C :    0.043484
  44 N :   -0.298318
  45 C :    0.258181
  46 N :   -0.201726
  47 C :   -0.087556
  48 C :    0.247356
  49 C :   -0.038336
  50 C :    0.032590
  51 C :    0.258991
  52 C :    0.002436
  53 N :   -0.307933
  54 C :    0.247989
  55 N :   -0.217400
  56 C :    0.094578
  57 C :   -0.102607
  58 H :    0.019180
  59 H :    0.035923
  60 H :   -0.011656
  61 H :   -0.010862
  62 H :   -0.012249
  63 H :   -0.009341
  64 H :    0.021672
  65 H :    0.137300
  66 H :    0.002013
  67 H :   -0.008932
  68 H :    0.008208
  69 H :   -0.010698
  70 H :    0.015636
  71 H :    0.108724
  72 H :   -0.008106
  73 H :    0.007536
  74 H :   -0.027886
  75 H :   -0.001874
  76 H :   -0.003529
  77 H :    0.001712
  78 H :   -0.026611
  79 H :    0.002071
  80 H :    0.019861
  81 H :    0.001756
  82 H :    0.098138
  83 H :   -0.013741
  84 H :   -0.025724
  85 H :   -0.044301
  86 H :    0.012540
  87 H :    0.011528
  88 H :    0.013621
  89 H :   -0.021433
  90 H :   -0.002294
  91 H :    0.096269
  92 H :   -0.015070
  93 H :   -0.030507
  94 H :    0.008146
  95 H :   -0.009461
  96 H :    0.098141
  97 H :   -0.004995
  98 H :    0.011580
  99 H :   -0.048279
 100 H :   -0.008814
 101 H :   -0.021334
 102 H :   -0.011077
 103 H :   -0.050590
 104 H :   -0.013544
 105 H :    0.018873
 106 H :   -0.001652
 107 H :    0.096931
 108 H :   -0.003981
 109 H :    0.003672
 110 H :    0.003297
Sum of atomic charges:    0.0000000

LOEWDIN ATOMIC CHARGES
----------------------
   0 C :   -0.079745
   1 C :   -0.137879
   2 C :   -0.035123
   3 C :   -0.025207
   4 C :   -0.187189
   5 S :    0.356443
   6 C :   -0.171588
   7 C :   -0.045890
   8 C :   -0.025788
   9 C :   -0.188115
  10 S :    0.331678
  11 C :   -0.000950
  12 N :    0.045112
  13 C :   -0.113271
  14 S :    0.441310
  15 C :   -0.220035
  16 N :    0.275318
  17 O :   -0.233991
  18 O :   -0.250129
  19 C :   -0.000827
  20 C :   -0.091929
  21 C :   -0.123212
  22 C :    0.017808
  23 N :   -0.042603
  24 C :    0.097382
  25 N :   -0.105342
  26 C :    0.026551
  27 C :   -0.034944
  28 C :    0.018667
  29 C :    0.021897
  30 C :   -0.032080
  31 C :    0.036741
  32 N :   -0.071061
  33 C :    0.088556
  34 N :   -0.101279
  35 C :    0.029951
  36 C :   -0.114578
  37 C :   -0.043104
  38 C :   -0.066055
  39 C :   -0.056464
  40 C :    0.039632
  41 N :   -0.063694
  42 C :   -0.048521
  43 C :   -0.051478
  44 N :   -0.094639
  45 C :    0.084560
  46 N :   -0.096427
  47 C :    0.023210
  48 C :   -0.028993
  49 C :    0.019227
  50 C :    0.023066
  51 C :   -0.039405
  52 C :    0.020641
  53 N :   -0.081845
  54 C :    0.088367
  55 N :   -0.098078
  56 C :    0.023564
  57 C :   -0.157585
  58 H :    0.029213
  59 H :    0.028830
  60 H :    0.033562
  61 H :    0.033136
  62 H :    0.032499
  63 H :    0.035171
  64 H :    0.032113
  65 H :    0.074386
  66 H :    0.043509
  67 H :    0.026962
  68 H :    0.019578
  69 H :   -0.007098
  70 H :    0.017083
  71 H :    0.063038
  72 H :    0.007896
  73 H :    0.026729
  74 H :    0.022995
  75 H :    0.003314
  76 H :   -0.002597
  77 H :    0.021678
  78 H :    0.025835
  79 H :    0.009177
  80 H :    0.019393
  81 H :    0.003793
  82 H :    0.055969
  83 H :    0.021067
  84 H :    0.017763
  85 H :    0.018316
  86 H :    0.029965
  87 H :    0.025850
  88 H :    0.026311
  89 H :    0.003916
  90 H :    0.020410
  91 H :    0.063829
  92 H :    0.013271
  93 H :    0.013925
  94 H :    0.015865
  95 H :   -0.005983
  96 H :    0.056856
  97 H :    0.019089
  98 H :    0.030912
  99 H :    0.017671
 100 H :    0.017480
 101 H :    0.006742
 102 H :    0.020166
 103 H :    0.018579
 104 H :    0.011329
 105 H :    0.018306
 106 H :    0.003794
 107 H :    0.053389
 108 H :    0.020865
 109 H :    0.013518
 110 H :    0.019997

  Mayer bond orders larger than 0.100000
B(  0-C ,  1-C ) :   1.8650 B(  0-C , 58-H ) :   0.9499 B(  0-C , 59-H ) :   0.9365
B(  1-C ,  2-C ) :   1.0806 B(  1-C ,  5-S ) :   1.0042 B(  2-C ,  3-C ) :   1.6631
B(  2-C , 60-H ) :   0.9926 B(  3-C ,  4-C ) :   1.1522 B(  3-C , 61-H ) :   0.9911
B(  4-C ,  5-S ) :   1.0280 B(  4-C ,  6-C ) :   1.5733 B(  6-C ,  7-C ) :   1.1649
B(  6-C , 10-S ) :   1.0305 B(  7-C ,  8-C ) :   1.6298 B(  7-C , 62-H ) :   0.9920
B(  8-C ,  9-C ) :   1.1489 B(  8-C , 63-H ) :   0.9931 B(  9-C , 10-S ) :   0.9981
B(  9-C , 11-C ) :   1.6073 B( 11-C , 12-N ) :   1.1488 B( 11-C , 64-H ) :   0.9638
B( 12-N , 13-C ) :   1.2150 B( 12-N , 65-H ) :   0.8903 B( 13-C , 14-S ) :   1.1238
B( 13-C , 20-C ) :   1.3700 B( 14-S , 15-C ) :   1.0681 B( 15-C , 16-N ) :   1.0017
B( 15-C , 19-C ) :   1.4457 B( 16-N , 17-O ) :   1.5158 B( 16-N , 18-O ) :   1.4910
B( 17-O , 18-O ) :   0.2463 B( 19-C , 20-C ) :   1.2552 B( 19-C , 66-H ) :   1.0091
B( 20-C , 21-C ) :   1.0581 B( 21-C , 22-C ) :   1.6472 B( 21-C , 67-H ) :   0.9618
B( 22-C , 23-N ) :   1.1840 B( 22-C , 68-H ) :   0.9607 B( 23-N , 24-C ) :   0.9867
B( 23-N , 31-C ) :   0.9841 B( 24-C , 25-N ) :   1.0378 B( 24-C , 69-H ) :   0.9366
B( 24-C , 70-H ) :   0.9463 B( 25-N , 26-C ) :   1.0298 B( 25-N , 71-H ) :   0.9434
B( 26-C , 27-C ) :   1.0729 B( 26-C , 31-C ) :   1.0188 B( 26-C , 72-H ) :   0.9055
B( 27-C , 28-C ) :   1.1307 B( 27-C , 73-H ) :   0.9280 B( 27-C , 74-H ) :   0.8478
B( 28-C , 29-C ) :   0.9744 B( 28-C , 34-N ) :   1.1155 B( 28-C , 75-H ) :   0.8973
B( 29-C , 30-C ) :   1.0963 B( 29-C , 32-N ) :   0.9735 B( 29-C , 76-H ) :   0.8948
B( 30-C , 31-C ) :   1.1155 B( 30-C , 77-H ) :   0.9204 B( 30-C , 78-H ) :   0.8473
B( 31-C , 79-H ) :   0.9108 B( 32-N , 33-C ) :   0.9673 B( 32-N , 35-C ) :   1.1261
B( 33-C , 34-N ) :   1.0843 B( 33-C , 80-H ) :   0.9506 B( 33-C , 81-H ) :   0.9434
B( 34-N , 82-H ) :   0.9388 B( 35-C , 36-C ) :   1.6987 B( 35-C , 83-H ) :   0.9674
B( 36-C , 37-C ) :   1.0913 B( 36-C , 84-H ) :   0.9675 B( 37-C , 38-C ) :   1.7926
B( 37-C , 85-H ) :   0.9695 B( 38-C , 39-C ) :   1.0716 B( 38-C , 40-C ) :   1.0565
B( 39-C , 86-H ) :   0.9472 B( 39-C , 87-H ) :   0.9488 B( 39-C , 88-H ) :   0.9443
B( 40-C , 41-N ) :   0.9807 B( 40-C , 89-H ) :   0.9276 B( 40-C , 90-H ) :   0.9228
B( 41-N , 42-C ) :   1.1113 B( 41-N , 91-H ) :   0.9474 B( 42-C , 43-C ) :   1.7521
B( 42-C , 92-H ) :   0.9508 B( 43-C , 44-N ) :   1.0748 B( 43-C , 93-H ) :   0.9668
B( 44-N , 45-C ) :   0.9701 B( 44-N , 52-C ) :   1.0427 B( 45-C , 46-N ) :   1.0752
B( 45-C , 94-H ) :   0.9558 B( 45-C , 95-H ) :   0.9371 B( 46-N , 47-C ) :   1.1230
B( 46-N , 96-H ) :   0.9477 B( 47-C , 48-C ) :   1.0797 B( 47-C , 52-C ) :   0.9771
B( 47-C , 97-H ) :   0.9151 B( 48-C , 49-C ) :   1.0826 B( 48-C , 51-C ) :   0.1099
B( 48-C , 98-H ) :   0.9319 B( 48-C , 99-H ) :   0.8502 B( 49-C , 50-C ) :   0.9685
B( 49-C , 55-N ) :   1.0896 B( 49-C ,100-H ) :   0.9007 B( 50-C , 51-C ) :   1.1133
B( 50-C , 53-N ) :   0.9949 B( 50-C ,101-H ) :   0.9046 B( 51-C , 52-C ) :   1.0955
B( 51-C ,102-H ) :   0.9223 B( 51-C ,103-H ) :   0.8347 B( 52-C ,104-H ) :   0.8997
B( 53-N , 54-C ) :   0.9619 B( 53-N , 56-C ) :   1.1269 B( 54-C , 55-N ) :   1.0831
B( 54-C ,105-H ) :   0.9534 B( 54-C ,106-H ) :   0.9445 B( 55-N ,107-H ) :   0.9432
B( 56-C , 57-C ) :   1.8920 B( 56-C ,108-H ) :   0.9606 B( 57-C ,109-H ) :   0.9586
B( 57-C ,110-H ) :   0.9478

-----------------------------------------------------------------------------
         ABSORPTION SPECTRUM VIA TRANSITION ELECTRIC DIPOLE MOMENTS
-----------------------------------------------------------------------------
State   Energy  Wavelength   fosc         T2         TX        TY        TZ
        (cm-1)    (nm)                  (au**2)     (au)      (au)      (au)
-----------------------------------------------------------------------------
   0   18175.8    550.2   1.209356701  21.90466  -2.80014  -3.40445  -1.57278
   1   22531.5    443.8   0.000771999   0.01128   0.09256   0.01122   0.05086
   2   22894.8    436.8   0.008942458   0.12859   0.31714   0.03837   0.16291
   3   25214.9    396.6   0.097302365   1.27040  -0.98674  -0.29371  -0.45879
   4   25988.4    384.8   0.137280601   1.73902   1.28784  -0.04098   0.28073
   5   29659.0    337.2   0.003672940   0.04077  -0.19380   0.03616  -0.04365
   6   30310.3    329.9   0.000106413   0.00116   0.02454   0.00598   0.02276
   7   31317.4    319.3   0.205812194   2.16352   1.34854   0.21113   0.54807
   8   31806.5    314.4   0.000007420   0.00008   0.00714   0.00426   0.00276
   9   31906.2    313.4   0.068063178   0.70228   0.62657   0.48467   0.27348
  10   32588.4    306.9   0.034823266   0.35179  -0.57917   0.12600   0.02192
  11   33940.2    294.6   0.175681987   1.70408   0.66146  -1.12343  -0.06669
  12   35523.1    281.5   0.001410360   0.01307  -0.08420   0.02089   0.07446
  13   36530.9    273.7   0.132681245   1.19571   1.00910   0.21458   0.36245
  14   37425.8    267.2   0.004510875   0.03968   0.15070  -0.07957   0.10314
  15   37890.7    263.9   0.013046536   0.11335  -0.30178   0.00928  -0.14899
  16   39152.7    255.4   0.002640495   0.02220  -0.08559  -0.12099   0.01545
  17   39204.9    255.1   0.000134899   0.00113  -0.02948   0.00158   0.01616
  18   39363.8    254.0   0.019216506   0.16071  -0.36249  -0.00782   0.17103
  19   39578.2    252.7   0.040493700   0.33683  -0.54860   0.00071   0.18938
  20   40167.6    249.0   0.000897929   0.00736   0.02631  -0.02710   0.07702
  21   40194.7    248.8   0.015136349   0.12397   0.02762  -0.13267   0.32498

FINAL SINGLE POINT ENERGY     -3576.037826340798

DIPOLE MOMENT
-------------
                                X             Y             Z
Electronic contribution:     79.55649      25.53840     -67.17992
Nuclear contribution   :    -81.78531     -27.07073      64.51270
                        -----------------------------------------
Total Dipole Moment    :     -2.22882      -1.53232      -2.66721
                        -----------------------------------------
Magnitude (a.u.)       :      3.79864
Magnitude (Debye)      :      9.65538

Rotational constants in cm-1:     0.001206     0.000477     0.000402
Rotational constants in MHz :    36.144265    14.313337    12.060633

                             ****ORCA TERMINATED NORMALLY****
TOTAL RUN TIME: 0 days 0 hours 8 minutes 54 seconds 114 msec
