                         Program Version 4.2.0 -  RELEASE  -
|  1> # ORCA input file
|  2> # SCF done       -187.141491231244          0.000921866784
|  3> ! CAM-B3LYP def2-SVP def2/J RIJCOSX Grid4 TightSCF
|  4> %maxcore 5000
|  5> %tddft
|  6>     Mode sTDDFT
|  7>     Ethresh 5.0
|  8>     maxcore 5000
|  9> end
| 10>
| 11> %pal
| 12>   nprocs 6
| 13>   end
| 14> * xyz 0 1
| 15>    C        0.54020        -3.94130        -4.41565
| 16>    C        1.78128        -4.25621        -4.02432
| 17>    C        3.01840        -3.90918        -4.66522
| 18>    C        4.12092        -4.37999        -4.04464
| 19>    C        3.85446        -5.13102        -2.86309
| 20>    S        2.12701        -5.21392        -2.57349
| 21>    C        4.76795        -5.73667        -2.04043
| 22>    C        6.16647        -5.87236        -2.24778
| 23>    C        6.80095        -6.58319        -1.28760
| 24>    C        5.95093        -7.04331        -0.23577
| 25>    S        4.29940        -6.51002        -0.53552
| 26>    C        6.39665        -7.74662         0.83806
| 27>    N        5.69834        -8.23951         1.91362
| 28>    C        4.36822        -8.47932         2.07254
| 29>    S        3.70953        -8.24912         3.66919
| 30>    C        2.15415        -8.76145         3.09519
| 31>    N        1.10061        -8.80169         4.01256
| 32>    O        0.00683        -9.14976         3.60563
| 33>    O        1.35966        -8.47706         5.16031
| 34>    C        2.15368        -9.08917         1.76854
| 35>    C        3.41787        -8.95607         1.15854
| 36>    C        3.70579        -9.31002        -0.20327
| 37>    C        2.80830        -9.77369        -1.09189
| 38>    C        3.14384        -9.96139        -2.48494
| 39>    N        4.24683        -9.43475        -2.94573
| 40>    N        2.26417       -10.70438        -3.19038
| 41>    C        2.05087       -10.50634        -4.46832
| 42>    C        2.77221        -9.44735        -5.13309
| 43>    C        2.30869        -8.35354        -5.78285
| 44>    S        3.31697        -6.98162        -5.83416
| 45>    C        4.73287        -7.80082        -5.30235
| 46>    S        4.47663        -9.38036        -4.59856
| 47>    C        1.06010       -11.27551        -5.14325
| 48>    S        0.67513       -10.95727        -6.80474
| 49>    C       -0.51696       -12.23101        -6.82198
| 50>    C       -0.55866       -12.88832        -5.59523
| 51>    C        0.32281       -12.34744        -4.65099
| 52>    C        0.48599       -12.89543        -3.27389
| 53>    C       -0.55769       -13.97492        -2.95467
| 54>    C       -0.11591       -14.73286        -1.80636
| 55>    N        0.27352       -15.32313        -0.90928
| 56>    C       -0.75414       -14.91717        -4.15757
| 57>    O       -1.61401       -15.95985        -3.75739
| 58>    C       -1.50287       -17.13689        -4.52220
| 59>    C       -1.35423       -14.11853        -5.32480
| 60>    C       -1.23499       -12.46179        -8.01732
| 61>    C       -2.43549       -13.09371        -8.13677
| 62>    C       -3.09830       -13.29194        -9.37064
| 63>    C       -2.56354       -13.38577       -10.62494
| 64>    C       -3.43018       -13.13410       -11.80617
| 65>    O       -4.63685       -13.05020       -11.81726
| 66>    C       -2.49868       -12.95340       -12.93970
| 67>    C       -2.77124       -12.58148       -14.22383
| 68>    C       -1.70382       -12.44275       -15.13987
| 69>    C       -0.37026       -12.68973       -14.70212
| 70>    C        0.68993       -12.54333       -15.61896
| 71>    C        0.43800       -12.17191       -16.90985
| 72>    C       -0.88110       -11.92868       -17.34174
| 73>    C       -1.93078       -12.06121       -16.47629
| 74>    F       -1.09861       -11.56332       -18.61265
| 75>    F        1.44767       -12.03400       -17.77985
| 76>    C       -0.11953       -13.08054       -13.36647
| 77>    C       -1.17017       -13.21635       -12.49922
| 78>    C       -1.21997       -13.62560       -11.09690
| 79>    C       -0.23726       -14.33652       -10.45158
| 80>    C       -0.41354       -14.94676        -9.19702
| 81>    N       -0.51928       -15.50588        -8.19850
| 82>    C        1.03001       -14.60440       -11.00469
| 83>    N        2.08305       -14.83399       -11.40061
| 84>    H        0.37756        -3.35976        -5.30579
| 85>    H       -0.32530        -4.25227        -3.85986
| 86>    H        3.02244        -3.32216        -5.56608
| 87>    H        5.12693        -4.20877        -4.38456
| 88>    H        6.65270        -5.45611        -3.11198
| 89>    H        7.85285        -6.80684        -1.28705
| 90>    H        7.46275        -7.91602         0.91093
| 91>    H        6.23477        -8.29510         2.77049
| 92>    H        1.26747        -9.43576         1.27087
| 93>    H        4.72805        -9.21785        -0.53639
| 94>    H        1.78348        -9.98455        -0.83212
| 95>    H        1.29327        -8.23399        -6.11500
| 96>    H        5.52025        -7.18653        -4.90572
| 97>    H        0.43174       -12.08072        -2.54860
| 98>    H        1.49339       -13.31436        -3.18247
| 99>    H       -1.52635       -13.52404        -2.71241
|100>    H        0.22446       -15.32658        -4.45634
|101>    H       -2.19382       -17.84926        -4.07677
|102>    H       -0.48453       -17.53973        -4.47624
|103>    H       -1.77218       -16.97221        -5.57044
|104>    H       -2.38685       -13.86726        -5.06083
|105>    H       -1.37115       -14.73718        -6.22577
|106>    H       -0.79876       -12.02103        -8.90642
|107>    H       -2.98454       -13.36766        -7.24928
|108>    H       -4.18338       -13.31174        -9.34026
|109>    H       -3.78702       -12.39523       -14.53779
|110>    H        1.70549       -12.72934       -15.30571
|111>    H       -2.93483       -11.87143       -16.82234
|112>    H        0.89979       -13.25351       -13.05996
|113> *
|114>
|115>                          ****END OF INPUT****

CARTESIAN COORDINATES (ANGSTROEM)
---------------------------------
  C      0.540200   -3.941300   -4.415650
  C      1.781280   -4.256210   -4.024320
  C      3.018400   -3.909180   -4.665220
  C      4.120920   -4.379990   -4.044640
  C      3.854460   -5.131020   -2.863090
  S      2.127010   -5.213920   -2.573490
  C      4.767950   -5.736670   -2.040430
  C      6.166470   -5.872360   -2.247780
  C      6.800950   -6.583190   -1.287600
  C      5.950930   -7.043310   -0.235770
  S      4.299400   -6.510020   -0.535520
  C      6.396650   -7.746620    0.838060
  N      5.698340   -8.239510    1.913620
  C      4.368220   -8.479320    2.072540
  S      3.709530   -8.249120    3.669190
  C      2.154150   -8.761450    3.095190
  N      1.100610   -8.801690    4.012560
  O      0.006830   -9.149760    3.605630
  O      1.359660   -8.477060    5.160310
  C      2.153680   -9.089170    1.768540
  C      3.417870   -8.956070    1.158540
  C      3.705790   -9.310020   -0.203270
  C      2.808300   -9.773690   -1.091890
  C      3.143840   -9.961390   -2.484940
  N      4.246830   -9.434750   -2.945730
  N      2.264170  -10.704380   -3.190380
  C      2.050870  -10.506340   -4.468320
  C      2.772210   -9.447350   -5.133090
  C      2.308690   -8.353540   -5.782850
  S      3.316970   -6.981620   -5.834160
  C      4.732870   -7.800820   -5.302350
  S      4.476630   -9.380360   -4.598560
  C      1.060100  -11.275510   -5.143250
  S      0.675130  -10.957270   -6.804740
  C     -0.516960  -12.231010   -6.821980
  C     -0.558660  -12.888320   -5.595230
  C      0.322810  -12.347440   -4.650990
  C      0.485990  -12.895430   -3.273890
  C     -0.557690  -13.974920   -2.954670
  C     -0.115910  -14.732860   -1.806360
  N      0.273520  -15.323130   -0.909280
  C     -0.754140  -14.917170   -4.157570
  O     -1.614010  -15.959850   -3.757390
  C     -1.502870  -17.136890   -4.522200
  C     -1.354230  -14.118530   -5.324800
  C     -1.234990  -12.461790   -8.017320
  C     -2.435490  -13.093710   -8.136770
  C     -3.098300  -13.291940   -9.370640
  C     -2.563540  -13.385770  -10.624940
  C     -3.430180  -13.134100  -11.806170
  O     -4.636850  -13.050200  -11.817260
  C     -2.498680  -12.953400  -12.939700
  C     -2.771240  -12.581480  -14.223830
  C     -1.703820  -12.442750  -15.139870
  C     -0.370260  -12.689730  -14.702120
  C      0.689930  -12.543330  -15.618960
  C      0.438000  -12.171910  -16.909850
  C     -0.881100  -11.928680  -17.341740
  C     -1.930780  -12.061210  -16.476290
  F     -1.098610  -11.563320  -18.612650
  F      1.447670  -12.034000  -17.779850
  C     -0.119530  -13.080540  -13.366470
  C     -1.170170  -13.216350  -12.499220
  C     -1.219970  -13.625600  -11.096900
  C     -0.237260  -14.336520  -10.451580
  C     -0.413540  -14.946760   -9.197020
  N     -0.519280  -15.505880   -8.198500
  C      1.030010  -14.604400  -11.004690
  N      2.083050  -14.833990  -11.400610
  H      0.377560   -3.359760   -5.305790
  H     -0.325300   -4.252270   -3.859860
  H      3.022440   -3.322160   -5.566080
  H      5.126930   -4.208770   -4.384560
  H      6.652700   -5.456110   -3.111980
  H      7.852850   -6.806840   -1.287050
  H      7.462750   -7.916020    0.910930
  H      6.234770   -8.295100    2.770490
  H      1.267470   -9.435760    1.270870
  H      4.728050   -9.217850   -0.536390
  H      1.783480   -9.984550   -0.832120
  H      1.293270   -8.233990   -6.115000
  H      5.520250   -7.186530   -4.905720
  H      0.431740  -12.080720   -2.548600
  H      1.493390  -13.314360   -3.182470
  H     -1.526350  -13.524040   -2.712410
  H      0.224460  -15.326580   -4.456340
  H     -2.193820  -17.849260   -4.076770
  H     -0.484530  -17.539730   -4.476240
  H     -1.772180  -16.972210   -5.570440
  H     -2.386850  -13.867260   -5.060830
  H     -1.371150  -14.737180   -6.225770
  H     -0.798760  -12.021030   -8.906420
  H     -2.984540  -13.367660   -7.249280
  H     -4.183380  -13.311740   -9.340260
  H     -3.787020  -12.395230  -14.537790
  H      1.705490  -12.729340  -15.305710
  H     -2.934830  -11.871430  -16.822340
  H      0.899790  -13.253510  -13.059960

 Total Charge           Charge          ....    0
 Multiplicity           Mult            ....    1
 Number of Electrons    NEL             ....  524
 Basis Dimension        Dim             .... 1135

ORBITAL ENERGIES
----------------

  NO   OCC          E(Eh)            E(eV)
   0   2.0000     -89.028102     -2422.5778
   1   2.0000     -88.978466     -2421.2272
   2   2.0000     -88.977153     -2421.1914
   3   2.0000     -88.959180     -2420.7023
   4   2.0000     -88.947210     -2420.3766
   5   2.0000     -88.937183     -2420.1038
   6   2.0000     -24.802694      -674.9156
   7   2.0000     -24.801971      -674.8959
   8   2.0000     -19.231009      -523.3024
   9   2.0000     -19.230270      -523.2822
  10   2.0000     -19.221773      -523.0510
  11   2.0000     -19.216939      -522.9195
  12   2.0000     -14.642266      -398.4363
  13   2.0000     -14.482867      -394.0988
  14   2.0000     -14.429423      -392.6446
  15   2.0000     -14.423010      -392.4701
  16   2.0000     -14.411375      -392.1534
  17   2.0000     -14.389213      -391.5504
  18   2.0000     -14.386932      -391.4883
  19   2.0000     -10.386481      -282.6305
  20   2.0000     -10.385867      -282.6138
  21   2.0000     -10.373334      -282.2728
  22   2.0000     -10.365279      -282.0536
  23   2.0000     -10.356216      -281.8070
  24   2.0000     -10.352230      -281.6985
  25   2.0000     -10.350388      -281.6484
  26   2.0000     -10.346543      -281.5437
  27   2.0000     -10.336934      -281.2823
  28   2.0000     -10.333397      -281.1860
  29   2.0000     -10.332414      -281.1593
  30   2.0000     -10.332172      -281.1527
  31   2.0000     -10.325851      -280.9807
  32   2.0000     -10.325244      -280.9642
  33   2.0000     -10.324307      -280.9387
  34   2.0000     -10.322012      -280.8762
  35   2.0000     -10.320578      -280.8372
  36   2.0000     -10.319491      -280.8076
  37   2.0000     -10.316369      -280.7227
  38   2.0000     -10.316049      -280.7140
  39   2.0000     -10.314637      -280.6755
  40   2.0000     -10.310383      -280.5598
  41   2.0000     -10.309259      -280.5292
  42   2.0000     -10.309171      -280.5268
  43   2.0000     -10.308572      -280.5105
  44   2.0000     -10.307667      -280.4859
  45   2.0000     -10.307091      -280.4702
  46   2.0000     -10.306405      -280.4516
  47   2.0000     -10.306232      -280.4468
  48   2.0000     -10.305785      -280.4347
  49   2.0000     -10.305736      -280.4333
  50   2.0000     -10.305587      -280.4293
  51   2.0000     -10.304940      -280.4117
  52   2.0000     -10.303813      -280.3810
  53   2.0000     -10.303643      -280.3764
  54   2.0000     -10.303429      -280.3706
  55   2.0000     -10.303092      -280.3614
  56   2.0000     -10.299869      -280.2737
  57   2.0000     -10.294751      -280.1344
  58   2.0000     -10.289289      -279.9858
  59   2.0000     -10.288653      -279.9685
  60   2.0000     -10.287455      -279.9359
  61   2.0000     -10.286529      -279.9107
  62   2.0000     -10.286028      -279.8970
  63   2.0000     -10.284561      -279.8571
  64   2.0000     -10.283990      -279.8416
  65   2.0000     -10.279545      -279.7206
  66   2.0000     -10.269316      -279.4423
  67   2.0000     -10.266578      -279.3678
  68   2.0000     -10.263140      -279.2742
  69   2.0000      -8.112918      -220.7637
  70   2.0000      -8.073559      -219.6927
  71   2.0000      -8.073183      -219.6825
  72   2.0000      -8.053184      -219.1383
  73   2.0000      -8.042323      -218.8427
  74   2.0000      -8.033840      -218.6119
  75   2.0000      -6.083154      -165.5310
  76   2.0000      -6.080580      -165.4610
  77   2.0000      -6.073536      -165.2693
  78   2.0000      -6.042890      -164.4354
  79   2.0000      -6.042694      -164.4301
  80   2.0000      -6.038686      -164.3210
  81   2.0000      -6.038511      -164.3162
  82   2.0000      -6.035895      -164.2451
  83   2.0000      -6.034468      -164.2062
  84   2.0000      -6.022690      -163.8857
  85   2.0000      -6.018079      -163.7603
  86   2.0000      -6.015640      -163.6939
  87   2.0000      -6.012277      -163.6024
  88   2.0000      -6.008073      -163.4880
  89   2.0000      -6.003704      -163.3691
  90   2.0000      -6.003084      -163.3522
  91   2.0000      -5.999786      -163.2625
  92   2.0000      -5.994294      -163.1130
  93   2.0000      -1.325112       -36.0581
  94   2.0000      -1.311052       -35.6755
  95   2.0000      -1.310260       -35.6540
  96   2.0000      -1.136978       -30.9388
  97   2.0000      -1.130131       -30.7524
  98   2.0000      -1.120791       -30.4983
  99   2.0000      -1.084265       -29.5044
 100   2.0000      -1.082981       -29.4694
 101   2.0000      -1.029246       -28.0072
 102   2.0000      -1.015909       -27.6443
 103   2.0000      -1.012107       -27.5408
 104   2.0000      -1.003806       -27.3150
 105   2.0000      -0.998997       -27.1841
 106   2.0000      -0.993983       -27.0476
 107   2.0000      -0.990093       -26.9418
 108   2.0000      -0.988711       -26.9042
 109   2.0000      -0.976913       -26.5832
 110   2.0000      -0.969066       -26.3696
 111   2.0000      -0.966380       -26.2965
 112   2.0000      -0.945565       -25.7301
 113   2.0000      -0.933626       -25.4053
 114   2.0000      -0.926725       -25.2175
 115   2.0000      -0.911746       -24.8099
 116   2.0000      -0.905787       -24.6477
 117   2.0000      -0.898537       -24.4504
 118   2.0000      -0.895116       -24.3573
 119   2.0000      -0.889017       -24.1914
 120   2.0000      -0.878331       -23.9006
 121   2.0000      -0.869350       -23.6562
 122   2.0000      -0.863883       -23.5074
 123   2.0000      -0.851380       -23.1672
 124   2.0000      -0.846885       -23.0449
 125   2.0000      -0.846504       -23.0346
 126   2.0000      -0.843088       -22.9416
 127   2.0000      -0.840327       -22.8665
 128   2.0000      -0.826176       -22.4814
 129   2.0000      -0.822166       -22.3723
 130   2.0000      -0.819995       -22.3132
 131   2.0000      -0.802305       -21.8318
 132   2.0000      -0.794585       -21.6218
 133   2.0000      -0.775547       -21.1037
 134   2.0000      -0.772491       -21.0205
 135   2.0000      -0.769501       -20.9392
 136   2.0000      -0.762608       -20.7516
 137   2.0000      -0.753293       -20.4982
 138   2.0000      -0.740698       -20.1554
 139   2.0000      -0.733841       -19.9688
 140   2.0000      -0.724750       -19.7214
 141   2.0000      -0.719829       -19.5875
 142   2.0000      -0.712678       -19.3930
 143   2.0000      -0.696851       -18.9623
 144   2.0000      -0.693356       -18.8672
 145   2.0000      -0.691732       -18.8230
 146   2.0000      -0.688034       -18.7223
 147   2.0000      -0.681238       -18.5374
 148   2.0000      -0.668539       -18.1919
 149   2.0000      -0.664043       -18.0695
 150   2.0000      -0.661105       -17.9896
 151   2.0000      -0.654354       -17.8059
 152   2.0000      -0.650133       -17.6910
 153   2.0000      -0.648676       -17.6514
 154   2.0000      -0.645052       -17.5528
 155   2.0000      -0.635247       -17.2859
 156   2.0000      -0.631520       -17.1845
 157   2.0000      -0.626333       -17.0434
 158   2.0000      -0.625453       -17.0194
 159   2.0000      -0.623219       -16.9587
 160   2.0000      -0.619162       -16.8483
 161   2.0000      -0.615798       -16.7567
 162   2.0000      -0.611734       -16.6461
 163   2.0000      -0.608699       -16.5635
 164   2.0000      -0.600594       -16.3430
 165   2.0000      -0.599479       -16.3127
 166   2.0000      -0.598308       -16.2808
 167   2.0000      -0.595358       -16.2005
 168   2.0000      -0.589821       -16.0499
 169   2.0000      -0.585223       -15.9247
 170   2.0000      -0.583837       -15.8870
 171   2.0000      -0.578296       -15.7362
 172   2.0000      -0.576908       -15.6985
 173   2.0000      -0.567076       -15.4309
 174   2.0000      -0.562050       -15.2942
 175   2.0000      -0.560083       -15.2406
 176   2.0000      -0.558233       -15.1903
 177   2.0000      -0.554291       -15.0830
 178   2.0000      -0.551267       -15.0007
 179   2.0000      -0.547697       -14.9036
 180   2.0000      -0.546004       -14.8575
 181   2.0000      -0.543536       -14.7904
 182   2.0000      -0.542334       -14.7577
 183   2.0000      -0.537290       -14.6204
 184   2.0000      -0.535379       -14.5684
 185   2.0000      -0.531519       -14.4634
 186   2.0000      -0.528621       -14.3845
 187   2.0000      -0.526410       -14.3243
 188   2.0000      -0.524603       -14.2752
 189   2.0000      -0.521601       -14.1935
 190   2.0000      -0.516613       -14.0577
 191   2.0000      -0.515199       -14.0193
 192   2.0000      -0.511428       -13.9167
 193   2.0000      -0.508811       -13.8454
 194   2.0000      -0.508149       -13.8274
 195   2.0000      -0.505807       -13.7637
 196   2.0000      -0.501370       -13.6430
 197   2.0000      -0.498218       -13.5572
 198   2.0000      -0.494057       -13.4440
 199   2.0000      -0.492128       -13.3915
 200   2.0000      -0.491016       -13.3612
 201   2.0000      -0.490674       -13.3519
 202   2.0000      -0.484721       -13.1899
 203   2.0000      -0.482193       -13.1212
 204   2.0000      -0.481442       -13.1007
 205   2.0000      -0.478938       -13.0326
 206   2.0000      -0.478085       -13.0094
 207   2.0000      -0.476806       -12.9745
 208   2.0000      -0.473925       -12.8962
 209   2.0000      -0.468727       -12.7547
 210   2.0000      -0.467066       -12.7095
 211   2.0000      -0.462017       -12.5721
 212   2.0000      -0.460599       -12.5335
 213   2.0000      -0.458726       -12.4826
 214   2.0000      -0.457833       -12.4583
 215   2.0000      -0.454606       -12.3705
 216   2.0000      -0.453383       -12.3372
 217   2.0000      -0.451135       -12.2760
 218   2.0000      -0.447505       -12.1772
 219   2.0000      -0.443498       -12.0682
 220   2.0000      -0.442549       -12.0424
 221   2.0000      -0.439774       -11.9668
 222   2.0000      -0.438425       -11.9301
 223   2.0000      -0.435880       -11.8609
 224   2.0000      -0.433491       -11.7959
 225   2.0000      -0.432440       -11.7673
 226   2.0000      -0.431527       -11.7424
 227   2.0000      -0.429013       -11.6740
 228   2.0000      -0.425243       -11.5714
 229   2.0000      -0.423619       -11.5272
 230   2.0000      -0.420544       -11.4436
 231   2.0000      -0.415675       -11.3111
 232   2.0000      -0.410595       -11.1729
 233   2.0000      -0.404144       -10.9973
 234   2.0000      -0.398358       -10.8399
 235   2.0000      -0.397316       -10.8115
 236   2.0000      -0.392500       -10.6805
 237   2.0000      -0.386409       -10.5147
 238   2.0000      -0.383226       -10.4281
 239   2.0000      -0.381344       -10.3769
 240   2.0000      -0.379170       -10.3177
 241   2.0000      -0.378320       -10.2946
 242   2.0000      -0.376351       -10.2410
 243   2.0000      -0.370576       -10.0839
 244   2.0000      -0.358977        -9.7683
 245   2.0000      -0.357845        -9.7375
 246   2.0000      -0.346673        -9.4334
 247   2.0000      -0.338169        -9.2021
 248   2.0000      -0.337593        -9.1864
 249   2.0000      -0.335398        -9.1267
 250   2.0000      -0.334397        -9.0994
 251   2.0000      -0.329712        -8.9719
 252   2.0000      -0.324759        -8.8371
 253   2.0000      -0.323109        -8.7922
 254   2.0000      -0.318793        -8.6748
 255   2.0000      -0.314402        -8.5553
 256   2.0000      -0.308068        -8.3830
 257   2.0000      -0.302458        -8.2303
 258   2.0000      -0.280857        -7.6425
 259   2.0000      -0.275299        -7.4913
 260   2.0000      -0.225755        -6.1431
 261   2.0000      -0.218604        -5.9485
 262   0.0000      -0.111612        -3.0371
 263   0.0000      -0.073697        -2.0054
 264   0.0000      -0.064561        -1.7568
 265   0.0000      -0.058811        -1.6003
 266   0.0000      -0.042957        -1.1689

MULLIKEN ATOMIC CHARGES
-----------------------
   0 C :   -0.035975
   1 C :   -0.065212
   2 C :    0.061574
   3 C :    0.008506
   4 C :   -0.059914
   5 S :    0.075000
   6 C :   -0.040065
   7 C :    0.020163
   8 C :    0.039428
   9 C :   -0.047334
  10 S :    0.091167
  11 C :   -0.004182
  12 N :   -0.019921
  13 C :   -0.129447
  14 S :    0.160443
  15 C :   -0.007217
  16 N :    0.280408
  17 O :   -0.250046
  18 O :   -0.267912
  19 C :    0.006812
  20 C :    0.114060
  21 C :    0.047077
  22 C :    0.006066
  23 C :    0.017726
  24 N :   -0.320758
  25 N :   -0.099956
  26 C :    0.072581
  27 C :   -0.285868
  28 C :    0.003900
  29 S :    0.147618
  30 C :   -0.282289
  31 S :    0.452005
  32 C :   -0.086403
  33 S :    0.160129
  34 C :   -0.144861
  35 C :   -0.079293
  36 C :   -0.093164
  37 C :    0.191847
  38 C :   -0.043358
  39 C :   -0.257905
  40 N :    0.142276
  41 C :    0.079757
  42 O :   -0.373240
  43 C :    0.189543
  44 C :    0.219205
  45 C :    0.057845
  46 C :   -0.010748
  47 C :    0.048376
  48 C :   -0.130132
  49 C :    0.139478
  50 O :   -0.140062
  51 C :    0.016510
  52 C :   -0.085256
  53 C :    0.114845
  54 C :    0.113096
  55 C :   -0.108231
  56 C :    0.243984
  57 C :    0.240555
  58 C :   -0.105138
  59 F :   -0.171041
  60 F :   -0.170539
  61 C :   -0.083065
  62 C :    0.033650
  63 C :    0.265450
  64 C :   -0.344049
  65 C :   -0.167506
  66 N :    0.159055
  67 C :   -0.174313
  68 N :    0.155537
  69 H :    0.018064
  70 H :    0.020160
  71 H :   -0.012468
  72 H :   -0.012930
  73 H :   -0.013849
  74 H :   -0.014243
  75 H :    0.011116
  76 H :    0.146006
  77 H :    0.009575
  78 H :    0.023870
  79 H :   -0.023578
  80 H :    0.039899
  81 H :    0.040925
  82 H :    0.042689
  83 H :    0.035786
  84 H :    0.027828
  85 H :    0.003430
  86 H :    0.032053
  87 H :    0.011696
  88 H :    0.013901
  89 H :    0.017011
  90 H :    0.035526
  91 H :    0.013475
  92 H :    0.011516
  93 H :    0.032488
  94 H :   -0.007412
  95 H :    0.007211
  96 H :    0.001164
  97 H :   -0.002182
Sum of atomic charges:   -0.0000000

LOEWDIN ATOMIC CHARGES
----------------------
   0 C :   -0.083441
   1 C :   -0.140593
   2 C :   -0.034876
   3 C :   -0.037102
   4 C :   -0.182607
   5 S :    0.346906
   6 C :   -0.175166
   7 C :   -0.041730
   8 C :   -0.025632
   9 C :   -0.180435
  10 S :    0.410460
  11 C :   -0.023357
  12 N :    0.028443
  13 C :   -0.109863
  14 S :    0.441975
  15 C :   -0.207405
  16 N :    0.274311
  17 O :   -0.216880
  18 O :   -0.233069
  19 C :    0.012990
  20 C :   -0.108221
  21 C :    0.011808
  22 C :   -0.062964
  23 C :    0.013365
  24 N :   -0.366923
  25 N :   -0.104746
  26 C :    0.016319
  27 C :   -0.270165
  28 C :   -0.178439
  29 S :    0.474161
  30 C :   -0.572588
  31 S :    0.821477
  32 C :   -0.177606
  33 S :    0.467926
  34 C :   -0.171149
  35 C :   -0.030614
  36 C :   -0.022703
  37 C :   -0.007537
  38 C :   -0.054860
  39 C :   -0.029908
  40 N :   -0.067461
  41 C :    0.083463
  42 O :   -0.162657
  43 C :    0.073052
  44 C :   -0.040386
  45 C :    0.014431
  46 C :   -0.038164
  47 C :    0.072037
  48 C :   -0.095119
  49 C :    0.082419
  50 O :   -0.140799
  51 C :   -0.053718
  52 C :    0.031048
  53 C :   -0.008612
  54 C :   -0.006118
  55 C :   -0.029501
  56 C :    0.068072
  57 C :    0.068638
  58 C :   -0.032465
  59 F :   -0.048746
  60 F :   -0.048402
  61 C :    0.015472
  62 C :   -0.022215
  63 C :    0.068235
  64 C :   -0.145926
  65 C :    0.001314
  66 N :   -0.051687
  67 C :   -0.021366
  68 N :   -0.050993
  69 H :    0.027682
  70 H :    0.025472
  71 H :    0.032282
  72 H :    0.030386
  73 H :    0.029629
  74 H :    0.032303
  75 H :    0.034184
  76 H :    0.094307
  77 H :    0.045257
  78 H :    0.034242
  79 H :    0.023315
  80 H :    0.027333
  81 H :    0.000760
  82 H :    0.044964
  83 H :    0.048663
  84 H :    0.051995
  85 H :    0.016452
  86 H :    0.026002
  87 H :    0.012525
  88 H :    0.009567
  89 H :    0.035713
  90 H :    0.035950
  91 H :    0.034654
  92 H :    0.038928
  93 H :    0.049445
  94 H :    0.041310
  95 H :    0.047735
  96 H :    0.045441
  97 H :    0.040097

  Mayer bond orders larger than 0.100000
B(  0-C ,  1-C ) :   1.8654 B(  0-C , 69-H ) :   0.9506 B(  0-C , 70-H ) :   0.9410
B(  1-C ,  2-C ) :   1.0766 B(  1-C ,  5-S ) :   1.0082 B(  2-C ,  3-C ) :   1.6524
B(  2-C , 71-H ) :   0.9951 B(  3-C ,  4-C ) :   1.1414 B(  3-C , 72-H ) :   0.9982
B(  4-C ,  5-S ) :   1.0392 B(  4-C ,  6-C ) :   1.5795 B(  6-C ,  7-C ) :   1.1544
B(  6-C , 10-S ) :   1.0325 B(  7-C ,  8-C ) :   1.6465 B(  7-C , 73-H ) :   0.9875
B(  8-C ,  9-C ) :   1.1161 B(  8-C , 74-H ) :   0.9979 B(  9-C , 10-S ) :   1.0341
B(  9-C , 11-C ) :   1.6501 B( 11-C , 12-N ) :   1.1246 B( 11-C , 75-H ) :   0.9553
B( 12-N , 13-C ) :   1.1924 B( 12-N , 76-H ) :   0.9111 B( 13-C , 14-S ) :   1.1336
B( 13-C , 20-C ) :   1.3650 B( 14-S , 15-C ) :   1.0743 B( 15-C , 16-N ) :   0.9725
B( 15-C , 19-C ) :   1.4984 B( 16-N , 17-O ) :   1.5313 B( 16-N , 18-O ) :   1.5076
B( 17-O , 18-O ) :   0.2582 B( 19-C , 20-C ) :   1.2226 B( 19-C , 77-H ) :   1.0017
B( 20-C , 21-C ) :   1.0654 B( 21-C , 22-C ) :   1.7243 B( 21-C , 78-H ) :   0.9641
B( 22-C , 23-C ) :   1.0548 B( 22-C , 79-H ) :   0.9704 B( 23-C , 24-N ) :   1.7466
B( 23-C , 25-N ) :   1.2351 B( 24-N , 31-S ) :   0.8928 B( 25-N , 26-C ) :   1.7439
B( 26-C , 27-C ) :   1.0462 B( 26-C , 32-C ) :   1.1342 B( 27-C , 28-C ) :   1.5307
B( 27-C , 29-S ) :   0.1077 B( 27-C , 31-S ) :   1.0190 B( 28-C , 29-S ) :   1.2746
B( 28-C , 80-H ) :   0.9567 B( 29-S , 30-C ) :   1.0774 B( 30-C , 31-S ) :   1.1131
B( 30-C , 81-H ) :   0.9678 B( 32-C , 33-S ) :   1.1397 B( 32-C , 34-C ) :   0.1022
B( 32-C , 36-C ) :   1.4654 B( 33-S , 34-C ) :   1.1182 B( 34-C , 35-C ) :   1.4489
B( 34-C , 45-C ) :   1.1738 B( 35-C , 36-C ) :   1.3426 B( 35-C , 44-C ) :   1.0313
B( 36-C , 37-C ) :   1.0708 B( 37-C , 38-C ) :   1.0330 B( 37-C , 82-H ) :   0.8897
B( 37-C , 83-H ) :   0.8950 B( 38-C , 39-C ) :   1.0928 B( 38-C , 41-C ) :   1.0220
B( 38-C , 84-H ) :   0.8464 B( 39-C , 40-N ) :   3.1226 B( 41-C , 42-O ) :   1.0475
B( 41-C , 44-C ) :   1.0674 B( 41-C , 85-H ) :   0.9137 B( 42-O , 43-C ) :   0.9733
B( 43-C , 86-H ) :   0.9811 B( 43-C , 87-H ) :   0.9682 B( 43-C , 88-H ) :   0.9663
B( 44-C , 89-H ) :   0.8623 B( 44-C , 90-H ) :   0.8863 B( 45-C , 46-C ) :   1.6321
B( 45-C , 91-H ) :   0.9439 B( 46-C , 47-C ) :   1.1647 B( 46-C , 92-H ) :   0.9601
B( 47-C , 48-C ) :   1.6340 B( 47-C , 93-H ) :   0.9350 B( 48-C , 49-C ) :   0.9441
B( 48-C , 63-C ) :   1.0480 B( 49-C , 50-O ) :   2.2750 B( 49-C , 51-C ) :   0.9156
B( 51-C , 52-C ) :   1.4735 B( 51-C , 62-C ) :   1.2211 B( 52-C , 53-C ) :   1.1921
B( 52-C , 94-H ) :   1.0171 B( 53-C , 54-C ) :   1.2567 B( 53-C , 58-C ) :   1.1927
B( 54-C , 55-C ) :   1.1892 B( 54-C , 61-C ) :   1.2137 B( 55-C , 56-C ) :   1.4414
B( 55-C , 58-C ) :   0.1084 B( 55-C , 95-H ) :   1.0076 B( 56-C , 57-C ) :   1.1910
B( 56-C , 60-F ) :   1.1349 B( 57-C , 58-C ) :   1.4424 B( 57-C , 59-F ) :   1.1341
B( 58-C , 96-H ) :   1.0077 B( 61-C , 62-C ) :   1.4549 B( 61-C , 97-H ) :   0.9945
B( 62-C , 63-C ) :   0.9977 B( 63-C , 64-C ) :   1.6361 B( 64-C , 65-C ) :   1.1771
B( 64-C , 67-C ) :   1.1313 B( 65-C , 66-N ) :   2.9566 B( 67-C , 68-N ) :   2.9820

-----------------------------------------------------------------------------
         ABSORPTION SPECTRUM VIA TRANSITION ELECTRIC DIPOLE MOMENTS
-----------------------------------------------------------------------------
State   Energy  Wavelength   fosc         T2         TX        TY        TZ
        (cm-1)    (nm)                  (au**2)     (au)      (au)      (au)
-----------------------------------------------------------------------------
   0   10328.1    968.2   0.108560916   3.46041  -1.14612  -1.25066  -0.76333
   1   12430.4    804.5   0.014550725   0.38537   0.10060  -0.49856  -0.35593
   2   16374.4    610.7   0.074319515   1.49421  -0.06823   0.07399  -1.21823
   3   17604.3    568.0   0.226788073   4.24109  -0.40797   1.71137  -1.07045
   4   18417.2    543.0   0.104777322   1.87292   0.24077   1.01042  -0.89106
   5   19429.6    514.7   0.727267753  12.32270  -0.56474  -0.66482  -3.40026
   6   19750.1    506.3   0.147558694   2.45964  -0.62969  -1.22579  -0.74871
   7   23180.2    431.4   0.152037515   2.15928  -1.10701   0.86228  -0.43621
   8   23793.6    420.3   0.023625071   0.32688   0.05793   0.28479  -0.49236
   9   23936.0    417.8   0.065541636   0.90145  -0.15304  -0.02605  -0.93667
  10   25571.1    391.1   0.058804528   0.75707  -0.37203   0.16452  -0.76915
  11   25915.7    385.9   0.039118558   0.49693  -0.27067  -0.21390   0.61475
  12   26137.9    382.6   0.089209013   1.12360   0.42419  -0.54922   0.80126
  13   27166.8    368.1   0.021104800   0.25575   0.33909  -0.06249   0.36996
  14   27283.9    366.5   0.008490003   0.10244  -0.04902   0.19386  -0.24991
  15   27562.6    362.8   0.014433762   0.17240   0.02593  -0.26801  -0.31607
  16   27767.1    360.1   0.023036875   0.27313   0.44391  -0.25188   0.11237
  17   27889.7    358.6   0.033082889   0.39051  -0.37646  -0.07765  -0.49271
  18   28460.0    351.4   0.376677056   4.35722  -1.56190  -0.56544  -1.26410
  19   29080.2    343.9   0.243772093   2.75970   0.92669   0.22256   1.36067
  20   29505.9    338.9   0.184801786   2.06192   0.48326  -0.34291   1.30797
  21   29889.0    334.6   0.572325449   6.30386   2.14504  -0.12308   1.29905
  22   30122.3    332.0   0.079995443   0.87429   0.86342   0.14582   0.32791
  23   30185.6    331.3   0.023688334   0.25835  -0.29641   0.41076   0.04201
  24   30708.5    325.6   0.097335366   1.04349   0.08924  -0.12315   1.01013
  25   31006.0    322.5   0.098629303   1.04721   0.60019   0.16409  -0.81244
  26   31277.8    319.7   0.016207285   0.17059   0.28579  -0.05809   0.29247
  27   31750.6    315.0   0.005448641   0.05650  -0.18077  -0.12952  -0.08391
  28   31998.2    312.5   0.113401888   1.16673  -0.82958  -0.64494   0.25014
  29   32731.2    305.5   0.102594410   1.03190  -0.52208   0.27659   0.82633
  30   33104.8    302.1   0.092034202   0.91524   0.75807  -0.26297   0.52098
  31   33306.5    300.2   0.220466277   2.17916   0.26390  -0.55947   1.34034
  32   33628.0    297.4   0.035834233   0.35081   0.51332   0.18873   0.22736
  33   33901.0    295.0   0.006360127   0.06176  -0.04086   0.21323   0.12093
  34   34046.0    293.7   0.001399714   0.01353  -0.10657  -0.02836   0.03707
  35   34317.2    291.4   0.193116746   1.85261  -0.58606  -0.46316   1.13782
  36   34345.4    291.2   0.105206859   1.00844   0.25615  -0.30437   0.92205
  37   34590.2    289.1   0.251704687   2.39560  -0.64030  -0.86402   1.11315
  38   35013.4    285.6   0.018788387   0.17666   0.19255  -0.05974   0.36880
  39   35140.7    284.6   0.013085377   0.12259  -0.13623   0.08181   0.31199
  40   35242.2    283.8   0.106382276   0.99376   0.54662   0.43297  -0.71240
  41   35708.8    280.0   0.000798665   0.00736  -0.08513   0.00790  -0.00738
  42   35773.7    279.5   0.022451030   0.20661  -0.38722  -0.07007   0.22751
  43   36628.6    273.0   0.009352486   0.08406  -0.16221  -0.20443   0.12632
  44   36783.0    271.9   0.081282751   0.72749  -0.17579  -0.27721   0.78723
  45   37308.5    268.0   0.151155365   1.33380  -0.42552   0.37964  -1.00429
  46   37677.9    265.4   0.025674699   0.22433   0.14073  -0.09446  -0.44227
  47   37855.6    264.2   0.035553137   0.30919   0.48226  -0.08071  -0.26476
  48   38046.5    262.8   0.003077590   0.02663  -0.13758  -0.08343  -0.02723
  49   38376.1    260.6   0.027495673   0.23587  -0.24734  -0.26769   0.32100
  50   38622.0    258.9   0.017515287   0.14930  -0.12369  -0.03453  -0.36443
  51   38822.6    257.6   0.024914697   0.21127   0.35014  -0.22429  -0.19589
  52   38906.0    257.0   0.011144197   0.09430  -0.29626   0.05446   0.05967
  53   39321.5    254.3   0.065797968   0.55088   0.26837  -0.43121   0.54122
  54   39587.6    252.6   0.049585933   0.41236  -0.55856  -0.06055   0.31098
  55   39892.9    250.7   0.145768885   1.20294   0.85532  -0.10332   0.67874
  56   39939.9    250.4   0.052069749   0.42919   0.31049   0.01682  -0.57664
  57   40078.2    249.5   0.058928694   0.48405   0.30269   0.26618   0.56708

FINAL SINGLE POINT ENERGY     -5191.169726561930

DIPOLE MOMENT
-------------
                                X             Y             Z
Electronic contribution:      6.36996       8.74946     -31.99887
Nuclear contribution   :     -5.20167      -6.54383      29.48957
                        -----------------------------------------
Total Dipole Moment    :      1.16829       2.20562      -2.50930
                        -----------------------------------------
Magnitude (a.u.)       :      3.53925
Magnitude (Debye)      :      8.99605

Rotational constants in cm-1:     0.001454     0.000376     0.000325
Rotational constants in MHz :    43.575220    11.272557     9.740004

                             ****ORCA TERMINATED NORMALLY****
TOTAL RUN TIME: 0 days 0 hours 12 minutes 25 seconds 993 msec
