                         Program Version 4.2.0 -  RELEASE  -
|  1> # ORCA input file
|  2> # SCF done       -148.167221706262          0.000551421133
|  3> ! CAM-B3LYP def2-SVP def2/J RIJCOSX Grid4 TightSCF
|  4> %maxcore 5000
|  5> %tddft
|  6>     Mode sTDDFT
|  7>     Ethresh 5.0
|  8>     maxcore 5000
|  9> end
| 10>
| 11> %pal
| 12>   nprocs 6
| 13>   end
| 14> * xyz 0 1
| 15>    C       -3.06450        -4.32092         1.55706
| 16>    C       -2.01401        -4.78658         2.24457
| 17>    C       -1.77522        -4.69091         3.65734
| 18>    C       -0.62184        -5.25829         4.06947
| 19>    C        0.14720        -5.84896         3.02532
| 20>    S       -0.66724        -5.64980         1.48503
| 21>    C        1.35153        -6.49444         3.14288
| 22>    C        2.11070        -6.72753         4.31919
| 23>    C        3.26788        -7.40444         4.11531
| 24>    C        3.50566        -7.75489         2.75752
| 25>    S        2.17644        -7.17430         1.74919
| 26>    C        4.57491        -8.43606         2.26545
| 27>    N        4.72637        -8.73178         0.94506
| 28>    C        5.73956        -9.42825         0.39301
| 29>    S        7.02331       -10.07198         1.36893
| 30>    C        7.74678       -10.75372        -0.05914
| 31>    N        8.92965       -11.46421         0.09428
| 32>    O        9.43957       -11.94933        -0.90525
| 33>    O        9.37822       -11.55420         1.23001
| 34>    C        7.03592       -10.49446        -1.20252
| 35>    C        5.87819        -9.73210        -0.97544
| 36>    C        4.94998        -9.29780        -1.97850
| 37>    C        4.98037        -9.65612        -3.27809
| 38>    C        4.02920        -9.16585        -4.21747
| 39>    N        4.04329        -9.58374        -5.55251
| 40>    C        3.01975        -8.92407        -6.13062
| 41>    N        2.33925        -8.71116        -7.28663
| 42>    C        1.34044        -7.81132        -6.92432
| 43>    N        1.37095        -7.44333        -5.67134
| 44>    C        2.42186        -8.13228        -5.13833
| 45>    N        3.06431        -8.30089        -3.96389
| 46>    N        0.44306        -7.30758        -7.83082
| 47>    C        0.14377        -7.82844        -9.05580
| 48>    S       -0.18912        -6.75556       -10.38042
| 49>    C       -0.35096        -8.12917       -11.43340
| 50>    N       -0.68211        -7.88921       -12.76818
| 51>    O       -0.78410        -8.85078       -13.50983
| 52>    O       -0.83880        -6.72325       -13.09555
| 53>    C       -0.15865        -9.32657       -10.79816
| 54>    C        0.10708        -9.18162        -9.42176
| 55>    C        0.20352       -10.25511        -8.47148
| 56>    C        0.43619       -11.55651        -8.77149
| 57>    C        0.48739       -12.56802        -7.78868
| 58>    C        0.74600       -13.88677        -8.03848
| 59>    C        0.79691       -14.93514        -7.07900
| 60>    C        1.07313       -16.15759        -7.59796
| 61>    C        1.26316       -16.16040        -9.00402
| 62>    S        1.07304       -14.53552        -9.64014
| 63>    C        1.55534       -17.23195        -9.81035
| 64>    C        1.72972       -18.58875        -9.40987
| 65>    C        2.01243       -19.43550       -10.42220
| 66>    C        2.08652       -18.81325       -11.71418
| 67>    S        1.76908       -17.07909       -11.54227
| 68>    C        2.34827       -19.39664       -12.89061
| 69>    H       -3.86288        -3.80307         2.05847
| 70>    H       -3.14561        -4.44875         0.49330
| 71>    H       -2.48329        -4.19813         4.29971
| 72>    H       -0.28593        -5.27766         5.09109
| 73>    H        1.77325        -6.38552         5.28081
| 74>    H        3.96697        -7.67002         4.88784
| 75>    H        5.35772        -8.77583         2.92690
| 76>    H        3.99873        -8.40062         0.31927
| 77>    H        7.36688       -10.84586        -2.16182
| 78>    H        4.15686        -8.62343        -1.68903
| 79>    H        5.72690       -10.33637        -3.66091
| 80>    H        4.69142       -10.23429        -5.96372
| 81>    H        2.45750        -9.14453        -8.18675
| 82>    H        0.06016        -6.40746        -7.57764
| 83>    H       -0.25361       -10.26775       -11.30766
| 84>    H        0.05093        -9.98348        -7.43492
| 85>    H        0.60865       -11.85877        -9.79575
| 86>    H        0.30568       -12.28249        -6.76038
| 87>    H        0.62235       -14.74008        -6.03544
| 88>    H        1.14677       -17.05874        -7.01613
| 89>    H        1.63783       -18.88414        -8.37979
| 90>    H        2.17644       -20.49287       -10.31357
| 91>    H        2.53489       -20.45442       -12.94909
| 92>    H        2.37845       -18.83545       -13.80641
| 93> *
| 94>
| 95>                          ****END OF INPUT****

CARTESIAN COORDINATES (ANGSTROEM)
---------------------------------
  C     -3.064500   -4.320920    1.557060
  C     -2.014010   -4.786580    2.244570
  C     -1.775220   -4.690910    3.657340
  C     -0.621840   -5.258290    4.069470
  C      0.147200   -5.848960    3.025320
  S     -0.667240   -5.649800    1.485030
  C      1.351530   -6.494440    3.142880
  C      2.110700   -6.727530    4.319190
  C      3.267880   -7.404440    4.115310
  C      3.505660   -7.754890    2.757520
  S      2.176440   -7.174300    1.749190
  C      4.574910   -8.436060    2.265450
  N      4.726370   -8.731780    0.945060
  C      5.739560   -9.428250    0.393010
  S      7.023310  -10.071980    1.368930
  C      7.746780  -10.753720   -0.059140
  N      8.929650  -11.464210    0.094280
  O      9.439570  -11.949330   -0.905250
  O      9.378220  -11.554200    1.230010
  C      7.035920  -10.494460   -1.202520
  C      5.878190   -9.732100   -0.975440
  C      4.949980   -9.297800   -1.978500
  C      4.980370   -9.656120   -3.278090
  C      4.029200   -9.165850   -4.217470
  N      4.043290   -9.583740   -5.552510
  C      3.019750   -8.924070   -6.130620
  N      2.339250   -8.711160   -7.286630
  C      1.340440   -7.811320   -6.924320
  N      1.370950   -7.443330   -5.671340
  C      2.421860   -8.132280   -5.138330
  N      3.064310   -8.300890   -3.963890
  N      0.443060   -7.307580   -7.830820
  C      0.143770   -7.828440   -9.055800
  S     -0.189120   -6.755560  -10.380420
  C     -0.350960   -8.129170  -11.433400
  N     -0.682110   -7.889210  -12.768180
  O     -0.784100   -8.850780  -13.509830
  O     -0.838800   -6.723250  -13.095550
  C     -0.158650   -9.326570  -10.798160
  C      0.107080   -9.181620   -9.421760
  C      0.203520  -10.255110   -8.471480
  C      0.436190  -11.556510   -8.771490
  C      0.487390  -12.568020   -7.788680
  C      0.746000  -13.886770   -8.038480
  C      0.796910  -14.935140   -7.079000
  C      1.073130  -16.157590   -7.597960
  C      1.263160  -16.160400   -9.004020
  S      1.073040  -14.535520   -9.640140
  C      1.555340  -17.231950   -9.810350
  C      1.729720  -18.588750   -9.409870
  C      2.012430  -19.435500  -10.422200
  C      2.086520  -18.813250  -11.714180
  S      1.769080  -17.079090  -11.542270
  C      2.348270  -19.396640  -12.890610
  H     -3.862880   -3.803070    2.058470
  H     -3.145610   -4.448750    0.493300
  H     -2.483290   -4.198130    4.299710
  H     -0.285930   -5.277660    5.091090
  H      1.773250   -6.385520    5.280810
  H      3.966970   -7.670020    4.887840
  H      5.357720   -8.775830    2.926900
  H      3.998730   -8.400620    0.319270
  H      7.366880  -10.845860   -2.161820
  H      4.156860   -8.623430   -1.689030
  H      5.726900  -10.336370   -3.660910
  H      4.691420  -10.234290   -5.963720
  H      2.457500   -9.144530   -8.186750
  H      0.060160   -6.407460   -7.577640
  H     -0.253610  -10.267750  -11.307660
  H      0.050930   -9.983480   -7.434920
  H      0.608650  -11.858770   -9.795750
  H      0.305680  -12.282490   -6.760380
  H      0.622350  -14.740080   -6.035440
  H      1.146770  -17.058740   -7.016130
  H      1.637830  -18.884140   -8.379790
  H      2.176440  -20.492870  -10.313570
  H      2.534890  -20.454420  -12.949090
  H      2.378450  -18.835450  -13.806410

 Total Charge           Charge          ....    0
 Multiplicity           Mult            ....    1
 Number of Electrons    NEL             ....  424
 Basis Dimension        Dim             ....  900

ORBITAL ENERGIES
----------------

  NO   OCC          E(Eh)            E(eV)
   0   2.0000     -88.982366     -2421.3333
   1   2.0000     -88.976520     -2421.1742
   2   2.0000     -88.946894     -2420.3680
   3   2.0000     -88.945562     -2420.3318
   4   2.0000     -88.942381     -2420.2452
   5   2.0000     -88.933642     -2420.0074
   6   2.0000     -19.234363      -523.3936
   7   2.0000     -19.233721      -523.3762
   8   2.0000     -19.223930      -523.1097
   9   2.0000     -19.223085      -523.0867
  10   2.0000     -14.645829      -398.5333
  11   2.0000     -14.635604      -398.2550
  12   2.0000     -14.484521      -394.1439
  13   2.0000     -14.483057      -394.1040
  14   2.0000     -14.482077      -394.0774
  15   2.0000     -14.475760      -393.9054
  16   2.0000     -14.392646      -391.6438
  17   2.0000     -14.388414      -391.5286
  18   2.0000     -10.379026      -282.4277
  19   2.0000     -10.368360      -282.1374
  20   2.0000     -10.363542      -282.0063
  21   2.0000     -10.341523      -281.4072
  22   2.0000     -10.333452      -281.1875
  23   2.0000     -10.330486      -281.1068
  24   2.0000     -10.330075      -281.0956
  25   2.0000     -10.329728      -281.0862
  26   2.0000     -10.315044      -280.6866
  27   2.0000     -10.312419      -280.6152
  28   2.0000     -10.312344      -280.6132
  29   2.0000     -10.310188      -280.5545
  30   2.0000     -10.309097      -280.5248
  31   2.0000     -10.308832      -280.5176
  32   2.0000     -10.308042      -280.4961
  33   2.0000     -10.304998      -280.4133
  34   2.0000     -10.302356      -280.3414
  35   2.0000     -10.301184      -280.3095
  36   2.0000     -10.300773      -280.2983
  37   2.0000     -10.298301      -280.2310
  38   2.0000     -10.293469      -280.0995
  39   2.0000     -10.293223      -280.0928
  40   2.0000     -10.290328      -280.0141
  41   2.0000     -10.289256      -279.9849
  42   2.0000     -10.289172      -279.9826
  43   2.0000     -10.287970      -279.9499
  44   2.0000     -10.287737      -279.9436
  45   2.0000     -10.287732      -279.9434
  46   2.0000     -10.286233      -279.9026
  47   2.0000     -10.285956      -279.8951
  48   2.0000     -10.283768      -279.8355
  49   2.0000     -10.281784      -279.7816
  50   2.0000     -10.281507      -279.7740
  51   2.0000     -10.280576      -279.7487
  52   2.0000     -10.274238      -279.5762
  53   2.0000     -10.265134      -279.3285
  54   2.0000      -8.078244      -219.8202
  55   2.0000      -8.071897      -219.6475
  56   2.0000      -8.043184      -218.8662
  57   2.0000      -8.041889      -218.8309
  58   2.0000      -8.039119      -218.7556
  59   2.0000      -8.030421      -218.5189
  60   2.0000      -6.047909      -164.5720
  61   2.0000      -6.043522      -164.4526
  62   2.0000      -6.041630      -164.4011
  63   2.0000      -6.039617      -164.3463
  64   2.0000      -6.037298      -164.2832
  65   2.0000      -6.033170      -164.1709
  66   2.0000      -6.012954      -163.6208
  67   2.0000      -6.011781      -163.5889
  68   2.0000      -6.009058      -163.5148
  69   2.0000      -6.008946      -163.5117
  70   2.0000      -6.007878      -163.4827
  71   2.0000      -6.005041      -163.4055
  72   2.0000      -6.003902      -163.3745
  73   2.0000      -6.002400      -163.3336
  74   2.0000      -6.000265      -163.2755
  75   2.0000      -5.999618      -163.2579
  76   2.0000      -5.996393      -163.1702
  77   2.0000      -5.990844      -163.0192
  78   2.0000      -1.314289       -35.7636
  79   2.0000      -1.302179       -35.4341
  80   2.0000      -1.145783       -31.1783
  81   2.0000      -1.133186       -30.8356
  82   2.0000      -1.120944       -30.5024
  83   2.0000      -1.103550       -30.0291
  84   2.0000      -1.090054       -29.6619
  85   2.0000      -1.060678       -28.8625
  86   2.0000      -1.001585       -27.2545
  87   2.0000      -0.997937       -27.1552
  88   2.0000      -0.996296       -27.1106
  89   2.0000      -0.991718       -26.9860
  90   2.0000      -0.987462       -26.8702
  91   2.0000      -0.973461       -26.4892
  92   2.0000      -0.965116       -26.2622
  93   2.0000      -0.951625       -25.8950
  94   2.0000      -0.922837       -25.1117
  95   2.0000      -0.913494       -24.8574
  96   2.0000      -0.895895       -24.3785
  97   2.0000      -0.891037       -24.2463
  98   2.0000      -0.880730       -23.9659
  99   2.0000      -0.873044       -23.7567
 100   2.0000      -0.864640       -23.5281
 101   2.0000      -0.852821       -23.2064
 102   2.0000      -0.848733       -23.0952
 103   2.0000      -0.846438       -23.0327
 104   2.0000      -0.842845       -22.9350
 105   2.0000      -0.833168       -22.6717
 106   2.0000      -0.820548       -22.3283
 107   2.0000      -0.818840       -22.2818
 108   2.0000      -0.810208       -22.0469
 109   2.0000      -0.794928       -21.6311
 110   2.0000      -0.791359       -21.5340
 111   2.0000      -0.773996       -21.0615
 112   2.0000      -0.762397       -20.7459
 113   2.0000      -0.743482       -20.2312
 114   2.0000      -0.733340       -19.9552
 115   2.0000      -0.726940       -19.7810
 116   2.0000      -0.719810       -19.5870
 117   2.0000      -0.707686       -19.2571
 118   2.0000      -0.700546       -19.0628
 119   2.0000      -0.689652       -18.7664
 120   2.0000      -0.684569       -18.6281
 121   2.0000      -0.680248       -18.5105
 122   2.0000      -0.672539       -18.3007
 123   2.0000      -0.662834       -18.0366
 124   2.0000      -0.657101       -17.8806
 125   2.0000      -0.651788       -17.7361
 126   2.0000      -0.642651       -17.4874
 127   2.0000      -0.634068       -17.2539
 128   2.0000      -0.633080       -17.2270
 129   2.0000      -0.631064       -17.1721
 130   2.0000      -0.626965       -17.0606
 131   2.0000      -0.620818       -16.8933
 132   2.0000      -0.620225       -16.8772
 133   2.0000      -0.616894       -16.7865
 134   2.0000      -0.616547       -16.7771
 135   2.0000      -0.614018       -16.7083
 136   2.0000      -0.608536       -16.5591
 137   2.0000      -0.602793       -16.4028
 138   2.0000      -0.601038       -16.3551
 139   2.0000      -0.596833       -16.2406
 140   2.0000      -0.589109       -16.0305
 141   2.0000      -0.582750       -15.8574
 142   2.0000      -0.579694       -15.7743
 143   2.0000      -0.575574       -15.6622
 144   2.0000      -0.571718       -15.5572
 145   2.0000      -0.566662       -15.4197
 146   2.0000      -0.556666       -15.1477
 147   2.0000      -0.555102       -15.1051
 148   2.0000      -0.549511       -14.9530
 149   2.0000      -0.544083       -14.8052
 150   2.0000      -0.535589       -14.5741
 151   2.0000      -0.533989       -14.5306
 152   2.0000      -0.528991       -14.3946
 153   2.0000      -0.526321       -14.3219
 154   2.0000      -0.523854       -14.2548
 155   2.0000      -0.516075       -14.0431
 156   2.0000      -0.512923       -13.9573
 157   2.0000      -0.510101       -13.8805
 158   2.0000      -0.507065       -13.7979
 159   2.0000      -0.505316       -13.7503
 160   2.0000      -0.499482       -13.5916
 161   2.0000      -0.496879       -13.5208
 162   2.0000      -0.494184       -13.4474
 163   2.0000      -0.491952       -13.3867
 164   2.0000      -0.489460       -13.3189
 165   2.0000      -0.487500       -13.2656
 166   2.0000      -0.481705       -13.1078
 167   2.0000      -0.478754       -13.0276
 168   2.0000      -0.476488       -12.9659
 169   2.0000      -0.467490       -12.7211
 170   2.0000      -0.466654       -12.6983
 171   2.0000      -0.464731       -12.6460
 172   2.0000      -0.460558       -12.5324
 173   2.0000      -0.458918       -12.4878
 174   2.0000      -0.457816       -12.4578
 175   2.0000      -0.449899       -12.2424
 176   2.0000      -0.441708       -12.0195
 177   2.0000      -0.440430       -11.9847
 178   2.0000      -0.431543       -11.7429
 179   2.0000      -0.428524       -11.6607
 180   2.0000      -0.427078       -11.6214
 181   2.0000      -0.423108       -11.5133
 182   2.0000      -0.420513       -11.4427
 183   2.0000      -0.420479       -11.4418
 184   2.0000      -0.405365       -11.0305
 185   2.0000      -0.400880       -10.9085
 186   2.0000      -0.396984       -10.8025
 187   2.0000      -0.393968       -10.7204
 188   2.0000      -0.383755       -10.4425
 189   2.0000      -0.382261       -10.4019
 190   2.0000      -0.380525       -10.3546
 191   2.0000      -0.375775       -10.2254
 192   2.0000      -0.373667       -10.1680
 193   2.0000      -0.373122       -10.1532
 194   2.0000      -0.364620        -9.9218
 195   2.0000      -0.362320        -9.8592
 196   2.0000      -0.352734        -9.5984
 197   2.0000      -0.348490        -9.4829
 198   2.0000      -0.341739        -9.2992
 199   2.0000      -0.338106        -9.2003
 200   2.0000      -0.337361        -9.1801
 201   2.0000      -0.334940        -9.1142
 202   2.0000      -0.333173        -9.0661
 203   2.0000      -0.332316        -9.0428
 204   2.0000      -0.326573        -8.8865
 205   2.0000      -0.318706        -8.6724
 206   2.0000      -0.308595        -8.3973
 207   2.0000      -0.290815        -7.9135
 208   2.0000      -0.277239        -7.5441
 209   2.0000      -0.237835        -6.4718
 210   2.0000      -0.221578        -6.0295
 211   2.0000      -0.211787        -5.7630
 212   0.0000      -0.072645        -1.9768
 213   0.0000      -0.062870        -1.7108
 214   0.0000      -0.054828        -1.4920
 215   0.0000      -0.036349        -0.9891
 216   0.0000      -0.015166        -0.4127

MULLIKEN ATOMIC CHARGES
-----------------------
   0 C :   -0.032375
   1 C :   -0.063891
   2 C :    0.051752
   3 C :    0.026374
   4 C :   -0.065964
   5 S :    0.077999
   6 C :   -0.050045
   7 C :    0.027188
   8 C :    0.039257
   9 C :   -0.039543
  10 S :    0.043497
  11 C :    0.017014
  12 N :   -0.026887
  13 C :   -0.112654
  14 S :    0.141635
  15 C :   -0.010434
  16 N :    0.279694
  17 O :   -0.266978
  18 O :   -0.278558
  19 C :    0.006504
  20 C :    0.144869
  21 C :   -0.053411
  22 C :    0.012414
  23 C :    0.013245
  24 N :   -0.040552
  25 C :    0.014748
  26 N :   -0.071696
  27 C :   -0.001031
  28 N :   -0.067987
  29 C :   -0.093742
  30 N :   -0.062105
  31 N :    0.001570
  32 C :   -0.105727
  33 S :    0.180760
  34 C :   -0.014519
  35 N :    0.278161
  36 O :   -0.252057
  37 O :   -0.267480
  38 C :    0.002861
  39 C :    0.067785
  40 C :   -0.078749
  41 C :    0.007037
  42 C :   -0.035366
  43 C :   -0.007930
  44 C :    0.031182
  45 C :    0.030806
  46 C :   -0.050424
  47 S :    0.065357
  48 C :   -0.067380
  49 C :    0.029821
  50 C :    0.056699
  51 C :   -0.067127
  52 S :    0.082719
  53 C :   -0.026260
  54 H :    0.018452
  55 H :    0.022261
  56 H :   -0.012730
  57 H :   -0.013192
  58 H :   -0.014732
  59 H :   -0.011904
  60 H :    0.023838
  61 H :    0.153940
  62 H :    0.001807
  63 H :   -0.005104
  64 H :   -0.040395
  65 H :    0.130914
  66 H :    0.149226
  67 H :    0.156275
  68 H :    0.012545
  69 H :    0.016491
  70 H :    0.000613
  71 H :   -0.013334
  72 H :   -0.010834
  73 H :   -0.011389
  74 H :   -0.011081
  75 H :   -0.008810
  76 H :    0.022430
  77 H :    0.024636
Sum of atomic charges:   -0.0000000

LOEWDIN ATOMIC CHARGES
----------------------
   0 C :   -0.080148
   1 C :   -0.138769
   2 C :   -0.033256
   3 C :   -0.026955
   4 C :   -0.182908
   5 S :    0.348353
   6 C :   -0.176105
   7 C :   -0.038171
   8 C :   -0.031607
   9 C :   -0.181050
  10 S :    0.339476
  11 C :   -0.019104
  12 N :    0.051179
  13 C :   -0.095303
  14 S :    0.445093
  15 C :   -0.217753
  16 N :    0.274481
  17 O :   -0.233412
  18 O :   -0.244769
  19 C :    0.005714
  20 C :   -0.109868
  21 C :   -0.011997
  22 C :   -0.052708
  23 C :    0.006157
  24 N :    0.060973
  25 C :   -0.024410
  26 N :    0.047080
  27 C :    0.038886
  28 N :   -0.141830
  29 C :   -0.064144
  30 N :   -0.117427
  31 N :    0.014610
  32 C :   -0.115418
  33 S :    0.452146
  34 C :   -0.209375
  35 N :    0.273837
  36 O :   -0.218837
  37 O :   -0.233116
  38 C :    0.002863
  39 C :   -0.115427
  40 C :   -0.043437
  41 C :   -0.031220
  42 C :   -0.070914
  43 C :   -0.139711
  44 C :   -0.037871
  45 C :   -0.025962
  46 C :   -0.183377
  47 S :    0.357129
  48 C :   -0.173529
  49 C :   -0.027113
  50 C :   -0.027263
  51 C :   -0.139930
  52 S :    0.353214
  53 C :   -0.070797
  54 H :    0.027991
  55 H :    0.026374
  56 H :    0.032854
  57 H :    0.031548
  58 H :    0.031838
  59 H :    0.033544
  60 H :    0.029171
  61 H :    0.091520
  62 H :    0.040732
  63 H :    0.030624
  64 H :    0.022691
  65 H :    0.092955
  66 H :    0.092818
  67 H :    0.103372
  68 H :    0.045392
  69 H :    0.033998
  70 H :    0.021949
  71 H :    0.033371
  72 H :    0.033982
  73 H :    0.032476
  74 H :    0.032554
  75 H :    0.034560
  76 H :    0.029840
  77 H :    0.027645

  Mayer bond orders larger than 0.100000
B(  0-C ,  1-C ) :   1.8692 B(  0-C , 54-H ) :   0.9499 B(  0-C , 55-H ) :   0.9414
B(  1-C ,  2-C ) :   1.0781 B(  1-C ,  5-S ) :   1.0085 B(  2-C ,  3-C ) :   1.6669
B(  2-C , 56-H ) :   0.9929 B(  3-C ,  4-C ) :   1.1458 B(  3-C , 57-H ) :   0.9923
B(  4-C ,  5-S ) :   1.0387 B(  4-C ,  6-C ) :   1.5777 B(  6-C ,  7-C ) :   1.1620
B(  6-C , 10-S ) :   1.0337 B(  7-C ,  8-C ) :   1.6366 B(  7-C , 58-H ) :   0.9916
B(  8-C ,  9-C ) :   1.1366 B(  8-C , 59-H ) :   0.9944 B(  9-C , 10-S ) :   1.0089
B(  9-C , 11-C ) :   1.6341 B( 11-C , 12-N ) :   1.1232 B( 11-C , 60-H ) :   0.9571
B( 12-N , 13-C ) :   1.2627 B( 12-N , 61-H ) :   0.9016 B( 13-C , 14-S ) :   1.1289
B( 13-C , 20-C ) :   1.3229 B( 14-S , 15-C ) :   1.0556 B( 15-C , 16-N ) :   0.9967
B( 15-C , 19-C ) :   1.4737 B( 16-N , 17-O ) :   1.5139 B( 16-N , 18-O ) :   1.4950
B( 17-O , 18-O ) :   0.2474 B( 19-C , 20-C ) :   1.2439 B( 19-C , 62-H ) :   0.9995
B( 20-C , 21-C ) :   1.0370 B( 21-C , 22-C ) :   1.7493 B( 21-C , 63-H ) :   0.9767
B( 22-C , 23-C ) :   1.0875 B( 22-C , 64-H ) :   0.9472 B( 23-C , 24-N ) :   1.1329
B( 23-C , 30-N ) :   1.6498 B( 24-N , 25-C ) :   1.2283 B( 24-N , 65-H ) :   0.9253
B( 25-C , 26-N ) :   1.1852 B( 25-C , 29-C ) :   1.2980 B( 26-N , 27-C ) :   1.1519
B( 26-N , 66-H ) :   0.9114 B( 27-C , 28-N ) :   1.7007 B( 27-C , 31-N ) :   1.0910
B( 28-N , 29-C ) :   1.3451 B( 29-C , 30-N ) :   1.4110 B( 31-N , 32-C ) :   1.1734
B( 31-N , 67-H ) :   0.8969 B( 32-C , 33-S ) :   1.1389 B( 32-C , 39-C ) :   1.3646
B( 33-S , 34-C ) :   1.0810 B( 34-C , 35-N ) :   0.9740 B( 34-C , 38-C ) :   1.4892
B( 35-N , 36-O ) :   1.5312 B( 35-N , 37-O ) :   1.5070 B( 36-O , 37-O ) :   0.2576
B( 38-C , 39-C ) :   1.2312 B( 38-C , 68-H ) :   1.0041 B( 39-C , 40-C ) :   1.0479
B( 40-C , 41-C ) :   1.6680 B( 40-C , 69-H ) :   0.9829 B( 41-C , 42-C ) :   1.1326
B( 41-C , 70-H ) :   0.9731 B( 42-C , 43-C ) :   1.5853 B( 42-C , 71-H ) :   0.9853
B( 43-C , 44-C ) :   1.1227 B( 43-C , 47-S ) :   1.0302 B( 44-C , 45-C ) :   1.6147
B( 44-C , 72-H ) :   1.0004 B( 45-C , 46-C ) :   1.1653 B( 45-C , 73-H ) :   0.9936
B( 46-C , 47-S ) :   1.0291 B( 46-C , 48-C ) :   1.5669 B( 48-C , 49-C ) :   1.1471
B( 48-C , 52-S ) :   1.0472 B( 49-C , 50-C ) :   1.6678 B( 49-C , 74-H ) :   0.9918
B( 50-C , 51-C ) :   1.0773 B( 50-C , 75-H ) :   0.9927 B( 51-C , 52-S ) :   1.0059
B( 51-C , 53-C ) :   1.8680 B( 53-C , 76-H ) :   0.9507 B( 53-C , 77-H ) :   0.9419

-----------------------------------------------------------------------------
         ABSORPTION SPECTRUM VIA TRANSITION ELECTRIC DIPOLE MOMENTS
-----------------------------------------------------------------------------
State   Energy  Wavelength   fosc         T2         TX        TY        TZ
        (cm-1)    (nm)                  (au**2)     (au)      (au)      (au)
-----------------------------------------------------------------------------
   0   18214.0    549.0   1.829400917  33.06584   3.21687  -3.98925  -2.60835
   1   18631.6    536.7   0.459092285   8.11197   1.73842   2.13743   0.72198
   2   20618.1    485.0   0.515348264   8.22863  -1.25312   2.57423   0.17792
   3   21658.2    461.7   0.353794666   5.37779   1.11830  -0.01258   2.03151
   4   23312.6    429.0   0.218247382   3.08201   0.87673  -0.63518   1.38199
   5   24195.4    413.3   0.079517598   1.08195  -0.79746   0.65694  -0.12018
   6   24649.1    405.7   0.130508535   1.74307  -1.01888   0.38098  -0.74820
   7   24805.6    403.1   0.003568432   0.04736   0.03661   0.17659   0.12180
   8   26962.7    370.9   0.006077402   0.07420  -0.17721   0.15299   0.13927
   9   27440.3    364.4   0.045984623   0.55169   0.23819  -0.07631   0.69938
  10   28388.0    352.3   0.629967611   7.30565  -1.81450   0.80865  -1.83285
  11   28884.1    346.2   0.038522292   0.43906   0.12462   0.26939   0.59242
  12   29615.9    337.7   0.182522601   2.02893   1.12078  -0.46960   0.74315
  13   31309.9    319.4   0.089217811   0.93809   0.56043  -0.37208   0.69682
  14   31475.5    317.7   0.000178949   0.00187  -0.02007   0.03831  -0.00106
  15   32305.8    309.5   0.144289636   1.47038  -0.18613  -0.81366   0.87960
  16   32507.2    307.6   0.181277024   1.83586  -0.23197   0.22497   1.31584
  17   33138.5    301.8   0.003382969   0.03361  -0.02820   0.17351  -0.05202
  18   33729.7    296.5   0.362358024   3.53673  -0.77304   0.62738  -1.59547
  19   34024.1    293.9   0.016028194   0.15509  -0.38647  -0.03628  -0.06641
  20   34453.2    290.2   0.014178130   0.13548  -0.03774  -0.13401  -0.34073
  21   34675.1    288.4   0.000870482   0.00826  -0.00307  -0.00756   0.09054
  22   34778.7    287.5   0.087185469   0.82529  -0.04013   0.18518   0.88847
  23   35108.9    284.8   0.015183988   0.14238  -0.26812   0.16131   0.21088
  24   35699.4    280.1   0.071341997   0.65790  -0.39303   0.29252  -0.64642
  25   36611.6    273.1   0.178127818   1.60173   0.10545  -1.08781   0.63818
  26   36687.1    272.6   0.057103711   0.51242   0.24071  -0.42786   0.52097
  27   37803.8    264.5   0.032650048   0.28433  -0.09811   0.31677  -0.41757
  28   37924.4    263.7   0.025309890   0.21971  -0.25165  -0.00041  -0.39545
  29   38387.4    260.5   0.063468518   0.54431   0.07237   0.53304  -0.50491
  30   38967.1    256.6   0.000045097   0.00038   0.01262  -0.00438  -0.01423
  31   39034.6    256.2   0.070419067   0.59390   0.59596  -0.36491   0.32493
  32   39096.5    255.8   0.039441885   0.33212   0.20318  -0.41845   0.34019
  33   39377.3    254.0   0.030338819   0.25365   0.11183  -0.12059  -0.47602
  34   40278.3    248.3   0.131109764   1.07162   0.00674  -0.16647  -1.02169

FINAL SINGLE POINT ENERGY     -4510.648132163077

DIPOLE MOMENT
-------------
                                X             Y             Z
Electronic contribution:     10.76847      13.67094      -9.92150
Nuclear contribution   :    -11.66595     -14.82486      11.20914
                        -----------------------------------------
Total Dipole Moment    :     -0.89748      -1.15392       1.28764
                        -----------------------------------------
Magnitude (a.u.)       :      1.94809
Magnitude (Debye)      :      4.95164

Rotational constants in cm-1:     0.001171     0.000480     0.000389
Rotational constants in MHz :    35.108392    14.395564    11.666464

                             ****ORCA TERMINATED NORMALLY****
TOTAL RUN TIME: 0 days 0 hours 10 minutes 54 seconds 467 msec
