                         Program Version 4.2.0 -  RELEASE  -
|  1> # ORCA input file
|  2> # SCF done       -165.086546873904          0.000400976455
|  3> ! CAM-B3LYP def2-SVP def2/J RIJCOSX Grid4 TightSCF
|  4> %maxcore 5000
|  5> %tddft
|  6>     Mode sTDDFT
|  7>     Ethresh 5.0
|  8>     maxcore 5000
|  9> end
| 10>
| 11> %pal
| 12>   nprocs 6
| 13>   end
| 14> * xyz 0 1
| 15>    C       10.75138       -11.40351         2.87873
| 16>    C        9.91255       -11.12491         1.87303
| 17>    C       10.01600       -11.53718         0.50122
| 18>    C        9.01584       -11.09919        -0.29215
| 19>    C        8.03897       -10.30693         0.37811
| 20>    S        8.45206       -10.14391         2.07478
| 21>    C        6.92307        -9.72622        -0.16684
| 22>    C        6.48518        -9.76211        -1.51660
| 23>    C        5.34275        -9.07210        -1.75462
| 24>    C        4.79456        -8.43792        -0.60490
| 25>    S        5.80412        -8.78185         0.80368
| 26>    C        3.67789        -7.66403        -0.55595
| 27>    N        3.24180        -7.07148         0.59338
| 28>    C        2.15282        -6.29009         0.78400
| 29>    S        2.13911        -5.25711         2.18638
| 30>    C        0.62156        -4.58677         1.66716
| 31>    N        0.03086        -3.62579         2.48248
| 32>    O       -1.03104        -3.14394         2.12347
| 33>    O        0.63040        -3.33174         3.50761
| 34>    C        0.16756        -5.12916         0.49368
| 35>    C        1.01694        -6.12305        -0.02448
| 36>    C        0.69183        -6.92587        -1.17596
| 37>    C       -0.10391        -6.51682        -2.18283
| 38>    C       -0.45225        -7.33103        -3.29889
| 39>    S        0.08510        -8.98504        -3.41706
| 40>    C       -0.69158        -9.19308        -4.96065
| 41>    C       -1.32058        -8.02465        -5.35158
| 42>    C       -1.19796        -6.98283        -4.40988
| 43>    C       -1.81908        -5.63229        -4.62354
| 44>    F       -2.42585        -5.18676        -3.46046
| 45>    C       -2.86992        -5.67142        -5.72895
| 46>    C       -2.31189        -6.38175        -6.95241
| 47>    C       -2.08038        -7.85541        -6.63524
| 48>    F       -1.38729        -8.42786        -7.69411
| 49>    C       -0.63674       -10.43284        -5.65696
| 50>    C       -0.05175       -11.54515        -5.16987
| 51>    N        0.01131       -12.71489        -5.87112
| 52>    C        0.55205       -13.87730        -5.43790
| 53>    S        1.17039       -14.02395        -3.82526
| 54>    C        1.61820       -15.66952        -4.16487
| 55>    N        2.22563       -16.38674        -3.13837
| 56>    O        2.54145       -17.54460        -3.35562
| 57>    O        2.40051       -15.79244        -2.08290
| 58>    C        1.31047       -16.06560        -5.43878
| 59>    C        0.69341       -15.05250        -6.19896
| 60>    C        0.27738       -15.17258        -7.56337
| 61>    C        0.57278       -16.21692        -8.37931
| 62>    C        0.16904       -16.29182        -9.72693
| 63>    C        0.52888       -17.29671       -10.58352
| 64>    C        0.17838       -17.41340       -11.95557
| 65>    C        0.70545       -18.49760       -12.57956
| 66>    C        1.50747       -19.31367       -11.74124
| 67>    S        1.55241       -18.64869       -10.11843
| 68>    C        2.18797       -20.45774       -12.07885
| 69>    C        2.24936       -21.08066       -13.35865
| 70>    C        3.01223       -22.19421       -13.39954
| 71>    C        3.61759       -22.54582       -12.14596
| 72>    S        3.14438       -21.35889       -10.91953
| 73>    C        4.41855       -23.58745       -11.88562
| 74>    H       11.62832       -12.00368         2.71149
| 75>    H       10.57922       -11.04271         3.87618
| 76>    H       10.83985       -12.14657         0.17435
| 77>    H        8.93511       -11.31518        -1.34273
| 78>    H        7.03465       -10.29809        -2.26915
| 79>    H        4.86535        -8.98912        -2.71465
| 80>    H        3.11852        -7.46607        -1.45530
| 81>    H        3.87488        -7.15144         1.38258
| 82>    H       -0.77130        -4.84265         0.05590
| 83>    H        1.08798        -7.93272        -1.19908
| 84>    H       -0.49913        -5.51270        -2.18393
| 85>    H       -1.04047        -4.88702        -4.84869
| 86>    H       -3.17188        -4.65360        -5.97722
| 87>    H       -3.74628        -6.20355        -5.35155
| 88>    H       -1.35721        -5.93728        -7.24363
| 89>    H       -2.99806        -6.29590        -7.79554
| 90>    H       -3.03518        -8.40155        -6.58885
| 91>    H       -1.09136       -10.45681        -6.63646
| 92>    H        0.40250       -11.56371        -4.18962
| 93>    H       -0.36511       -12.70551        -6.81148
| 94>    H        1.52143       -17.05804        -5.79145
| 95>    H       -0.30178       -14.35725        -7.97936
| 96>    H        1.16931       -17.03864        -8.00900
| 97>    H       -0.45160       -15.49835       -10.12325
| 98>    H       -0.45102       -16.68224       -12.43232
| 99>    H        0.54542       -18.73641       -13.61585
|100>    H        1.72434       -20.67375       -14.20484
|101>    H        3.17890       -22.79506       -14.27610
|102>    H        4.68171       -24.28478       -12.66138
|103>    H        4.82114       -23.76016       -10.90441
|104> *
|105>
|106>                          ****END OF INPUT****

CARTESIAN COORDINATES (ANGSTROEM)
---------------------------------
  C     10.751380  -11.403510    2.878730
  C      9.912550  -11.124910    1.873030
  C     10.016000  -11.537180    0.501220
  C      9.015840  -11.099190   -0.292150
  C      8.038970  -10.306930    0.378110
  S      8.452060  -10.143910    2.074780
  C      6.923070   -9.726220   -0.166840
  C      6.485180   -9.762110   -1.516600
  C      5.342750   -9.072100   -1.754620
  C      4.794560   -8.437920   -0.604900
  S      5.804120   -8.781850    0.803680
  C      3.677890   -7.664030   -0.555950
  N      3.241800   -7.071480    0.593380
  C      2.152820   -6.290090    0.784000
  S      2.139110   -5.257110    2.186380
  C      0.621560   -4.586770    1.667160
  N      0.030860   -3.625790    2.482480
  O     -1.031040   -3.143940    2.123470
  O      0.630400   -3.331740    3.507610
  C      0.167560   -5.129160    0.493680
  C      1.016940   -6.123050   -0.024480
  C      0.691830   -6.925870   -1.175960
  C     -0.103910   -6.516820   -2.182830
  C     -0.452250   -7.331030   -3.298890
  S      0.085100   -8.985040   -3.417060
  C     -0.691580   -9.193080   -4.960650
  C     -1.320580   -8.024650   -5.351580
  C     -1.197960   -6.982830   -4.409880
  C     -1.819080   -5.632290   -4.623540
  F     -2.425850   -5.186760   -3.460460
  C     -2.869920   -5.671420   -5.728950
  C     -2.311890   -6.381750   -6.952410
  C     -2.080380   -7.855410   -6.635240
  F     -1.387290   -8.427860   -7.694110
  C     -0.636740  -10.432840   -5.656960
  C     -0.051750  -11.545150   -5.169870
  N      0.011310  -12.714890   -5.871120
  C      0.552050  -13.877300   -5.437900
  S      1.170390  -14.023950   -3.825260
  C      1.618200  -15.669520   -4.164870
  N      2.225630  -16.386740   -3.138370
  O      2.541450  -17.544600   -3.355620
  O      2.400510  -15.792440   -2.082900
  C      1.310470  -16.065600   -5.438780
  C      0.693410  -15.052500   -6.198960
  C      0.277380  -15.172580   -7.563370
  C      0.572780  -16.216920   -8.379310
  C      0.169040  -16.291820   -9.726930
  C      0.528880  -17.296710  -10.583520
  C      0.178380  -17.413400  -11.955570
  C      0.705450  -18.497600  -12.579560
  C      1.507470  -19.313670  -11.741240
  S      1.552410  -18.648690  -10.118430
  C      2.187970  -20.457740  -12.078850
  C      2.249360  -21.080660  -13.358650
  C      3.012230  -22.194210  -13.399540
  C      3.617590  -22.545820  -12.145960
  S      3.144380  -21.358890  -10.919530
  C      4.418550  -23.587450  -11.885620
  H     11.628320  -12.003680    2.711490
  H     10.579220  -11.042710    3.876180
  H     10.839850  -12.146570    0.174350
  H      8.935110  -11.315180   -1.342730
  H      7.034650  -10.298090   -2.269150
  H      4.865350   -8.989120   -2.714650
  H      3.118520   -7.466070   -1.455300
  H      3.874880   -7.151440    1.382580
  H     -0.771300   -4.842650    0.055900
  H      1.087980   -7.932720   -1.199080
  H     -0.499130   -5.512700   -2.183930
  H     -1.040470   -4.887020   -4.848690
  H     -3.171880   -4.653600   -5.977220
  H     -3.746280   -6.203550   -5.351550
  H     -1.357210   -5.937280   -7.243630
  H     -2.998060   -6.295900   -7.795540
  H     -3.035180   -8.401550   -6.588850
  H     -1.091360  -10.456810   -6.636460
  H      0.402500  -11.563710   -4.189620
  H     -0.365110  -12.705510   -6.811480
  H      1.521430  -17.058040   -5.791450
  H     -0.301780  -14.357250   -7.979360
  H      1.169310  -17.038640   -8.009000
  H     -0.451600  -15.498350  -10.123250
  H     -0.451020  -16.682240  -12.432320
  H      0.545420  -18.736410  -13.615850
  H      1.724340  -20.673750  -14.204840
  H      3.178900  -22.795060  -14.276100
  H      4.681710  -24.284780  -12.661380
  H      4.821140  -23.760160  -10.904410

 Total Charge           Charge          ....    0
 Multiplicity           Mult            ....    1
 Number of Electrons    NEL             ....  472
 Basis Dimension        Dim             .... 1004

ORBITAL ENERGIES
----------------

  NO   OCC          E(Eh)            E(eV)
   0   2.0000     -88.979657     -2421.2596
   1   2.0000     -88.975077     -2421.1349
   2   2.0000     -88.961536     -2420.7665
   3   2.0000     -88.944965     -2420.3155
   4   2.0000     -88.942064     -2420.2366
   5   2.0000     -88.938165     -2420.1305
   6   2.0000     -88.932797     -2419.9844
   7   2.0000     -24.758245      -673.7061
   8   2.0000     -24.754715      -673.6101
   9   2.0000     -19.226580      -523.1818
  10   2.0000     -19.226389      -523.1766
  11   2.0000     -19.224883      -523.1357
  12   2.0000     -19.224378      -523.1219
  13   2.0000     -14.638527      -398.3346
  14   2.0000     -14.636557      -398.2810
  15   2.0000     -14.485655      -394.1747
  16   2.0000     -14.483579      -394.1182
  17   2.0000     -10.366433      -282.0850
  18   2.0000     -10.365002      -282.0460
  19   2.0000     -10.359169      -281.8873
  20   2.0000     -10.357560      -281.8435
  21   2.0000     -10.336749      -281.2772
  22   2.0000     -10.333760      -281.1959
  23   2.0000     -10.331890      -281.1450
  24   2.0000     -10.328582      -281.0550
  25   2.0000     -10.313929      -280.6563
  26   2.0000     -10.310419      -280.5608
  27   2.0000     -10.308470      -280.5077
  28   2.0000     -10.308440      -280.5069
  29   2.0000     -10.308265      -280.5022
  30   2.0000     -10.307480      -280.4808
  31   2.0000     -10.306303      -280.4488
  32   2.0000     -10.306232      -280.4468
  33   2.0000     -10.303676      -280.3773
  34   2.0000     -10.303227      -280.3651
  35   2.0000     -10.301211      -280.3102
  36   2.0000     -10.301159      -280.3088
  37   2.0000     -10.294311      -280.1224
  38   2.0000     -10.293165      -280.0913
  39   2.0000     -10.289966      -280.0042
  40   2.0000     -10.289339      -279.9872
  41   2.0000     -10.289242      -279.9845
  42   2.0000     -10.288863      -279.9742
  43   2.0000     -10.288235      -279.9571
  44   2.0000     -10.286835      -279.9190
  45   2.0000     -10.286478      -279.9093
  46   2.0000     -10.285586      -279.8850
  47   2.0000     -10.285326      -279.8780
  48   2.0000     -10.285192      -279.8743
  49   2.0000     -10.284777      -279.8630
  50   2.0000     -10.284768      -279.8628
  51   2.0000     -10.284482      -279.8550
  52   2.0000     -10.284170      -279.8465
  53   2.0000     -10.283229      -279.8209
  54   2.0000     -10.281910      -279.7850
  55   2.0000     -10.279032      -279.7067
  56   2.0000     -10.278686      -279.6973
  57   2.0000     -10.270130      -279.4644
  58   2.0000     -10.263812      -279.2925
  59   2.0000      -8.075089      -219.7343
  60   2.0000      -8.070974      -219.6224
  61   2.0000      -8.057098      -219.2448
  62   2.0000      -8.041390      -218.8173
  63   2.0000      -8.038438      -218.7370
  64   2.0000      -8.034874      -218.6400
  65   2.0000      -8.029607      -218.4967
  66   2.0000      -6.044845      -164.4886
  67   2.0000      -6.040757      -164.3774
  68   2.0000      -6.040436      -164.3686
  69   2.0000      -6.036379      -164.2582
  70   2.0000      -6.036338      -164.2571
  71   2.0000      -6.032163      -164.1435
  72   2.0000      -6.026234      -163.9822
  73   2.0000      -6.022485      -163.8802
  74   2.0000      -6.019147      -163.7893
  75   2.0000      -6.011289      -163.5755
  76   2.0000      -6.008212      -163.4918
  77   2.0000      -6.007384      -163.4692
  78   2.0000      -6.004717      -163.3967
  79   2.0000      -6.004302      -163.3854
  80   2.0000      -6.001897      -163.3199
  81   2.0000      -6.000783      -163.2896
  82   2.0000      -5.999456      -163.2535
  83   2.0000      -5.999129      -163.2446
  84   2.0000      -5.995585      -163.1482
  85   2.0000      -5.995381      -163.1426
  86   2.0000      -5.990027      -162.9969
  87   2.0000      -1.306041       -35.5392
  88   2.0000      -1.304039       -35.4847
  89   2.0000      -1.268279       -34.5116
  90   2.0000      -1.265912       -34.4472
  91   2.0000      -1.124864       -30.6091
  92   2.0000      -1.122910       -30.5559
  93   2.0000      -1.092036       -29.7158
  94   2.0000      -1.087782       -29.6001
  95   2.0000      -1.000945       -27.2371
  96   2.0000      -0.998541       -27.1717
  97   2.0000      -0.996131       -27.1061
  98   2.0000      -0.992157       -26.9980
  99   2.0000      -0.986573       -26.8460
 100   2.0000      -0.969376       -26.3781
 101   2.0000      -0.963912       -26.2294
 102   2.0000      -0.930459       -25.3191
 103   2.0000      -0.922753       -25.1094
 104   2.0000      -0.917520       -24.9670
 105   2.0000      -0.901752       -24.5379
 106   2.0000      -0.894143       -24.3309
 107   2.0000      -0.885989       -24.1090
 108   2.0000      -0.875550       -23.8249
 109   2.0000      -0.868993       -23.6465
 110   2.0000      -0.859814       -23.3967
 111   2.0000      -0.854600       -23.2549
 112   2.0000      -0.844751       -22.9869
 113   2.0000      -0.841995       -22.9119
 114   2.0000      -0.841828       -22.9073
 115   2.0000      -0.838082       -22.8054
 116   2.0000      -0.831067       -22.6145
 117   2.0000      -0.828320       -22.5397
 118   2.0000      -0.816857       -22.2278
 119   2.0000      -0.816020       -22.2050
 120   2.0000      -0.801974       -21.8228
 121   2.0000      -0.787625       -21.4324
 122   2.0000      -0.782080       -21.2815
 123   2.0000      -0.773172       -21.0391
 124   2.0000      -0.757519       -20.6131
 125   2.0000      -0.736209       -20.0333
 126   2.0000      -0.728957       -19.8359
 127   2.0000      -0.728763       -19.8307
 128   2.0000      -0.723977       -19.7004
 129   2.0000      -0.712294       -19.3825
 130   2.0000      -0.704602       -19.1732
 131   2.0000      -0.687314       -18.7028
 132   2.0000      -0.684792       -18.6341
 133   2.0000      -0.676730       -18.4148
 134   2.0000      -0.669644       -18.2219
 135   2.0000      -0.658209       -17.9108
 136   2.0000      -0.654171       -17.8009
 137   2.0000      -0.648247       -17.6397
 138   2.0000      -0.642759       -17.4904
 139   2.0000      -0.641180       -17.4474
 140   2.0000      -0.629342       -17.1253
 141   2.0000      -0.628965       -17.1150
 142   2.0000      -0.625785       -17.0285
 143   2.0000      -0.620289       -16.8789
 144   2.0000      -0.619726       -16.8636
 145   2.0000      -0.617790       -16.8109
 146   2.0000      -0.617125       -16.7928
 147   2.0000      -0.615815       -16.7572
 148   2.0000      -0.613874       -16.7044
 149   2.0000      -0.607589       -16.5333
 150   2.0000      -0.601222       -16.3601
 151   2.0000      -0.597657       -16.2631
 152   2.0000      -0.597074       -16.2472
 153   2.0000      -0.594372       -16.1737
 154   2.0000      -0.590267       -16.0620
 155   2.0000      -0.588087       -16.0027
 156   2.0000      -0.580478       -15.7956
 157   2.0000      -0.578672       -15.7465
 158   2.0000      -0.574782       -15.6406
 159   2.0000      -0.565964       -15.4007
 160   2.0000      -0.562946       -15.3185
 161   2.0000      -0.557561       -15.1720
 162   2.0000      -0.551734       -15.0134
 163   2.0000      -0.549358       -14.9488
 164   2.0000      -0.545199       -14.8356
 165   2.0000      -0.542805       -14.7705
 166   2.0000      -0.537393       -14.6232
 167   2.0000      -0.535545       -14.5729
 168   2.0000      -0.530701       -14.4411
 169   2.0000      -0.526006       -14.3134
 170   2.0000      -0.521506       -14.1909
 171   2.0000      -0.515531       -14.0283
 172   2.0000      -0.513813       -13.9816
 173   2.0000      -0.510990       -13.9048
 174   2.0000      -0.508871       -13.8471
 175   2.0000      -0.506724       -13.7887
 176   2.0000      -0.500824       -13.6281
 177   2.0000      -0.498729       -13.5711
 178   2.0000      -0.494985       -13.4692
 179   2.0000      -0.493248       -13.4220
 180   2.0000      -0.491638       -13.3781
 181   2.0000      -0.490309       -13.3420
 182   2.0000      -0.488232       -13.2855
 183   2.0000      -0.484555       -13.1854
 184   2.0000      -0.484202       -13.1758
 185   2.0000      -0.483013       -13.1435
 186   2.0000      -0.480590       -13.0775
 187   2.0000      -0.478309       -13.0154
 188   2.0000      -0.472127       -12.8472
 189   2.0000      -0.466649       -12.6982
 190   2.0000      -0.464775       -12.6472
 191   2.0000      -0.461600       -12.5608
 192   2.0000      -0.459912       -12.5148
 193   2.0000      -0.458765       -12.4836
 194   2.0000      -0.457023       -12.4362
 195   2.0000      -0.454798       -12.3757
 196   2.0000      -0.451314       -12.2809
 197   2.0000      -0.445262       -12.1162
 198   2.0000      -0.442194       -12.0327
 199   2.0000      -0.441232       -12.0065
 200   2.0000      -0.435870       -11.8606
 201   2.0000      -0.429314       -11.6822
 202   2.0000      -0.427594       -11.6354
 203   2.0000      -0.424974       -11.5641
 204   2.0000      -0.420036       -11.4298
 205   2.0000      -0.419093       -11.4041
 206   2.0000      -0.416423       -11.3314
 207   2.0000      -0.412759       -11.2317
 208   2.0000      -0.404179       -10.9983
 209   2.0000      -0.402269       -10.9463
 210   2.0000      -0.399330       -10.8663
 211   2.0000      -0.396418       -10.7871
 212   2.0000      -0.396347       -10.7852
 213   2.0000      -0.381300       -10.3757
 214   2.0000      -0.379358       -10.3228
 215   2.0000      -0.375541       -10.2190
 216   2.0000      -0.373708       -10.1691
 217   2.0000      -0.369962       -10.0672
 218   2.0000      -0.366921        -9.9844
 219   2.0000      -0.363428        -9.8894
 220   2.0000      -0.355372        -9.6702
 221   2.0000      -0.353335        -9.6147
 222   2.0000      -0.344227        -9.3669
 223   2.0000      -0.337685        -9.1889
 224   2.0000      -0.337628        -9.1873
 225   2.0000      -0.335250        -9.1226
 226   2.0000      -0.331337        -9.0161
 227   2.0000      -0.326897        -8.8953
 228   2.0000      -0.323507        -8.8031
 229   2.0000      -0.318530        -8.6676
 230   2.0000      -0.306435        -8.3385
 231   2.0000      -0.290315        -7.8999
 232   2.0000      -0.274349        -7.4654
 233   2.0000      -0.245212        -6.6726
 234   2.0000      -0.215489        -5.8638
 235   2.0000      -0.211894        -5.7659
 236   0.0000      -0.070340        -1.9141
 237   0.0000      -0.062040        -1.6882
 238   0.0000      -0.056987        -1.5507
 239   0.0000      -0.038027        -1.0348
 240   0.0000      -0.030035        -0.8173

MULLIKEN ATOMIC CHARGES
-----------------------
   0 C :   -0.030842
   1 C :   -0.063049
   2 C :    0.050666
   3 C :    0.030968
   4 C :   -0.067705
   5 S :    0.070575
   6 C :   -0.051212
   7 C :    0.030135
   8 C :    0.035341
   9 C :   -0.043820
  10 S :    0.038157
  11 C :    0.017177
  12 N :   -0.018884
  13 C :   -0.109512
  14 S :    0.163011
  15 C :   -0.014469
  16 N :    0.280626
  17 O :   -0.258704
  18 O :   -0.274872
  19 C :    0.000832
  20 C :    0.089382
  21 C :   -0.049662
  22 C :   -0.007879
  23 C :   -0.096040
  24 S :    0.076230
  25 C :   -0.095329
  26 C :   -0.066786
  27 C :   -0.056431
  28 C :    0.298953
  29 F :   -0.252910
  30 C :    0.009371
  31 C :    0.007350
  32 C :    0.299064
  33 F :   -0.259113
  34 C :   -0.020645
  35 C :    0.053654
  36 N :   -0.020818
  37 C :   -0.114928
  38 S :    0.144634
  39 C :   -0.008987
  40 N :    0.279591
  41 O :   -0.257504
  42 O :   -0.276006
  43 C :    0.006223
  44 C :    0.137836
  45 C :   -0.049158
  46 C :    0.011492
  47 C :   -0.025194
  48 C :   -0.013467
  49 C :    0.032739
  50 C :    0.029340
  51 C :   -0.046585
  52 S :    0.065060
  53 C :   -0.069752
  54 C :    0.032078
  55 C :    0.051815
  56 C :   -0.065847
  57 S :    0.082275
  58 C :   -0.026687
  59 H :    0.018481
  60 H :    0.020418
  61 H :   -0.012362
  62 H :   -0.012259
  63 H :   -0.013744
  64 H :   -0.012895
  65 H :    0.021519
  66 H :    0.143203
  67 H :    0.014563
  68 H :    0.011715
  69 H :    0.001907
  70 H :    0.015120
  71 H :    0.018777
  72 H :    0.022594
  73 H :    0.021189
  74 H :    0.018000
  75 H :    0.012560
  76 H :   -0.006812
  77 H :    0.033448
  78 H :    0.137440
  79 H :    0.010985
  80 H :   -0.042745
  81 H :   -0.000322
  82 H :   -0.023949
  83 H :   -0.015016
  84 H :   -0.013615
  85 H :   -0.012852
  86 H :   -0.011024
  87 H :    0.020671
  88 H :    0.023226
Sum of atomic charges:   -0.0000000

LOEWDIN ATOMIC CHARGES
----------------------
   0 C :   -0.080217
   1 C :   -0.138201
   2 C :   -0.033068
   3 C :   -0.025884
   4 C :   -0.183059
   5 S :    0.343505
   6 C :   -0.175228
   7 C :   -0.038658
   8 C :   -0.031376
   9 C :   -0.185569
  10 S :    0.332400
  11 C :   -0.010402
  12 N :    0.042493
  13 C :   -0.098434
  14 S :    0.443499
  15 C :   -0.214643
  16 N :    0.274321
  17 O :   -0.224736
  18 O :   -0.240687
  19 C :    0.007751
  20 C :   -0.109810
  21 C :   -0.037561
  22 C :   -0.040535
  23 C :   -0.159268
  24 S :    0.424502
  25 C :   -0.151148
  26 C :   -0.090898
  27 C :   -0.080115
  28 C :    0.114894
  29 F :   -0.128894
  30 C :   -0.036681
  31 C :   -0.037061
  32 C :    0.115996
  33 F :   -0.134663
  34 C :   -0.090372
  35 C :    0.018428
  36 N :    0.045342
  37 C :   -0.099681
  38 S :    0.448929
  39 C :   -0.214154
  40 N :    0.274044
  41 O :   -0.224240
  42 O :   -0.242229
  43 C :    0.007953
  44 C :   -0.107905
  45 C :   -0.038991
  46 C :   -0.025211
  47 C :   -0.067127
  48 C :   -0.140941
  49 C :   -0.037768
  50 C :   -0.028551
  51 C :   -0.182021
  52 S :    0.360465
  53 C :   -0.175874
  54 C :   -0.027136
  55 C :   -0.030152
  56 C :   -0.139729
  57 S :    0.352726
  58 C :   -0.074162
  59 H :    0.028204
  60 H :    0.025799
  61 H :    0.033173
  62 H :    0.032002
  63 H :    0.032250
  64 H :    0.032990
  65 H :    0.037550
  66 H :    0.084497
  67 H :    0.046896
  68 H :    0.021189
  69 H :    0.032645
  70 H :    0.022563
  71 H :    0.033285
  72 H :    0.031397
  73 H :    0.030822
  74 H :    0.032585
  75 H :    0.021235
  76 H :    0.030248
  77 H :    0.018797
  78 H :    0.096681
  79 H :    0.044948
  80 H :    0.018294
  81 H :    0.022795
  82 H :    0.029416
  83 H :    0.032397
  84 H :    0.031519
  85 H :    0.031907
  86 H :    0.033605
  87 H :    0.029020
  88 H :    0.027083

  Mayer bond orders larger than 0.100000
B(  0-C ,  1-C ) :   1.8696 B(  0-C , 59-H ) :   0.9500 B(  0-C , 60-H ) :   0.9414
B(  1-C ,  2-C ) :   1.0772 B(  1-C ,  5-S ) :   1.0074 B(  2-C ,  3-C ) :   1.6696
B(  2-C , 61-H ) :   0.9924 B(  3-C ,  4-C ) :   1.1473 B(  3-C , 62-H ) :   0.9911
B(  4-C ,  5-S ) :   1.0374 B(  4-C ,  6-C ) :   1.5799 B(  6-C ,  7-C ) :   1.1627
B(  6-C , 10-S ) :   1.0320 B(  7-C ,  8-C ) :   1.6386 B(  7-C , 63-H ) :   0.9913
B(  8-C ,  9-C ) :   1.1348 B(  8-C , 64-H ) :   0.9945 B(  9-C , 10-S ) :   1.0018
B(  9-C , 11-C ) :   1.6331 B( 11-C , 12-N ) :   1.1345 B( 11-C , 65-H ) :   0.9548
B( 12-N , 13-C ) :   1.2171 B( 12-N , 66-H ) :   0.9008 B( 13-C , 14-S ) :   1.1333
B( 13-C , 20-C ) :   1.3576 B( 14-S , 15-C ) :   1.0711 B( 15-C , 16-N ) :   0.9856
B( 15-C , 19-C ) :   1.4717 B( 16-N , 17-O ) :   1.5248 B( 16-N , 18-O ) :   1.4997
B( 17-O , 18-O ) :   0.2523 B( 19-C , 20-C ) :   1.2541 B( 19-C , 67-H ) :   1.0034
B( 20-C , 21-C ) :   1.0560 B( 21-C , 22-C ) :   1.7022 B( 21-C , 68-H ) :   0.9597
B( 22-C , 23-C ) :   1.1485 B( 22-C , 69-H ) :   0.9660 B( 23-C , 24-S ) :   1.1013
B( 23-C , 27-C ) :   1.5336 B( 24-S , 25-C ) :   1.1075 B( 25-C , 26-C ) :   1.5344
B( 25-C , 34-C ) :   1.1815 B( 26-C , 27-C ) :   1.2951 B( 26-C , 32-C ) :   0.9777
B( 27-C , 28-C ) :   0.9773 B( 28-C , 29-F ) :   1.0088 B( 28-C , 30-C ) :   1.0750
B( 28-C , 70-H ) :   0.9251 B( 30-C , 31-C ) :   1.0407 B( 30-C , 71-H ) :   0.9260
B( 30-C , 72-H ) :   0.9385 B( 31-C , 32-C ) :   1.0757 B( 31-C , 73-H ) :   0.9388
B( 31-C , 74-H ) :   0.9264 B( 32-C , 33-F ) :   0.9979 B( 32-C , 75-H ) :   0.9254
B( 34-C , 35-C ) :   1.6557 B( 34-C , 76-H ) :   0.9541 B( 35-C , 36-N ) :   1.1214
B( 35-C , 77-H ) :   0.9587 B( 36-N , 37-C ) :   1.2397 B( 36-N , 78-H ) :   0.9134
B( 37-C , 38-S ) :   1.1316 B( 37-C , 44-C ) :   1.3325 B( 38-S , 39-C ) :   1.0589
B( 39-C , 40-N ) :   0.9878 B( 39-C , 43-C ) :   1.4867 B( 40-N , 41-O ) :   1.5229
B( 40-N , 42-O ) :   1.4973 B( 41-O , 42-O ) :   0.2512 B( 43-C , 44-C ) :   1.2340
B( 43-C , 79-H ) :   1.0000 B( 44-C , 45-C ) :   1.0585 B( 45-C , 46-C ) :   1.6918
B( 45-C , 80-H ) :   0.9750 B( 46-C , 47-C ) :   1.1375 B( 46-C , 81-H ) :   0.9706
B( 47-C , 48-C ) :   1.5838 B( 47-C , 82-H ) :   0.9832 B( 48-C , 49-C ) :   1.1263
B( 48-C , 52-S ) :   1.0307 B( 49-C , 50-C ) :   1.6123 B( 49-C , 83-H ) :   0.9991
B( 50-C , 51-C ) :   1.1689 B( 50-C , 84-H ) :   0.9927 B( 51-C , 52-S ) :   1.0331
B( 51-C , 53-C ) :   1.5620 B( 53-C , 54-C ) :   1.1502 B( 53-C , 57-S ) :   1.0467
B( 54-C , 55-C ) :   1.6645 B( 54-C , 85-H ) :   0.9915 B( 55-C , 56-C ) :   1.0788
B( 55-C , 86-H ) :   0.9927 B( 56-C , 57-S ) :   1.0060 B( 56-C , 58-C ) :   1.8671
B( 58-C , 87-H ) :   0.9504 B( 58-C , 88-H ) :   0.9414

-----------------------------------------------------------------------------
         ABSORPTION SPECTRUM VIA TRANSITION ELECTRIC DIPOLE MOMENTS
-----------------------------------------------------------------------------
State   Energy  Wavelength   fosc         T2         TX        TY        TZ
        (cm-1)    (nm)                  (au**2)     (au)      (au)      (au)
-----------------------------------------------------------------------------
   0   17768.5    562.8   1.141991961  21.15869   1.06838   3.07718   3.24781
   1   18803.9    531.8   1.649650002  28.88146  -3.53913   3.73830   1.54309
   2   20383.3    490.6   0.870180313  14.05436  -2.31608   2.94656  -0.08906
   3   21033.4    475.4   0.025289261   0.39582  -0.19121  -0.14393   0.58185
   4   23895.6    418.5   0.005147048   0.07091  -0.12093   0.19852   0.12991
   5   24566.4    407.1   0.139369811   1.86768   0.73246   0.40131   1.08173
   6   25236.1    396.3   0.153159230   1.99801  -0.85539  -0.45273  -1.03022
   7   25552.7    391.3   0.246320110   3.17350   0.88652  -1.50666   0.34288
   8   26324.7    379.9   0.095796859   1.19802   0.46607  -0.97679  -0.16336
   9   26927.3    371.4   0.079832987   0.97603  -0.37178   0.74711  -0.52881
  10   27711.2    360.9   0.181456856   2.15573   0.88534  -0.90519   0.74333
  11   28398.1    352.1   0.051311148   0.59484  -0.49480   0.56190  -0.18514
  12   29832.5    335.2   0.007316692   0.08074  -0.22601   0.16936  -0.03127
  13   30684.6    325.9   0.003479799   0.03733  -0.00291   0.10141  -0.16445
  14   31191.2    320.6   0.002636686   0.02783   0.09769  -0.07663   0.11142
  15   32090.4    311.6   0.092527107   0.94923   0.60501  -0.28308   0.70926
  16   32270.0    309.9   0.226937369   2.31517  -0.03308  -0.71984  -1.34011
  17   33392.1    299.5   0.085039777   0.83840   0.45870  -0.23659   0.75632
  18   33522.3    298.3   0.288318671   2.83149   0.47451  -0.17305   1.60511
  19   34341.4    291.2   0.102925352   0.98669   0.57956   0.03611   0.80591
  20   34731.2    287.9   0.074216977   0.70349  -0.01890  -0.29686  -0.78422
  21   34835.7    287.1   0.111090713   1.04985  -0.40404   0.66410   0.66752
  22   36161.5    276.5   0.004742239   0.04317  -0.05243   0.12354  -0.15863
  23   36484.0    274.1   0.007308682   0.06595   0.01259  -0.16927  -0.19271
  24   37280.6    268.2   0.144939285   1.27991   0.16282   0.34817   1.06404
  25   37504.9    266.6   0.000715302   0.00628  -0.00530  -0.07729  -0.01665
  26   37724.9    265.1   0.024645675   0.21507  -0.04345  -0.24852  -0.38914
  27   38241.1    261.5   0.167581984   1.44269   0.16185   0.38184   1.12725
  28   38410.4    260.3   0.030434243   0.26085   0.23814  -0.44774   0.06057
  29   38456.6    260.0   0.035187337   0.30123   0.05164  -0.30955  -0.45026
  30   39190.7    255.2   0.012385050   0.10404   0.01858  -0.05610  -0.31709
  31   39374.5    254.0   0.074543239   0.62326  -0.44620   0.17878  -0.62626
  32   39590.4    252.6   0.078070911   0.64919  -0.24127  -0.02093  -0.76847
  33   39934.3    250.4   0.072386756   0.59675   0.47503  -0.41197   0.44874

FINAL SINGLE POINT ENERGY     -5121.400012101205

DIPOLE MOMENT
-------------
                                X             Y             Z
Electronic contribution:     -4.80667      18.37661      35.84840
Nuclear contribution   :      4.82420     -19.19965     -40.92909
                        -----------------------------------------
Total Dipole Moment    :      0.01753      -0.82304      -5.08069
                        -----------------------------------------
Magnitude (a.u.)       :      5.14695
Magnitude (Debye)      :     13.08251

Rotational constants in cm-1:     0.001121     0.000370     0.000292
Rotational constants in MHz :    33.617817    11.089432     8.743664

                             ****ORCA TERMINATED NORMALLY****
TOTAL RUN TIME: 0 days 0 hours 6 minutes 50 seconds 656 msec
