                         Program Version 4.2.0 -  RELEASE  -
|  1> # ORCA input file
|  2> # SCF done       -150.965365988502          0.000475769586
|  3> ! CAM-B3LYP def2-SVP def2/J RIJCOSX Grid4 TightSCF
|  4> %maxcore 5000
|  5> %tddft
|  6>     Mode sTDDFT
|  7>     Ethresh 5.0
|  8>     maxcore 5000
|  9> end
| 10>
| 11> %pal
| 12>   nprocs 6
| 13>   end
| 14> * xyz 0 1
| 15>    C       12.38178       -11.29148        -1.21610
| 16>    C       11.88334       -10.09607        -1.56048
| 17>    C       12.60949        -8.90057        -1.87933
| 18>    C       11.83058        -7.84229        -2.19587
| 19>    C       10.43375        -8.10818        -2.15492
| 20>    S       10.14647        -9.77227        -1.68973
| 21>    C        9.40966        -7.23306        -2.43445
| 22>    C        9.50654        -5.87719        -2.82793
| 23>    C        8.30369        -5.28125        -3.04567
| 24>    C        7.18458        -6.12538        -2.83838
| 25>    S        7.72389        -7.71706        -2.34382
| 26>    C        5.86932        -5.76137        -3.01101
| 27>    C        4.73462        -6.55199        -2.82810
| 28>    S        4.79437        -8.19638        -2.28170
| 29>    C        3.06537        -8.38578        -2.30237
| 30>    C        2.45184        -7.20941        -2.77054
| 31>    C        3.39113        -6.16894        -3.05129
| 32>    C        2.94650        -4.92323        -3.51936
| 33>    C        1.60974        -4.72545        -3.72584
| 34>    F        1.16900        -3.53638        -4.17483
| 35>    C        0.68473        -5.76238        -3.49599
| 36>    F       -0.61947        -5.54662        -3.75056
| 37>    C        1.08666        -6.98240        -3.03184
| 38>    C        2.55485        -9.62707        -1.85042
| 39>    C        1.28223        -9.93344        -1.50001
| 40>    C        0.91611       -11.23975        -1.05279
| 41>    C       -0.30692       -11.62274        -0.64862
| 42>    C       -1.50083       -10.72048        -0.58294
| 43>    C       -0.58695       -13.04333        -0.20015
| 44>    N        0.34649       -14.03255        -0.66592
| 45>    C        1.54164       -14.24112        -0.07266
| 46>    C        2.52819       -15.01669        -0.59918
| 47>    C        3.78168       -15.28585        -0.01191
| 48>    C        4.37283       -14.72541         1.09131
| 49>    C        5.64394       -15.08761         1.60546
| 50>    C        6.04867       -14.37284         2.69030
| 51>    C        5.12469       -13.38727         3.10514
| 52>    S        3.71520       -13.41402         2.07062
| 53>    C        5.23441       -12.49650         4.15248
| 54>    C        6.28066       -12.37582         5.09258
| 55>    C        6.09029       -11.38736         6.00811
| 56>    C        4.88224       -10.66131         5.84318
| 57>    S        3.98899       -11.29821         4.47550
| 58>    C        4.46091        -9.61351         6.61728
| 59>    C        3.28067        -8.86506         6.46610
| 60>    S        2.06609        -9.12231         5.22385
| 61>    C        1.05789        -7.83268         5.76194
| 62>    C        1.61316        -7.21207         6.85507
| 63>    C        2.85692        -7.79889         7.24070
| 64>    O        3.37811        -7.16769         8.31623
| 65>    C        2.48400        -6.18851         8.61961
| 66>    N        2.77185        -5.35401         9.71968
| 67>    O        1.95636        -4.48270         9.96955
| 68>    O        3.79738        -5.55224        10.33811
| 69>    C        1.39895        -6.15700         7.78261
| 70>    H       13.44452       -11.44435        -1.15066
| 71>    H       11.74429       -12.12797        -0.99640
| 72>    H       13.68473        -8.88945        -1.85708
| 73>    H       12.20731        -6.87029        -2.46063
| 74>    H       10.45473        -5.38339        -2.94051
| 75>    H        8.17960        -4.25723        -3.35172
| 76>    H        5.69981        -4.74216        -3.33081
| 77>    H        3.63558        -4.12124        -3.72662
| 78>    H        0.35112        -7.75683        -2.90485
| 79>    H        3.30632       -10.40003        -1.73455
| 80>    H        0.51299        -9.18114        -1.52639
| 81>    H        1.71869       -11.96659        -1.04785
| 82>    H       -1.21874        -9.70437        -0.32394
| 83>    H       -2.20710       -11.08072         0.16158
| 84>    H       -2.01228       -10.69644        -1.54610
| 85>    H       -1.58744       -13.33155        -0.53934
| 86>    H       -0.58916       -13.06689         0.89659
| 87>    H        0.26011       -14.31156        -1.63289
| 88>    H        1.64238       -13.79520         0.90476
| 89>    H        2.34106       -15.49000        -1.55516
| 90>    H        4.38412       -16.03026        -0.51843
| 91>    H        6.22190       -15.87311         1.15001
| 92>    H        6.98618       -14.51799         3.19618
| 93>    H        7.14052       -13.02135         5.06976
| 94>    H        6.77736       -11.14786         6.80029
| 95>    H        5.09587        -9.30777         7.43818
| 96>    H        0.14392        -7.61939         5.24945
| 97>    H        0.58042        -5.47025         7.84153
| 98> *
| 99>
|100>                          ****END OF INPUT****

CARTESIAN COORDINATES (ANGSTROEM)
---------------------------------
  C     12.381780  -11.291480   -1.216100
  C     11.883340  -10.096070   -1.560480
  C     12.609490   -8.900570   -1.879330
  C     11.830580   -7.842290   -2.195870
  C     10.433750   -8.108180   -2.154920
  S     10.146470   -9.772270   -1.689730
  C      9.409660   -7.233060   -2.434450
  C      9.506540   -5.877190   -2.827930
  C      8.303690   -5.281250   -3.045670
  C      7.184580   -6.125380   -2.838380
  S      7.723890   -7.717060   -2.343820
  C      5.869320   -5.761370   -3.011010
  C      4.734620   -6.551990   -2.828100
  S      4.794370   -8.196380   -2.281700
  C      3.065370   -8.385780   -2.302370
  C      2.451840   -7.209410   -2.770540
  C      3.391130   -6.168940   -3.051290
  C      2.946500   -4.923230   -3.519360
  C      1.609740   -4.725450   -3.725840
  F      1.169000   -3.536380   -4.174830
  C      0.684730   -5.762380   -3.495990
  F     -0.619470   -5.546620   -3.750560
  C      1.086660   -6.982400   -3.031840
  C      2.554850   -9.627070   -1.850420
  C      1.282230   -9.933440   -1.500010
  C      0.916110  -11.239750   -1.052790
  C     -0.306920  -11.622740   -0.648620
  C     -1.500830  -10.720480   -0.582940
  C     -0.586950  -13.043330   -0.200150
  N      0.346490  -14.032550   -0.665920
  C      1.541640  -14.241120   -0.072660
  C      2.528190  -15.016690   -0.599180
  C      3.781680  -15.285850   -0.011910
  C      4.372830  -14.725410    1.091310
  C      5.643940  -15.087610    1.605460
  C      6.048670  -14.372840    2.690300
  C      5.124690  -13.387270    3.105140
  S      3.715200  -13.414020    2.070620
  C      5.234410  -12.496500    4.152480
  C      6.280660  -12.375820    5.092580
  C      6.090290  -11.387360    6.008110
  C      4.882240  -10.661310    5.843180
  S      3.988990  -11.298210    4.475500
  C      4.460910   -9.613510    6.617280
  C      3.280670   -8.865060    6.466100
  S      2.066090   -9.122310    5.223850
  C      1.057890   -7.832680    5.761940
  C      1.613160   -7.212070    6.855070
  C      2.856920   -7.798890    7.240700
  O      3.378110   -7.167690    8.316230
  C      2.484000   -6.188510    8.619610
  N      2.771850   -5.354010    9.719680
  O      1.956360   -4.482700    9.969550
  O      3.797380   -5.552240   10.338110
  C      1.398950   -6.157000    7.782610
  H     13.444520  -11.444350   -1.150660
  H     11.744290  -12.127970   -0.996400
  H     13.684730   -8.889450   -1.857080
  H     12.207310   -6.870290   -2.460630
  H     10.454730   -5.383390   -2.940510
  H      8.179600   -4.257230   -3.351720
  H      5.699810   -4.742160   -3.330810
  H      3.635580   -4.121240   -3.726620
  H      0.351120   -7.756830   -2.904850
  H      3.306320  -10.400030   -1.734550
  H      0.512990   -9.181140   -1.526390
  H      1.718690  -11.966590   -1.047850
  H     -1.218740   -9.704370   -0.323940
  H     -2.207100  -11.080720    0.161580
  H     -2.012280  -10.696440   -1.546100
  H     -1.587440  -13.331550   -0.539340
  H     -0.589160  -13.066890    0.896590
  H      0.260110  -14.311560   -1.632890
  H      1.642380  -13.795200    0.904760
  H      2.341060  -15.490000   -1.555160
  H      4.384120  -16.030260   -0.518430
  H      6.221900  -15.873110    1.150010
  H      6.986180  -14.517990    3.196180
  H      7.140520  -13.021350    5.069760
  H      6.777360  -11.147860    6.800290
  H      5.095870   -9.307770    7.438180
  H      0.143920   -7.619390    5.249450
  H      0.580420   -5.470250    7.841530

 Total Charge           Charge          ....    0
 Multiplicity           Mult            ....    1
 Number of Electrons    NEL             ....  432
 Basis Dimension        Dim             ....  934

ORBITAL ENERGIES
----------------

  NO   OCC          E(Eh)            E(eV)
   0   2.0000     -88.962139     -2420.7829
   1   2.0000     -88.960687     -2420.7434
   2   2.0000     -88.945580     -2420.3323
   3   2.0000     -88.938827     -2420.1485
   4   2.0000     -88.936135     -2420.0753
   5   2.0000     -88.933335     -2419.9991
   6   2.0000     -24.781046      -674.3265
   7   2.0000     -24.780759      -674.3187
   8   2.0000     -19.295022      -525.0443
   9   2.0000     -19.232657      -523.3472
  10   2.0000     -19.230179      -523.2798
  11   2.0000     -14.643867      -398.4799
  12   2.0000     -14.439702      -392.9243
  13   2.0000     -10.374216      -282.2968
  14   2.0000     -10.361537      -281.9518
  15   2.0000     -10.360814      -281.9321
  16   2.0000     -10.329159      -281.0707
  17   2.0000     -10.317351      -280.7494
  18   2.0000     -10.316477      -280.7256
  19   2.0000     -10.311038      -280.5776
  20   2.0000     -10.307344      -280.4771
  21   2.0000     -10.306915      -280.4654
  22   2.0000     -10.306545      -280.4554
  23   2.0000     -10.305207      -280.4189
  24   2.0000     -10.303081      -280.3611
  25   2.0000     -10.301869      -280.3281
  26   2.0000     -10.299984      -280.2768
  27   2.0000     -10.299537      -280.2646
  28   2.0000     -10.296513      -280.1824
  29   2.0000     -10.294767      -280.1349
  30   2.0000     -10.291810      -280.0544
  31   2.0000     -10.289793      -279.9995
  32   2.0000     -10.287463      -279.9361
  33   2.0000     -10.287436      -279.9354
  34   2.0000     -10.287180      -279.9284
  35   2.0000     -10.285445      -279.8812
  36   2.0000     -10.285160      -279.8734
  37   2.0000     -10.284926      -279.8671
  38   2.0000     -10.284715      -279.8613
  39   2.0000     -10.283599      -279.8309
  40   2.0000     -10.282944      -279.8131
  41   2.0000     -10.282910      -279.8122
  42   2.0000     -10.278835      -279.7013
  43   2.0000     -10.278433      -279.6904
  44   2.0000     -10.277616      -279.6682
  45   2.0000     -10.276448      -279.6364
  46   2.0000     -10.274784      -279.5911
  47   2.0000     -10.271124      -279.4915
  48   2.0000     -10.271096      -279.4907
  49   2.0000     -10.270200      -279.4664
  50   2.0000     -10.269980      -279.4604
  51   2.0000     -10.269514      -279.4477
  52   2.0000     -10.268651      -279.4242
  53   2.0000     -10.263036      -279.2714
  54   2.0000     -10.256479      -279.0930
  55   2.0000      -8.056965      -219.2412
  56   2.0000      -8.055140      -219.1915
  57   2.0000      -8.041531      -218.8212
  58   2.0000      -8.035569      -218.6590
  59   2.0000      -8.031932      -218.5600
  60   2.0000      -8.029466      -218.4929
  61   2.0000      -6.025926      -163.9738
  62   2.0000      -6.024496      -163.9349
  63   2.0000      -6.021848      -163.8628
  64   2.0000      -6.020079      -163.8147
  65   2.0000      -6.019773      -163.8064
  66   2.0000      -6.017554      -163.7460
  67   2.0000      -6.011314      -163.5762
  68   2.0000      -6.007174      -163.4635
  69   2.0000      -6.005366      -163.4143
  70   2.0000      -6.002466      -163.3354
  71   2.0000      -6.001667      -163.3137
  72   2.0000      -6.001469      -163.3083
  73   2.0000      -5.999261      -163.2482
  74   2.0000      -5.997670      -163.2049
  75   2.0000      -5.996111      -163.1625
  76   2.0000      -5.995186      -163.1373
  77   2.0000      -5.992944      -163.0763
  78   2.0000      -5.990312      -163.0047
  79   2.0000      -1.314406       -35.7668
  80   2.0000      -1.301827       -35.4245
  81   2.0000      -1.287232       -35.0274
  82   2.0000      -1.214455       -33.0470
  83   2.0000      -1.130260       -30.7559
  84   2.0000      -1.041430       -28.3387
  85   2.0000      -0.999285       -27.1919
  86   2.0000      -0.990671       -26.9575
  87   2.0000      -0.984997       -26.8031
  88   2.0000      -0.978102       -26.6155
  89   2.0000      -0.969251       -26.3747
  90   2.0000      -0.958691       -26.0873
  91   2.0000      -0.937884       -25.5211
  92   2.0000      -0.922777       -25.1100
  93   2.0000      -0.917645       -24.9704
  94   2.0000      -0.901407       -24.5285
  95   2.0000      -0.891271       -24.2527
  96   2.0000      -0.882493       -24.0139
  97   2.0000      -0.876847       -23.8602
  98   2.0000      -0.863740       -23.5036
  99   2.0000      -0.856548       -23.3079
 100   2.0000      -0.849405       -23.1135
 101   2.0000      -0.844862       -22.9899
 102   2.0000      -0.839978       -22.8570
 103   2.0000      -0.830571       -22.6010
 104   2.0000      -0.825381       -22.4598
 105   2.0000      -0.819937       -22.3116
 106   2.0000      -0.814489       -22.1634
 107   2.0000      -0.809206       -22.0196
 108   2.0000      -0.804343       -21.8873
 109   2.0000      -0.785623       -21.3779
 110   2.0000      -0.781485       -21.2653
 111   2.0000      -0.769158       -20.9299
 112   2.0000      -0.756804       -20.5937
 113   2.0000      -0.749444       -20.3934
 114   2.0000      -0.730548       -19.8792
 115   2.0000      -0.724218       -19.7070
 116   2.0000      -0.718926       -19.5630
 117   2.0000      -0.699813       -19.0429
 118   2.0000      -0.693422       -18.8690
 119   2.0000      -0.691351       -18.8126
 120   2.0000      -0.684580       -18.6284
 121   2.0000      -0.666870       -18.1465
 122   2.0000      -0.665744       -18.1158
 123   2.0000      -0.659393       -17.9430
 124   2.0000      -0.652195       -17.7471
 125   2.0000      -0.635636       -17.2965
 126   2.0000      -0.633514       -17.2388
 127   2.0000      -0.628759       -17.1094
 128   2.0000      -0.628592       -17.1049
 129   2.0000      -0.625299       -17.0153
 130   2.0000      -0.618828       -16.8392
 131   2.0000      -0.617922       -16.8145
 132   2.0000      -0.615480       -16.7481
 133   2.0000      -0.610719       -16.6185
 134   2.0000      -0.607711       -16.5367
 135   2.0000      -0.605301       -16.4711
 136   2.0000      -0.599805       -16.3215
 137   2.0000      -0.596900       -16.2425
 138   2.0000      -0.591326       -16.0908
 139   2.0000      -0.585851       -15.9418
 140   2.0000      -0.577472       -15.7138
 141   2.0000      -0.575185       -15.6516
 142   2.0000      -0.572981       -15.5916
 143   2.0000      -0.567470       -15.4416
 144   2.0000      -0.565942       -15.4001
 145   2.0000      -0.557325       -15.1656
 146   2.0000      -0.551743       -15.0137
 147   2.0000      -0.548005       -14.9120
 148   2.0000      -0.544835       -14.8257
 149   2.0000      -0.538409       -14.6508
 150   2.0000      -0.534926       -14.5561
 151   2.0000      -0.532468       -14.4892
 152   2.0000      -0.529840       -14.4177
 153   2.0000      -0.522442       -14.2164
 154   2.0000      -0.519988       -14.1496
 155   2.0000      -0.516503       -14.0548
 156   2.0000      -0.511170       -13.9096
 157   2.0000      -0.508939       -13.8489
 158   2.0000      -0.505284       -13.7495
 159   2.0000      -0.501524       -13.6472
 160   2.0000      -0.500336       -13.6148
 161   2.0000      -0.498248       -13.5580
 162   2.0000      -0.491390       -13.3714
 163   2.0000      -0.489778       -13.3275
 164   2.0000      -0.487016       -13.2524
 165   2.0000      -0.485699       -13.2165
 166   2.0000      -0.484852       -13.1935
 167   2.0000      -0.483387       -13.1536
 168   2.0000      -0.479022       -13.0349
 169   2.0000      -0.477747       -13.0002
 170   2.0000      -0.473836       -12.8937
 171   2.0000      -0.469866       -12.7857
 172   2.0000      -0.467380       -12.7180
 173   2.0000      -0.464398       -12.6369
 174   2.0000      -0.462230       -12.5779
 175   2.0000      -0.460448       -12.5294
 176   2.0000      -0.455369       -12.3912
 177   2.0000      -0.455129       -12.3847
 178   2.0000      -0.451935       -12.2978
 179   2.0000      -0.446578       -12.1520
 180   2.0000      -0.444219       -12.0878
 181   2.0000      -0.439392       -11.9565
 182   2.0000      -0.435899       -11.8614
 183   2.0000      -0.431156       -11.7323
 184   2.0000      -0.426252       -11.5989
 185   2.0000      -0.425789       -11.5863
 186   2.0000      -0.420531       -11.4432
 187   2.0000      -0.416365       -11.3299
 188   2.0000      -0.415737       -11.3128
 189   2.0000      -0.415018       -11.2932
 190   2.0000      -0.411286       -11.1916
 191   2.0000      -0.409805       -11.1514
 192   2.0000      -0.405365       -11.0305
 193   2.0000      -0.396305       -10.7840
 194   2.0000      -0.387472       -10.5436
 195   2.0000      -0.382073       -10.3967
 196   2.0000      -0.381522       -10.3817
 197   2.0000      -0.377649       -10.2763
 198   2.0000      -0.373306       -10.1582
 199   2.0000      -0.368039       -10.0148
 200   2.0000      -0.363857        -9.9010
 201   2.0000      -0.359882        -9.7929
 202   2.0000      -0.340406        -9.2629
 203   2.0000      -0.337704        -9.1894
 204   2.0000      -0.331373        -9.0171
 205   2.0000      -0.327298        -8.9062
 206   2.0000      -0.320150        -8.7117
 207   2.0000      -0.317769        -8.6469
 208   2.0000      -0.306600        -8.3430
 209   2.0000      -0.305997        -8.3266
 210   2.0000      -0.301416        -8.2019
 211   2.0000      -0.291841        -7.9414
 212   2.0000      -0.258010        -7.0208
 213   2.0000      -0.253220        -6.8905
 214   2.0000      -0.203782        -5.5452
 215   2.0000      -0.194003        -5.2791
 216   0.0000      -0.079129        -2.1532
 217   0.0000      -0.064266        -1.7488
 218   0.0000      -0.045896        -1.2489
 219   0.0000      -0.027340        -0.7440
 220   0.0000       0.006105         0.1661

MULLIKEN ATOMIC CHARGES
-----------------------
   0 C :   -0.027575
   1 C :   -0.065220
   2 C :    0.051340
   3 C :    0.031023
   4 C :   -0.067577
   5 S :    0.085064
   6 C :   -0.035673
   7 C :    0.027143
   8 C :    0.029974
   9 C :   -0.038835
  10 S :    0.068612
  11 C :   -0.020079
  12 C :   -0.092830
  13 S :    0.141486
  14 C :   -0.121361
  15 C :    0.135467
  16 C :    0.125693
  17 C :   -0.116956
  18 C :    0.221593
  19 F :   -0.183531
  20 C :    0.225428
  21 F :   -0.184986
  22 C :   -0.128295
  23 C :    0.047155
  24 C :   -0.022027
  25 C :    0.008910
  26 C :   -0.225007
  27 C :    0.080934
  28 C :    0.196088
  29 N :   -0.150867
  30 C :    0.062861
  31 C :   -0.040409
  32 C :    0.012355
  33 C :   -0.047559
  34 C :    0.044694
  35 C :    0.011947
  36 C :   -0.028370
  37 S :    0.031514
  38 C :   -0.046090
  39 C :    0.031062
  40 C :    0.025387
  41 C :   -0.017348
  42 S :    0.046094
  43 C :   -0.028691
  44 C :   -0.182417
  45 S :    0.130333
  46 C :   -0.143298
  47 C :    0.131151
  48 C :    0.187783
  49 O :   -0.187457
  50 C :    0.229220
  51 N :    0.276205
  52 O :   -0.256898
  53 O :   -0.234715
  54 C :   -0.074979
  55 H :    0.021251
  56 H :    0.022000
  57 H :   -0.009558
  58 H :   -0.011865
  59 H :   -0.015901
  60 H :   -0.014252
  61 H :   -0.019407
  62 H :   -0.013762
  63 H :   -0.017773
  64 H :   -0.012752
  65 H :   -0.022624
  66 H :   -0.015938
  67 H :    0.031593
  68 H :    0.012883
  69 H :    0.033657
  70 H :    0.015402
  71 H :    0.036913
  72 H :    0.119383
  73 H :    0.025817
  74 H :   -0.031480
  75 H :   -0.015643
  76 H :   -0.018002
  77 H :   -0.021906
  78 H :   -0.017514
  79 H :   -0.016270
  80 H :   -0.003255
  81 H :    0.022573
  82 H :    0.008964
Sum of atomic charges:   -0.0000000

LOEWDIN ATOMIC CHARGES
----------------------
   0 C :   -0.074277
   1 C :   -0.139452
   2 C :   -0.029580
   3 C :   -0.026511
   4 C :   -0.173153
   5 S :    0.355276
   6 C :   -0.181884
   7 C :   -0.037552
   8 C :   -0.034414
   9 C :   -0.153694
  10 S :    0.369014
  11 C :   -0.077458
  12 C :   -0.179316
  13 S :    0.479962
  14 C :   -0.184300
  15 C :   -0.043804
  16 C :   -0.044332
  17 C :   -0.038052
  18 C :    0.055821
  19 F :   -0.061664
  20 C :    0.060919
  21 F :   -0.062701
  22 C :   -0.043808
  23 C :   -0.041466
  24 C :   -0.036726
  25 C :   -0.051106
  26 C :   -0.052292
  27 C :   -0.050228
  28 C :    0.037318
  29 N :    0.009363
  30 C :    0.050375
  31 C :   -0.137130
  32 C :   -0.028671
  33 C :   -0.181575
  34 C :   -0.019144
  35 C :   -0.061550
  36 C :   -0.163213
  37 S :    0.362721
  38 C :   -0.198527
  39 C :   -0.030762
  40 C :   -0.046203
  41 C :   -0.145150
  42 S :    0.351613
  43 C :   -0.091427
  44 C :   -0.197299
  45 S :    0.464129
  46 C :   -0.205050
  47 C :   -0.084485
  48 C :    0.012295
  49 O :   -0.001431
  50 C :    0.021651
  51 N :    0.273138
  52 O :   -0.217299
  53 O :   -0.196788
  54 C :   -0.011102
  55 H :    0.029052
  56 H :    0.026502
  57 H :    0.033964
  58 H :    0.032525
  59 H :    0.030933
  60 H :    0.032789
  61 H :    0.036894
  62 H :    0.038423
  63 H :    0.036890
  64 H :    0.029719
  65 H :    0.019912
  66 H :    0.027010
  67 H :    0.033372
  68 H :    0.029868
  69 H :    0.039493
  70 H :    0.029134
  71 H :    0.038384
  72 H :    0.080433
  73 H :    0.013711
  74 H :    0.022565
  75 H :    0.035138
  76 H :    0.031408
  77 H :    0.028474
  78 H :    0.030683
  79 H :    0.031703
  80 H :    0.042754
  81 H :    0.024397
  82 H :    0.044847

  Mayer bond orders larger than 0.100000
B(  0-C ,  1-C ) :   1.8625 B(  0-C , 55-H ) :   0.9508 B(  0-C , 56-H ) :   0.9410
B(  1-C ,  2-C ) :   1.0809 B(  1-C ,  5-S ) :   1.0077 B(  2-C ,  3-C ) :   1.6572
B(  2-C , 57-H ) :   0.9935 B(  3-C ,  4-C ) :   1.1562 B(  3-C , 58-H ) :   0.9916
B(  4-C ,  5-S ) :   1.0492 B(  4-C ,  6-C ) :   1.5478 B(  6-C ,  7-C ) :   1.1753
B(  6-C , 10-S ) :   1.0320 B(  7-C ,  8-C ) :   1.5914 B(  7-C , 59-H ) :   0.9930
B(  8-C ,  9-C ) :   1.1523 B(  8-C , 60-H ) :   0.9992 B(  9-C , 10-S ) :   1.0424
B(  9-C , 11-C ) :   1.5426 B( 11-C , 12-C ) :   1.2389 B( 11-C , 61-H ) :   0.9593
B( 12-C , 13-S ) :   1.1321 B( 12-C , 16-C ) :   1.2786 B( 13-S , 14-C ) :   1.1448
B( 14-C , 15-C ) :   1.3302 B( 14-C , 23-C ) :   1.1410 B( 15-C , 16-C ) :   1.2323
B( 15-C , 22-C ) :   1.1619 B( 16-C , 17-C ) :   1.1866 B( 17-C , 18-C ) :   1.4853
B( 17-C , 22-C ) :   0.1118 B( 17-C , 62-H ) :   0.9969 B( 18-C , 19-F ) :   1.1240
B( 18-C , 20-C ) :   1.1704 B( 20-C , 21-F ) :   1.1240 B( 20-C , 22-C ) :   1.4932
B( 22-C , 63-H ) :   0.9961 B( 23-C , 24-C ) :   1.6652 B( 23-C , 64-H ) :   0.9555
B( 24-C , 25-C ) :   1.1244 B( 24-C , 65-H ) :   0.9725 B( 25-C , 26-C ) :   1.7714
B( 25-C , 66-H ) :   0.9639 B( 26-C , 27-C ) :   1.0774 B( 26-C , 28-C ) :   1.0018
B( 27-C , 67-H ) :   0.9507 B( 27-C , 68-H ) :   0.9543 B( 27-C , 69-H ) :   0.9479
B( 28-C , 29-N ) :   1.0394 B( 28-C , 70-H ) :   0.9448 B( 28-C , 71-H ) :   0.9175
B( 29-N , 30-C ) :   1.2454 B( 29-N , 72-H ) :   0.9417 B( 30-C , 31-C ) :   1.5521
B( 30-C , 73-H ) :   0.9470 B( 31-C , 32-C ) :   1.2288 B( 31-C , 74-H ) :   0.9602
B( 32-C , 33-C ) :   1.5817 B( 32-C , 75-H ) :   0.9591 B( 33-C , 34-C ) :   1.1577
B( 33-C , 37-S ) :   1.0050 B( 34-C , 35-C ) :   1.5823 B( 34-C , 76-H ) :   0.9972
B( 35-C , 36-C ) :   1.1896 B( 35-C , 77-H ) :   0.9923 B( 36-C , 37-S ) :   1.0493
B( 36-C , 38-C ) :   1.5131 B( 38-C , 39-C ) :   1.1926 B( 38-C , 42-S ) :   1.0210
B( 39-C , 40-C ) :   1.5879 B( 39-C , 78-H ) :   0.9919 B( 40-C , 41-C ) :   1.1420
B( 40-C , 79-H ) :   1.0003 B( 41-C , 42-S ) :   1.0410 B( 41-C , 43-C ) :   1.5626
B( 43-C , 44-C ) :   1.1742 B( 43-C , 80-H ) :   0.9741 B( 44-C , 45-S ) :   1.1105
B( 44-C , 46-C ) :   0.1085 B( 44-C , 48-C ) :   1.4441 B( 45-S , 46-C ) :   1.1726
B( 46-C , 47-C ) :   1.4162 B( 46-C , 81-H ) :   0.9763 B( 47-C , 48-C ) :   1.2293
B( 47-C , 54-C ) :   1.0614 B( 48-C , 49-O ) :   1.1124 B( 49-O , 50-C ) :   1.1275
B( 50-C , 51-N ) :   0.9234 B( 50-C , 54-C ) :   1.5687 B( 51-N , 52-O ) :   1.5272
B( 51-N , 53-O ) :   1.5105 B( 52-O , 53-O ) :   0.2772 B( 54-C , 82-H ) :   1.0255

-----------------------------------------------------------------------------
         ABSORPTION SPECTRUM VIA TRANSITION ELECTRIC DIPOLE MOMENTS
-----------------------------------------------------------------------------
State   Energy  Wavelength   fosc         T2         TX        TY        TZ
        (cm-1)    (nm)                  (au**2)     (au)      (au)      (au)
-----------------------------------------------------------------------------
   0   13347.8    749.2   0.150825318   3.71997   1.63880  -0.46297  -0.90552
   1   14207.0    703.9   0.829024135  19.21057   3.93234  -1.34230  -1.39481
   2   14712.4    679.7   0.711841606  15.92850   2.29187   2.19685   2.41861
   3   18430.7    542.6   0.459162179   8.20163   1.31054   1.17899   2.25701
   4   19155.6    522.0   0.061592899   1.05855  -0.07985   0.80486   0.63590
   5   21898.1    456.7   0.011854547   0.17822  -0.34526   0.23311  -0.06840
   6   24713.4    404.6   0.017537065   0.23361  -0.00981  -0.48321  -0.00518
   7   24897.0    401.7   0.004986605   0.06594   0.00714  -0.25243  -0.04653
   8   25073.3    398.8   0.136417280   1.79116  -0.96495   0.88499  -0.27718
   9   25818.8    387.3   0.716574782   9.13693   0.74236  -2.79438   0.88163
  10   26639.6    375.4   0.008409425   0.10392  -0.06544   0.27000  -0.16352
  11   29438.1    339.7   0.514406248   5.75270   1.29073  -1.89125   0.71405
  12   29835.0    335.2   0.170817225   1.88487   0.92324   0.99889  -0.18629
  13   30247.6    330.6   0.063301191   0.68896   0.11480   0.59181   0.57057
  14   30314.0    329.9   0.165586283   1.79828  -1.13983   0.61323   0.35073
  15   30795.2    324.7   0.178638503   1.90971  -0.83702   1.08103  -0.20119
  16   30858.4    324.1   0.092455652   0.98636   0.94021  -0.31684   0.04445
  17   30976.8    322.8   0.124704762   1.32532   1.04492   0.33692  -0.34635
  18   31416.3    318.3   0.070407301   0.73780   0.67544  -0.50043   0.17651
  19   32551.0    307.2   0.041505902   0.41978   0.59219  -0.21642   0.14919
  20   32983.1    303.2   0.118937334   1.18714   0.70328   0.24352   0.79576
  21   33900.3    295.0   0.028423848   0.27603  -0.16827  -0.18695   0.46127
  22   33997.9    294.1   0.073030630   0.70718  -0.53423  -0.62262   0.18474
  23   34322.6    291.4   0.007247653   0.06952   0.06464   0.19202  -0.16872
  24   35211.2    284.0   0.098699261   0.92280  -0.28501   0.81113  -0.42854
  25   35356.1    282.8   0.030161150   0.28084  -0.45990   0.11045  -0.23903
  26   35549.0    281.3   0.012953296   0.11996  -0.02286  -0.34462   0.02592
  27   36062.2    277.3   0.000767539   0.00701   0.03176  -0.01202   0.07651
  28   36360.3    275.0   0.315887494   2.86010   0.20910   1.12501   1.24528
  29   36708.7    272.4   0.101542103   0.91065  -0.20838  -0.61464  -0.69960
  30   37230.3    268.6   0.017378422   0.15367   0.27196  -0.06625   0.27445
  31   37794.6    264.6   0.094713271   0.82501  -0.86104   0.26227  -0.12179
  32   37932.9    263.6   0.007296311   0.06332   0.24049  -0.05180  -0.05297
  33   38104.6    262.4   0.000409733   0.00354   0.05165  -0.02795   0.00955
  34   38215.8    261.7   0.002973238   0.02561  -0.11431   0.10468   0.03985
  35   38785.5    257.8   0.024260060   0.20592   0.40293  -0.17869   0.10789
  36   39263.4    254.7   0.008388302   0.07033   0.09883  -0.15956  -0.18736
  37   39525.8    253.0   0.044535990   0.37094  -0.26910  -0.54126   0.07461
  38   39701.2    251.9   0.007300094   0.06053  -0.09974  -0.21907   0.05095
  39   39830.7    251.1   0.005215778   0.04311  -0.06907  -0.05821  -0.18695
  40   40132.6    249.2   0.120843939   0.99129  -0.30777  -0.48511  -0.81317

FINAL SINGLE POINT ENERGY     -4537.664357666577

DIPOLE MOMENT
-------------
                                X             Y             Z
Electronic contribution:     -4.01157      39.34140      10.43100
Nuclear contribution   :      4.63793     -41.42098     -13.45139
                        -----------------------------------------
Total Dipole Moment    :      0.62636      -2.07958      -3.02038
                        -----------------------------------------
Magnitude (a.u.)       :      3.72017
Magnitude (Debye)      :      9.45593

Rotational constants in cm-1:     0.000975     0.000689     0.000656
Rotational constants in MHz :    29.225700    20.651534    19.655609

                             ****ORCA TERMINATED NORMALLY****
TOTAL RUN TIME: 0 days 0 hours 6 minutes 19 seconds 780 msec
