                         Program Version 4.2.0 -  RELEASE  -
|  1> # ORCA input file
|  2> # SCF done       -146.704031730279          0.000665942764
|  3> ! CAM-B3LYP def2-SVP def2/J RIJCOSX Grid4 TightSCF
|  4> %maxcore 5000
|  5> %tddft
|  6>     Mode sTDDFT
|  7>     Ethresh 5.0
|  8>     maxcore 5000
|  9> end
| 10>
| 11> %pal
| 12>   nprocs 6
| 13>   end
| 14> * xyz 0 1
| 15>    C        2.27172       -22.22951       -10.42012
| 16>    C        2.30907       -20.89149       -10.39391
| 17>    C        1.49163       -19.97371       -11.13715
| 18>    C        1.75546       -18.67123       -10.90225
| 19>    C        2.80030       -18.44479        -9.95949
| 20>    S        3.43557       -19.97431        -9.38063
| 21>    C        3.27967       -17.23549        -9.52889
| 22>    C        2.85320       -15.93726        -9.91468
| 23>    C        3.52143       -14.92472        -9.31151
| 24>    C        4.53148       -15.35192        -8.40363
| 25>    S        4.57710       -17.11794        -8.34910
| 26>    C        5.35654       -14.55720        -7.67462
| 27>    N        6.33068       -15.04383        -6.84780
| 28>    C        7.09823       -14.33375        -5.98515
| 29>    S        8.64855       -14.97480        -5.52276
| 30>    C        8.94641       -13.54356        -4.58216
| 31>    N       10.13894       -13.47051        -3.86999
| 32>    O       10.34728       -12.46570        -3.20814
| 33>    O       10.89486       -14.42813        -3.95803
| 34>    C        7.91388       -12.64165        -4.63194
| 35>    C        6.83562       -13.07951        -5.41629
| 36>    C        5.56607       -12.39362        -5.51796
| 37>    C        5.39678       -11.06862        -5.40131
| 38>    C        4.12466       -10.38709        -5.49557
| 39>    C        2.93400       -10.81718        -5.06232
| 40>    C        2.70700       -12.09067        -4.30593
| 41>    C        1.68214       -10.01372        -5.33078
| 42>    N        0.77964       -10.73558        -6.20560
| 43>    C        0.95030       -10.74824        -7.55230
| 44>    C        0.51503       -11.73597        -8.36308
| 45>    C        0.56852       -11.71035        -9.78707
| 46>    S        0.54385       -13.23557       -10.65357
| 47>    C        0.67917       -12.45216       -12.19484
| 48>    C        0.72620       -11.11743       -12.04062
| 49>    C        0.65286       -10.66523       -10.69074
| 50>    C        0.58990        -9.23957       -10.55261
| 51>    C        0.64879        -8.53805       -11.70462
| 52>    S        0.81606        -9.67756       -13.09998
| 53>    O        2.11598        -9.57863       -13.70942
| 54>    O       -0.32519        -9.61143       -13.97282
| 55>    C        0.57555        -7.14529       -11.96886
| 56>    C        0.38683        -6.09303       -11.08156
| 57>    C        0.36103        -4.87746       -11.82485
| 58>    C        0.19312        -3.56923       -11.43404
| 59>    C        0.21005        -2.58218       -12.43346
| 60>    C        0.06846        -1.20040       -12.36768
| 61>    C        0.16267        -0.65865       -13.68504
| 62>    C        0.36318        -1.70911       -14.56454
| 63>    C        0.39936        -2.93218       -13.82570
| 64>    C        0.56661        -4.23491       -14.21894
| 65>    C        0.54779        -5.22730       -13.21818
| 66>    C        0.67687        -6.60487       -13.29091
| 67>    C        0.06857         0.73195       -14.06151
| 68>    C       -0.12267         1.75037       -13.22785
| 69>    H        1.57138       -22.74646       -11.05211
| 70>    H        2.93333       -22.82655        -9.81974
| 71>    H        0.74072       -20.33775       -11.81574
| 72>    H        1.23964       -17.85151       -11.37001
| 73>    H        2.05967       -15.79226       -10.62447
| 74>    H        3.32983       -13.88041        -9.48095
| 75>    H        5.28062       -13.48436        -7.75470
| 76>    H        6.55462       -16.02633        -6.96117
| 77>    H        7.93321       -11.71968        -4.08036
| 78>    H        4.71224       -13.02515        -5.71203
| 79>    H        6.26383       -10.42869        -5.30381
| 80>    H        4.17731        -9.40531        -5.95172
| 81>    H        1.90454       -11.95595        -3.58124
| 82>    H        3.60885       -12.39035        -3.77783
| 83>    H        2.42074       -12.90380        -4.97476
| 84>    H        1.92874        -9.06134        -5.80471
| 85>    H        1.15153        -9.81118        -4.39438
| 86>    H        0.39356       -11.58209        -5.80998
| 87>    H        1.44375        -9.87566        -7.95423
| 88>    H        0.11702       -12.64107        -7.92335
| 89>    H        0.70754       -13.03640       -13.09143
| 90>    H        0.46108        -8.77422        -9.58879
| 91>    H        0.27113        -6.17061       -10.01640
| 92>    H        0.05123        -3.29977       -10.39648
| 93>    H       -0.08829        -0.62971       -11.47054
| 94>    H        0.47413        -1.62924       -15.63065
| 95>    H        0.70633        -4.50730       -15.25528
| 96>    H        0.82580        -7.20033       -14.17237
| 97>    H        0.16691         0.92208       -15.12315
| 98>    H       -0.22669         1.61263       -12.16537
| 99>    H       -0.18165         2.76457       -13.58280
|100> *
|101>
|102>                          ****END OF INPUT****

CARTESIAN COORDINATES (ANGSTROEM)
---------------------------------
  C      2.271720  -22.229510  -10.420120
  C      2.309070  -20.891490  -10.393910
  C      1.491630  -19.973710  -11.137150
  C      1.755460  -18.671230  -10.902250
  C      2.800300  -18.444790   -9.959490
  S      3.435570  -19.974310   -9.380630
  C      3.279670  -17.235490   -9.528890
  C      2.853200  -15.937260   -9.914680
  C      3.521430  -14.924720   -9.311510
  C      4.531480  -15.351920   -8.403630
  S      4.577100  -17.117940   -8.349100
  C      5.356540  -14.557200   -7.674620
  N      6.330680  -15.043830   -6.847800
  C      7.098230  -14.333750   -5.985150
  S      8.648550  -14.974800   -5.522760
  C      8.946410  -13.543560   -4.582160
  N     10.138940  -13.470510   -3.869990
  O     10.347280  -12.465700   -3.208140
  O     10.894860  -14.428130   -3.958030
  C      7.913880  -12.641650   -4.631940
  C      6.835620  -13.079510   -5.416290
  C      5.566070  -12.393620   -5.517960
  C      5.396780  -11.068620   -5.401310
  C      4.124660  -10.387090   -5.495570
  C      2.934000  -10.817180   -5.062320
  C      2.707000  -12.090670   -4.305930
  C      1.682140  -10.013720   -5.330780
  N      0.779640  -10.735580   -6.205600
  C      0.950300  -10.748240   -7.552300
  C      0.515030  -11.735970   -8.363080
  C      0.568520  -11.710350   -9.787070
  S      0.543850  -13.235570  -10.653570
  C      0.679170  -12.452160  -12.194840
  C      0.726200  -11.117430  -12.040620
  C      0.652860  -10.665230  -10.690740
  C      0.589900   -9.239570  -10.552610
  C      0.648790   -8.538050  -11.704620
  S      0.816060   -9.677560  -13.099980
  O      2.115980   -9.578630  -13.709420
  O     -0.325190   -9.611430  -13.972820
  C      0.575550   -7.145290  -11.968860
  C      0.386830   -6.093030  -11.081560
  C      0.361030   -4.877460  -11.824850
  C      0.193120   -3.569230  -11.434040
  C      0.210050   -2.582180  -12.433460
  C      0.068460   -1.200400  -12.367680
  C      0.162670   -0.658650  -13.685040
  C      0.363180   -1.709110  -14.564540
  C      0.399360   -2.932180  -13.825700
  C      0.566610   -4.234910  -14.218940
  C      0.547790   -5.227300  -13.218180
  C      0.676870   -6.604870  -13.290910
  C      0.068570    0.731950  -14.061510
  C     -0.122670    1.750370  -13.227850
  H      1.571380  -22.746460  -11.052110
  H      2.933330  -22.826550   -9.819740
  H      0.740720  -20.337750  -11.815740
  H      1.239640  -17.851510  -11.370010
  H      2.059670  -15.792260  -10.624470
  H      3.329830  -13.880410   -9.480950
  H      5.280620  -13.484360   -7.754700
  H      6.554620  -16.026330   -6.961170
  H      7.933210  -11.719680   -4.080360
  H      4.712240  -13.025150   -5.712030
  H      6.263830  -10.428690   -5.303810
  H      4.177310   -9.405310   -5.951720
  H      1.904540  -11.955950   -3.581240
  H      3.608850  -12.390350   -3.777830
  H      2.420740  -12.903800   -4.974760
  H      1.928740   -9.061340   -5.804710
  H      1.151530   -9.811180   -4.394380
  H      0.393560  -11.582090   -5.809980
  H      1.443750   -9.875660   -7.954230
  H      0.117020  -12.641070   -7.923350
  H      0.707540  -13.036400  -13.091430
  H      0.461080   -8.774220   -9.588790
  H      0.271130   -6.170610  -10.016400
  H      0.051230   -3.299770  -10.396480
  H     -0.088290   -0.629710  -11.470540
  H      0.474130   -1.629240  -15.630650
  H      0.706330   -4.507300  -15.255280
  H      0.825800   -7.200330  -14.172370
  H      0.166910    0.922080  -15.123150
  H     -0.226690    1.612630  -12.165370
  H     -0.181650    2.764570  -13.582800

 Total Charge           Charge          ....    0
 Multiplicity           Mult            ....    1
 Number of Electrons    NEL             ....  416
 Basis Dimension        Dim             ....  931

ORBITAL ENERGIES
----------------

  NO   OCC          E(Eh)            E(eV)
   0   2.0000     -89.134458     -2425.4719
   1   2.0000     -88.979489     -2421.2550
   2   2.0000     -88.964644     -2420.8510
   3   2.0000     -88.947158     -2420.3752
   4   2.0000     -88.935843     -2420.0673
   5   2.0000     -19.229014      -523.2481
   6   2.0000     -19.227992      -523.2203
   7   2.0000     -19.185520      -522.0645
   8   2.0000     -19.184858      -522.0465
   9   2.0000     -14.640417      -398.3860
  10   2.0000     -14.484763      -394.1504
  11   2.0000     -14.443207      -393.0197
  12   2.0000     -10.367777      -282.1216
  13   2.0000     -10.336004      -281.2570
  14   2.0000     -10.330171      -281.0982
  15   2.0000     -10.326677      -281.0032
  16   2.0000     -10.321519      -280.8628
  17   2.0000     -10.315528      -280.6998
  18   2.0000     -10.310279      -280.5570
  19   2.0000     -10.310034      -280.5503
  20   2.0000     -10.308142      -280.4988
  21   2.0000     -10.305912      -280.4381
  22   2.0000     -10.305227      -280.4195
  23   2.0000     -10.304030      -280.3869
  24   2.0000     -10.302266      -280.3389
  25   2.0000     -10.298637      -280.2402
  26   2.0000     -10.297757      -280.2162
  27   2.0000     -10.295921      -280.1662
  28   2.0000     -10.294697      -280.1330
  29   2.0000     -10.290819      -280.0274
  30   2.0000     -10.290050      -280.0065
  31   2.0000     -10.289292      -279.9859
  32   2.0000     -10.287502      -279.9371
  33   2.0000     -10.286522      -279.9105
  34   2.0000     -10.285640      -279.8865
  35   2.0000     -10.284765      -279.8627
  36   2.0000     -10.284450      -279.8541
  37   2.0000     -10.283686      -279.8333
  38   2.0000     -10.281594      -279.7764
  39   2.0000     -10.280837      -279.7558
  40   2.0000     -10.279790      -279.7273
  41   2.0000     -10.279324      -279.7146
  42   2.0000     -10.279299      -279.7139
  43   2.0000     -10.277001      -279.6514
  44   2.0000     -10.273429      -279.5542
  45   2.0000     -10.273253      -279.5494
  46   2.0000     -10.267359      -279.3890
  47   2.0000     -10.266361      -279.3619
  48   2.0000     -10.265952      -279.3508
  49   2.0000     -10.265444      -279.3369
  50   2.0000     -10.263939      -279.2960
  51   2.0000     -10.261890      -279.2402
  52   2.0000     -10.261404      -279.2270
  53   2.0000     -10.255771      -279.0737
  54   2.0000      -8.199246      -223.1128
  55   2.0000      -8.075379      -219.7422
  56   2.0000      -8.059840      -219.3194
  57   2.0000      -8.043519      -218.8753
  58   2.0000      -8.032455      -218.5742
  59   2.0000      -6.168272      -167.8472
  60   2.0000      -6.167951      -167.8385
  61   2.0000      -6.167459      -167.8251
  62   2.0000      -6.045126      -164.4962
  63   2.0000      -6.040723      -164.3764
  64   2.0000      -6.036618      -164.2647
  65   2.0000      -6.029407      -164.0685
  66   2.0000      -6.025017      -163.9490
  67   2.0000      -6.021715      -163.8592
  68   2.0000      -6.013403      -163.6330
  69   2.0000      -6.009497      -163.5267
  70   2.0000      -6.004079      -163.3793
  71   2.0000      -6.002333      -163.3318
  72   2.0000      -5.998420      -163.2253
  73   2.0000      -5.992936      -163.0761
  74   2.0000      -1.307672       -35.5836
  75   2.0000      -1.190274       -32.3890
  76   2.0000      -1.126488       -30.6533
  77   2.0000      -1.089252       -29.6400
  78   2.0000      -1.067500       -29.0481
  79   2.0000      -1.046419       -28.4745
  80   2.0000      -1.001751       -27.2590
  81   2.0000      -0.999367       -27.1942
  82   2.0000      -0.988852       -26.9080
  83   2.0000      -0.986579       -26.8462
  84   2.0000      -0.966084       -26.2885
  85   2.0000      -0.962849       -26.2004
  86   2.0000      -0.932388       -25.3716
  87   2.0000      -0.930380       -25.3169
  88   2.0000      -0.906335       -24.6626
  89   2.0000      -0.894982       -24.3537
  90   2.0000      -0.892421       -24.2840
  91   2.0000      -0.882177       -24.0053
  92   2.0000      -0.871561       -23.7164
  93   2.0000      -0.862292       -23.4641
  94   2.0000      -0.852369       -23.1941
  95   2.0000      -0.849441       -23.1145
  96   2.0000      -0.843944       -22.9649
  97   2.0000      -0.840469       -22.8703
  98   2.0000      -0.825838       -22.4722
  99   2.0000      -0.819165       -22.2906
 100   2.0000      -0.817290       -22.2396
 101   2.0000      -0.798789       -21.7362
 102   2.0000      -0.797284       -21.6952
 103   2.0000      -0.788108       -21.4455
 104   2.0000      -0.780519       -21.2390
 105   2.0000      -0.769176       -20.9303
 106   2.0000      -0.765779       -20.8379
 107   2.0000      -0.753033       -20.4911
 108   2.0000      -0.745161       -20.2769
 109   2.0000      -0.730950       -19.8902
 110   2.0000      -0.720727       -19.6120
 111   2.0000      -0.710890       -19.3443
 112   2.0000      -0.697853       -18.9895
 113   2.0000      -0.682873       -18.5819
 114   2.0000      -0.675309       -18.3761
 115   2.0000      -0.674330       -18.3494
 116   2.0000      -0.667893       -18.1743
 117   2.0000      -0.657643       -17.8954
 118   2.0000      -0.649543       -17.6750
 119   2.0000      -0.646139       -17.5823
 120   2.0000      -0.637007       -17.3338
 121   2.0000      -0.630665       -17.1613
 122   2.0000      -0.627888       -17.0857
 123   2.0000      -0.622795       -16.9471
 124   2.0000      -0.622522       -16.9397
 125   2.0000      -0.621335       -16.9074
 126   2.0000      -0.617824       -16.8119
 127   2.0000      -0.615407       -16.7461
 128   2.0000      -0.610734       -16.6189
 129   2.0000      -0.597824       -16.2676
 130   2.0000      -0.596677       -16.2364
 131   2.0000      -0.586516       -15.9599
 132   2.0000      -0.583684       -15.8829
 133   2.0000      -0.579297       -15.7635
 134   2.0000      -0.578074       -15.7302
 135   2.0000      -0.576898       -15.6982
 136   2.0000      -0.574180       -15.6242
 137   2.0000      -0.564912       -15.3720
 138   2.0000      -0.556842       -15.1524
 139   2.0000      -0.551336       -15.0026
 140   2.0000      -0.549743       -14.9593
 141   2.0000      -0.544209       -14.8087
 142   2.0000      -0.538116       -14.6429
 143   2.0000      -0.530351       -14.4316
 144   2.0000      -0.528846       -14.3906
 145   2.0000      -0.527176       -14.3452
 146   2.0000      -0.523602       -14.2479
 147   2.0000      -0.520417       -14.1613
 148   2.0000      -0.514339       -13.9959
 149   2.0000      -0.512949       -13.9581
 150   2.0000      -0.509679       -13.8691
 151   2.0000      -0.505625       -13.7588
 152   2.0000      -0.497467       -13.5368
 153   2.0000      -0.494744       -13.4627
 154   2.0000      -0.493825       -13.4377
 155   2.0000      -0.493557       -13.4304
 156   2.0000      -0.491624       -13.3778
 157   2.0000      -0.491062       -13.3625
 158   2.0000      -0.489224       -13.3125
 159   2.0000      -0.485047       -13.1988
 160   2.0000      -0.482432       -13.1276
 161   2.0000      -0.481744       -13.1089
 162   2.0000      -0.481466       -13.1014
 163   2.0000      -0.472364       -12.8537
 164   2.0000      -0.470523       -12.8036
 165   2.0000      -0.467423       -12.7192
 166   2.0000      -0.465035       -12.6543
 167   2.0000      -0.461681       -12.5630
 168   2.0000      -0.460516       -12.5313
 169   2.0000      -0.458759       -12.4835
 170   2.0000      -0.455064       -12.3829
 171   2.0000      -0.454394       -12.3647
 172   2.0000      -0.450368       -12.2551
 173   2.0000      -0.446937       -12.1618
 174   2.0000      -0.440385       -11.9835
 175   2.0000      -0.437430       -11.9031
 176   2.0000      -0.431330       -11.7371
 177   2.0000      -0.430046       -11.7021
 178   2.0000      -0.421940       -11.4816
 179   2.0000      -0.419239       -11.4081
 180   2.0000      -0.418060       -11.3760
 181   2.0000      -0.414893       -11.2898
 182   2.0000      -0.404393       -11.0041
 183   2.0000      -0.400578       -10.9003
 184   2.0000      -0.397377       -10.8132
 185   2.0000      -0.389897       -10.6096
 186   2.0000      -0.387354       -10.5404
 187   2.0000      -0.381728       -10.3873
 188   2.0000      -0.377527       -10.2730
 189   2.0000      -0.377256       -10.2657
 190   2.0000      -0.369555       -10.0561
 191   2.0000      -0.364785        -9.9263
 192   2.0000      -0.362280        -9.8581
 193   2.0000      -0.357215        -9.7203
 194   2.0000      -0.351454        -9.5636
 195   2.0000      -0.346317        -9.4238
 196   2.0000      -0.340941        -9.2775
 197   2.0000      -0.339091        -9.2271
 198   2.0000      -0.336228        -9.1492
 199   2.0000      -0.331094        -9.0095
 200   2.0000      -0.322847        -8.7851
 201   2.0000      -0.303760        -8.2657
 202   2.0000      -0.295932        -8.0527
 203   2.0000      -0.274461        -7.4685
 204   2.0000      -0.265972        -7.2375
 205   2.0000      -0.260577        -7.0907
 206   2.0000      -0.231016        -6.2863
 207   2.0000      -0.217213        -5.9107
 208   0.0000      -0.096231        -2.6186
 209   0.0000      -0.062822        -1.7095
 210   0.0000      -0.040022        -1.0891
 211   0.0000      -0.038284        -1.0418
 212   0.0000      -0.016964        -0.4616

MULLIKEN ATOMIC CHARGES
-----------------------
   0 C :   -0.032440
   1 C :   -0.062378
   2 C :    0.048995
   3 C :    0.031711
   4 C :   -0.071909
   5 S :    0.068209
   6 C :   -0.046436
   7 C :    0.027728
   8 C :    0.036968
   9 C :   -0.049928
  10 S :    0.038058
  11 C :    0.013360
  12 N :   -0.033515
  13 C :   -0.111609
  14 S :    0.170390
  15 C :   -0.016147
  16 N :    0.279802
  17 O :   -0.260831
  18 O :   -0.272558
  19 C :    0.003295
  20 C :    0.083885
  21 C :   -0.049519
  22 C :   -0.003271
  23 C :    0.001753
  24 C :   -0.177319
  25 C :    0.067153
  26 C :    0.186534
  27 N :   -0.159308
  28 C :    0.054599
  29 C :   -0.004782
  30 C :   -0.146202
  31 S :    0.093046
  32 C :   -0.151916
  33 C :    0.045905
  34 C :    0.089554
  35 C :    0.001815
  36 C :   -0.013793
  37 S :    0.765188
  38 O :   -0.460286
  39 O :   -0.458423
  40 C :    0.069843
  41 C :   -0.050552
  42 C :    0.056847
  43 C :   -0.000024
  44 C :    0.041266
  45 C :   -0.017433
  46 C :    0.056980
  47 C :   -0.024402
  48 C :    0.053441
  49 C :    0.008517
  50 C :    0.046684
  51 C :   -0.018557
  52 C :    0.014832
  53 C :   -0.029165
  54 H :    0.019033
  55 H :    0.020419
  56 H :   -0.012172
  57 H :   -0.014226
  58 H :   -0.022119
  59 H :   -0.009624
  60 H :    0.036929
  61 H :    0.143767
  62 H :    0.008649
  63 H :    0.009197
  64 H :   -0.001693
  65 H :   -0.016028
  66 H :    0.011115
  67 H :    0.040595
  68 H :    0.037774
  69 H :    0.007322
  70 H :    0.021462
  71 H :    0.115836
  72 H :    0.006397
  73 H :   -0.025868
  74 H :    0.032452
  75 H :   -0.025292
  76 H :   -0.033657
  77 H :   -0.026350
  78 H :   -0.025133
  79 H :   -0.025627
  80 H :   -0.019108
  81 H :    0.004390
  82 H :   -0.018746
  83 H :    0.006813
  84 H :    0.019838
Sum of atomic charges:   -0.0000000

LOEWDIN ATOMIC CHARGES
----------------------
   0 C :   -0.081410
   1 C :   -0.138294
   2 C :   -0.034206
   3 C :   -0.025907
   4 C :   -0.184737
   5 S :    0.341575
   6 C :   -0.175241
   7 C :   -0.041743
   8 C :   -0.030756
   9 C :   -0.186780
  10 S :    0.329063
  11 C :   -0.011113
  12 N :    0.037191
  13 C :   -0.100902
  14 S :    0.446686
  15 C :   -0.214703
  16 N :    0.274583
  17 O :   -0.226474
  18 O :   -0.238744
  19 C :    0.005759
  20 C :   -0.109269
  21 C :   -0.025681
  22 C :   -0.033094
  23 C :   -0.050674
  24 C :   -0.038873
  25 C :   -0.057017
  26 C :    0.044029
  27 N :   -0.009238
  28 C :    0.048952
  29 C :   -0.143389
  30 C :   -0.147334
  31 S :    0.434057
  32 C :   -0.169237
  33 C :   -0.198454
  34 C :   -0.099270
  35 C :   -0.023226
  36 C :   -0.151002
  37 S :    1.174823
  38 O :   -0.504081
  39 O :   -0.500996
  40 C :   -0.079186
  41 C :    0.017457
  42 C :   -0.060482
  43 C :    0.076565
  44 C :   -0.066925
  45 C :    0.049333
  46 C :   -0.063334
  47 C :    0.020827
  48 C :   -0.064018
  49 C :    0.079915
  50 C :   -0.068769
  51 C :    0.045398
  52 C :   -0.020354
  53 C :   -0.057025
  54 H :    0.028254
  55 H :    0.025675
  56 H :    0.033106
  57 H :    0.031603
  58 H :    0.021970
  59 H :    0.030070
  60 H :    0.040808
  61 H :    0.085734
  62 H :    0.044408
  63 H :    0.030565
  64 H :    0.028624
  65 H :    0.026503
  66 H :    0.027464
  67 H :    0.039565
  68 H :    0.033182
  69 H :    0.027560
  70 H :    0.027880
  71 H :    0.074920
  72 H :    0.026832
  73 H :    0.022555
  74 H :    0.031948
  75 H :    0.028510
  76 H :    0.021010
  77 H :    0.034011
  78 H :    0.024464
  79 H :    0.024811
  80 H :    0.037735
  81 H :    0.025436
  82 H :    0.029317
  83 H :    0.017100
  84 H :    0.024110

  Mayer bond orders larger than 0.100000
B(  0-C ,  1-C ) :   1.8704 B(  0-C , 54-H ) :   0.9500 B(  0-C , 55-H ) :   0.9414
B(  1-C ,  2-C ) :   1.0768 B(  1-C ,  5-S ) :   1.0065 B(  2-C ,  3-C ) :   1.6688
B(  2-C , 56-H ) :   0.9930 B(  3-C ,  4-C ) :   1.1452 B(  3-C , 57-H ) :   0.9922
B(  4-C ,  5-S ) :   1.0351 B(  4-C ,  6-C ) :   1.5836 B(  6-C ,  7-C ) :   1.1585
B(  6-C , 10-S ) :   1.0291 B(  7-C ,  8-C ) :   1.6393 B(  7-C , 58-H ) :   0.9879
B(  8-C ,  9-C ) :   1.1269 B(  8-C , 59-H ) :   0.9937 B(  9-C , 10-S ) :   1.0014
B(  9-C , 11-C ) :   1.6399 B( 11-C , 12-N ) :   1.1259 B( 11-C , 60-H ) :   0.9546
B( 12-N , 13-C ) :   1.2123 B( 12-N , 61-H ) :   0.9039 B( 13-C , 14-S ) :   1.1368
B( 13-C , 20-C ) :   1.3637 B( 14-S , 15-C ) :   1.0738 B( 15-C , 16-N ) :   0.9861
B( 15-C , 19-C ) :   1.4696 B( 16-N , 17-O ) :   1.5231 B( 16-N , 18-O ) :   1.5024
B( 17-O , 18-O ) :   0.2528 B( 19-C , 20-C ) :   1.2570 B( 19-C , 62-H ) :   1.0023
B( 20-C , 21-C ) :   1.0484 B( 21-C , 22-C ) :   1.7774 B( 21-C , 63-H ) :   0.9648
B( 22-C , 23-C ) :   1.0685 B( 22-C , 64-H ) :   0.9598 B( 23-C , 24-C ) :   1.8573
B( 23-C , 65-H ) :   0.9490 B( 24-C , 25-C ) :   1.0676 B( 24-C , 26-C ) :   1.0373
B( 25-C , 66-H ) :   0.9483 B( 25-C , 67-H ) :   0.9440 B( 25-C , 68-H ) :   0.9444
B( 26-C , 27-N ) :   1.0169 B( 26-C , 69-H ) :   0.9388 B( 26-C , 70-H ) :   0.9390
B( 27-N , 28-C ) :   1.2159 B( 27-N , 71-H ) :   0.9414 B( 28-C , 29-C ) :   1.6502
B( 28-C , 72-H ) :   0.9656 B( 29-C , 30-C ) :   1.1288 B( 29-C , 73-H ) :   0.9443
B( 30-C , 31-S ) :   1.1193 B( 30-C , 34-C ) :   1.4728 B( 31-S , 32-C ) :   1.1246
B( 32-C , 33-C ) :   1.6482 B( 32-C , 74-H ) :   0.9782 B( 33-C , 34-C ) :   1.2221
B( 33-C , 37-S ) :   0.7636 B( 34-C , 35-C ) :   1.0834 B( 35-C , 36-C ) :   1.6802
B( 35-C , 75-H ) :   0.9827 B( 36-C , 37-S ) :   0.8345 B( 36-C , 40-C ) :   1.1184
B( 37-S , 38-O ) :   1.7019 B( 37-S , 39-O ) :   1.7012 B( 40-C , 41-C ) :   1.4776
B( 40-C , 51-C ) :   1.1711 B( 41-C , 42-C ) :   1.1226 B( 41-C , 76-H ) :   1.0103
B( 42-C , 43-C ) :   1.4114 B( 42-C , 50-C ) :   1.1472 B( 43-C , 44-C ) :   1.1544
B( 43-C , 77-H ) :   1.0040 B( 44-C , 45-C ) :   1.4019 B( 44-C , 48-C ) :   1.1373
B( 45-C , 46-C ) :   1.1728 B( 45-C , 78-H ) :   1.0074 B( 46-C , 47-C ) :   1.4812
B( 46-C , 52-C ) :   1.0829 B( 47-C , 48-C ) :   1.0984 B( 47-C , 79-H ) :   1.0169
B( 48-C , 49-C ) :   1.4448 B( 49-C , 50-C ) :   1.1390 B( 49-C , 80-H ) :   1.0062
B( 50-C , 51-C ) :   1.4084 B( 51-C , 81-H ) :   0.9882 B( 52-C , 53-C ) :   1.9348
B( 52-C , 82-H ) :   0.9666 B( 53-C , 83-H ) :   0.9532 B( 53-C , 84-H ) :   0.9498

-----------------------------------------------------------------------------
         ABSORPTION SPECTRUM VIA TRANSITION ELECTRIC DIPOLE MOMENTS
-----------------------------------------------------------------------------
State   Energy  Wavelength   fosc         T2         TX        TY        TZ
        (cm-1)    (nm)                  (au**2)     (au)      (au)      (au)
-----------------------------------------------------------------------------
   0    8415.0   1188.4   0.007493928   0.29318   0.03107  -0.48677   0.23510
   1   18524.0    539.8   0.003390430   0.06026   0.07688   0.22527   0.06000
   2   19342.6    517.0   1.314484953  22.37264   2.55750   3.25912   2.28253
   3   20722.5    482.6   0.060982865   0.96881  -0.20275   0.93337  -0.23775
   4   22461.4    445.2   0.299861898   4.39500   0.16618  -1.99381   0.62617
   5   24808.6    403.1   0.723396972   9.59952   0.36721  -3.02586   0.55574
   6   25673.3    389.5   0.904061732  11.59290   0.36273  -2.55967   2.21572
   7   26097.5    383.2   0.060436295   0.76238   0.00778  -0.80115   0.34710
   8   27208.7    367.5   0.074733755   0.90424  -0.57603  -0.73814  -0.16608
   9   28238.1    354.1   0.073790881   0.86029  -0.75429   0.48922  -0.22801
  10   28290.4    353.5   0.359674176   4.18549  -0.07809   2.03319  -0.21340
  11   30240.2    330.7   0.075780402   0.82499  -0.51953   0.51958  -0.53396
  12   30314.8    329.9   0.003076038   0.03341   0.11181  -0.14413   0.01138
  13   31221.8    320.3   0.007545216   0.07956  -0.10280   0.24610   0.09181
  14   31328.9    319.2   0.077002934   0.80917   0.35393   0.76974   0.30232
  15   31608.4    316.4   0.001303568   0.01358  -0.04202  -0.07550  -0.07818
  16   32125.1    311.3   0.197560459   2.02456  -0.07945  -1.37369  -0.36224
  17   32730.5    305.5   0.023339922   0.23476  -0.15052   0.45388  -0.07810
  18   33261.1    300.7   0.143114802   1.41652   0.49215   0.80487   0.72560
  19   33617.6    297.5   0.016432846   0.16092  -0.23478  -0.32255   0.04205
  20   33700.6    296.7   0.013389514   0.13080   0.08122   0.19981   0.29031
  21   34635.7    288.7   0.192583034   1.83050  -0.15336  -0.84740  -1.04350
  22   34938.5    286.2   0.012271440   0.11563   0.23072  -0.12773  -0.21467
  23   35030.7    285.5   0.086296674   0.81100   0.30854  -0.37470  -0.75855
  24   36516.3    273.9   0.010427014   0.09400  -0.29716  -0.01941  -0.07295
  25   36532.6    273.7   0.197141455   1.77653   1.20472  -0.39505   0.41125
  26   36750.0    272.1   0.001608605   0.01441  -0.11945  -0.00609  -0.01028
  27   36759.4    272.0   0.006979123   0.06250   0.14257  -0.16553   0.12156
  28   37599.4    266.0   0.092401228   0.80904   0.05597  -0.89770   0.00679
  29   37821.2    264.4   0.495386997   4.31206   0.09255  -2.07435  -0.02373
  30   37964.6    263.4   0.007757185   0.06727   0.13756  -0.21473   0.04727
  31   38080.8    262.6   0.053820261   0.46528   0.26378  -0.62655  -0.05604
  32   38832.2    257.5   0.097908349   0.83005   0.81133  -0.14318   0.38896
  33   39124.4    255.6   0.055763599   0.46922  -0.44992   0.51026   0.08017
  34   39481.2    253.3   0.014543584   0.12127  -0.01288  -0.01993   0.34743
  35   40199.1    248.8   0.071225714   0.58331   0.70725  -0.21839   0.18817

FINAL SINGLE POINT ENERGY     -4071.626618689211

DIPOLE MOMENT
-------------
                                X             Y             Z
Electronic contribution:     24.32477     -34.43445      -5.76544
Nuclear contribution   :    -26.79271      34.79911       7.00841
                        -----------------------------------------
Total Dipole Moment    :     -2.46794       0.36465       1.24297
                        -----------------------------------------
Magnitude (a.u.)       :      2.78723
Magnitude (Debye)      :      7.08458

Rotational constants in cm-1:     0.001566     0.000527     0.000426
Rotational constants in MHz :    46.953760    15.798894    12.761695

                             ****ORCA TERMINATED NORMALLY****
TOTAL RUN TIME: 0 days 0 hours 20 minutes 10 seconds 790 msec
