                         Program Version 4.2.0 -  RELEASE  -
|  1> # ORCA input file
|  2> # SCF done       -163.797089990753          0.000919561288
|  3> ! CAM-B3LYP def2-SVP def2/J RIJCOSX Grid4 TightSCF
|  4> %maxcore 5000
|  5> %tddft
|  6>     Mode sTDDFT
|  7>     Ethresh 5.0
|  8>     maxcore 5000
|  9> end
| 10>
| 11> %pal
| 12>   nprocs 6
| 13>   end
| 14> * xyz 0 1
| 15>    C        3.76507        -0.87815        -1.19941
| 16>    C        4.37863        -1.71850        -0.35453
| 17>    C        5.03716        -1.39742         0.88032
| 18>    C        5.48596        -2.47147         1.56218
| 19>    C        5.23209        -3.71732         0.91542
| 20>    S        4.45860        -3.46189        -0.62976
| 21>    C        5.46927        -4.97389         1.41809
| 22>    C        5.93802        -5.33898         2.70477
| 23>    C        5.92809        -6.67456         2.95272
| 24>    C        5.46852        -7.46203         1.86305
| 25>    S        5.07781        -6.41432         0.49362
| 26>    C        5.29423        -8.81253         1.81352
| 27>    N        4.87237        -9.42355         0.66913
| 28>    C        4.56433       -10.71591         0.47779
| 29>    S        4.64652       -11.87007         1.77331
| 30>    C        4.26492       -13.14341         0.64558
| 31>    N        4.17032       -14.43370         1.14937
| 32>    O        3.90343       -15.33643         0.37050
| 33>    O        4.36664       -14.57134         2.35041
| 34>    C        4.10299       -12.69719        -0.64052
| 35>    C        4.24415       -11.30641        -0.76437
| 36>    C        4.16144       -10.61679        -2.02115
| 37>    C        3.82668        -9.32157        -2.21110
| 38>    C        3.97341        -8.62203        -3.44159
| 39>    C        3.75913        -7.26066        -3.61470
| 40>    C        3.17616        -6.47644        -2.60840
| 41>    N        2.66755        -5.88688        -1.76641
| 42>    C        4.17424        -6.80095        -4.89316
| 43>    C        4.64950        -7.84644        -5.67574
| 44>    S        4.62599        -9.37566        -4.88161
| 45>    S        5.25087        -7.38156        -7.23440
| 46>    C        4.90921        -5.73454        -6.80919
| 47>    C        4.33230        -5.55509        -5.56157
| 48>    C        4.12448        -4.17450        -5.27068
| 49>    C        3.40966        -3.64986        -4.18360
| 50>    N        2.78133        -3.16175        -3.35703
| 51>    C        4.60394        -3.36158        -6.28026
| 52>    S        5.24523        -4.25794        -7.64135
| 53>    N        4.64129        -1.99291        -6.28323
| 54>    C        4.97198        -1.23577        -5.18987
| 55>    S        5.88783        -1.92047        -3.88288
| 56>    C        5.96215        -0.35700        -3.13616
| 57>    N        6.60989        -0.26323        -1.90432
| 58>    O        6.63256         0.82248        -1.35039
| 59>    O        7.11184        -1.28645        -1.46430
| 60>    C        5.34546         0.62252        -3.86568
| 61>    C        4.74978         0.13810        -5.05002
| 62>    C        4.01565         0.98856        -5.94115
| 63>    C        3.16125         0.59795        -6.91907
| 64>    C        2.47558         1.49000        -7.77128
| 65>    C        1.65995         1.07949        -8.78842
| 66>    C        0.91516         1.89787        -9.68007
| 67>    C        0.19839         1.21244       -10.60618
| 68>    C        0.33344        -0.19733       -10.51816
| 69>    S        1.40529        -0.61584        -9.19368
| 70>    C       -0.24532        -1.15269       -11.31505
| 71>    C       -1.13522        -0.94260       -12.40802
| 72>    C       -1.54518        -2.07515       -13.01748
| 73>    C       -1.00781        -3.28185       -12.45435
| 74>    S        0.04879        -2.86651       -11.09448
| 75>    C       -1.23064        -4.54128       -12.85071
| 76>    H        3.72191         0.17734        -0.99091
| 77>    H        3.26779        -1.24170        -2.08147
| 78>    H        5.13712        -0.37464         1.19820
| 79>    H        5.99259        -2.42285         2.50952
| 80>    H        6.24561        -4.59666         3.41908
| 81>    H        6.22580        -7.12741         3.88136
| 82>    H        5.47190        -9.44038         2.67259
| 83>    H        4.83554        -8.82547        -0.15057
| 84>    H        3.86714       -13.35971        -1.45366
| 85>    H        4.41348       -11.21522        -2.88880
| 86>    H        3.42495        -8.71448        -1.40954
| 87>    H        4.65436        -1.52383        -7.18106
| 88>    H        5.30267         1.64658        -3.54187
| 89>    H        4.15383         2.04835        -5.77302
| 90>    H        2.93074        -0.44876        -7.06272
| 91>    H        2.60558         2.55323        -7.62302
| 92>    H        0.93652         2.97026        -9.59666
| 93>    H       -0.42174         1.67383       -11.35365
| 94>    H       -1.43960         0.04722       -12.69863
| 95>    H       -2.21685        -2.11491       -13.85654
| 96>    H       -1.87972        -4.74754       -13.68330
| 97>    H       -0.77436        -5.37958       -12.35703
| 98> *
| 99>
|100>                          ****END OF INPUT****

CARTESIAN COORDINATES (ANGSTROEM)
---------------------------------
  C      3.765070   -0.878150   -1.199410
  C      4.378630   -1.718500   -0.354530
  C      5.037160   -1.397420    0.880320
  C      5.485960   -2.471470    1.562180
  C      5.232090   -3.717320    0.915420
  S      4.458600   -3.461890   -0.629760
  C      5.469270   -4.973890    1.418090
  C      5.938020   -5.338980    2.704770
  C      5.928090   -6.674560    2.952720
  C      5.468520   -7.462030    1.863050
  S      5.077810   -6.414320    0.493620
  C      5.294230   -8.812530    1.813520
  N      4.872370   -9.423550    0.669130
  C      4.564330  -10.715910    0.477790
  S      4.646520  -11.870070    1.773310
  C      4.264920  -13.143410    0.645580
  N      4.170320  -14.433700    1.149370
  O      3.903430  -15.336430    0.370500
  O      4.366640  -14.571340    2.350410
  C      4.102990  -12.697190   -0.640520
  C      4.244150  -11.306410   -0.764370
  C      4.161440  -10.616790   -2.021150
  C      3.826680   -9.321570   -2.211100
  C      3.973410   -8.622030   -3.441590
  C      3.759130   -7.260660   -3.614700
  C      3.176160   -6.476440   -2.608400
  N      2.667550   -5.886880   -1.766410
  C      4.174240   -6.800950   -4.893160
  C      4.649500   -7.846440   -5.675740
  S      4.625990   -9.375660   -4.881610
  S      5.250870   -7.381560   -7.234400
  C      4.909210   -5.734540   -6.809190
  C      4.332300   -5.555090   -5.561570
  C      4.124480   -4.174500   -5.270680
  C      3.409660   -3.649860   -4.183600
  N      2.781330   -3.161750   -3.357030
  C      4.603940   -3.361580   -6.280260
  S      5.245230   -4.257940   -7.641350
  N      4.641290   -1.992910   -6.283230
  C      4.971980   -1.235770   -5.189870
  S      5.887830   -1.920470   -3.882880
  C      5.962150   -0.357000   -3.136160
  N      6.609890   -0.263230   -1.904320
  O      6.632560    0.822480   -1.350390
  O      7.111840   -1.286450   -1.464300
  C      5.345460    0.622520   -3.865680
  C      4.749780    0.138100   -5.050020
  C      4.015650    0.988560   -5.941150
  C      3.161250    0.597950   -6.919070
  C      2.475580    1.490000   -7.771280
  C      1.659950    1.079490   -8.788420
  C      0.915160    1.897870   -9.680070
  C      0.198390    1.212440  -10.606180
  C      0.333440   -0.197330  -10.518160
  S      1.405290   -0.615840   -9.193680
  C     -0.245320   -1.152690  -11.315050
  C     -1.135220   -0.942600  -12.408020
  C     -1.545180   -2.075150  -13.017480
  C     -1.007810   -3.281850  -12.454350
  S      0.048790   -2.866510  -11.094480
  C     -1.230640   -4.541280  -12.850710
  H      3.721910    0.177340   -0.990910
  H      3.267790   -1.241700   -2.081470
  H      5.137120   -0.374640    1.198200
  H      5.992590   -2.422850    2.509520
  H      6.245610   -4.596660    3.419080
  H      6.225800   -7.127410    3.881360
  H      5.471900   -9.440380    2.672590
  H      4.835540   -8.825470   -0.150570
  H      3.867140  -13.359710   -1.453660
  H      4.413480  -11.215220   -2.888800
  H      3.424950   -8.714480   -1.409540
  H      4.654360   -1.523830   -7.181060
  H      5.302670    1.646580   -3.541870
  H      4.153830    2.048350   -5.773020
  H      2.930740   -0.448760   -7.062720
  H      2.605580    2.553230   -7.623020
  H      0.936520    2.970260   -9.596660
  H     -0.421740    1.673830  -11.353650
  H     -1.439600    0.047220  -12.698630
  H     -2.216850   -2.114910  -13.856540
  H     -1.879720   -4.747540  -13.683300
  H     -0.774360   -5.379580  -12.357030

 Total Charge           Charge          ....    0
 Multiplicity           Mult            ....    1
 Number of Electrons    NEL             ....  492
 Basis Dimension        Dim             .... 1000

ORBITAL ENERGIES
----------------

  NO   OCC          E(Eh)            E(eV)
   0   2.0000     -88.997225     -2421.7376
   1   2.0000     -88.992046     -2421.5967
   2   2.0000     -88.986000     -2421.4322
   3   2.0000     -88.979667     -2421.2598
   4   2.0000     -88.974622     -2421.1226
   5   2.0000     -88.948681     -2420.4167
   6   2.0000     -88.943965     -2420.2883
   7   2.0000     -88.935113     -2420.0474
   8   2.0000     -88.919122     -2419.6123
   9   2.0000     -19.233725      -523.3763
  10   2.0000     -19.232788      -523.3508
  11   2.0000     -19.220497      -523.0163
  12   2.0000     -19.219481      -522.9887
  13   2.0000     -14.642939      -398.4546
  14   2.0000     -14.632173      -398.1617
  15   2.0000     -14.492053      -394.3488
  16   2.0000     -14.478742      -393.9866
  17   2.0000     -14.411803      -392.1651
  18   2.0000     -14.402940      -391.9239
  19   2.0000     -10.382260      -282.5157
  20   2.0000     -10.366099      -282.0759
  21   2.0000     -10.365827      -282.0685
  22   2.0000     -10.342478      -281.4331
  23   2.0000     -10.339925      -281.3637
  24   2.0000     -10.338434      -281.3231
  25   2.0000     -10.335509      -281.2435
  26   2.0000     -10.327871      -281.0357
  27   2.0000     -10.327365      -281.0219
  28   2.0000     -10.320825      -280.8439
  29   2.0000     -10.316995      -280.7397
  30   2.0000     -10.316426      -280.7242
  31   2.0000     -10.316182      -280.7176
  32   2.0000     -10.314058      -280.6598
  33   2.0000     -10.313585      -280.6469
  34   2.0000     -10.313025      -280.6317
  35   2.0000     -10.311729      -280.5964
  36   2.0000     -10.311514      -280.5906
  37   2.0000     -10.304254      -280.3930
  38   2.0000     -10.303519      -280.3730
  39   2.0000     -10.301909      -280.3292
  40   2.0000     -10.301835      -280.3272
  41   2.0000     -10.301575      -280.3201
  42   2.0000     -10.299248      -280.2568
  43   2.0000     -10.296440      -280.1804
  44   2.0000     -10.295627      -280.1582
  45   2.0000     -10.294925      -280.1391
  46   2.0000     -10.294835      -280.1367
  47   2.0000     -10.294299      -280.1221
  48   2.0000     -10.291811      -280.0544
  49   2.0000     -10.291640      -280.0498
  50   2.0000     -10.290361      -280.0150
  51   2.0000     -10.289336      -279.9871
  52   2.0000     -10.287222      -279.9296
  53   2.0000     -10.286536      -279.9109
  54   2.0000     -10.282755      -279.8080
  55   2.0000     -10.278759      -279.6993
  56   2.0000     -10.275864      -279.6205
  57   2.0000     -10.275646      -279.6145
  58   2.0000     -10.270846      -279.4839
  59   2.0000     -10.268347      -279.4159
  60   2.0000     -10.250487      -278.9299
  61   2.0000      -8.092990      -220.2214
  62   2.0000      -8.086880      -220.0552
  63   2.0000      -8.081238      -219.9017
  64   2.0000      -8.074519      -219.7188
  65   2.0000      -8.069975      -219.5952
  66   2.0000      -8.044904      -218.9130
  67   2.0000      -8.040696      -218.7985
  68   2.0000      -8.031321      -218.5433
  69   2.0000      -8.015316      -218.1078
  70   2.0000      -6.062724      -164.9751
  71   2.0000      -6.058569      -164.8620
  72   2.0000      -6.056898      -164.8166
  73   2.0000      -6.054080      -164.7399
  74   2.0000      -6.052659      -164.7012
  75   2.0000      -6.050850      -164.6520
  76   2.0000      -6.047703      -164.5664
  77   2.0000      -6.046666      -164.5382
  78   2.0000      -6.044187      -164.4707
  79   2.0000      -6.042721      -164.4308
  80   2.0000      -6.039772      -164.3505
  81   2.0000      -6.039726      -164.3493
  82   2.0000      -6.036037      -164.2489
  83   2.0000      -6.035318      -164.2294
  84   2.0000      -6.031231      -164.1181
  85   2.0000      -6.014669      -163.6675
  86   2.0000      -6.010796      -163.5621
  87   2.0000      -6.010513      -163.5544
  88   2.0000      -6.006630      -163.4487
  89   2.0000      -6.005651      -163.4221
  90   2.0000      -6.001247      -163.3022
  91   2.0000      -6.001202      -163.3010
  92   2.0000      -5.997197      -163.1920
  93   2.0000      -5.991888      -163.0476
  94   2.0000      -5.985160      -162.8645
  95   2.0000      -5.981048      -162.7526
  96   2.0000      -5.975904      -162.6126
  97   2.0000      -1.311871       -35.6978
  98   2.0000      -1.298860       -35.3438
  99   2.0000      -1.130497       -30.7624
 100   2.0000      -1.117710       -30.4144
 101   2.0000      -1.103284       -30.0219
 102   2.0000      -1.086831       -29.5742
 103   2.0000      -1.042826       -28.3767
 104   2.0000      -1.011841       -27.5336
 105   2.0000      -0.998433       -27.1688
 106   2.0000      -0.997605       -27.1462
 107   2.0000      -0.995680       -27.0938
 108   2.0000      -0.994892       -27.0724
 109   2.0000      -0.981928       -26.7196
 110   2.0000      -0.977316       -26.5941
 111   2.0000      -0.974703       -26.5230
 112   2.0000      -0.953566       -25.9479
 113   2.0000      -0.949627       -25.8407
 114   2.0000      -0.923093       -25.1186
 115   2.0000      -0.916535       -24.9402
 116   2.0000      -0.901378       -24.5277
 117   2.0000      -0.895555       -24.3693
 118   2.0000      -0.885205       -24.0877
 119   2.0000      -0.877794       -23.8860
 120   2.0000      -0.875748       -23.8303
 121   2.0000      -0.866096       -23.5677
 122   2.0000      -0.862676       -23.4746
 123   2.0000      -0.853343       -23.2206
 124   2.0000      -0.850159       -23.1340
 125   2.0000      -0.837913       -22.8008
 126   2.0000      -0.833864       -22.6906
 127   2.0000      -0.830641       -22.6029
 128   2.0000      -0.828662       -22.5490
 129   2.0000      -0.821628       -22.3576
 130   2.0000      -0.809635       -22.0313
 131   2.0000      -0.806645       -21.9499
 132   2.0000      -0.788020       -21.4431
 133   2.0000      -0.783074       -21.3085
 134   2.0000      -0.770465       -20.9654
 135   2.0000      -0.751221       -20.4418
 136   2.0000      -0.738698       -20.1010
 137   2.0000      -0.729995       -19.8642
 138   2.0000      -0.718774       -19.5588
 139   2.0000      -0.712742       -19.3947
 140   2.0000      -0.707826       -19.2609
 141   2.0000      -0.700481       -19.0610
 142   2.0000      -0.697657       -18.9842
 143   2.0000      -0.688890       -18.7457
 144   2.0000      -0.682389       -18.5687
 145   2.0000      -0.670274       -18.2391
 146   2.0000      -0.667619       -18.1668
 147   2.0000      -0.654335       -17.8054
 148   2.0000      -0.650034       -17.6883
 149   2.0000      -0.642337       -17.4789
 150   2.0000      -0.636895       -17.3308
 151   2.0000      -0.634408       -17.2631
 152   2.0000      -0.630392       -17.1538
 153   2.0000      -0.625398       -17.0180
 154   2.0000      -0.622212       -16.9313
 155   2.0000      -0.620259       -16.8781
 156   2.0000      -0.615966       -16.7613
 157   2.0000      -0.613265       -16.6878
 158   2.0000      -0.607525       -16.5316
 159   2.0000      -0.605197       -16.4682
 160   2.0000      -0.604559       -16.4509
 161   2.0000      -0.601986       -16.3809
 162   2.0000      -0.600038       -16.3279
 163   2.0000      -0.588286       -16.0081
 164   2.0000      -0.585582       -15.9345
 165   2.0000      -0.577968       -15.7273
 166   2.0000      -0.574448       -15.6315
 167   2.0000      -0.571818       -15.5600
 168   2.0000      -0.565563       -15.3898
 169   2.0000      -0.560216       -15.2442
 170   2.0000      -0.554005       -15.0752
 171   2.0000      -0.551537       -15.0081
 172   2.0000      -0.545470       -14.8430
 173   2.0000      -0.537644       -14.6300
 174   2.0000      -0.534798       -14.5526
 175   2.0000      -0.531406       -14.4603
 176   2.0000      -0.528276       -14.3751
 177   2.0000      -0.524472       -14.2716
 178   2.0000      -0.523247       -14.2383
 179   2.0000      -0.518604       -14.1119
 180   2.0000      -0.514506       -14.0004
 181   2.0000      -0.509583       -13.8665
 182   2.0000      -0.504037       -13.7155
 183   2.0000      -0.503708       -13.7066
 184   2.0000      -0.501130       -13.6364
 185   2.0000      -0.500146       -13.6097
 186   2.0000      -0.499315       -13.5870
 187   2.0000      -0.497492       -13.5374
 188   2.0000      -0.491329       -13.3698
 189   2.0000      -0.489313       -13.3149
 190   2.0000      -0.481790       -13.1102
 191   2.0000      -0.478738       -13.0271
 192   2.0000      -0.477986       -13.0067
 193   2.0000      -0.475897       -12.9498
 194   2.0000      -0.473953       -12.8969
 195   2.0000      -0.472473       -12.8567
 196   2.0000      -0.468544       -12.7497
 197   2.0000      -0.468345       -12.7443
 198   2.0000      -0.464047       -12.6274
 199   2.0000      -0.463277       -12.6064
 200   2.0000      -0.459201       -12.4955
 201   2.0000      -0.457147       -12.4396
 202   2.0000      -0.453209       -12.3324
 203   2.0000      -0.450969       -12.2715
 204   2.0000      -0.447231       -12.1698
 205   2.0000      -0.442830       -12.0500
 206   2.0000      -0.436972       -11.8906
 207   2.0000      -0.434994       -11.8368
 208   2.0000      -0.433928       -11.8078
 209   2.0000      -0.432720       -11.7749
 210   2.0000      -0.431947       -11.7539
 211   2.0000      -0.428040       -11.6476
 212   2.0000      -0.427166       -11.6238
 213   2.0000      -0.424458       -11.5501
 214   2.0000      -0.419601       -11.4179
 215   2.0000      -0.414469       -11.2783
 216   2.0000      -0.412356       -11.2208
 217   2.0000      -0.403916       -10.9911
 218   2.0000      -0.401855       -10.9350
 219   2.0000      -0.396059       -10.7773
 220   2.0000      -0.386587       -10.5196
 221   2.0000      -0.383028       -10.4227
 222   2.0000      -0.381645       -10.3851
 223   2.0000      -0.379422       -10.3246
 224   2.0000      -0.374453       -10.1894
 225   2.0000      -0.372318       -10.1313
 226   2.0000      -0.369750       -10.0614
 227   2.0000      -0.365410        -9.9433
 228   2.0000      -0.361640        -9.8407
 229   2.0000      -0.360923        -9.8212
 230   2.0000      -0.349316        -9.5054
 231   2.0000      -0.347221        -9.4484
 232   2.0000      -0.343453        -9.3458
 233   2.0000      -0.343050        -9.3349
 234   2.0000      -0.330320        -8.9885
 235   2.0000      -0.329271        -8.9599
 236   2.0000      -0.326684        -8.8895
 237   2.0000      -0.320040        -8.7087
 238   2.0000      -0.317209        -8.6317
 239   2.0000      -0.305861        -8.3229
 240   2.0000      -0.298791        -8.1305
 241   2.0000      -0.287469        -7.8224
 242   2.0000      -0.273057        -7.4303
 243   2.0000      -0.259796        -7.0694
 244   2.0000      -0.223139        -6.0719
 245   2.0000      -0.203980        -5.5506
 246   0.0000      -0.074184        -2.0186
 247   0.0000      -0.062527        -1.7014
 248   0.0000      -0.054983        -1.4962
 249   0.0000      -0.049189        -1.3385
 250   0.0000      -0.023498        -0.6394

MULLIKEN ATOMIC CHARGES
-----------------------
   0 C :   -0.003429
   1 C :   -0.112010
   2 C :    0.072463
   3 C :    0.030702
   4 C :   -0.048352
   5 S :    0.115173
   6 C :   -0.056771
   7 C :    0.038501
   8 C :    0.028867
   9 C :   -0.032136
  10 S :    0.035225
  11 C :    0.009525
  12 N :   -0.018109
  13 C :   -0.109230
  14 S :    0.150103
  15 C :   -0.018619
  16 N :    0.281684
  17 O :   -0.267652
  18 O :   -0.279642
  19 C :    0.015395
  20 C :    0.099577
  21 C :   -0.019905
  22 C :   -0.060343
  23 C :   -0.073131
  24 C :   -0.041654
  25 C :   -0.301069
  26 N :    0.201115
  27 C :    0.159772
  28 C :   -0.236331
  29 S :    0.153570
  30 S :    0.189494
  31 C :   -0.250347
  32 C :    0.146670
  33 C :   -0.029446
  34 C :   -0.258528
  35 N :    0.197645
  36 C :   -0.122851
  37 S :    0.166869
  38 N :   -0.039889
  39 C :   -0.110326
  40 S :    0.197354
  41 C :   -0.010716
  42 N :    0.277866
  43 O :   -0.257543
  44 O :   -0.250570
  45 C :    0.007586
  46 C :    0.142339
  47 C :   -0.031963
  48 C :   -0.022939
  49 C :   -0.021372
  50 C :   -0.014742
  51 C :    0.035836
  52 C :    0.031809
  53 C :   -0.046699
  54 S :    0.048174
  55 C :   -0.066210
  56 C :    0.030963
  57 C :    0.053444
  58 C :   -0.064474
  59 S :    0.077722
  60 C :   -0.026533
  61 H :    0.013223
  62 H :    0.025522
  63 H :   -0.009601
  64 H :   -0.016926
  65 H :   -0.013469
  66 H :   -0.016046
  67 H :    0.016908
  68 H :    0.141942
  69 H :    0.005514
  70 H :    0.005272
  71 H :    0.022325
  72 H :    0.151848
  73 H :    0.003890
  74 H :   -0.012573
  75 H :    0.002699
  76 H :   -0.015583
  77 H :   -0.010342
  78 H :   -0.012008
  79 H :   -0.010784
  80 H :   -0.008599
  81 H :    0.022464
  82 H :    0.022413
Sum of atomic charges:   -0.0000000

LOEWDIN ATOMIC CHARGES
----------------------
   0 C :   -0.075155
   1 C :   -0.150412
   2 C :   -0.017121
   3 C :   -0.030303
   4 C :   -0.165442
   5 S :    0.394349
   6 C :   -0.188998
   7 C :   -0.025852
   8 C :   -0.046531
   9 C :   -0.165318
  10 S :    0.349317
  11 C :   -0.040849
  12 N :    0.057784
  13 C :   -0.086080
  14 S :    0.447461
  15 C :   -0.222471
  16 N :    0.274363
  17 O :   -0.232786
  18 O :   -0.246046
  19 C :    0.007064
  20 C :   -0.122455
  21 C :   -0.000318
  22 C :   -0.076534
  23 C :   -0.121723
  24 C :   -0.104259
  25 C :   -0.047542
  26 N :   -0.035760
  27 C :   -0.062821
  28 C :   -0.332832
  29 S :    0.441751
  30 S :    0.425163
  31 C :   -0.340633
  32 C :   -0.055546
  33 C :   -0.138888
  34 C :   -0.039850
  35 N :   -0.036498
  36 C :   -0.103667
  37 S :    0.430394
  38 N :    0.014799
  39 C :   -0.105394
  40 S :    0.492532
  41 C :   -0.202505
  42 N :    0.280872
  43 O :   -0.223780
  44 O :   -0.218633
  45 C :   -0.001986
  46 C :   -0.091535
  47 C :   -0.024521
  48 C :   -0.044396
  49 C :   -0.064288
  50 C :   -0.138123
  51 C :   -0.036120
  52 C :   -0.026515
  53 C :   -0.182000
  54 S :    0.350901
  55 C :   -0.174030
  56 C :   -0.026481
  57 C :   -0.028084
  58 C :   -0.139543
  59 S :    0.349664
  60 C :   -0.072189
  61 H :    0.023827
  62 H :    0.021756
  63 H :    0.034090
  64 H :    0.029823
  65 H :    0.032605
  66 H :    0.031539
  67 H :    0.026771
  68 H :    0.079480
  69 H :    0.045086
  70 H :    0.028308
  71 H :    0.037065
  72 H :    0.092844
  73 H :    0.043251
  74 H :    0.032441
  75 H :    0.014651
  76 H :    0.032312
  77 H :    0.034305
  78 H :    0.032376
  79 H :    0.032685
  80 H :    0.034493
  81 H :    0.029830
  82 H :    0.026864

  Mayer bond orders larger than 0.100000
B(  0-C ,  1-C ) :   1.8777 B(  0-C , 61-H ) :   0.9454 B(  0-C , 62-H ) :   0.9114
B(  1-C ,  2-C ) :   1.0727 B(  1-C ,  5-S ) :   1.0153 B(  2-C ,  3-C ) :   1.6667
B(  2-C , 63-H ) :   0.9929 B(  3-C ,  4-C ) :   1.1425 B(  3-C , 64-H ) :   0.9910
B(  4-C ,  5-S ) :   1.0584 B(  4-C ,  6-C ) :   1.5585 B(  6-C ,  7-C ) :   1.1720
B(  6-C , 10-S ) :   1.0280 B(  7-C ,  8-C ) :   1.6292 B(  7-C , 65-H ) :   0.9897
B(  8-C ,  9-C ) :   1.1420 B(  8-C , 66-H ) :   0.9939 B(  9-C , 10-S ) :   1.0254
B(  9-C , 11-C ) :   1.6214 B( 11-C , 12-N ) :   1.0970 B( 11-C , 67-H ) :   0.9623
B( 12-N , 13-C ) :   1.3028 B( 12-N , 68-H ) :   0.8917 B( 13-C , 14-S ) :   1.1364
B( 13-C , 20-C ) :   1.2986 B( 14-S , 15-C ) :   1.0473 B( 15-C , 16-N ) :   0.9985
B( 15-C , 19-C ) :   1.4697 B( 16-N , 17-O ) :   1.5175 B( 16-N , 18-O ) :   1.4948
B( 17-O , 18-O ) :   0.2467 B( 19-C , 20-C ) :   1.2442 B( 19-C , 69-H ) :   1.0067
B( 20-C , 21-C ) :   1.1003 B( 21-C , 22-C ) :   1.6513 B( 21-C , 70-H ) :   0.9663
B( 22-C , 23-C ) :   1.1931 B( 22-C , 71-H ) :   0.9453 B( 23-C , 24-C ) :   1.4958
B( 23-C , 29-S ) :   1.1131 B( 24-C , 25-C ) :   1.1814 B( 24-C , 27-C ) :   1.2399
B( 25-C , 26-N ) :   2.9365 B( 27-C , 28-C ) :   1.4136 B( 27-C , 32-C ) :   1.0909
B( 28-C , 29-S ) :   1.0848 B( 28-C , 30-S ) :   1.0896 B( 30-S , 31-C ) :   1.0844
B( 31-C , 32-C ) :   1.4285 B( 31-C , 37-S ) :   1.0633 B( 32-C , 33-C ) :   1.2503
B( 33-C , 34-C ) :   1.1569 B( 33-C , 36-C ) :   1.4475 B( 34-C , 35-N ) :   2.9067
B( 36-C , 37-S ) :   1.1405 B( 36-C , 38-N ) :   1.1674 B( 38-N , 39-C ) :   1.1356
B( 38-N , 72-H ) :   0.8886 B( 39-C , 40-S ) :   1.1491 B( 39-C , 46-C ) :   1.3977
B( 40-S , 41-C ) :   1.0945 B( 41-C , 42-N ) :   0.9676 B( 41-C , 45-C ) :   1.4854
B( 42-N , 43-O ) :   1.5245 B( 42-N , 44-O ) :   1.5055 B( 43-O , 44-O ) :   0.2494
B( 45-C , 46-C ) :   1.2070 B( 45-C , 73-H ) :   1.0063 B( 46-C , 47-C ) :   1.0856
B( 47-C , 48-C ) :   1.6507 B( 47-C , 74-H ) :   0.9780 B( 48-C , 49-C ) :   1.1372
B( 48-C , 75-H ) :   0.9626 B( 49-C , 50-C ) :   1.5903 B( 49-C , 76-H ) :   0.9871
B( 50-C , 51-C ) :   1.1257 B( 50-C , 54-S ) :   1.0247 B( 51-C , 52-C ) :   1.6158
B( 51-C , 77-H ) :   0.9988 B( 52-C , 53-C ) :   1.1674 B( 52-C , 78-H ) :   0.9923
B( 53-C , 54-S ) :   1.0302 B( 53-C , 55-C ) :   1.5674 B( 55-C , 56-C ) :   1.1476
B( 55-C , 59-S ) :   1.0454 B( 56-C , 57-C ) :   1.6671 B( 56-C , 79-H ) :   0.9921
B( 57-C , 58-C ) :   1.0770 B( 57-C , 80-H ) :   0.9936 B( 58-C , 59-S ) :   1.0054
B( 58-C , 60-C ) :   1.8676 B( 60-C , 81-H ) :   0.9509 B( 60-C , 82-H ) :   0.9421

-----------------------------------------------------------------------------
         ABSORPTION SPECTRUM VIA TRANSITION ELECTRIC DIPOLE MOMENTS
-----------------------------------------------------------------------------
State   Energy  Wavelength   fosc         T2         TX        TY        TZ
        (cm-1)    (nm)                  (au**2)     (au)      (au)      (au)
-----------------------------------------------------------------------------
   0   14452.9    691.9   0.251496605   5.72865   0.14717  -2.27865   0.71747
   1   15977.9    625.9   0.097695424   2.01294   0.10653   0.53987   1.30772
   2   18252.8    547.9   0.831020019  14.98850   2.26219  -0.17667   3.13684
   3   18888.2    529.4   0.185659155   3.23595   1.10454   0.75587   1.20192
   4   19536.6    511.9   0.779990091  13.14365   0.35197   3.60483  -0.15797
   5   22122.5    452.0   0.505206942   7.51815   1.21052   1.81061   1.66568
   6   25190.3    397.0   0.027847344   0.36394   0.32302  -0.48946  -0.14153
   7   25913.3    385.9   0.014269358   0.18128  -0.06568  -0.38485   0.16987
   8   26175.8    382.0   0.043172438   0.54298   0.02185  -0.69832   0.23419
   9   27123.3    368.7   0.540111347   6.55565  -0.38390  -2.52242  -0.21377
  10   28068.4    356.3   0.894128836  10.48715  -0.68538   1.86725  -2.55554
  11   28503.6    350.8   0.213914526   2.47068  -0.43545  -1.50364   0.14187
  12   28794.2    347.3   0.057344077   0.65563  -0.13217  -0.75522  -0.26041
  13   29416.2    339.9   0.076293973   0.85385  -0.05976   0.87212   0.29947
  14   30030.7    333.0   0.087159282   0.95549   0.45269  -0.33701   0.79811
  15   30172.5    331.4   0.079764867   0.87031  -0.35248  -0.74637  -0.43475
  16   30543.2    327.4   0.029562688   0.31864  -0.00982   0.56439  -0.00348
  17   30875.7    323.9   0.012109017   0.12911  -0.04028   0.35409  -0.04591
  18   31150.2    321.0   0.003543933   0.03745  -0.14407  -0.05471  -0.11707
  19   31759.6    314.9   0.049543272   0.51355   0.32132  -0.54197   0.34144
  20   32569.0    307.0   0.023235306   0.23487  -0.11859  -0.44285   0.15711
  21   32735.4    305.5   0.017739382   0.17840   0.03743   0.22321   0.35662
  22   32995.5    303.1   0.081061991   0.80879   0.21004   0.86682   0.11529
  23   33294.2    300.4   0.017089364   0.16898   0.20184   0.16710   0.31673
  24   33911.6    294.9   0.142402133   1.38243   0.43660  -0.94472   0.54709
  25   33958.1    294.5   0.002325033   0.02254   0.13392  -0.05847   0.03446
  26   34218.3    292.2   0.011386166   0.10955   0.10606   0.28815  -0.12356
  27   34345.7    291.2   0.247369342   2.37109  -0.25454  -1.31778   0.75483
  28   34815.1    287.2   0.005519583   0.05219  -0.05940  -0.19898   0.09525
  29   35139.3    284.6   0.081575679   0.76426   0.04092   0.84015  -0.23820
  30   35684.5    280.2   0.045313264   0.41804   0.08500  -0.29332   0.56989
  31   35921.9    278.4   0.071583507   0.65604   0.11755  -0.21356   0.77241
  32   36204.0    276.2   0.003416069   0.03106   0.14379   0.09886   0.02479
  33   36388.3    274.8   0.127530174   1.15379  -0.76309   0.40424  -0.63881
  34   36512.5    273.9   0.030148713   0.27183  -0.29415  -0.42278  -0.08103
  35   36540.0    273.7   0.012887669   0.11611   0.27611  -0.02809   0.19771
  36   36639.0    272.9   0.120160388   1.07967   0.12292  -0.84113   0.59755
  37   36817.4    271.6   0.015968029   0.14278   0.08966  -0.35657   0.08718
  38   37310.2    268.0   0.029730580   0.26233  -0.38540  -0.16876  -0.29209
  39   37547.6    266.3   0.040835041   0.35804  -0.21720   0.11070  -0.54645
  40   37935.8    263.6   0.001925419   0.01671  -0.08107   0.08155  -0.05904
  41   38528.1    259.6   0.018589428   0.15884  -0.20507  -0.21568  -0.26509
  42   38844.7    257.4   0.041165931   0.34888  -0.41252   0.27117  -0.32432
  43   39117.8    255.6   0.093461816   0.78657   0.33975  -0.74067   0.35006
  44   39232.4    254.9   0.051897833   0.43549  -0.22879   0.56209  -0.25922
  45   39325.3    254.3   0.065967948   0.55225   0.24919  -0.66646   0.21445
  46   39542.7    252.9   0.040451592   0.33678   0.04238  -0.48855  -0.31033
  47   39882.7    250.7   0.029377474   0.24250   0.10577   0.41700   0.23963
  48   39892.6    250.7   0.017201899   0.14196  -0.26940  -0.20029  -0.17107
  49   40025.8    249.8   0.050750547   0.41742   0.10446   0.61267   0.17650

FINAL SINGLE POINT ENERGY     -5822.577449154223

DIPOLE MOMENT
-------------
                                X             Y             Z
Electronic contribution:     17.38091     -31.87844       7.73986
Nuclear contribution   :    -17.28938      34.86223     -12.36569
                        -----------------------------------------
Total Dipole Moment    :      0.09153       2.98379      -4.62582
                        -----------------------------------------
Magnitude (a.u.)       :      5.50542
Magnitude (Debye)      :     13.99366

Rotational constants in cm-1:     0.001423     0.000531     0.000414
Rotational constants in MHz :    42.656780    15.911947    12.422193

                             ****ORCA TERMINATED NORMALLY****
TOTAL RUN TIME: 0 days 0 hours 7 minutes 10 seconds 428 msec
