                         Program Version 4.2.0 -  RELEASE  -
|  1> # ORCA input file
|  2> # SCF done       -147.227181948665          0.002752627757
|  3> ! CAM-B3LYP def2-SVP def2/J RIJCOSX Grid4 TightSCF
|  4> %maxcore 5000
|  5> %tddft
|  6>     Mode sTDDFT
|  7>     Ethresh 5.0
|  8>     maxcore 5000
|  9> end
| 10>
| 11> %pal
| 12>   nprocs 6
| 13>   end
| 14> * xyz 0 1
| 15>    C       -4.48855       -15.73076        -2.17835
| 16>    C       -4.08659       -15.11753        -1.05920
| 17>    C       -4.76604       -15.05694         0.20475
| 18>    C       -4.12091       -14.34801         1.15406
| 19>    C       -2.88694       -13.77536         0.72673
| 20>    S       -2.56288       -14.21404        -0.93915
| 21>    C       -2.04819       -12.97509         1.45648
| 22>    C       -2.14518       -12.62322         2.82733
| 23>    C       -1.14413       -11.82812         3.27928
| 24>    C       -0.18918       -11.47117         2.28994
| 25>    S       -0.62377       -12.22550         0.74889
| 26>    C        0.89427       -10.66337         2.43427
| 27>    N        1.68876       -10.33425         1.38041
| 28>    C        2.75960        -9.51651         1.36990
| 29>    S        3.41958        -8.85694         2.83007
| 30>    C        4.60125        -7.99737         1.88307
| 31>    N        5.46846        -7.15781         2.56088
| 32>    O        6.29130        -6.52982         1.90882
| 33>    O        5.33395        -7.08838         3.77774
| 34>    C        4.48292        -8.21864         0.53263
| 35>    C        3.42954        -9.08382         0.21120
| 36>    C        2.97430        -9.42484        -1.11247
| 37>    C        3.30568        -8.78670        -2.24539
| 38>    C        2.65597        -9.05409        -3.51045
| 39>    C        2.28743       -10.24057        -4.00521
| 40>    C        2.66899       -11.56694        -3.42533
| 41>    C        1.41903       -10.32148        -5.23618
| 42>    N        0.19118       -11.02065        -4.91239
| 43>    C       -0.54264       -10.69525        -3.81159
| 44>    C       -1.77927       -11.15013        -3.54899
| 45>    N       -2.41577       -10.86820        -2.35249
| 46>    C       -3.62820       -11.29657        -1.99047
| 47>    S       -4.59172       -12.23229        -3.09733
| 48>    C       -5.77949       -12.47975        -1.84582
| 49>    N       -6.84061       -13.31566        -2.12666
| 50>    O       -7.64164       -13.55399        -1.22923
| 51>    O       -6.89538       -13.78919        -3.25843
| 52>    C       -5.45744       -11.84623        -0.67345
| 53>    C       -4.24478       -11.13881        -0.72483
| 54>    C       -3.74770       -10.45022         0.42398
| 55>    C       -2.71816        -9.57010         0.52783
| 56>    C       -2.28036        -9.03423         1.75583
| 57>    C       -1.19372        -8.21551         1.88699
| 58>    C       -0.66107        -7.67665         3.08659
| 59>    C        0.44497        -6.90664         2.91976
| 60>    C        0.86147        -6.77343         1.57128
| 61>    S       -0.20408        -7.69475         0.52067
| 62>    C        1.92100        -6.05305         1.08236
| 63>    C        2.88425        -5.31279         1.82717
| 64>    C        3.84524        -4.73357         1.07559
| 65>    C        3.71994        -4.97122        -0.33408
| 66>    S        2.27566        -5.95521        -0.63105
| 67>    C        4.53386        -4.55400        -1.31141
| 68>    H       -5.42646       -16.25640        -2.20813
| 69>    H       -3.90869       -15.70361        -3.08284
| 70>    H       -5.72048       -15.53521         0.33339
| 71>    H       -4.49152       -14.19483         2.15187
| 72>    H       -2.95040       -12.98626         3.44020
| 73>    H       -1.05231       -11.47240         4.28974
| 74>    H        1.14629       -10.23333         3.39105
| 75>    H        1.39129       -10.70249         0.48294
| 76>    H        5.14165        -7.75468        -0.17806
| 77>    H        2.22985       -10.20700        -1.17375
| 78>    H        3.98263        -7.94478        -2.21920
| 79>    H        2.41937        -8.16202        -4.07909
| 80>    H        3.49560       -11.46420        -2.72802
| 81>    H        2.96576       -12.24096        -4.22777
| 82>    H        1.82758       -12.03118        -2.91114
| 83>    H        1.92352       -10.89212        -6.02167
| 84>    H        1.21677        -9.31192        -5.62231
| 85>    H       -0.29903       -11.47308        -5.66723
| 86>    H       -0.03035       -10.06058        -3.09812
| 87>    H       -2.32661       -11.77551        -4.23468
| 88>    H       -1.86264       -10.39470        -1.64741
| 89>    H       -6.08879       -11.90041         0.19510
| 90>    H       -4.28745       -10.67886         1.33478
| 91>    H       -2.17865        -9.21700        -0.34055
| 92>    H       -2.81219        -9.30926         2.65644
| 93>    H       -1.12391        -7.87904         4.03663
| 94>    H        0.97327        -6.42293         3.72149
| 95>    H        2.83481        -5.24975         2.90011
| 96>    H        4.66574        -4.15575         1.46086
| 97>    H        5.40410        -3.96633        -1.08191
| 98>    H        4.34910        -4.79074        -2.34365
| 99> *
|100>
|101>                          ****END OF INPUT****

CARTESIAN COORDINATES (ANGSTROEM)
---------------------------------
  C     -4.488550  -15.730760   -2.178350
  C     -4.086590  -15.117530   -1.059200
  C     -4.766040  -15.056940    0.204750
  C     -4.120910  -14.348010    1.154060
  C     -2.886940  -13.775360    0.726730
  S     -2.562880  -14.214040   -0.939150
  C     -2.048190  -12.975090    1.456480
  C     -2.145180  -12.623220    2.827330
  C     -1.144130  -11.828120    3.279280
  C     -0.189180  -11.471170    2.289940
  S     -0.623770  -12.225500    0.748890
  C      0.894270  -10.663370    2.434270
  N      1.688760  -10.334250    1.380410
  C      2.759600   -9.516510    1.369900
  S      3.419580   -8.856940    2.830070
  C      4.601250   -7.997370    1.883070
  N      5.468460   -7.157810    2.560880
  O      6.291300   -6.529820    1.908820
  O      5.333950   -7.088380    3.777740
  C      4.482920   -8.218640    0.532630
  C      3.429540   -9.083820    0.211200
  C      2.974300   -9.424840   -1.112470
  C      3.305680   -8.786700   -2.245390
  C      2.655970   -9.054090   -3.510450
  C      2.287430  -10.240570   -4.005210
  C      2.668990  -11.566940   -3.425330
  C      1.419030  -10.321480   -5.236180
  N      0.191180  -11.020650   -4.912390
  C     -0.542640  -10.695250   -3.811590
  C     -1.779270  -11.150130   -3.548990
  N     -2.415770  -10.868200   -2.352490
  C     -3.628200  -11.296570   -1.990470
  S     -4.591720  -12.232290   -3.097330
  C     -5.779490  -12.479750   -1.845820
  N     -6.840610  -13.315660   -2.126660
  O     -7.641640  -13.553990   -1.229230
  O     -6.895380  -13.789190   -3.258430
  C     -5.457440  -11.846230   -0.673450
  C     -4.244780  -11.138810   -0.724830
  C     -3.747700  -10.450220    0.423980
  C     -2.718160   -9.570100    0.527830
  C     -2.280360   -9.034230    1.755830
  C     -1.193720   -8.215510    1.886990
  C     -0.661070   -7.676650    3.086590
  C      0.444970   -6.906640    2.919760
  C      0.861470   -6.773430    1.571280
  S     -0.204080   -7.694750    0.520670
  C      1.921000   -6.053050    1.082360
  C      2.884250   -5.312790    1.827170
  C      3.845240   -4.733570    1.075590
  C      3.719940   -4.971220   -0.334080
  S      2.275660   -5.955210   -0.631050
  C      4.533860   -4.554000   -1.311410
  H     -5.426460  -16.256400   -2.208130
  H     -3.908690  -15.703610   -3.082840
  H     -5.720480  -15.535210    0.333390
  H     -4.491520  -14.194830    2.151870
  H     -2.950400  -12.986260    3.440200
  H     -1.052310  -11.472400    4.289740
  H      1.146290  -10.233330    3.391050
  H      1.391290  -10.702490    0.482940
  H      5.141650   -7.754680   -0.178060
  H      2.229850  -10.207000   -1.173750
  H      3.982630   -7.944780   -2.219200
  H      2.419370   -8.162020   -4.079090
  H      3.495600  -11.464200   -2.728020
  H      2.965760  -12.240960   -4.227770
  H      1.827580  -12.031180   -2.911140
  H      1.923520  -10.892120   -6.021670
  H      1.216770   -9.311920   -5.622310
  H     -0.299030  -11.473080   -5.667230
  H     -0.030350  -10.060580   -3.098120
  H     -2.326610  -11.775510   -4.234680
  H     -1.862640  -10.394700   -1.647410
  H     -6.088790  -11.900410    0.195100
  H     -4.287450  -10.678860    1.334780
  H     -2.178650   -9.217000   -0.340550
  H     -2.812190   -9.309260    2.656440
  H     -1.123910   -7.879040    4.036630
  H      0.973270   -6.422930    3.721490
  H      2.834810   -5.249750    2.900110
  H      4.665740   -4.155750    1.460860
  H      5.404100   -3.966330   -1.081910
  H      4.349100   -4.790740   -2.343650

 Total Charge           Charge          ....    0
 Multiplicity           Mult            ....    1
 Number of Electrons    NEL             ....  422
 Basis Dimension        Dim             ....  921

ORBITAL ENERGIES
----------------

  NO   OCC          E(Eh)            E(eV)
   0   2.0000     -88.976163     -2421.1645
   1   2.0000     -88.962257     -2420.7861
   2   2.0000     -88.952467     -2420.5197
   3   2.0000     -88.943818     -2420.2843
   4   2.0000     -88.939318     -2420.1619
   5   2.0000     -88.937341     -2420.1081
   6   2.0000     -19.225447      -523.1510
   7   2.0000     -19.225375      -523.1490
   8   2.0000     -19.213192      -522.8175
   9   2.0000     -19.211906      -522.7825
  10   2.0000     -14.635667      -398.2568
  11   2.0000     -14.623431      -397.9238
  12   2.0000     -14.483214      -394.1083
  13   2.0000     -14.469102      -393.7243
  14   2.0000     -14.430584      -392.6761
  15   2.0000     -10.363572      -282.0071
  16   2.0000     -10.357115      -281.8314
  17   2.0000     -10.331388      -281.1313
  18   2.0000     -10.328985      -281.0660
  19   2.0000     -10.314826      -280.6807
  20   2.0000     -10.313884      -280.6551
  21   2.0000     -10.313564      -280.6463
  22   2.0000     -10.312410      -280.6149
  23   2.0000     -10.309478      -280.5352
  24   2.0000     -10.309295      -280.5302
  25   2.0000     -10.307731      -280.4876
  26   2.0000     -10.305341      -280.4226
  27   2.0000     -10.304088      -280.3885
  28   2.0000     -10.303369      -280.3689
  29   2.0000     -10.301400      -280.3153
  30   2.0000     -10.301000      -280.3045
  31   2.0000     -10.300083      -280.2795
  32   2.0000     -10.292108      -280.0625
  33   2.0000     -10.291880      -280.0563
  34   2.0000     -10.289565      -279.9933
  35   2.0000     -10.288975      -279.9773
  36   2.0000     -10.286912      -279.9211
  37   2.0000     -10.286008      -279.8965
  38   2.0000     -10.285710      -279.8884
  39   2.0000     -10.284707      -279.8611
  40   2.0000     -10.283625      -279.8317
  41   2.0000     -10.283614      -279.8314
  42   2.0000     -10.282988      -279.8143
  43   2.0000     -10.281936      -279.7857
  44   2.0000     -10.278720      -279.6982
  45   2.0000     -10.278134      -279.6822
  46   2.0000     -10.278013      -279.6789
  47   2.0000     -10.277093      -279.6539
  48   2.0000     -10.274696      -279.5887
  49   2.0000     -10.273988      -279.5694
  50   2.0000     -10.267098      -279.3819
  51   2.0000     -10.266686      -279.3707
  52   2.0000     -10.266621      -279.3690
  53   2.0000      -8.071020      -219.6236
  54   2.0000      -8.057336      -219.2513
  55   2.0000      -8.047718      -218.9895
  56   2.0000      -8.039276      -218.7598
  57   2.0000      -8.035084      -218.6458
  58   2.0000      -8.033165      -218.5935
  59   2.0000      -6.040780      -164.3780
  60   2.0000      -6.036503      -164.2616
  61   2.0000      -6.032301      -164.1473
  62   2.0000      -6.027218      -164.0090
  63   2.0000      -6.022814      -163.8891
  64   2.0000      -6.018451      -163.7704
  65   2.0000      -6.017641      -163.7483
  66   2.0000      -6.013794      -163.6436
  67   2.0000      -6.009049      -163.5145
  68   2.0000      -6.008392      -163.4967
  69   2.0000      -6.005245      -163.4110
  70   2.0000      -6.004927      -163.4024
  71   2.0000      -6.003010      -163.3502
  72   2.0000      -6.001089      -163.2979
  73   2.0000      -6.000134      -163.2720
  74   2.0000      -5.999162      -163.2455
  75   2.0000      -5.995697      -163.1512
  76   2.0000      -5.993754      -163.0983
  77   2.0000      -1.302475       -35.4422
  78   2.0000      -1.288826       -35.0707
  79   2.0000      -1.121229       -30.5102
  80   2.0000      -1.107251       -30.1298
  81   2.0000      -1.091197       -29.6930
  82   2.0000      -1.075226       -29.2584
  83   2.0000      -1.032635       -28.0994
  84   2.0000      -0.999481       -27.1973
  85   2.0000      -0.991255       -26.9734
  86   2.0000      -0.988134       -26.8885
  87   2.0000      -0.981063       -26.6961
  88   2.0000      -0.967031       -26.3142
  89   2.0000      -0.965958       -26.2851
  90   2.0000      -0.926044       -25.1989
  91   2.0000      -0.911886       -24.8137
  92   2.0000      -0.903756       -24.5924
  93   2.0000      -0.890185       -24.2232
  94   2.0000      -0.882333       -24.0095
  95   2.0000      -0.872945       -23.7541
  96   2.0000      -0.869128       -23.6502
  97   2.0000      -0.855300       -23.2739
  98   2.0000      -0.849033       -23.1034
  99   2.0000      -0.845616       -23.0104
 100   2.0000      -0.845461       -23.0062
 101   2.0000      -0.841496       -22.8983
 102   2.0000      -0.831098       -22.6153
 103   2.0000      -0.822949       -22.3936
 104   2.0000      -0.821880       -22.3645
 105   2.0000      -0.812497       -22.1092
 106   2.0000      -0.797993       -21.7145
 107   2.0000      -0.786625       -21.4052
 108   2.0000      -0.779761       -21.2184
 109   2.0000      -0.773032       -21.0353
 110   2.0000      -0.753764       -20.5110
 111   2.0000      -0.738678       -20.1004
 112   2.0000      -0.725690       -19.7470
 113   2.0000      -0.720716       -19.6117
 114   2.0000      -0.711771       -19.3683
 115   2.0000      -0.710905       -19.3447
 116   2.0000      -0.688812       -18.7435
 117   2.0000      -0.682665       -18.5763
 118   2.0000      -0.681227       -18.5371
 119   2.0000      -0.669499       -18.2180
 120   2.0000      -0.666269       -18.1301
 121   2.0000      -0.652979       -17.7685
 122   2.0000      -0.635217       -17.2851
 123   2.0000      -0.633899       -17.2493
 124   2.0000      -0.628976       -17.1153
 125   2.0000      -0.624212       -16.9857
 126   2.0000      -0.621116       -16.9014
 127   2.0000      -0.620252       -16.8779
 128   2.0000      -0.618884       -16.8407
 129   2.0000      -0.616863       -16.7857
 130   2.0000      -0.610758       -16.6196
 131   2.0000      -0.609444       -16.5838
 132   2.0000      -0.606016       -16.4905
 133   2.0000      -0.603391       -16.4191
 134   2.0000      -0.597858       -16.2685
 135   2.0000      -0.594764       -16.1843
 136   2.0000      -0.589721       -16.0471
 137   2.0000      -0.585670       -15.9369
 138   2.0000      -0.581472       -15.8226
 139   2.0000      -0.576530       -15.6882
 140   2.0000      -0.567197       -15.4342
 141   2.0000      -0.564781       -15.3685
 142   2.0000      -0.559780       -15.2324
 143   2.0000      -0.556210       -15.1352
 144   2.0000      -0.548081       -14.9140
 145   2.0000      -0.544634       -14.8202
 146   2.0000      -0.544094       -14.8056
 147   2.0000      -0.541416       -14.7327
 148   2.0000      -0.533029       -14.5044
 149   2.0000      -0.527388       -14.3510
 150   2.0000      -0.526515       -14.3272
 151   2.0000      -0.523993       -14.2586
 152   2.0000      -0.515510       -14.0277
 153   2.0000      -0.513552       -13.9745
 154   2.0000      -0.511355       -13.9147
 155   2.0000      -0.506451       -13.7812
 156   2.0000      -0.499564       -13.5938
 157   2.0000      -0.498325       -13.5601
 158   2.0000      -0.493589       -13.4312
 159   2.0000      -0.491512       -13.3747
 160   2.0000      -0.490526       -13.3479
 161   2.0000      -0.486757       -13.2453
 162   2.0000      -0.485931       -13.2229
 163   2.0000      -0.484222       -13.1764
 164   2.0000      -0.482592       -13.1320
 165   2.0000      -0.479209       -13.0399
 166   2.0000      -0.478028       -13.0078
 167   2.0000      -0.475353       -12.9350
 168   2.0000      -0.468768       -12.7558
 169   2.0000      -0.467843       -12.7307
 170   2.0000      -0.462122       -12.5750
 171   2.0000      -0.457277       -12.4432
 172   2.0000      -0.455028       -12.3819
 173   2.0000      -0.451285       -12.2801
 174   2.0000      -0.446870       -12.1599
 175   2.0000      -0.445932       -12.1344
 176   2.0000      -0.440478       -11.9860
 177   2.0000      -0.438573       -11.9342
 178   2.0000      -0.431862       -11.7516
 179   2.0000      -0.426392       -11.6027
 180   2.0000      -0.424374       -11.5478
 181   2.0000      -0.422427       -11.4948
 182   2.0000      -0.422167       -11.4878
 183   2.0000      -0.417256       -11.3541
 184   2.0000      -0.406382       -11.0582
 185   2.0000      -0.400851       -10.9077
 186   2.0000      -0.399435       -10.8692
 187   2.0000      -0.394966       -10.7476
 188   2.0000      -0.392058       -10.6684
 189   2.0000      -0.390410       -10.6236
 190   2.0000      -0.374970       -10.2035
 191   2.0000      -0.368654       -10.0316
 192   2.0000      -0.365164        -9.9366
 193   2.0000      -0.363543        -9.8925
 194   2.0000      -0.357758        -9.7351
 195   2.0000      -0.353900        -9.6301
 196   2.0000      -0.349621        -9.5137
 197   2.0000      -0.344315        -9.3693
 198   2.0000      -0.341383        -9.2895
 199   2.0000      -0.338488        -9.2107
 200   2.0000      -0.333046        -9.0626
 201   2.0000      -0.330360        -8.9895
 202   2.0000      -0.325543        -8.8585
 203   2.0000      -0.318527        -8.6676
 204   2.0000      -0.303835        -8.2678
 205   2.0000      -0.302058        -8.2194
 206   2.0000      -0.281285        -7.6541
 207   2.0000      -0.268939        -7.3182
 208   2.0000      -0.238401        -6.4872
 209   2.0000      -0.216930        -5.9030
 210   2.0000      -0.206865        -5.6291
 211   0.0000      -0.066599        -1.8123
 212   0.0000      -0.061763        -1.6806
 213   0.0000      -0.036922        -1.0047
 214   0.0000      -0.034141        -0.9290
 215   0.0000      -0.014334        -0.3900

MULLIKEN ATOMIC CHARGES
-----------------------
   0 C :   -0.015791
   1 C :   -0.078562
   2 C :    0.065006
   3 C :    0.020310
   4 C :   -0.064786
   5 S :    0.064926
   6 C :   -0.029303
   7 C :    0.015845
   8 C :    0.039509
   9 C :   -0.043482
  10 S :    0.001979
  11 C :    0.055827
  12 N :   -0.024317
  13 C :   -0.105875
  14 S :    0.143092
  15 C :   -0.025719
  16 N :    0.281701
  17 O :   -0.263755
  18 O :   -0.286844
  19 C :    0.016616
  20 C :    0.144299
  21 C :   -0.041380
  22 C :    0.022150
  23 C :    0.011847
  24 C :   -0.267377
  25 C :    0.117859
  26 C :    0.232238
  27 N :   -0.202218
  28 C :    0.052566
  29 C :    0.021361
  30 N :   -0.016365
  31 C :   -0.119636
  32 S :    0.117333
  33 C :   -0.019689
  34 N :    0.282020
  35 O :   -0.284748
  36 O :   -0.291686
  37 C :    0.015525
  38 C :    0.134203
  39 C :    0.008933
  40 C :   -0.048595
  41 C :    0.017597
  42 C :   -0.027962
  43 C :    0.018430
  44 C :    0.027603
  45 C :   -0.038642
  46 S :    0.019518
  47 C :   -0.097692
  48 C :    0.048937
  49 C :    0.044266
  50 C :   -0.075638
  51 S :    0.065602
  52 C :   -0.032789
  53 H :    0.035180
  54 H :    0.019951
  55 H :   -0.001334
  56 H :   -0.016766
  57 H :   -0.015737
  58 H :   -0.016328
  59 H :    0.020708
  60 H :    0.145184
  61 H :    0.009754
  62 H :   -0.042588
  63 H :   -0.010354
  64 H :   -0.009359
  65 H :    0.027268
  66 H :    0.010429
  67 H :    0.027815
  68 H :    0.011813
  69 H :   -0.000369
  70 H :    0.115897
  71 H :    0.014071
  72 H :    0.008151
  73 H :    0.122709
  74 H :   -0.002730
  75 H :   -0.023912
  76 H :   -0.014742
  77 H :   -0.021118
  78 H :   -0.020346
  79 H :   -0.012496
  80 H :   -0.004689
  81 H :   -0.000840
  82 H :    0.025593
  83 H :    0.014942
Sum of atomic charges:   -0.0000000

LOEWDIN ATOMIC CHARGES
----------------------
   0 C :   -0.061954
   1 C :   -0.146983
   2 C :   -0.019990
   3 C :   -0.035388
   4 C :   -0.176852
   5 S :    0.353063
   6 C :   -0.175372
   7 C :   -0.042200
   8 C :   -0.030900
   9 C :   -0.180078
  10 S :    0.331845
  11 C :   -0.007147
  12 N :    0.055303
  13 C :   -0.092748
  14 S :    0.449729
  15 C :   -0.220077
  16 N :    0.278019
  17 O :   -0.231396
  18 O :   -0.253061
  19 C :    0.012418
  20 C :   -0.108627
  21 C :   -0.027386
  22 C :   -0.027268
  23 C :   -0.045605
  24 C :   -0.042953
  25 C :   -0.051777
  26 C :    0.048014
  27 N :   -0.032203
  28 C :    0.003006
  29 C :   -0.077375
  30 N :    0.055403
  31 C :   -0.082824
  32 S :    0.432293
  33 C :   -0.231504
  34 N :    0.277400
  35 O :   -0.250908
  36 O :   -0.257297
  37 C :    0.013066
  38 C :   -0.126251
  39 C :   -0.004340
  40 C :   -0.076459
  41 C :   -0.043219
  42 C :   -0.159739
  43 C :   -0.038781
  44 C :   -0.041633
  45 C :   -0.182739
  46 S :    0.338329
  47 C :   -0.184498
  48 C :   -0.032059
  49 C :   -0.031071
  50 C :   -0.138031
  51 S :    0.360895
  52 C :   -0.085171
  53 H :    0.034418
  54 H :    0.025253
  55 H :    0.037742
  56 H :    0.030209
  57 H :    0.031477
  58 H :    0.032146
  59 H :    0.029183
  60 H :    0.078388
  61 H :    0.044007
  62 H :    0.018476
  63 H :    0.023504
  64 H :    0.027759
  65 H :    0.031578
  66 H :    0.032446
  67 H :    0.032295
  68 H :    0.028354
  69 H :    0.012880
  70 H :    0.074986
  71 H :    0.028983
  72 H :    0.015406
  73 H :    0.082474
  74 H :    0.040155
  75 H :    0.029908
  76 H :    0.007248
  77 H :    0.030046
  78 H :    0.030700
  79 H :    0.031566
  80 H :    0.033193
  81 H :    0.036662
  82 H :    0.031636
  83 H :    0.022006

  Mayer bond orders larger than 0.100000
B(  0-C ,  1-C ) :   1.8679 B(  0-C , 53-H ) :   0.9473 B(  0-C , 54-H ) :   0.9413
B(  1-C ,  2-C ) :   1.0743 B(  1-C ,  5-S ) :   1.0021 B(  2-C ,  3-C ) :   1.6560
B(  2-C , 55-H ) :   0.9932 B(  3-C ,  4-C ) :   1.1425 B(  3-C , 56-H ) :   0.9942
B(  4-C ,  5-S ) :   1.0445 B(  4-C ,  6-C ) :   1.5764 B(  6-C ,  7-C ) :   1.1635
B(  6-C , 10-S ) :   1.0291 B(  7-C ,  8-C ) :   1.6243 B(  7-C , 57-H ) :   0.9926
B(  8-C ,  9-C ) :   1.1351 B(  8-C , 58-H ) :   0.9966 B(  9-C , 10-S ) :   1.0081
B(  9-C , 11-C ) :   1.6313 B( 11-C , 12-N ) :   1.1342 B( 11-C , 59-H ) :   0.9562
B( 12-N , 13-C ) :   1.2602 B( 12-N , 60-H ) :   0.8990 B( 13-C , 14-S ) :   1.1302
B( 13-C , 20-C ) :   1.3304 B( 14-S , 15-C ) :   1.0520 B( 15-C , 16-N ) :   1.0067
B( 15-C , 19-C ) :   1.4607 B( 16-N , 17-O ) :   1.5094 B( 16-N , 18-O ) :   1.4862
B( 17-O , 18-O ) :   0.2349 B( 19-C , 20-C ) :   1.2496 B( 19-C , 61-H ) :   0.9958
B( 20-C , 21-C ) :   1.0679 B( 21-C , 22-C ) :   1.7943 B( 21-C , 62-H ) :   0.9571
B( 22-C , 23-C ) :   1.0556 B( 22-C , 63-H ) :   0.9527 B( 23-C , 24-C ) :   1.8438
B( 23-C , 64-H ) :   0.9449 B( 24-C , 25-C ) :   1.0720 B( 24-C , 26-C ) :   1.0412
B( 25-C , 65-H ) :   0.9482 B( 25-C , 66-H ) :   0.9432 B( 25-C , 67-H ) :   0.9366
B( 26-C , 27-N ) :   1.0075 B( 26-C , 68-H ) :   0.9303 B( 26-C , 69-H ) :   0.9417
B( 27-N , 28-C ) :   1.1782 B( 27-N , 70-H ) :   0.9440 B( 28-C , 29-C ) :   1.6962
B( 28-C , 71-H ) :   0.9613 B( 29-C , 30-N ) :   1.0321 B( 29-C , 72-H ) :   0.9649
B( 30-N , 31-C ) :   1.3499 B( 30-N , 73-H ) :   0.9002 B( 31-C , 32-S ) :   1.1269
B( 31-C , 38-C ) :   1.2479 B( 32-S , 33-C ) :   1.0311 B( 33-C , 34-N ) :   1.0248
B( 33-C , 37-C ) :   1.4422 B( 34-N , 35-O ) :   1.4990 B( 34-N , 36-O ) :   1.4720
B( 35-O , 36-O ) :   0.2282 B( 37-C , 38-C ) :   1.2498 B( 37-C , 74-H ) :   1.0032
B( 38-C , 39-C ) :   1.1181 B( 39-C , 40-C ) :   1.6230 B( 39-C , 75-H ) :   0.9655
B( 40-C , 41-C ) :   1.1563 B( 40-C , 76-H ) :   0.9527 B( 41-C , 42-C ) :   1.5892
B( 41-C , 77-H ) :   0.9821 B( 42-C , 43-C ) :   1.1228 B( 42-C , 46-S ) :   1.0038
B( 43-C , 44-C ) :   1.5941 B( 43-C , 78-H ) :   1.0036 B( 44-C , 45-C ) :   1.1648
B( 44-C , 79-H ) :   0.9969 B( 45-C , 46-S ) :   1.0274 B( 45-C , 47-C ) :   1.5680
B( 47-C , 48-C ) :   1.1398 B( 47-C , 51-S ) :   1.0462 B( 48-C , 49-C ) :   1.6498
B( 48-C , 80-H ) :   0.9950 B( 49-C , 50-C ) :   1.0746 B( 49-C , 81-H ) :   0.9935
B( 50-C , 51-S ) :   1.0049 B( 50-C , 52-C ) :   1.8608 B( 52-C , 82-H ) :   0.9483
B( 52-C , 83-H ) :   0.9415

-----------------------------------------------------------------------------
         ABSORPTION SPECTRUM VIA TRANSITION ELECTRIC DIPOLE MOMENTS
-----------------------------------------------------------------------------
State   Energy  Wavelength   fosc         T2         TX        TY        TZ
        (cm-1)    (nm)                  (au**2)     (au)      (au)      (au)
-----------------------------------------------------------------------------
   0   13984.3    715.1   0.009870736   0.23237   0.24954  -0.37894   0.16281
   1   15914.8    628.3   0.084829986   1.75478  -1.13836  -0.59368  -0.32627
   2   17061.7    586.1   0.105388271   2.03351   0.87552   1.12449  -0.05006
   3   19287.3    518.5   1.402748358  23.94328  -3.54551  -3.15423  -1.19309
   4   19753.2    506.2   0.477908256   7.96493   1.96190   1.94519   0.57631
   5   21906.0    456.5   0.053201374   0.79953  -0.65593  -0.55145  -0.25531
   6   22115.2    452.2   0.005343271   0.07954  -0.14677  -0.17210   0.16847
   7   22992.1    434.9   0.332211104   4.75676  -1.94513  -0.97723   0.13506
   8   23995.0    416.8   0.399252132   5.47774   1.85489   1.24310  -0.70130
   9   25101.5    398.4   0.081613660   1.07038   0.82340   0.60452  -0.16419
  10   25258.2    395.9   0.049253720   0.64197   0.63796   0.16963  -0.45408
  11   27251.1    367.0   0.027361714   0.33055  -0.45688   0.20702   0.28099
  12   27911.1    358.3   0.045429332   0.53584  -0.20993  -0.27690  -0.64428
  13   28433.4    351.7   0.058022496   0.67180   0.50640   0.58731   0.26539
  14   28567.9    350.0   0.045543244   0.52483   0.66175   0.28316   0.08205
  15   28742.0    347.9   0.415683021   4.76125   1.95308   0.65263  -0.72165
  16   29889.4    334.6   0.104514798   1.15116   0.64147   0.32494  -0.79630
  17   30201.6    331.1   0.030847401   0.33625  -0.06136  -0.04419   0.57492
  18   30935.5    323.3   0.014961658   0.15922   0.39208   0.07412  -0.00063
  19   31381.5    318.7   0.077813529   0.81631  -0.14831   0.25104  -0.85516
  20   31462.9    317.8   0.154037256   1.61177  -0.12413   0.16258   1.25297
  21   32182.6    310.7   0.028137786   0.28784  -0.47311  -0.18820   0.16906
  22   32788.0    305.0   0.180652765   1.81386  -0.32517  -0.62069  -1.15016
  23   33289.8    300.4   0.007945690   0.07858  -0.14141  -0.04814   0.23720
  24   33681.8    296.9   0.132075192   1.29093  -0.02389  -0.22207  -1.11402
  25   34075.2    293.5   0.029790713   0.28782  -0.07609  -0.05961  -0.52771
  26   34262.9    291.9   0.007757405   0.07454   0.24842   0.10496   0.04254
  27   34795.4    287.4   0.064847282   0.61354   0.35043   0.26054   0.65028
  28   35097.9    284.9   0.000925591   0.00868  -0.00321  -0.07658  -0.05298
  29   35448.0    282.1   0.073629623   0.68381  -0.75552  -0.16801  -0.29115
  30   35747.0    279.7   0.067827113   0.62465   0.33248   0.03345  -0.71623
  31   36132.0    276.8   0.119020312   1.08444   0.59806   0.44877   0.72482
  32   36273.2    275.7   0.033730620   0.30614  -0.11044  -0.39165  -0.37490
  33   36487.0    274.1   0.032642931   0.29453  -0.23099  -0.27332  -0.40800
  34   36658.7    272.8   0.003692681   0.03316   0.14324   0.10510  -0.03998
  35   36950.0    270.6   0.182826184   1.62892  -0.49682  -0.60391  -1.00865
  36   37522.4    266.5   0.053951227   0.47335   0.24464  -0.14291  -0.62696
  37   37959.4    263.4   0.015491845   0.13436  -0.08533   0.02896  -0.35530
  38   38258.3    261.4   0.008342485   0.07179   0.12976  -0.22914  -0.04942
  39   38379.0    260.6   0.002971958   0.02549  -0.12141  -0.09856   0.03224
  40   38685.6    258.5   0.027174464   0.23125  -0.26935  -0.32040  -0.23674
  41   38730.5    258.2   0.024119390   0.20502  -0.02724   0.03886   0.45029
  42   38747.8    258.1   0.013335507   0.11330   0.17755   0.07862  -0.27495
  43   38929.5    256.9   0.069730601   0.58968  -0.46547  -0.30948  -0.52655
  44   39440.0    253.5   0.009747181   0.08136  -0.12725  -0.25384  -0.02708
  45   39688.4    252.0   0.028429505   0.23582  -0.41945  -0.22153  -0.10398
  46   39963.8    250.2   0.007570726   0.06237  -0.00351  -0.09328  -0.23163
  47   40033.6    249.8   0.017129763   0.14086   0.02967   0.07921   0.36566
  48   40310.3    248.1   0.076624050   0.62578   0.11299  -0.05381   0.78110

FINAL SINGLE POINT ENERGY     -4426.853251989467

DIPOLE MOMENT
-------------
                                X             Y             Z
Electronic contribution:     -9.19591       0.27164      16.15777
Nuclear contribution   :     10.02237      -0.41433     -16.52250
                        -----------------------------------------
Total Dipole Moment    :      0.82646      -0.14269      -0.36473
                        -----------------------------------------
Magnitude (a.u.)       :      0.91456
Magnitude (Debye)      :      2.32464

Rotational constants in cm-1:     0.003060     0.000948     0.000863
Rotational constants in MHz :    91.723592    28.433588    25.886277

                             ****ORCA TERMINATED NORMALLY****
TOTAL RUN TIME: 0 days 0 hours 8 minutes 25 seconds 691 msec
