                         Program Version 4.2.0 -  RELEASE  -
|  1> # ORCA input file
|  2> # SCF done       -139.644291107245          0.000721162405
|  3> ! CAM-B3LYP def2-SVP def2/J RIJCOSX Grid4 TightSCF
|  4> %maxcore 5000
|  5> %tddft
|  6>     Mode sTDDFT
|  7>     Ethresh 5.0
|  8>     maxcore 5000
|  9> end
| 10>
| 11> %pal
| 12>   nprocs 6
| 13>   end
| 14> * xyz 0 1
| 15>    C       -1.29951       -11.10117       -11.83001
| 16>    C       -0.11468       -10.57283       -11.49248
| 17>    C        0.79619        -9.84930       -12.33111
| 18>    C        1.92149        -9.43460       -11.70621
| 19>    C        1.99480        -9.79088       -10.33204
| 20>    S        0.56450       -10.68553        -9.86034
| 21>    C        3.00722        -9.50189        -9.44526
| 22>    C        4.20315        -8.78731        -9.68760
| 23>    C        4.99941        -8.66041        -8.59116
| 24>    C        4.48344        -9.26363        -7.41853
| 25>    S        2.93879       -10.01302        -7.76671
| 26>    C        5.08902        -9.25855        -6.18235
| 27>    C        4.61449        -9.82918        -5.00205
| 28>    S        3.11830       -10.70095        -4.90162
| 29>    C        3.27050       -10.98709        -3.19204
| 30>    C        4.48306       -10.45990        -2.71490
| 31>    C        5.23736        -9.79636        -3.73171
| 32>    C        6.47085        -9.20537        -3.42100
| 33>    C        6.95145        -9.29483        -2.14393
| 34>    F        8.13299        -8.73111        -1.83166
| 35>    C        6.23549        -9.99156        -1.15116
| 36>    F        6.76077       -10.09615         0.08420
| 37>    C        5.02751       -10.56933        -1.42064
| 38>    C        2.19824       -11.65647        -2.55370
| 39>    C        1.89773       -11.68007        -1.23247
| 40>    C        0.76866       -12.39642        -0.72979
| 41>    C        0.32904       -12.42437         0.54108
| 42>    C        0.92942       -11.67173         1.68581
| 43>    C       -0.89243       -13.22717         0.89539
| 44>    N       -2.04125       -12.34273         0.96763
| 45>    C       -3.28635       -12.74989         1.30744
| 46>    C       -3.60701       -13.96476         1.82551
| 47>    C       -4.89649       -14.38922         2.21952
| 48>    C       -6.11133       -13.76569         2.12159
| 49>    C       -7.34076       -14.32482         2.56167
| 50>    C       -8.43469       -13.54672         2.35413
| 51>    C       -8.15222       -12.30882         1.72823
| 52>    S       -6.43007       -12.17597         1.42447
| 53>    C       -9.03392       -11.31306         1.38031
| 54>    C      -10.43679       -11.28780         1.57783
| 55>    C      -11.04088       -10.16245         1.12442
| 56>    C      -10.16166        -9.21368         0.51908
| 57>    S       -8.51276        -9.83478         0.58487
| 58>    C      -10.52616        -7.98851         0.05723
| 59>    C       -9.71493        -6.98349        -0.57153
| 60>    C       -8.76603        -7.13773        -1.50778
| 61>    C       -8.43789        -8.42221        -2.19449
| 62>    C       -8.01300        -5.94464        -2.02746
| 63>    N       -8.40822        -5.67263        -3.39800
| 64>    C       -7.80998        -4.65291        -4.10636
| 65>    C       -6.70325        -3.99365        -3.77989
| 66>    H       -1.67544       -11.00915       -12.83360
| 67>    H       -1.90740       -11.62791       -11.11775
| 68>    H        0.56544        -9.67141       -13.36641
| 69>    H        2.71007        -8.87967       -12.18276
| 70>    H        4.44109        -8.38650       -10.65640
| 71>    H        5.94533        -8.14757        -8.58435
| 72>    H        6.03898        -8.74504        -6.12251
| 73>    H        7.05141        -8.68864        -4.16738
| 74>    H        4.52938       -11.12557        -0.64587
| 75>    H        1.51817       -12.15683        -3.23392
| 76>    H        2.49608       -11.12429        -0.53038
| 77>    H        0.22555       -12.97636        -1.46698
| 78>    H        1.55870       -10.85201         1.35513
| 79>    H        1.53331       -12.34307         2.29796
| 80>    H        0.13889       -11.27174         2.31886
| 81>    H       -0.75905       -13.69903         1.87475
| 82>    H       -1.06624       -14.01742         0.15213
| 83>    H       -1.96104       -11.49240         0.43288
| 84>    H       -4.04578       -11.99459         1.17875
| 85>    H       -2.82148       -14.69328         1.96441
| 86>    H       -4.93894       -15.37825         2.66082
| 87>    H       -7.37028       -15.29821         3.02065
| 88>    H       -9.43684       -13.82608         2.62599
| 89>    H      -10.95348       -12.10356         2.05192
| 90>    H      -12.09753        -9.96894         1.19083
| 91>    H      -11.55242        -7.69823         0.25472
| 92>    H       -9.95706        -5.97032        -0.26406
| 93>    H       -9.25766        -9.13170        -2.11779
| 94>    H       -7.55061        -8.87874        -1.75461
| 95>    H       -8.22704        -8.22381        -3.24401
| 96>    H       -6.94111        -6.16913        -2.03533
| 97>    H       -8.17588        -5.07000        -1.37868
| 98>    H       -9.40218        -5.76636        -3.55202
| 99>    H       -8.30416        -4.44923        -5.04857
|100>    H       -6.17461        -4.15625        -2.85882
|101>    H       -6.28433        -3.26774        -4.45192
|102> *
|103>
|104>                          ****END OF INPUT****

CARTESIAN COORDINATES (ANGSTROEM)
---------------------------------
  C     -1.299510  -11.101170  -11.830010
  C     -0.114680  -10.572830  -11.492480
  C      0.796190   -9.849300  -12.331110
  C      1.921490   -9.434600  -11.706210
  C      1.994800   -9.790880  -10.332040
  S      0.564500  -10.685530   -9.860340
  C      3.007220   -9.501890   -9.445260
  C      4.203150   -8.787310   -9.687600
  C      4.999410   -8.660410   -8.591160
  C      4.483440   -9.263630   -7.418530
  S      2.938790  -10.013020   -7.766710
  C      5.089020   -9.258550   -6.182350
  C      4.614490   -9.829180   -5.002050
  S      3.118300  -10.700950   -4.901620
  C      3.270500  -10.987090   -3.192040
  C      4.483060  -10.459900   -2.714900
  C      5.237360   -9.796360   -3.731710
  C      6.470850   -9.205370   -3.421000
  C      6.951450   -9.294830   -2.143930
  F      8.132990   -8.731110   -1.831660
  C      6.235490   -9.991560   -1.151160
  F      6.760770  -10.096150    0.084200
  C      5.027510  -10.569330   -1.420640
  C      2.198240  -11.656470   -2.553700
  C      1.897730  -11.680070   -1.232470
  C      0.768660  -12.396420   -0.729790
  C      0.329040  -12.424370    0.541080
  C      0.929420  -11.671730    1.685810
  C     -0.892430  -13.227170    0.895390
  N     -2.041250  -12.342730    0.967630
  C     -3.286350  -12.749890    1.307440
  C     -3.607010  -13.964760    1.825510
  C     -4.896490  -14.389220    2.219520
  C     -6.111330  -13.765690    2.121590
  C     -7.340760  -14.324820    2.561670
  C     -8.434690  -13.546720    2.354130
  C     -8.152220  -12.308820    1.728230
  S     -6.430070  -12.175970    1.424470
  C     -9.033920  -11.313060    1.380310
  C    -10.436790  -11.287800    1.577830
  C    -11.040880  -10.162450    1.124420
  C    -10.161660   -9.213680    0.519080
  S     -8.512760   -9.834780    0.584870
  C    -10.526160   -7.988510    0.057230
  C     -9.714930   -6.983490   -0.571530
  C     -8.766030   -7.137730   -1.507780
  C     -8.437890   -8.422210   -2.194490
  C     -8.013000   -5.944640   -2.027460
  N     -8.408220   -5.672630   -3.398000
  C     -7.809980   -4.652910   -4.106360
  C     -6.703250   -3.993650   -3.779890
  H     -1.675440  -11.009150  -12.833600
  H     -1.907400  -11.627910  -11.117750
  H      0.565440   -9.671410  -13.366410
  H      2.710070   -8.879670  -12.182760
  H      4.441090   -8.386500  -10.656400
  H      5.945330   -8.147570   -8.584350
  H      6.038980   -8.745040   -6.122510
  H      7.051410   -8.688640   -4.167380
  H      4.529380  -11.125570   -0.645870
  H      1.518170  -12.156830   -3.233920
  H      2.496080  -11.124290   -0.530380
  H      0.225550  -12.976360   -1.466980
  H      1.558700  -10.852010    1.355130
  H      1.533310  -12.343070    2.297960
  H      0.138890  -11.271740    2.318860
  H     -0.759050  -13.699030    1.874750
  H     -1.066240  -14.017420    0.152130
  H     -1.961040  -11.492400    0.432880
  H     -4.045780  -11.994590    1.178750
  H     -2.821480  -14.693280    1.964410
  H     -4.938940  -15.378250    2.660820
  H     -7.370280  -15.298210    3.020650
  H     -9.436840  -13.826080    2.625990
  H    -10.953480  -12.103560    2.051920
  H    -12.097530   -9.968940    1.190830
  H    -11.552420   -7.698230    0.254720
  H     -9.957060   -5.970320   -0.264060
  H     -9.257660   -9.131700   -2.117790
  H     -7.550610   -8.878740   -1.754610
  H     -8.227040   -8.223810   -3.244010
  H     -6.941110   -6.169130   -2.035330
  H     -8.175880   -5.070000   -1.378680
  H     -9.402180   -5.766360   -3.552020
  H     -8.304160   -4.449230   -5.048570
  H     -6.174610   -4.156250   -2.858820
  H     -6.284330   -3.267740   -4.451920

 Total Charge           Charge          ....    0
 Multiplicity           Mult            ....    1
 Number of Electrons    NEL             ....  400
 Basis Dimension        Dim             ....  914

ORBITAL ENERGIES
----------------

  NO   OCC          E(Eh)            E(eV)
   0   2.0000     -88.964279     -2420.8411
   1   2.0000     -88.947684     -2420.3895
   2   2.0000     -88.940677     -2420.1989
   3   2.0000     -88.925626     -2419.7893
   4   2.0000     -88.920090     -2419.6387
   5   2.0000     -24.781717      -674.3448
   6   2.0000     -24.781592      -674.3414
   7   2.0000     -14.429557      -392.6482
   8   2.0000     -14.397744      -391.7825
   9   2.0000     -10.362802      -281.9862
  10   2.0000     -10.362157      -281.9686
  11   2.0000     -10.313445      -280.6431
  12   2.0000     -10.309102      -280.5249
  13   2.0000     -10.308912      -280.5198
  14   2.0000     -10.308457      -280.5074
  15   2.0000     -10.307741      -280.4879
  16   2.0000     -10.304322      -280.3949
  17   2.0000     -10.303860      -280.3823
  18   2.0000     -10.301183      -280.3094
  19   2.0000     -10.291458      -280.0448
  20   2.0000     -10.290907      -280.0298
  21   2.0000     -10.289307      -279.9863
  22   2.0000     -10.288892      -279.9750
  23   2.0000     -10.287470      -279.9363
  24   2.0000     -10.286936      -279.9218
  25   2.0000     -10.286757      -279.9169
  26   2.0000     -10.286651      -279.9140
  27   2.0000     -10.286013      -279.8966
  28   2.0000     -10.284689      -279.8606
  29   2.0000     -10.284095      -279.8444
  30   2.0000     -10.283204      -279.8202
  31   2.0000     -10.283066      -279.8165
  32   2.0000     -10.280293      -279.7410
  33   2.0000     -10.278926      -279.7038
  34   2.0000     -10.278187      -279.6837
  35   2.0000     -10.277928      -279.6766
  36   2.0000     -10.273062      -279.5442
  37   2.0000     -10.272414      -279.5266
  38   2.0000     -10.269713      -279.4531
  39   2.0000     -10.267258      -279.3863
  40   2.0000     -10.266550      -279.3670
  41   2.0000     -10.266439      -279.3640
  42   2.0000     -10.265628      -279.3419
  43   2.0000     -10.261513      -279.2300
  44   2.0000     -10.261461      -279.2286
  45   2.0000     -10.258935      -279.1598
  46   2.0000     -10.254241      -279.0321
  47   2.0000     -10.250730      -278.9366
  48   2.0000     -10.245021      -278.7812
  49   2.0000     -10.237228      -278.5691
  50   2.0000     -10.218661      -278.0639
  51   2.0000      -8.059173      -219.3012
  52   2.0000      -8.043665      -218.8792
  53   2.0000      -8.037476      -218.7108
  54   2.0000      -8.021318      -218.2712
  55   2.0000      -8.016045      -218.1277
  56   2.0000      -6.028163      -164.0347
  57   2.0000      -6.024051      -163.9228
  58   2.0000      -6.021937      -163.8652
  59   2.0000      -6.013448      -163.6343
  60   2.0000      -6.009288      -163.5210
  61   2.0000      -6.007290      -163.4667
  62   2.0000      -6.004602      -163.3935
  63   2.0000      -6.003362      -163.3598
  64   2.0000      -5.997996      -163.2138
  65   2.0000      -5.991086      -163.0257
  66   2.0000      -5.987160      -162.9189
  67   2.0000      -5.985921      -162.8852
  68   2.0000      -5.982233      -162.7848
  69   2.0000      -5.981875      -162.7751
  70   2.0000      -5.976727      -162.6350
  71   2.0000      -1.302393       -35.4399
  72   2.0000      -1.287764       -35.0418
  73   2.0000      -1.027215       -27.9520
  74   2.0000      -1.001362       -27.2485
  75   2.0000      -0.997479       -27.1428
  76   2.0000      -0.992692       -27.0125
  77   2.0000      -0.971272       -26.4297
  78   2.0000      -0.970875       -26.4189
  79   2.0000      -0.948817       -25.8186
  80   2.0000      -0.939515       -25.5655
  81   2.0000      -0.919404       -25.0183
  82   2.0000      -0.901667       -24.5356
  83   2.0000      -0.892107       -24.2755
  84   2.0000      -0.881326       -23.9821
  85   2.0000      -0.874530       -23.7972
  86   2.0000      -0.859259       -23.3816
  87   2.0000      -0.851112       -23.1599
  88   2.0000      -0.846797       -23.0425
  89   2.0000      -0.846204       -23.0264
  90   2.0000      -0.831965       -22.6389
  91   2.0000      -0.825675       -22.4678
  92   2.0000      -0.821660       -22.3585
  93   2.0000      -0.812745       -22.1159
  94   2.0000      -0.807132       -21.9632
  95   2.0000      -0.800735       -21.7891
  96   2.0000      -0.797640       -21.7049
  97   2.0000      -0.787075       -21.4174
  98   2.0000      -0.785422       -21.3724
  99   2.0000      -0.767679       -20.8896
 100   2.0000      -0.755529       -20.5590
 101   2.0000      -0.750632       -20.4257
 102   2.0000      -0.733009       -19.9462
 103   2.0000      -0.731783       -19.9128
 104   2.0000      -0.722456       -19.6590
 105   2.0000      -0.702651       -19.1201
 106   2.0000      -0.695088       -18.9143
 107   2.0000      -0.686591       -18.6831
 108   2.0000      -0.667370       -18.1601
 109   2.0000      -0.662578       -18.0297
 110   2.0000      -0.655156       -17.8277
 111   2.0000      -0.646786       -17.5999
 112   2.0000      -0.637629       -17.3508
 113   2.0000      -0.629318       -17.1246
 114   2.0000      -0.625948       -17.0329
 115   2.0000      -0.625558       -17.0223
 116   2.0000      -0.622278       -16.9330
 117   2.0000      -0.620015       -16.8715
 118   2.0000      -0.607059       -16.5189
 119   2.0000      -0.606442       -16.5021
 120   2.0000      -0.601465       -16.3667
 121   2.0000      -0.600353       -16.3364
 122   2.0000      -0.597701       -16.2643
 123   2.0000      -0.592972       -16.1356
 124   2.0000      -0.587991       -16.0000
 125   2.0000      -0.584079       -15.8936
 126   2.0000      -0.579445       -15.7675
 127   2.0000      -0.568319       -15.4648
 128   2.0000      -0.564280       -15.3548
 129   2.0000      -0.559135       -15.2148
 130   2.0000      -0.557150       -15.1608
 131   2.0000      -0.546933       -14.8828
 132   2.0000      -0.544244       -14.8096
 133   2.0000      -0.538678       -14.6582
 134   2.0000      -0.533712       -14.5230
 135   2.0000      -0.530480       -14.4351
 136   2.0000      -0.530173       -14.4267
 137   2.0000      -0.523563       -14.2469
 138   2.0000      -0.520647       -14.1675
 139   2.0000      -0.519719       -14.1423
 140   2.0000      -0.516252       -14.0479
 141   2.0000      -0.509267       -13.8579
 142   2.0000      -0.508736       -13.8434
 143   2.0000      -0.502618       -13.6769
 144   2.0000      -0.501862       -13.6564
 145   2.0000      -0.495183       -13.4746
 146   2.0000      -0.493356       -13.4249
 147   2.0000      -0.491192       -13.3660
 148   2.0000      -0.489337       -13.3155
 149   2.0000      -0.485532       -13.2120
 150   2.0000      -0.482135       -13.1196
 151   2.0000      -0.479855       -13.0575
 152   2.0000      -0.478028       -13.0078
 153   2.0000      -0.475382       -12.9358
 154   2.0000      -0.472868       -12.8674
 155   2.0000      -0.472274       -12.8512
 156   2.0000      -0.466529       -12.6949
 157   2.0000      -0.466165       -12.6850
 158   2.0000      -0.463220       -12.6049
 159   2.0000      -0.462288       -12.5795
 160   2.0000      -0.461248       -12.5512
 161   2.0000      -0.453890       -12.3510
 162   2.0000      -0.449074       -12.2199
 163   2.0000      -0.446431       -12.1480
 164   2.0000      -0.442821       -12.0498
 165   2.0000      -0.440704       -11.9922
 166   2.0000      -0.435771       -11.8579
 167   2.0000      -0.431838       -11.7509
 168   2.0000      -0.430419       -11.7123
 169   2.0000      -0.427485       -11.6324
 170   2.0000      -0.421480       -11.4691
 171   2.0000      -0.418741       -11.3945
 172   2.0000      -0.416782       -11.3412
 173   2.0000      -0.415675       -11.3111
 174   2.0000      -0.412937       -11.2366
 175   2.0000      -0.411518       -11.1980
 176   2.0000      -0.409181       -11.1344
 177   2.0000      -0.404893       -11.0177
 178   2.0000      -0.400258       -10.8916
 179   2.0000      -0.395491       -10.7619
 180   2.0000      -0.388758       -10.5787
 181   2.0000      -0.384291       -10.4571
 182   2.0000      -0.374716       -10.1965
 183   2.0000      -0.372537       -10.1372
 184   2.0000      -0.370690       -10.0870
 185   2.0000      -0.366265        -9.9666
 186   2.0000      -0.339625        -9.2417
 187   2.0000      -0.338185        -9.2025
 188   2.0000      -0.333063        -9.0631
 189   2.0000      -0.322038        -8.7631
 190   2.0000      -0.318506        -8.6670
 191   2.0000      -0.308376        -8.3913
 192   2.0000      -0.304658        -8.2902
 193   2.0000      -0.302304        -8.2261
 194   2.0000      -0.298562        -8.1243
 195   2.0000      -0.260326        -7.0838
 196   2.0000      -0.255960        -6.9650
 197   2.0000      -0.252970        -6.8837
 198   2.0000      -0.205990        -5.6053
 199   2.0000      -0.190259        -5.1772
 200   0.0000      -0.081384        -2.2146
 201   0.0000      -0.043285        -1.1778
 202   0.0000      -0.029257        -0.7961
 203   0.0000       0.006142         0.1671
 204   0.0000       0.016401         0.4463

MULLIKEN ATOMIC CHARGES
-----------------------
   0 C :   -0.025557
   1 C :   -0.065482
   2 C :    0.055269
   3 C :    0.027219
   4 C :   -0.064393
   5 S :    0.084639
   6 C :   -0.037715
   7 C :    0.029993
   8 C :    0.029439
   9 C :   -0.037613
  10 S :    0.065279
  11 C :   -0.019030
  12 C :   -0.090893
  13 S :    0.137134
  14 C :   -0.122104
  15 C :    0.138213
  16 C :    0.123535
  17 C :   -0.117368
  18 C :    0.222106
  19 F :   -0.183206
  20 C :    0.228372
  21 F :   -0.184141
  22 C :   -0.129611
  23 C :    0.038539
  24 C :   -0.018510
  25 C :    0.029070
  26 C :   -0.240028
  27 C :    0.104482
  28 C :    0.216320
  29 N :   -0.166327
  30 C :    0.061926
  31 C :   -0.075155
  32 C :    0.016523
  33 C :   -0.045043
  34 C :    0.046169
  35 C :    0.007576
  36 C :   -0.029522
  37 S :    0.023392
  38 C :   -0.066430
  39 C :    0.030894
  40 C :    0.025369
  41 C :   -0.017423
  42 S :    0.064403
  43 C :   -0.052159
  44 C :    0.001688
  45 C :   -0.239482
  46 C :    0.105485
  47 C :    0.214869
  48 N :   -0.200007
  49 C :    0.047601
  50 C :   -0.106057
  51 H :    0.022201
  52 H :    0.024389
  53 H :   -0.009397
  54 H :   -0.010127
  55 H :   -0.016003
  56 H :   -0.013823
  57 H :   -0.020120
  58 H :   -0.013509
  59 H :   -0.013183
  60 H :   -0.015789
  61 H :   -0.013660
  62 H :   -0.024436
  63 H :    0.017498
  64 H :    0.031400
  65 H :    0.018924
  66 H :    0.013782
  67 H :    0.011810
  68 H :    0.126565
  69 H :    0.017150
  70 H :   -0.023878
  71 H :   -0.021218
  72 H :   -0.022449
  73 H :   -0.024788
  74 H :   -0.020838
  75 H :   -0.021205
  76 H :   -0.014633
  77 H :   -0.017753
  78 H :    0.022800
  79 H :    0.029078
  80 H :    0.012866
  81 H :    0.012914
  82 H :   -0.002556
  83 H :    0.113684
  84 H :   -0.005708
  85 H :    0.003427
  86 H :    0.004338
Sum of atomic charges:   -0.0000000

LOEWDIN ATOMIC CHARGES
----------------------
   0 C :   -0.070186
   1 C :   -0.140158
   2 C :   -0.027519
   3 C :   -0.027409
   4 C :   -0.171265
   5 S :    0.355267
   6 C :   -0.183057
   7 C :   -0.036382
   8 C :   -0.035198
   9 C :   -0.152646
  10 S :    0.368342
  11 C :   -0.078385
  12 C :   -0.177198
  13 S :    0.475994
  14 C :   -0.187084
  15 C :   -0.042515
  16 C :   -0.045136
  17 C :   -0.037984
  18 C :    0.056576
  19 F :   -0.061676
  20 C :    0.062048
  21 F :   -0.061936
  22 C :   -0.043309
  23 C :   -0.040220
  24 C :   -0.039147
  25 C :   -0.041556
  26 C :   -0.044424
  27 C :   -0.049654
  28 C :    0.047113
  29 N :   -0.005460
  30 C :    0.043689
  31 C :   -0.142619
  32 C :   -0.034342
  33 C :   -0.178243
  34 C :   -0.023539
  35 C :   -0.061331
  36 C :   -0.169197
  37 S :    0.352965
  38 C :   -0.197088
  39 C :   -0.033034
  40 C :   -0.046020
  41 C :   -0.141811
  42 S :    0.369584
  43 C :   -0.082070
  44 C :   -0.061144
  45 C :   -0.037940
  46 C :   -0.062767
  47 C :    0.043677
  48 N :   -0.046780
  49 C :    0.017445
  50 C :   -0.162611
  51 H :    0.029732
  52 H :    0.027461
  53 H :    0.034275
  54 H :    0.032925
  55 H :    0.031068
  56 H :    0.033031
  57 H :    0.037013
  58 H :    0.038483
  59 H :    0.038396
  60 H :    0.027901
  61 H :    0.022220
  62 H :    0.026684
  63 H :    0.028520
  64 H :    0.039323
  65 H :    0.032953
  66 H :    0.025885
  67 H :    0.019482
  68 H :    0.078957
  69 H :    0.012503
  70 H :    0.022239
  71 H :    0.033126
  72 H :    0.029821
  73 H :    0.027058
  74 H :    0.029001
  75 H :    0.028829
  76 H :    0.029023
  77 H :    0.025103
  78 H :    0.028895
  79 H :    0.026582
  80 H :    0.027411
  81 H :    0.027333
  82 H :    0.011761
  83 H :    0.069704
  84 H :    0.021254
  85 H :    0.013368
  86 H :    0.020019

  Mayer bond orders larger than 0.100000
B(  0-C ,  1-C ) :   1.8608 B(  0-C , 51-H ) :   0.9508 B(  0-C , 52-H ) :   0.9422
B(  1-C ,  2-C ) :   1.0815 B(  1-C ,  5-S ) :   1.0075 B(  2-C ,  3-C ) :   1.6561
B(  2-C , 53-H ) :   0.9932 B(  3-C ,  4-C ) :   1.1577 B(  3-C , 54-H ) :   0.9918
B(  4-C ,  5-S ) :   1.0506 B(  4-C ,  6-C ) :   1.5440 B(  6-C ,  7-C ) :   1.1801
B(  6-C , 10-S ) :   1.0312 B(  7-C ,  8-C ) :   1.5903 B(  7-C , 55-H ) :   0.9919
B(  8-C ,  9-C ) :   1.1528 B(  8-C , 56-H ) :   0.9991 B(  9-C , 10-S ) :   1.0429
B(  9-C , 11-C ) :   1.5402 B( 11-C , 12-C ) :   1.2411 B( 11-C , 57-H ) :   0.9596
B( 12-C , 13-S ) :   1.1316 B( 12-C , 14-C ) :   0.1000 B( 12-C , 16-C ) :   1.2788
B( 13-S , 14-C ) :   1.1402 B( 14-C , 15-C ) :   1.3341 B( 14-C , 23-C ) :   1.1349
B( 15-C , 16-C ) :   1.2302 B( 15-C , 22-C ) :   1.1643 B( 16-C , 17-C ) :   1.1855
B( 17-C , 18-C ) :   1.4859 B( 17-C , 22-C ) :   0.1119 B( 17-C , 58-H ) :   0.9973
B( 18-C , 19-F ) :   1.1246 B( 18-C , 20-C ) :   1.1691 B( 20-C , 21-F ) :   1.1226
B( 20-C , 22-C ) :   1.4922 B( 22-C , 59-H ) :   0.9955 B( 23-C , 24-C ) :   1.6780
B( 23-C , 60-H ) :   0.9556 B( 24-C , 25-C ) :   1.1155 B( 24-C , 61-H ) :   0.9695
B( 25-C , 26-C ) :   1.7601 B( 25-C , 62-H ) :   0.9734 B( 26-C , 27-C ) :   1.0763
B( 26-C , 28-C ) :   1.0336 B( 27-C , 63-H ) :   0.9535 B( 27-C , 64-H ) :   0.9458
B( 27-C , 65-H ) :   0.9468 B( 28-C , 29-N ) :   0.9871 B( 28-C , 66-H ) :   0.9271
B( 28-C , 67-H ) :   0.9360 B( 29-N , 30-C ) :   1.2529 B( 29-N , 68-H ) :   0.9324
B( 30-C , 31-C ) :   1.5943 B( 30-C , 69-H ) :   0.9468 B( 31-C , 32-C ) :   1.2002
B( 31-C , 70-H ) :   0.9599 B( 32-C , 33-C ) :   1.6078 B( 32-C , 71-H ) :   0.9569
B( 33-C , 34-C ) :   1.1458 B( 33-C , 37-S ) :   1.0056 B( 34-C , 35-C ) :   1.5998
B( 34-C , 72-H ) :   0.9963 B( 35-C , 36-C ) :   1.1744 B( 35-C , 73-H ) :   0.9922
B( 36-C , 37-S ) :   1.0381 B( 36-C , 38-C ) :   1.5443 B( 38-C , 39-C ) :   1.1683
B( 38-C , 42-S ) :   1.0262 B( 39-C , 40-C ) :   1.6238 B( 39-C , 74-H ) :   0.9921
B( 40-C , 41-C ) :   1.1083 B( 40-C , 75-H ) :   0.9971 B( 41-C , 42-S ) :   1.0306
B( 41-C , 43-C ) :   1.6953 B( 43-C , 44-C ) :   1.0609 B( 43-C , 76-H ) :   0.9474
B( 44-C , 45-C ) :   1.8302 B( 44-C , 77-H ) :   0.9443 B( 45-C , 46-C ) :   1.0896
B( 45-C , 47-C ) :   1.0404 B( 46-C , 78-H ) :   0.9498 B( 46-C , 79-H ) :   0.9311
B( 46-C , 80-H ) :   0.9395 B( 47-C , 48-N ) :   0.9917 B( 47-C , 81-H ) :   0.9240
B( 47-C , 82-H ) :   0.9336 B( 48-N , 49-C ) :   1.1657 B( 48-N , 83-H ) :   0.9364
B( 49-C , 50-C ) :   1.8961 B( 49-C , 84-H ) :   0.9623 B( 50-C , 85-H ) :   0.9588
B( 50-C , 86-H ) :   0.9522

-----------------------------------------------------------------------------
         ABSORPTION SPECTRUM VIA TRANSITION ELECTRIC DIPOLE MOMENTS
-----------------------------------------------------------------------------
State   Energy  Wavelength   fosc         T2         TX        TY        TZ
        (cm-1)    (nm)                  (au**2)     (au)      (au)      (au)
-----------------------------------------------------------------------------
   0   14231.4    702.7   1.037608644  24.00272  -0.53791   0.22178  -4.86458
   1   15158.5    659.7   0.002900351   0.06299   0.07040  -0.00383   0.24087
   2   18264.3    547.5   1.253444381  22.59316   3.71490  -2.62618   1.37691
   3   21880.0    457.0   0.010215363   0.15370  -0.25714  -0.05652  -0.29050
   4   25885.1    386.3   0.774006944   9.84398  -2.82707  -1.32589  -0.30609
   5   26270.5    380.7   0.005593602   0.07010   0.23953   0.11265  -0.00567
   6   27027.1    370.0   0.000827961   0.01009   0.01839   0.07826  -0.06019
   7   27974.6    357.5   0.018532739   0.21810  -0.05009   0.41956  -0.19888
   8   28964.3    345.3   0.000842378   0.00957  -0.07579  -0.05137   0.03452
   9   29368.9    340.5   0.020006448   0.22426   0.37793   0.22130  -0.18016
  10   29526.5    338.7   0.341202773   3.80431  -1.57966  -0.87809   0.73346
  11   30751.7    325.2   0.100023533   1.07080   0.83629   0.53129  -0.29856
  12   30921.9    323.4   0.050702270   0.53981  -0.66297  -0.30133   0.09736
  13   31988.5    312.6   0.005724761   0.05892  -0.14975  -0.16765   0.09158
  14   32372.2    308.9   0.072664837   0.73897   0.50687   0.45686  -0.52281
  15   32404.0    308.6   0.049063676   0.49847   0.55689   0.27444   0.33619
  16   32561.7    307.1   0.526971272   5.32789  -1.41670  -1.41222   1.15174
  17   33431.1    299.1   0.004566762   0.04497  -0.00174  -0.18420   0.10506
  18   34199.8    292.4   0.049881623   0.48017  -0.62333  -0.09965   0.28583
  19   35032.1    285.5   0.080496902   0.75646  -0.78935  -0.34812  -0.11046
  20   35393.0    282.5   0.039561210   0.36798  -0.38417  -0.02500  -0.46880
  21   35536.4    281.4   0.030614755   0.28362  -0.01008   0.37156  -0.38139
  22   37466.5    266.9   0.080336925   0.70591   0.46754   0.48159  -0.50536
  23   37670.0    265.5   0.000058495   0.00051   0.00928  -0.00433   0.02015
  24   37753.9    264.9   0.087280045   0.76108   0.38705   0.06699   0.77896
  25   38604.4    259.0   0.000055150   0.00047  -0.00623  -0.01837   0.00969
  26   38770.5    257.9   0.000123688   0.00105   0.02470   0.00509  -0.02036
  27   39389.6    253.9   0.050903664   0.42544   0.42597   0.34823  -0.35033
  28   39682.1    252.0   0.005494878   0.04559   0.13465   0.11283  -0.12134
  29   39734.9    251.7   0.019172894   0.15885  -0.21150   0.30009  -0.15514

FINAL SINGLE POINT ENERGY     -3919.050715856335

DIPOLE MOMENT
-------------
                                X             Y             Z
Electronic contribution:     74.41745      -9.29834     -13.98614
Nuclear contribution   :    -73.93698       8.79338      12.18616
                        -----------------------------------------
Total Dipole Moment    :      0.48047      -0.50496      -1.79998
                        -----------------------------------------
Magnitude (a.u.)       :      1.93022
Magnitude (Debye)      :      4.90624

Rotational constants in cm-1:     0.001261     0.000492     0.000401
Rotational constants in MHz :    37.798495    14.751894    12.031041

                             ****ORCA TERMINATED NORMALLY****
TOTAL RUN TIME: 0 days 0 hours 5 minutes 27 seconds 668 msec
