                         Program Version 4.2.0 -  RELEASE  -
|  1> # ORCA input file
|  2> # SCF done       -174.419382965759          0.000426825169
|  3> ! CAM-B3LYP def2-SVP def2/J RIJCOSX Grid4 TightSCF
|  4> %maxcore 5000
|  5> %tddft
|  6>     Mode sTDDFT
|  7>     Ethresh 5.0
|  8>     maxcore 5000
|  9> end
| 10>
| 11> %pal
| 12>   nprocs 6
| 13>   end
| 14> * xyz 0 1
| 15>    C        7.60430       -15.47370        -0.31936
| 16>    C        8.15300       -14.26052        -0.45289
| 17>    C        9.54369       -13.93014        -0.59163
| 18>    C        9.79428       -12.61431        -0.75493
| 19>    C        8.63174       -11.78985        -0.76126
| 20>    S        7.19705       -12.76829        -0.50265
| 21>    C        8.56369       -10.44245        -1.00070
| 22>    C        9.62065        -9.56863        -1.37608
| 23>    C        9.21200        -8.32483        -1.72003
| 24>    C        7.80168        -8.12035        -1.64010
| 25>    S        7.03626        -9.57209        -0.99465
| 26>    C        7.12193        -7.05958        -2.15174
| 27>    C        5.69828        -6.95237        -2.23618
| 28>    S        5.05686        -6.32460        -3.65527
| 29>    C        4.85107        -7.38469        -1.20089
| 30>    C        3.49257        -7.40258        -1.34236
| 31>    S        2.65597        -7.08508        -2.83618
| 32>    C        1.17254        -7.53493        -2.02923
| 33>    C        1.36530        -7.79555        -0.71633
| 34>    O        2.67564        -7.70809        -0.33279
| 35>    C        0.39744        -8.07827         0.30341
| 36>    C       -0.75327        -8.75035         0.06253
| 37>    C       -1.74779        -9.04653         1.02434
| 38>    C       -2.59865       -10.11098         0.88442
| 39>    C       -3.61956       -10.56857         1.75752
| 40>    C       -4.12281       -11.79575         1.44046
| 41>    C       -3.50315       -12.39148         0.31894
| 42>    S       -2.37729       -11.27357        -0.41698
| 43>    C       -3.50898       -13.70375        -0.11793
| 44>    C       -4.19759       -14.84434         0.34433
| 45>    C       -3.71579       -16.01706        -0.16364
| 46>    C       -2.59675       -15.86750        -1.02201
| 47>    S       -2.29970       -14.16915        -1.29778
| 48>    C       -1.73982       -16.85543        -1.45882
| 49>    C       -0.47853       -16.63807        -2.02864
| 50>    S        0.09730       -15.04964        -2.42681
| 51>    C        1.71293       -15.63753        -2.74857
| 52>    C        1.76822       -17.03005        -2.58325
| 53>    C        0.54442       -17.58460        -2.22454
| 54>    C        0.34890       -19.05491        -2.02212
| 55>    C        1.49322       -19.83754        -2.65899
| 56>    C        2.83997       -19.26347        -2.19278
| 57>    N        3.99886       -20.05003        -2.56957
| 58>    C        3.00796       -17.84649        -2.74920
| 59>    C        2.64705       -14.63883        -3.05243
| 60>    C        3.99732       -14.71463        -3.27782
| 61>    C        4.72206       -13.53198        -3.47594
| 62>    C        6.08648       -13.44152        -3.62364
| 63>    C        6.84363       -12.23226        -3.83494
| 64>    C        6.36570       -10.94481        -3.91693
| 65>    C        7.16889        -9.84580        -4.27703
| 66>    N        7.78163        -8.92436        -4.58592
| 67>    C        5.05057       -10.52854        -3.63331
| 68>    N        4.01864       -10.09615        -3.36940
| 69>    C        8.25421       -12.60362        -3.92186
| 70>    C        8.36448       -14.00638        -3.77361
| 71>    C        7.01413       -14.58523        -3.59924
| 72>    O        6.75669       -15.76503        -3.45428
| 73>    C        9.57208       -14.65827        -3.75196
| 74>    C       10.73273       -13.88562        -3.86201
| 75>    C       10.61264       -12.48428        -3.99612
| 76>    C        9.39056       -11.82623        -4.03779
| 77>    S       12.16953       -11.71267        -4.06837
| 78>    C       12.94933       -13.26681        -3.92577
| 79>    C       12.09071       -14.30826        -3.82900
| 80>   Br       14.82409       -13.36509        -3.91177
| 81>    H        8.21770       -16.35678        -0.30932
| 82>    H        6.54161       -15.60760        -0.23725
| 83>    H       10.29335       -14.70113        -0.56727
| 84>    H       10.77678       -12.19234        -0.87292
| 85>    H       10.64226        -9.90318        -1.41241
| 86>    H        9.86033        -7.54164        -2.06967
| 87>    H        7.69261        -6.32083        -2.69694
| 88>    H        5.26821        -7.66249        -0.24515
| 89>    H        0.23787        -7.51891        -2.54871
| 90>    H        0.66171        -7.77495         1.30666
| 91>    H       -0.90754        -9.16312        -0.92715
| 92>    H       -1.79980        -8.45762         1.92950
| 93>    H       -3.93053        -9.98600         2.60696
| 94>    H       -4.88039       -12.30742         2.00736
| 95>    H       -5.00299       -14.77734         1.05414
| 96>    H       -4.09081       -16.99005         0.10192
| 97>    H       -2.01101       -17.87777        -1.23350
| 98>    H       -0.60566       -19.36609        -2.45375
| 99>    H        0.31101       -19.27069        -0.94876
|100>    H        1.42890       -19.76791        -3.74802
|101>    H        1.41815       -20.89182        -2.38096
|102>    H        2.83405       -19.21600        -1.09629
|103>    H        4.06082       -20.13292        -3.57895
|104>    H        3.94164       -20.98477        -2.18158
|105>    H        3.26323       -17.90626        -3.81235
|106>    H        3.84853       -17.36868        -2.24528
|107>    H        2.21778       -13.64137        -3.07283
|108>    H        4.52919       -15.65058        -3.28579
|109>    H        4.15053       -12.61244        -3.49450
|110>    H        9.61971       -15.72970        -3.63606
|111>    H        9.35719       -10.75487        -4.14048
|112>    H       12.39988       -15.33344        -3.73624
|113> *
|114>
|115>                          ****END OF INPUT****

CARTESIAN COORDINATES (ANGSTROEM)
---------------------------------
  C      7.604300  -15.473700   -0.319360
  C      8.153000  -14.260520   -0.452890
  C      9.543690  -13.930140   -0.591630
  C      9.794280  -12.614310   -0.754930
  C      8.631740  -11.789850   -0.761260
  S      7.197050  -12.768290   -0.502650
  C      8.563690  -10.442450   -1.000700
  C      9.620650   -9.568630   -1.376080
  C      9.212000   -8.324830   -1.720030
  C      7.801680   -8.120350   -1.640100
  S      7.036260   -9.572090   -0.994650
  C      7.121930   -7.059580   -2.151740
  C      5.698280   -6.952370   -2.236180
  S      5.056860   -6.324600   -3.655270
  C      4.851070   -7.384690   -1.200890
  C      3.492570   -7.402580   -1.342360
  S      2.655970   -7.085080   -2.836180
  C      1.172540   -7.534930   -2.029230
  C      1.365300   -7.795550   -0.716330
  O      2.675640   -7.708090   -0.332790
  C      0.397440   -8.078270    0.303410
  C     -0.753270   -8.750350    0.062530
  C     -1.747790   -9.046530    1.024340
  C     -2.598650  -10.110980    0.884420
  C     -3.619560  -10.568570    1.757520
  C     -4.122810  -11.795750    1.440460
  C     -3.503150  -12.391480    0.318940
  S     -2.377290  -11.273570   -0.416980
  C     -3.508980  -13.703750   -0.117930
  C     -4.197590  -14.844340    0.344330
  C     -3.715790  -16.017060   -0.163640
  C     -2.596750  -15.867500   -1.022010
  S     -2.299700  -14.169150   -1.297780
  C     -1.739820  -16.855430   -1.458820
  C     -0.478530  -16.638070   -2.028640
  S      0.097300  -15.049640   -2.426810
  C      1.712930  -15.637530   -2.748570
  C      1.768220  -17.030050   -2.583250
  C      0.544420  -17.584600   -2.224540
  C      0.348900  -19.054910   -2.022120
  C      1.493220  -19.837540   -2.658990
  C      2.839970  -19.263470   -2.192780
  N      3.998860  -20.050030   -2.569570
  C      3.007960  -17.846490   -2.749200
  C      2.647050  -14.638830   -3.052430
  C      3.997320  -14.714630   -3.277820
  C      4.722060  -13.531980   -3.475940
  C      6.086480  -13.441520   -3.623640
  C      6.843630  -12.232260   -3.834940
  C      6.365700  -10.944810   -3.916930
  C      7.168890   -9.845800   -4.277030
  N      7.781630   -8.924360   -4.585920
  C      5.050570  -10.528540   -3.633310
  N      4.018640  -10.096150   -3.369400
  C      8.254210  -12.603620   -3.921860
  C      8.364480  -14.006380   -3.773610
  C      7.014130  -14.585230   -3.599240
  O      6.756690  -15.765030   -3.454280
  C      9.572080  -14.658270   -3.751960
  C     10.732730  -13.885620   -3.862010
  C     10.612640  -12.484280   -3.996120
  C      9.390560  -11.826230   -4.037790
  S     12.169530  -11.712670   -4.068370
  C     12.949330  -13.266810   -3.925770
  C     12.090710  -14.308260   -3.829000
  Br    14.824090  -13.365090   -3.911770
  H      8.217700  -16.356780   -0.309320
  H      6.541610  -15.607600   -0.237250
  H     10.293350  -14.701130   -0.567270
  H     10.776780  -12.192340   -0.872920
  H     10.642260   -9.903180   -1.412410
  H      9.860330   -7.541640   -2.069670
  H      7.692610   -6.320830   -2.696940
  H      5.268210   -7.662490   -0.245150
  H      0.237870   -7.518910   -2.548710
  H      0.661710   -7.774950    1.306660
  H     -0.907540   -9.163120   -0.927150
  H     -1.799800   -8.457620    1.929500
  H     -3.930530   -9.986000    2.606960
  H     -4.880390  -12.307420    2.007360
  H     -5.002990  -14.777340    1.054140
  H     -4.090810  -16.990050    0.101920
  H     -2.011010  -17.877770   -1.233500
  H     -0.605660  -19.366090   -2.453750
  H      0.311010  -19.270690   -0.948760
  H      1.428900  -19.767910   -3.748020
  H      1.418150  -20.891820   -2.380960
  H      2.834050  -19.216000   -1.096290
  H      4.060820  -20.132920   -3.578950
  H      3.941640  -20.984770   -2.181580
  H      3.263230  -17.906260   -3.812350
  H      3.848530  -17.368680   -2.245280
  H      2.217780  -13.641370   -3.072830
  H      4.529190  -15.650580   -3.285790
  H      4.150530  -12.612440   -3.494500
  H      9.619710  -15.729700   -3.636060
  H      9.357190  -10.754870   -4.140480
  H     12.399880  -15.333440   -3.736240

 Total Charge           Charge          ....    0
 Multiplicity           Mult            ....    1
 Number of Electrons    NEL             ....  544
 Basis Dimension        Dim             .... 1134

ORBITAL ENERGIES
----------------

  NO   OCC          E(Eh)            E(eV)
   0   2.0000    -482.878043    -13139.7796
   1   2.0000     -88.965423     -2420.8722
   2   2.0000     -88.952580     -2420.5228
   3   2.0000     -88.951853     -2420.5030
   4   2.0000     -88.950075     -2420.4546
   5   2.0000     -88.948369     -2420.4082
   6   2.0000     -88.930630     -2419.9255
   7   2.0000     -88.930289     -2419.9162
   8   2.0000     -88.848837     -2417.6998
   9   2.0000     -62.555725     -1702.2278
  10   2.0000     -56.389659     -1534.4406
  11   2.0000     -56.386974     -1534.3676
  12   2.0000     -56.386940     -1534.3667
  13   2.0000     -19.288935      -524.8786
  14   2.0000     -19.194895      -522.3197
  15   2.0000     -14.394246      -391.6873
  16   2.0000     -14.391446      -391.6112
  17   2.0000     -14.378820      -391.2676
  18   2.0000     -10.358890      -281.8797
  19   2.0000     -10.348527      -281.5977
  20   2.0000     -10.344394      -281.4853
  21   2.0000     -10.336866      -281.2804
  22   2.0000     -10.321269      -280.8560
  23   2.0000     -10.316271      -280.7200
  24   2.0000     -10.315687      -280.7041
  25   2.0000     -10.315208      -280.6911
  26   2.0000     -10.313765      -280.6518
  27   2.0000     -10.313231      -280.6373
  28   2.0000     -10.310780      -280.5706
  29   2.0000     -10.307584      -280.4836
  30   2.0000     -10.299242      -280.2566
  31   2.0000     -10.297831      -280.2182
  32   2.0000     -10.297270      -280.2030
  33   2.0000     -10.296277      -280.1759
  34   2.0000     -10.295527      -280.1555
  35   2.0000     -10.295520      -280.1553
  36   2.0000     -10.294892      -280.1382
  37   2.0000     -10.294663      -280.1320
  38   2.0000     -10.293905      -280.1114
  39   2.0000     -10.293826      -280.1092
  40   2.0000     -10.293753      -280.1073
  41   2.0000     -10.293148      -280.0908
  42   2.0000     -10.292379      -280.0699
  43   2.0000     -10.291310      -280.0408
  44   2.0000     -10.290566      -280.0205
  45   2.0000     -10.289255      -279.9849
  46   2.0000     -10.289245      -279.9846
  47   2.0000     -10.289127      -279.9814
  48   2.0000     -10.288945      -279.9764
  49   2.0000     -10.288457      -279.9631
  50   2.0000     -10.287378      -279.9338
  51   2.0000     -10.286898      -279.9207
  52   2.0000     -10.285231      -279.8754
  53   2.0000     -10.283798      -279.8364
  54   2.0000     -10.283228      -279.8208
  55   2.0000     -10.279408      -279.7169
  56   2.0000     -10.278731      -279.6985
  57   2.0000     -10.277329      -279.6603
  58   2.0000     -10.275764      -279.6178
  59   2.0000     -10.275640      -279.6144
  60   2.0000     -10.274406      -279.5808
  61   2.0000     -10.273429      -279.5542
  62   2.0000     -10.271366      -279.4981
  63   2.0000     -10.268185      -279.4115
  64   2.0000     -10.266070      -279.3540
  65   2.0000     -10.263479      -279.2835
  66   2.0000     -10.262884      -279.2673
  67   2.0000     -10.260439      -279.2008
  68   2.0000     -10.258652      -279.1521
  69   2.0000     -10.248838      -278.8851
  70   2.0000      -8.785126      -239.0554
  71   2.0000      -8.061229      -219.3572
  72   2.0000      -8.048105      -219.0001
  73   2.0000      -8.046589      -218.9588
  74   2.0000      -8.045032      -218.9164
  75   2.0000      -8.043930      -218.8865
  76   2.0000      -8.026085      -218.4009
  77   2.0000      -8.025544      -218.3861
  78   2.0000      -7.946034      -216.2226
  79   2.0000      -6.621348      -180.1760
  80   2.0000      -6.606886      -179.7825
  81   2.0000      -6.606730      -179.7783
  82   2.0000      -6.030930      -164.1100
  83   2.0000      -6.026681      -163.9943
  84   2.0000      -6.022461      -163.8795
  85   2.0000      -6.017249      -163.7377
  86   2.0000      -6.016299      -163.7118
  87   2.0000      -6.014785      -163.6706
  88   2.0000      -6.013826      -163.6445
  89   2.0000      -6.013203      -163.6276
  90   2.0000      -6.012022      -163.5954
  91   2.0000      -6.010741      -163.5606
  92   2.0000      -6.010295      -163.5484
  93   2.0000      -6.008884      -163.5100
  94   2.0000      -6.007580      -163.4746
  95   2.0000      -6.005794      -163.4260
  96   2.0000      -6.005723      -163.4240
  97   2.0000      -5.995924      -163.1574
  98   2.0000      -5.995464      -163.1449
  99   2.0000      -5.992037      -163.0516
 100   2.0000      -5.991324      -163.0322
 101   2.0000      -5.986700      -162.9064
 102   2.0000      -5.986365      -162.8973
 103   2.0000      -5.915023      -160.9559
 104   2.0000      -5.912353      -160.8833
 105   2.0000      -5.907050      -160.7390
 106   2.0000      -2.737217       -74.4835
 107   2.0000      -2.733168       -74.3733
 108   2.0000      -2.733054       -74.3702
 109   2.0000      -2.721563       -74.0575
 110   2.0000      -2.721526       -74.0565
 111   2.0000      -1.208461       -32.8839
 112   2.0000      -1.107736       -30.1430
 113   2.0000      -1.007416       -27.4132
 114   2.0000      -1.004767       -27.3411
 115   2.0000      -0.993625       -27.0379
 116   2.0000      -0.992920       -27.0187
 117   2.0000      -0.979933       -26.6653
 118   2.0000      -0.979077       -26.6420
 119   2.0000      -0.971774       -26.4433
 120   2.0000      -0.969979       -26.3945
 121   2.0000      -0.968226       -26.3468
 122   2.0000      -0.956905       -26.0387
 123   2.0000      -0.929318       -25.2880
 124   2.0000      -0.927878       -25.2488
 125   2.0000      -0.922996       -25.1160
 126   2.0000      -0.911547       -24.8045
 127   2.0000      -0.903135       -24.5756
 128   2.0000      -0.897002       -24.4087
 129   2.0000      -0.892884       -24.2966
 130   2.0000      -0.886850       -24.1324
 131   2.0000      -0.881293       -23.9812
 132   2.0000      -0.870542       -23.6887
 133   2.0000      -0.866682       -23.5836
 134   2.0000      -0.861519       -23.4431
 135   2.0000      -0.857136       -23.3239
 136   2.0000      -0.844878       -22.9903
 137   2.0000      -0.837123       -22.7793
 138   2.0000      -0.833595       -22.6833
 139   2.0000      -0.828992       -22.5580
 140   2.0000      -0.824460       -22.4347
 141   2.0000      -0.818231       -22.2652
 142   2.0000      -0.814173       -22.1548
 143   2.0000      -0.806637       -21.9497
 144   2.0000      -0.803846       -21.8737
 145   2.0000      -0.795427       -21.6447
 146   2.0000      -0.778113       -21.1735
 147   2.0000      -0.766478       -20.8569
 148   2.0000      -0.758777       -20.6474
 149   2.0000      -0.747367       -20.3369
 150   2.0000      -0.738749       -20.1024
 151   2.0000      -0.729589       -19.8531
 152   2.0000      -0.717653       -19.5283
 153   2.0000      -0.714108       -19.4319
 154   2.0000      -0.705753       -19.2045
 155   2.0000      -0.698872       -19.0173
 156   2.0000      -0.693659       -18.8754
 157   2.0000      -0.677889       -18.4463
 158   2.0000      -0.675151       -18.3718
 159   2.0000      -0.670393       -18.2423
 160   2.0000      -0.666363       -18.1327
 161   2.0000      -0.661257       -17.9937
 162   2.0000      -0.647184       -17.6108
 163   2.0000      -0.642815       -17.4919
 164   2.0000      -0.642351       -17.4793
 165   2.0000      -0.639690       -17.4068
 166   2.0000      -0.636353       -17.3160
 167   2.0000      -0.631540       -17.1851
 168   2.0000      -0.626216       -17.0402
 169   2.0000      -0.620352       -16.8806
 170   2.0000      -0.614524       -16.7221
 171   2.0000      -0.608035       -16.5455
 172   2.0000      -0.603362       -16.4183
 173   2.0000      -0.600362       -16.3367
 174   2.0000      -0.598757       -16.2930
 175   2.0000      -0.591364       -16.0918
 176   2.0000      -0.589380       -16.0378
 177   2.0000      -0.586084       -15.9481
 178   2.0000      -0.578239       -15.7347
 179   2.0000      -0.571102       -15.5405
 180   2.0000      -0.563685       -15.3386
 181   2.0000      -0.559865       -15.2347
 182   2.0000      -0.558588       -15.2000
 183   2.0000      -0.554093       -15.0776
 184   2.0000      -0.547514       -14.8986
 185   2.0000      -0.545134       -14.8338
 186   2.0000      -0.539586       -14.6829
 187   2.0000      -0.537721       -14.6321
 188   2.0000      -0.534850       -14.5540
 189   2.0000      -0.531027       -14.4500
 190   2.0000      -0.529037       -14.3958
 191   2.0000      -0.525934       -14.3114
 192   2.0000      -0.518299       -14.1036
 193   2.0000      -0.514372       -13.9968
 194   2.0000      -0.511768       -13.9259
 195   2.0000      -0.509266       -13.8578
 196   2.0000      -0.507699       -13.8152
 197   2.0000      -0.507315       -13.8047
 198   2.0000      -0.501359       -13.6427
 199   2.0000      -0.501215       -13.6388
 200   2.0000      -0.496939       -13.5224
 201   2.0000      -0.496609       -13.5134
 202   2.0000      -0.494164       -13.4469
 203   2.0000      -0.491319       -13.3695
 204   2.0000      -0.489938       -13.3319
 205   2.0000      -0.487465       -13.2646
 206   2.0000      -0.486193       -13.2300
 207   2.0000      -0.483520       -13.1573
 208   2.0000      -0.481330       -13.0977
 209   2.0000      -0.479790       -13.0558
 210   2.0000      -0.478630       -13.0242
 211   2.0000      -0.476203       -12.9582
 212   2.0000      -0.471905       -12.8412
 213   2.0000      -0.471036       -12.8175
 214   2.0000      -0.468961       -12.7611
 215   2.0000      -0.468722       -12.7546
 216   2.0000      -0.465270       -12.6606
 217   2.0000      -0.464522       -12.6403
 218   2.0000      -0.453959       -12.3528
 219   2.0000      -0.452914       -12.3244
 220   2.0000      -0.449167       -12.2225
 221   2.0000      -0.445984       -12.1358
 222   2.0000      -0.443048       -12.0559
 223   2.0000      -0.442952       -12.0533
 224   2.0000      -0.440342       -11.9823
 225   2.0000      -0.439578       -11.9615
 226   2.0000      -0.435129       -11.8405
 227   2.0000      -0.433696       -11.8015
 228   2.0000      -0.430808       -11.7229
 229   2.0000      -0.425654       -11.5826
 230   2.0000      -0.424966       -11.5639
 231   2.0000      -0.423654       -11.5282
 232   2.0000      -0.422013       -11.4835
 233   2.0000      -0.420181       -11.4337
 234   2.0000      -0.416902       -11.3445
 235   2.0000      -0.414684       -11.2841
 236   2.0000      -0.413827       -11.2608
 237   2.0000      -0.411433       -11.1957
 238   2.0000      -0.408499       -11.1158
 239   2.0000      -0.404652       -11.0111
 240   2.0000      -0.402323       -10.9478
 241   2.0000      -0.397965       -10.8292
 242   2.0000      -0.395676       -10.7669
 243   2.0000      -0.392965       -10.6931
 244   2.0000      -0.389000       -10.5852
 245   2.0000      -0.387892       -10.5551
 246   2.0000      -0.382815       -10.4169
 247   2.0000      -0.380955       -10.3663
 248   2.0000      -0.379433       -10.3249
 249   2.0000      -0.375967       -10.2306
 250   2.0000      -0.367696       -10.0055
 251   2.0000      -0.367041        -9.9877
 252   2.0000      -0.363990        -9.9047
 253   2.0000      -0.352784        -9.5997
 254   2.0000      -0.345101        -9.3907
 255   2.0000      -0.339998        -9.2518
 256   2.0000      -0.329016        -8.9530
 257   2.0000      -0.323393        -8.8000
 258   2.0000      -0.318522        -8.6674
 259   2.0000      -0.315064        -8.5733
 260   2.0000      -0.311004        -8.4628
 261   2.0000      -0.306029        -8.3275
 262   2.0000      -0.302039        -8.2189
 263   2.0000      -0.300998        -8.1906
 264   2.0000      -0.299728        -8.1560
 265   2.0000      -0.285080        -7.7574
 266   2.0000      -0.276038        -7.5114
 267   2.0000      -0.259894        -7.0721
 268   2.0000      -0.242256        -6.5921
 269   2.0000      -0.241673        -6.5762
 270   2.0000      -0.212231        -5.7751
 271   2.0000      -0.210597        -5.7306
 272   0.0000      -0.096175        -2.6171
 273   0.0000      -0.064533        -1.7560
 274   0.0000      -0.055858        -1.5200
 275   0.0000      -0.041630        -1.1328
 276   0.0000      -0.020170        -0.5489

MULLIKEN ATOMIC CHARGES
-----------------------
   0 C :    0.005778
   1 C :   -0.101967
   2 C :    0.075712
   3 C :    0.039070
   4 C :   -0.072858
   5 S :    0.072302
   6 C :   -0.064998
   7 C :    0.023274
   8 C :    0.066296
   9 C :   -0.043485
  10 S :    0.066826
  11 C :    0.061866
  12 C :   -0.107179
  13 S :   -0.207821
  14 C :   -0.026537
  15 C :    0.127015
  16 S :    0.181127
  17 C :   -0.111769
  18 C :    0.188657
  19 O :   -0.187429
  20 C :    0.008347
  21 C :   -0.006418
  22 C :   -0.001764
  23 C :   -0.030518
  24 C :    0.043790
  25 C :    0.031458
  26 C :   -0.041705
  27 S :    0.072072
  28 C :   -0.039833
  29 C :    0.033859
  30 C :    0.031768
  31 C :   -0.037181
  32 S :    0.064416
  33 C :   -0.009904
  34 C :   -0.081309
  35 S :    0.100897
  36 C :   -0.110981
  37 C :   -0.025458
  38 C :   -0.124498
  39 C :    0.135746
  40 C :    0.066255
  41 C :   -0.074041
  42 N :   -0.159841
  43 C :    0.150693
  44 C :    0.070134
  45 C :   -0.052115
  46 C :   -0.047096
  47 C :   -0.058041
  48 C :    0.340276
  49 C :   -0.375056
  50 C :   -0.170375
  51 N :    0.135100
  52 C :   -0.181557
  53 N :    0.145306
  54 C :    0.034484
  55 C :   -0.007214
  56 C :    0.144567
  57 O :   -0.164766
  58 C :   -0.079769
  59 C :    0.124548
  60 C :   -0.103394
  61 C :   -0.026359
  62 S :    0.164235
  63 C :   -0.123949
  64 C :    0.029555
  65 Br:    0.011763
  66 H :    0.016849
  67 H :    0.020735
  68 H :   -0.018576
  69 H :   -0.012632
  70 H :   -0.019425
  71 H :   -0.009563
  72 H :    0.004798
  73 H :    0.001085
  74 H :    0.028216
  75 H :    0.009238
  76 H :    0.017856
  77 H :   -0.003813
  78 H :   -0.005437
  79 H :   -0.007109
  80 H :   -0.009809
  81 H :   -0.010900
  82 H :   -0.012880
  83 H :    0.013562
  84 H :    0.011076
  85 H :   -0.005703
  86 H :   -0.013299
  87 H :   -0.003557
  88 H :    0.087716
  89 H :    0.086467
  90 H :    0.014574
  91 H :    0.046015
  92 H :    0.002464
  93 H :    0.022816
  94 H :   -0.000010
  95 H :   -0.020905
  96 H :   -0.011132
  97 H :   -0.008723
Sum of atomic charges:   -0.0000000

LOEWDIN ATOMIC CHARGES
----------------------
   0 C :   -0.063949
   1 C :   -0.146975
   2 C :   -0.028088
   3 C :   -0.027448
   4 C :   -0.179373
   5 S :    0.360974
   6 C :   -0.186663
   7 C :   -0.035994
   8 C :   -0.020265
   9 C :   -0.134274
  10 S :    0.386294
  11 C :   -0.059437
  12 C :   -0.141849
  13 S :   -0.032204
  14 C :   -0.161034
  15 C :   -0.036886
  16 S :    0.463303
  17 C :   -0.209185
  18 C :    0.010807
  19 O :   -0.004066
  20 C :   -0.021350
  21 C :   -0.026702
  22 C :   -0.043909
  23 C :   -0.143242
  24 C :   -0.024726
  25 C :   -0.030988
  26 C :   -0.163929
  27 S :    0.376249
  28 C :   -0.187333
  29 C :   -0.033632
  30 C :   -0.035945
  31 C :   -0.144941
  32 S :    0.385633
  33 C :   -0.081934
  34 C :   -0.159225
  35 S :    0.444040
  36 C :   -0.189085
  37 C :   -0.029417
  38 C :   -0.062850
  39 C :   -0.027438
  40 C :   -0.042186
  41 C :    0.011995
  42 N :   -0.099647
  43 C :   -0.023674
  44 C :    0.008904
  45 C :   -0.053349
  46 C :    0.063808
  47 C :   -0.112015
  48 C :    0.071279
  49 C :   -0.151390
  50 C :   -0.016386
  51 N :   -0.061516
  52 C :   -0.018856
  53 N :   -0.071116
  54 C :   -0.013182
  55 C :   -0.044396
  56 C :    0.083133
  57 O :   -0.158409
  58 C :    0.016157
  59 C :   -0.038299
  60 C :   -0.147652
  61 C :   -0.010814
  62 S :    0.416969
  63 C :   -0.278266
  64 C :   -0.071704
  65 Br:    0.126847
  66 H :    0.028699
  67 H :    0.026765
  68 H :    0.030762
  69 H :    0.030551
  70 H :    0.027571
  71 H :    0.035659
  72 H :    0.039295
  73 H :    0.028932
  74 H :    0.028327
  75 H :    0.037046
  76 H :    0.025878
  77 H :    0.035614
  78 H :    0.035531
  79 H :    0.034073
  80 H :    0.032968
  81 H :    0.033073
  82 H :    0.036519
  83 H :    0.030071
  84 H :    0.031016
  85 H :    0.019493
  86 H :    0.018130
  87 H :    0.019590
  88 H :    0.051168
  89 H :    0.052027
  90 H :    0.035478
  91 H :    0.042649
  92 H :    0.033844
  93 H :    0.029688
  94 H :    0.038953
  95 H :    0.036286
  96 H :    0.038488
  97 H :    0.036657

  Mayer bond orders larger than 0.100000
B(  0-C ,  1-C ) :   1.8741 B(  0-C , 66-H ) :   0.9492 B(  0-C , 67-H ) :   0.9362
B(  1-C ,  2-C ) :   1.0709 B(  1-C ,  5-S ) :   1.0058 B(  2-C ,  3-C ) :   1.6712
B(  2-C , 68-H ) :   0.9898 B(  3-C ,  4-C ) :   1.1438 B(  3-C , 69-H ) :   0.9863
B(  4-C ,  5-S ) :   1.0397 B(  4-C ,  6-C ) :   1.5785 B(  6-C ,  7-C ) :   1.1445
B(  6-C , 10-S ) :   1.0291 B(  7-C ,  8-C ) :   1.6319 B(  7-C , 70-H ) :   0.9939
B(  8-C ,  9-C ) :   1.1071 B(  8-C , 71-H ) :   0.9962 B(  9-C , 10-S ) :   1.0277
B(  9-C , 11-C ) :   1.6550 B( 11-C , 12-C ) :   1.0834 B( 11-C , 72-H ) :   0.9540
B( 12-C , 13-S ) :   1.4754 B( 12-C , 14-C ) :   1.2539 B( 13-S , 16-S ) :   0.2476
B( 14-C , 15-C ) :   1.4952 B( 14-C , 73-H ) :   0.9557 B( 15-C , 16-S ) :   1.1513
B( 15-C , 19-O ) :   1.1572 B( 16-S , 17-C ) :   0.9882 B( 17-C , 18-C ) :   1.6732
B( 17-C , 74-H ) :   0.9614 B( 18-C , 19-O ) :   1.0468 B( 18-C , 20-C ) :   1.0730
B( 20-C , 21-C ) :   1.7086 B( 20-C , 75-H ) :   0.9667 B( 21-C , 22-C ) :   1.1320
B( 21-C , 76-H ) :   0.9612 B( 22-C , 23-C ) :   1.6017 B( 22-C , 77-H ) :   0.9833
B( 23-C , 24-C ) :   1.1361 B( 23-C , 27-S ) :   1.0291 B( 24-C , 25-C ) :   1.5998
B( 24-C , 78-H ) :   0.9979 B( 25-C , 26-C ) :   1.1860 B( 25-C , 79-H ) :   0.9952
B( 26-C , 27-S ) :   1.0644 B( 26-C , 28-C ) :   1.4927 B( 28-C , 29-C ) :   1.1920
B( 28-C , 32-S ) :   1.0392 B( 29-C , 30-C ) :   1.5854 B( 29-C , 80-H ) :   0.9949
B( 30-C , 31-C ) :   1.1558 B( 30-C , 81-H ) :   0.9980 B( 31-C , 32-S ) :   1.0645
B( 31-C , 33-C ) :   1.5174 B( 33-C , 34-C ) :   1.2273 B( 33-C , 82-H ) :   0.9654
B( 34-C , 35-S ) :   1.1241 B( 34-C , 38-C ) :   1.3718 B( 35-S , 36-C ) :   1.0981
B( 36-C , 37-C ) :   1.3763 B( 36-C , 44-C ) :   1.1948 B( 37-C , 38-C ) :   1.4292
B( 37-C , 43-C ) :   1.0342 B( 38-C , 39-C ) :   1.0519 B( 39-C , 40-C ) :   1.0781
B( 39-C , 83-H ) :   0.9140 B( 39-C , 84-H ) :   0.8999 B( 40-C , 41-C ) :   1.0284
B( 40-C , 85-H ) :   0.9298 B( 40-C , 86-H ) :   0.9291 B( 41-C , 42-N ) :   1.1118
B( 41-C , 43-C ) :   1.0425 B( 41-C , 87-H ) :   0.9232 B( 42-N , 88-H ) :   0.9683
B( 42-N , 89-H ) :   0.9696 B( 43-C , 90-H ) :   0.9012 B( 43-C , 91-H ) :   0.9070
B( 44-C , 45-C ) :   1.4877 B( 44-C , 92-H ) :   0.9524 B( 45-C , 46-C ) :   1.2222
B( 45-C , 93-H ) :   0.9803 B( 46-C , 47-C ) :   1.4550 B( 46-C , 94-H ) :   0.9644
B( 47-C , 48-C ) :   1.0904 B( 47-C , 56-C ) :   0.9692 B( 48-C , 49-C ) :   1.6110
B( 48-C , 54-C ) :   0.9919 B( 49-C , 50-C ) :   1.1622 B( 49-C , 52-C ) :   1.1551
B( 50-C , 51-N ) :   2.8888 B( 52-C , 53-N ) :   2.9506 B( 54-C , 55-C ) :   1.2911
B( 54-C , 61-C ) :   1.4085 B( 55-C , 56-C ) :   0.9392 B( 55-C , 58-C ) :   1.4172
B( 56-C , 57-O ) :   2.1673 B( 58-C , 59-C ) :   1.2343 B( 58-C , 95-H ) :   1.0208
B( 59-C , 60-C ) :   1.3169 B( 59-C , 64-C ) :   1.1552 B( 60-C , 61-C ) :   1.3273
B( 60-C , 62-S ) :   1.0745 B( 61-C , 96-H ) :   0.9744 B( 62-S , 63-C ) :   1.0777
B( 63-C , 64-C ) :   1.6200 B( 63-C , 65-Br) :   1.0111 B( 64-C , 97-H ) :   1.0028

-----------------------------------------------------------------------------
         ABSORPTION SPECTRUM VIA TRANSITION ELECTRIC DIPOLE MOMENTS
-----------------------------------------------------------------------------
State   Energy  Wavelength   fosc         T2         TX        TY        TZ
        (cm-1)    (nm)                  (au**2)     (au)      (au)      (au)
-----------------------------------------------------------------------------
   0   10849.6    921.7   0.187451597   5.68790   1.43109  -1.41116  -1.28395
   1   11329.6    882.6   0.250701714   7.28482  -2.25475   1.07607   1.02128
   2   16552.3    604.1   0.025278725   0.50277   0.58961   0.34916  -0.18228
   3   17649.4    566.6   0.366410067   6.83462   2.30956  -1.21586  -0.14923
   4   18036.0    554.4   0.041311580   0.75406  -0.23626   0.60583   0.57551
   5   18879.6    529.7   0.554339803   9.66625   3.03327   0.63762  -0.24274
   6   19453.2    514.1   0.505377800   8.55264   0.97247   2.67761  -0.66131
   7   20100.7    497.5   0.158431212   2.59481   0.16534   1.60232  -0.00619
   8   20830.0    480.1   0.310263854   4.90362   0.57281  -2.13891  -0.02394
   9   21425.0    466.7   0.145090837   2.22944  -0.03007   1.26471  -0.79312
  10   22246.6    449.5   0.968003455  14.32479   2.23944   3.03578  -0.30613
  11   23779.0    420.5   0.278060017   3.84965  -1.63360  -1.08565   0.04872
  12   24322.2    411.1   0.113630056   1.53803   0.87806  -0.58193  -0.65453
  13   24429.1    409.3   0.030563954   0.41189   0.54684  -0.13607  -0.30714
  14   25327.3    394.8   0.056286829   0.73163   0.14052   0.58070  -0.61211
  15   25690.7    389.2   0.211131240   2.70553   1.49852   0.48029  -0.47884
  16   27037.7    369.9   0.419458226   5.10735   2.12962   0.39067  -0.64766
  17   27465.6    364.1   0.084318372   1.01067   0.16641  -0.97410  -0.18467
  18   27974.6    357.5   0.034416478   0.40502   0.24532   0.57150   0.13503
  19   28201.6    354.6   0.028356641   0.33102   0.19480  -0.39897   0.36592
  20   28345.1    352.8   0.004663433   0.05416  -0.06746  -0.22273  -0.00237
  21   28543.2    350.3   0.056004806   0.64595   0.60180  -0.53254  -0.01357
  22   28765.8    347.6   0.042908501   0.49107   0.55942  -0.12949  -0.40169
  23   29313.1    341.1   0.029246833   0.32847   0.40727   0.32145  -0.24346
  24   29879.1    334.7   0.026652133   0.29366  -0.39325   0.29361  -0.22979
  25   30061.6    332.6   0.002365500   0.02591   0.05415  -0.13699   0.06485
  26   30403.1    328.9   0.005706192   0.06179  -0.16572   0.18223  -0.03344
  27   30534.6    327.5   0.005854348   0.06312  -0.06466   0.21877   0.10525
  28   30683.8    325.9   0.001230715   0.01320   0.07707   0.08379   0.01562
  29   30934.7    323.3   0.067733172   0.72083  -0.70977  -0.11349   0.45186
  30   31248.8    320.0   0.003736577   0.03937   0.02173   0.18759   0.06085
  31   31451.4    318.0   0.001685131   0.01764  -0.10354  -0.06844   0.04726
  32   31603.3    316.4   0.018157569   0.18915  -0.31612  -0.29120  -0.06650
  33   31724.8    315.2   0.079838069   0.82849  -0.89466  -0.08736  -0.14296
  34   31940.8    313.1   0.004061224   0.04186  -0.05063   0.19558   0.03233
  35   32378.3    308.8   0.034294340   0.34869   0.55630  -0.19802   0.00227
  36   32694.0    305.9   0.310899976   3.13060   1.55020  -0.84763   0.09489
  37   33111.9    302.0   0.012743275   0.12670  -0.31809   0.11290   0.11302
  38   33403.6    299.4   0.015534993   0.15311  -0.28859  -0.19958   0.17317
  39   33627.6    297.4   0.069718822   0.68254  -0.27946  -0.76586   0.13378
  40   33931.0    294.7   0.083229762   0.80753   0.87300   0.08484   0.19543
  41   34078.1    293.4   0.040166084   0.38803  -0.54496  -0.21993   0.20657
  42   34291.1    291.6   0.000094702   0.00091   0.00200  -0.02967   0.00498
  43   34449.3    290.3   0.131282733   1.25459  -0.89942   0.66739  -0.01500
  44   34655.4    288.6   0.030325210   0.28808  -0.30367   0.06622   0.43758
  45   34980.7    285.9   0.004016053   0.03780  -0.12416   0.09656  -0.11426
  46   35103.2    284.9   0.059331947   0.55644  -0.54766   0.50585  -0.02482
  47   35376.5    282.7   0.041328774   0.38460  -0.14389  -0.60163   0.04404
  48   35566.8    281.2   0.058888118   0.54508   0.65402  -0.12691   0.31817
  49   35958.8    278.1   0.014571729   0.13341   0.34438  -0.07754  -0.09380
  50   36061.2    277.3   0.056360778   0.51453   0.12940  -0.69033   0.14572
  51   36157.7    276.6   0.089289912   0.81297   0.09135   0.89700  -0.00459
  52   36551.9    273.6   0.078694626   0.70878   0.65970  -0.31466  -0.41780
  53   36593.6    273.3   0.002468056   0.02220  -0.06743   0.12767   0.03682
  54   37030.8    270.0   0.063831071   0.56747   0.64235   0.23885   0.31275
  55   37419.1    267.2   0.114084413   1.00371  -0.16140  -0.98197  -0.11572
  56   37918.5    263.7   0.010930285   0.09490   0.22626  -0.09633   0.18554
  57   37943.4    263.6   0.027173519   0.23577  -0.32205  -0.36161  -0.03596
  58   38210.9    261.7   0.032196012   0.27739   0.05658  -0.36074   0.37954
  59   38297.8    261.1   0.004823552   0.04146   0.17616  -0.05421   0.08655
  60   38468.5    260.0   0.075028610   0.64209  -0.65898   0.43827   0.12553
  61   38561.0    259.3   0.078400091   0.66934  -0.37335  -0.60835   0.39982
  62   39018.1    256.3   0.089379077   0.75413   0.40106  -0.73160   0.24092
  63   39222.3    255.0   0.008470108   0.07109   0.12210  -0.23004   0.05715
  64   39386.2    253.9   0.130176293   1.08809   0.73784  -0.70754   0.20753
  65   39562.5    252.8   0.001639397   0.01364  -0.09508  -0.05135  -0.04434
  66   39717.1    251.8   0.004065795   0.03370   0.15415   0.04643   0.08821
  67   39948.6    250.3   0.014496385   0.11946   0.04545   0.12459  -0.31918
  68   40016.8    249.9   0.012676650   0.10429  -0.26217   0.18485   0.03727
  69   40049.1    249.7   0.004198498   0.03451   0.01431   0.10793  -0.15053

FINAL SINGLE POINT ENERGY     -8070.872726153331

DIPOLE MOMENT
-------------
                                X             Y             Z
Electronic contribution:    132.19594      41.87649     -33.02930
Nuclear contribution   :   -134.60079     -45.29054      35.31560
                        -----------------------------------------
Total Dipole Moment    :     -2.40485      -3.41405       2.28630
                        -----------------------------------------
Magnitude (a.u.)       :      4.76090
Magnitude (Debye)      :     12.10125

Rotational constants in cm-1:     0.001198     0.000508     0.000381
Rotational constants in MHz :    35.906098    15.236167    11.432673

                             ****ORCA TERMINATED NORMALLY****
TOTAL RUN TIME: 0 days 0 hours 11 minutes 41 seconds 457 msec
