                         Program Version 4.2.0 -  RELEASE  -
|  1> # ORCA input file
|  2> # SCF done       -173.280482827400          0.000498234469
|  3> ! CAM-B3LYP def2-SVP def2/J RIJCOSX Grid4 TightSCF
|  4> %maxcore 5000
|  5> %tddft
|  6>     Mode sTDDFT
|  7>     Ethresh 5.0
|  8>     maxcore 5000
|  9> end
| 10>
| 11> %pal
| 12>   nprocs 6
| 13>   end
| 14> * xyz 0 1
| 15>    C       -2.97987        -4.40029        -1.36511
| 16>    C       -1.79514        -4.03582        -0.85793
| 17>    C       -1.53516        -3.01640         0.11919
| 18>    C       -0.23219        -2.86813         0.44018
| 19>    C        0.64646        -3.75160        -0.24935
| 20>    S       -0.26359        -4.79050        -1.33256
| 21>    C        2.01101        -3.82849        -0.13613
| 22>    C        2.87466        -3.04726         0.67567
| 23>    C        4.19129        -3.35008         0.54930
| 24>    C        4.46027        -4.39664        -0.37318
| 25>    S        2.94300        -4.98672        -1.06723
| 26>    C        5.66921        -4.90783        -0.73545
| 27>    N        5.76299        -5.91361        -1.64559
| 28>    C        6.87130        -6.49669        -2.14014
| 29>    S        8.45249        -6.12558        -1.52785
| 30>    C        9.12346        -7.35240        -2.56487
| 31>    N       10.50105        -7.53429        -2.52243
| 32>    O       10.98996        -8.39035        -3.24196
| 33>    O       11.12580        -6.81308        -1.75555
| 34>    C        8.18079        -7.99968        -3.32111
| 35>    C        6.87977        -7.51115        -3.11654
| 36>    C        5.72939        -8.01863        -3.81253
| 37>    C        4.57324        -7.35743        -4.04490
| 38>    C        3.42632        -7.91336        -4.66064
| 39>    S        3.29994        -9.55319        -5.25507
| 40>    C        1.62872        -9.39075        -5.76847
| 41>    C        1.22404        -8.10755        -5.46735
| 42>    C        2.20779        -7.28771        -4.85928
| 43>    N        1.64423        -6.05697        -4.61401
| 44>    C        0.43988        -6.16605        -5.04454
| 45>    O        0.09155        -7.36457        -5.57975
| 46>    C        0.94325       -10.46942        -6.38596
| 47>    C       -0.32158       -10.36693        -6.84889
| 48>    C       -1.07259       -11.41734        -7.49005
| 49>    C       -2.20113       -11.11161        -8.28006
| 50>    C       -2.64374        -9.69710        -8.50339
| 51>    C       -2.88517       -12.14646        -8.87734
| 52>    C       -2.54705       -13.49859        -8.70504
| 53>    C       -1.40562       -13.80213        -7.93645
| 54>    C       -0.70541       -12.76020        -7.35911
| 55>    C       -0.88223       -15.19509        -7.76190
| 56>    C       -3.40406       -14.45990        -9.34981
| 57>    C       -3.67325       -15.73453        -8.97614
| 58>    C       -4.57292       -16.56014        -9.69361
| 59>    C       -4.90977       -17.82130        -9.30058
| 60>    C       -5.81528       -18.61338       -10.03228
| 61>    C       -6.21936       -19.87587        -9.68354
| 62>    C       -7.15499       -20.71583       -10.40243
| 63>    C       -7.80052       -20.42273       -11.57805
| 64>    C       -8.70443       -21.29127       -12.22367
| 65>    N       -9.45000       -21.94785       -12.79972
| 66>    C       -7.66678       -19.22993       -12.31759
| 67>    N       -7.61923       -18.29383       -12.98222
| 68>    C       -7.30223       -21.96004        -9.65241
| 69>    C       -6.47665       -21.90015        -8.50389
| 70>    C       -5.76752       -20.60442        -8.47669
| 71>    O       -4.98171       -20.23845        -7.62630
| 72>    C       -6.39689       -22.92407        -7.59233
| 73>    C       -7.17138       -24.06559        -7.82364
| 74>    C       -7.99375       -24.11766        -8.97362
| 75>    C       -8.07322       -23.08167        -9.89606
| 76>    S       -8.86873       -25.61681        -9.06595
| 77>    C       -8.12583       -26.14551        -7.57972
| 78>    C       -7.26826       -25.24777        -7.03950
| 79>   Br       -8.55695       -27.83099        -6.87827
| 80>    H       -3.88556        -3.91524        -1.04678
| 81>    H       -3.06710        -5.18457        -2.09452
| 82>    H       -2.34191        -2.44036         0.53645
| 83>    H        0.14044        -2.15344         1.15244
| 84>    H        2.49153        -2.28134         1.32549
| 85>    H        4.98627        -2.85957         1.08185
| 86>    H        6.59096        -4.52172        -0.32811
| 87>    H        4.87960        -6.29722        -1.97022
| 88>    H        8.43533        -8.78142        -4.01364
| 89>    H        5.82824        -9.02595        -4.19687
| 90>    H        4.44727        -6.31008        -3.80485
| 91>    H       -0.30406        -5.39476        -5.01424
| 92>    H        1.51306       -11.38088        -6.49149
| 93>    H       -0.81295        -9.40985        -6.74931
| 94>    H       -2.95552        -9.23801        -7.56546
| 95>    H       -3.48433        -9.66731        -9.19191
| 96>    H       -1.83462        -9.09969        -8.92063
| 97>    H       -3.74629       -11.91465        -9.48920
| 98>    H        0.16005       -13.00230        -6.76060
| 99>    H       -1.37439       -15.68995        -6.92451
|100>    H        0.18378       -15.16754        -7.54574
|101>    H       -1.04171       -15.79058        -8.65766
|102>    H       -3.94599       -14.07410       -10.20699
|103>    H       -3.24257       -16.15582        -8.08163
|104>    H       -5.01041       -16.15747       -10.59997
|105>    H       -4.48282       -18.23492        -8.39889
|106>    H       -6.21912       -18.17188       -10.93445
|107>    H       -5.75726       -22.84637        -6.72711
|108>    H       -8.71609       -23.17157       -10.75545
|109>    H       -6.72593       -25.41000        -6.12598
|110> *
|111>
|112>                          ****END OF INPUT****

CARTESIAN COORDINATES (ANGSTROEM)
---------------------------------
  C     -2.979870   -4.400290   -1.365110
  C     -1.795140   -4.035820   -0.857930
  C     -1.535160   -3.016400    0.119190
  C     -0.232190   -2.868130    0.440180
  C      0.646460   -3.751600   -0.249350
  S     -0.263590   -4.790500   -1.332560
  C      2.011010   -3.828490   -0.136130
  C      2.874660   -3.047260    0.675670
  C      4.191290   -3.350080    0.549300
  C      4.460270   -4.396640   -0.373180
  S      2.943000   -4.986720   -1.067230
  C      5.669210   -4.907830   -0.735450
  N      5.762990   -5.913610   -1.645590
  C      6.871300   -6.496690   -2.140140
  S      8.452490   -6.125580   -1.527850
  C      9.123460   -7.352400   -2.564870
  N     10.501050   -7.534290   -2.522430
  O     10.989960   -8.390350   -3.241960
  O     11.125800   -6.813080   -1.755550
  C      8.180790   -7.999680   -3.321110
  C      6.879770   -7.511150   -3.116540
  C      5.729390   -8.018630   -3.812530
  C      4.573240   -7.357430   -4.044900
  C      3.426320   -7.913360   -4.660640
  S      3.299940   -9.553190   -5.255070
  C      1.628720   -9.390750   -5.768470
  C      1.224040   -8.107550   -5.467350
  C      2.207790   -7.287710   -4.859280
  N      1.644230   -6.056970   -4.614010
  C      0.439880   -6.166050   -5.044540
  O      0.091550   -7.364570   -5.579750
  C      0.943250  -10.469420   -6.385960
  C     -0.321580  -10.366930   -6.848890
  C     -1.072590  -11.417340   -7.490050
  C     -2.201130  -11.111610   -8.280060
  C     -2.643740   -9.697100   -8.503390
  C     -2.885170  -12.146460   -8.877340
  C     -2.547050  -13.498590   -8.705040
  C     -1.405620  -13.802130   -7.936450
  C     -0.705410  -12.760200   -7.359110
  C     -0.882230  -15.195090   -7.761900
  C     -3.404060  -14.459900   -9.349810
  C     -3.673250  -15.734530   -8.976140
  C     -4.572920  -16.560140   -9.693610
  C     -4.909770  -17.821300   -9.300580
  C     -5.815280  -18.613380  -10.032280
  C     -6.219360  -19.875870   -9.683540
  C     -7.154990  -20.715830  -10.402430
  C     -7.800520  -20.422730  -11.578050
  C     -8.704430  -21.291270  -12.223670
  N     -9.450000  -21.947850  -12.799720
  C     -7.666780  -19.229930  -12.317590
  N     -7.619230  -18.293830  -12.982220
  C     -7.302230  -21.960040   -9.652410
  C     -6.476650  -21.900150   -8.503890
  C     -5.767520  -20.604420   -8.476690
  O     -4.981710  -20.238450   -7.626300
  C     -6.396890  -22.924070   -7.592330
  C     -7.171380  -24.065590   -7.823640
  C     -7.993750  -24.117660   -8.973620
  C     -8.073220  -23.081670   -9.896060
  S     -8.868730  -25.616810   -9.065950
  C     -8.125830  -26.145510   -7.579720
  C     -7.268260  -25.247770   -7.039500
  Br    -8.556950  -27.830990   -6.878270
  H     -3.885560   -3.915240   -1.046780
  H     -3.067100   -5.184570   -2.094520
  H     -2.341910   -2.440360    0.536450
  H      0.140440   -2.153440    1.152440
  H      2.491530   -2.281340    1.325490
  H      4.986270   -2.859570    1.081850
  H      6.590960   -4.521720   -0.328110
  H      4.879600   -6.297220   -1.970220
  H      8.435330   -8.781420   -4.013640
  H      5.828240   -9.025950   -4.196870
  H      4.447270   -6.310080   -3.804850
  H     -0.304060   -5.394760   -5.014240
  H      1.513060  -11.380880   -6.491490
  H     -0.812950   -9.409850   -6.749310
  H     -2.955520   -9.238010   -7.565460
  H     -3.484330   -9.667310   -9.191910
  H     -1.834620   -9.099690   -8.920630
  H     -3.746290  -11.914650   -9.489200
  H      0.160050  -13.002300   -6.760600
  H     -1.374390  -15.689950   -6.924510
  H      0.183780  -15.167540   -7.545740
  H     -1.041710  -15.790580   -8.657660
  H     -3.945990  -14.074100  -10.206990
  H     -3.242570  -16.155820   -8.081630
  H     -5.010410  -16.157470  -10.599970
  H     -4.482820  -18.234920   -8.398890
  H     -6.219120  -18.171880  -10.934450
  H     -5.757260  -22.846370   -6.727110
  H     -8.716090  -23.171570  -10.755450
  H     -6.725930  -25.410000   -6.125980

 Total Charge           Charge          ....    0
 Multiplicity           Mult            ....    1
 Number of Electrons    NEL             ....  512
 Basis Dimension        Dim             .... 1098

ORBITAL ENERGIES
----------------

  NO   OCC          E(Eh)            E(eV)
   0   2.0000    -482.883304    -13139.9227
   1   2.0000     -88.980246     -2421.2756
   2   2.0000     -88.972210     -2421.0569
   3   2.0000     -88.969331     -2420.9786
   4   2.0000     -88.950824     -2420.4750
   5   2.0000     -88.941490     -2420.2210
   6   2.0000     -62.560990     -1702.3711
   7   2.0000     -56.394939     -1534.5843
   8   2.0000     -56.392228     -1534.5105
   9   2.0000     -56.392196     -1534.5097
  10   2.0000     -19.308801      -525.4192
  11   2.0000     -19.225867      -523.1624
  12   2.0000     -19.225294      -523.1468
  13   2.0000     -19.211081      -522.7601
  14   2.0000     -14.637696      -398.3120
  15   2.0000     -14.485574      -394.1725
  16   2.0000     -14.421068      -392.4172
  17   2.0000     -14.411493      -392.1567
  18   2.0000     -14.409377      -392.0991
  19   2.0000     -10.377443      -282.3846
  20   2.0000     -10.367927      -282.1256
  21   2.0000     -10.361710      -281.9565
  22   2.0000     -10.356060      -281.8027
  23   2.0000     -10.339868      -281.3621
  24   2.0000     -10.336019      -281.2574
  25   2.0000     -10.335242      -281.2362
  26   2.0000     -10.334878      -281.2263
  27   2.0000     -10.332941      -281.1736
  28   2.0000     -10.321705      -280.8679
  29   2.0000     -10.317533      -280.7543
  30   2.0000     -10.315007      -280.6856
  31   2.0000     -10.314994      -280.6852
  32   2.0000     -10.314792      -280.6797
  33   2.0000     -10.312833      -280.6265
  34   2.0000     -10.312635      -280.6211
  35   2.0000     -10.311181      -280.5815
  36   2.0000     -10.310056      -280.5509
  37   2.0000     -10.309220      -280.5281
  38   2.0000     -10.308326      -280.5038
  39   2.0000     -10.304381      -280.3965
  40   2.0000     -10.303962      -280.3850
  41   2.0000     -10.303506      -280.3727
  42   2.0000     -10.301210      -280.3102
  43   2.0000     -10.299815      -280.2722
  44   2.0000     -10.296785      -280.1898
  45   2.0000     -10.295830      -280.1638
  46   2.0000     -10.295470      -280.1540
  47   2.0000     -10.295291      -280.1491
  48   2.0000     -10.294146      -280.1180
  49   2.0000     -10.293776      -280.1079
  50   2.0000     -10.293164      -280.0912
  51   2.0000     -10.292756      -280.0801
  52   2.0000     -10.292244      -280.0662
  53   2.0000     -10.291074      -280.0344
  54   2.0000     -10.289399      -279.9888
  55   2.0000     -10.287266      -279.9307
  56   2.0000     -10.286279      -279.9039
  57   2.0000     -10.284657      -279.8598
  58   2.0000     -10.283583      -279.8305
  59   2.0000     -10.282917      -279.8124
  60   2.0000     -10.282733      -279.8074
  61   2.0000     -10.280830      -279.7556
  62   2.0000     -10.280143      -279.7369
  63   2.0000     -10.276727      -279.6440
  64   2.0000     -10.273873      -279.5663
  65   2.0000     -10.271867      -279.5117
  66   2.0000     -10.271262      -279.4952
  67   2.0000     -10.268895      -279.4308
  68   2.0000     -10.267958      -279.4053
  69   2.0000      -8.790405      -239.1991
  70   2.0000      -8.075586      -219.7479
  71   2.0000      -8.068227      -219.5476
  72   2.0000      -8.064168      -219.4372
  73   2.0000      -8.046985      -218.9696
  74   2.0000      -8.037996      -218.7250
  75   2.0000      -6.626672      -180.3209
  76   2.0000      -6.612159      -179.9260
  77   2.0000      -6.611956      -179.9205
  78   2.0000      -6.045329      -164.5018
  79   2.0000      -6.040910      -164.3815
  80   2.0000      -6.037925      -164.3003
  81   2.0000      -6.036943      -164.2736
  82   2.0000      -6.033648      -164.1839
  83   2.0000      -6.033568      -164.1817
  84   2.0000      -6.029625      -164.0744
  85   2.0000      -6.029428      -164.0691
  86   2.0000      -6.025989      -163.9755
  87   2.0000      -6.016883      -163.7277
  88   2.0000      -6.012905      -163.6195
  89   2.0000      -6.007871      -163.4825
  90   2.0000      -6.007577      -163.4745
  91   2.0000      -6.003931      -163.3753
  92   2.0000      -5.998505      -163.2276
  93   2.0000      -2.742567       -74.6290
  94   2.0000      -2.738456       -74.5172
  95   2.0000      -2.738331       -74.5138
  96   2.0000      -2.726771       -74.1992
  97   2.0000      -2.726768       -74.1991
  98   2.0000      -1.304873       -35.5074
  99   2.0000      -1.235248       -33.6128
 100   2.0000      -1.125159       -30.6171
 101   2.0000      -1.123801       -30.5802
 102   2.0000      -1.094623       -29.7862
 103   2.0000      -1.031983       -28.0817
 104   2.0000      -1.018523       -27.7154
 105   2.0000      -1.009077       -27.4584
 106   2.0000      -1.002460       -27.2783
 107   2.0000      -0.992570       -27.0092
 108   2.0000      -0.989255       -26.9190
 109   2.0000      -0.988325       -26.8937
 110   2.0000      -0.984515       -26.7900
 111   2.0000      -0.970640       -26.4125
 112   2.0000      -0.968990       -26.3676
 113   2.0000      -0.940702       -25.5978
 114   2.0000      -0.929297       -25.2874
 115   2.0000      -0.923133       -25.1197
 116   2.0000      -0.910194       -24.7676
 117   2.0000      -0.904199       -24.6045
 118   2.0000      -0.898040       -24.4369
 119   2.0000      -0.889366       -24.2009
 120   2.0000      -0.882533       -24.0149
 121   2.0000      -0.881780       -23.9944
 122   2.0000      -0.876545       -23.8520
 123   2.0000      -0.869130       -23.6502
 124   2.0000      -0.860015       -23.4022
 125   2.0000      -0.850943       -23.1553
 126   2.0000      -0.848708       -23.0945
 127   2.0000      -0.847289       -23.0559
 128   2.0000      -0.839198       -22.8357
 129   2.0000      -0.825551       -22.4644
 130   2.0000      -0.824252       -22.4290
 131   2.0000      -0.818932       -22.2843
 132   2.0000      -0.811138       -22.0722
 133   2.0000      -0.799910       -21.7667
 134   2.0000      -0.792974       -21.5779
 135   2.0000      -0.769352       -20.9351
 136   2.0000      -0.758212       -20.6320
 137   2.0000      -0.753941       -20.5158
 138   2.0000      -0.747706       -20.3461
 139   2.0000      -0.739075       -20.1113
 140   2.0000      -0.733487       -19.9592
 141   2.0000      -0.728136       -19.8136
 142   2.0000      -0.717571       -19.5261
 143   2.0000      -0.706575       -19.2269
 144   2.0000      -0.701165       -19.0797
 145   2.0000      -0.690848       -18.7989
 146   2.0000      -0.687921       -18.7193
 147   2.0000      -0.685783       -18.6611
 148   2.0000      -0.684229       -18.6188
 149   2.0000      -0.667912       -18.1748
 150   2.0000      -0.663461       -18.0537
 151   2.0000      -0.656094       -17.8532
 152   2.0000      -0.652758       -17.7625
 153   2.0000      -0.650068       -17.6893
 154   2.0000      -0.641723       -17.4622
 155   2.0000      -0.634116       -17.2552
 156   2.0000      -0.631334       -17.1795
 157   2.0000      -0.623689       -16.9714
 158   2.0000      -0.619703       -16.8630
 159   2.0000      -0.618982       -16.8434
 160   2.0000      -0.618655       -16.8345
 161   2.0000      -0.614484       -16.7210
 162   2.0000      -0.605273       -16.4703
 163   2.0000      -0.602901       -16.4058
 164   2.0000      -0.599937       -16.3251
 165   2.0000      -0.592269       -16.1165
 166   2.0000      -0.588079       -16.0025
 167   2.0000      -0.584200       -15.8969
 168   2.0000      -0.582190       -15.8422
 169   2.0000      -0.581356       -15.8195
 170   2.0000      -0.576990       -15.7007
 171   2.0000      -0.568950       -15.4819
 172   2.0000      -0.563698       -15.3390
 173   2.0000      -0.558079       -15.1861
 174   2.0000      -0.550150       -14.9703
 175   2.0000      -0.549950       -14.9649
 176   2.0000      -0.546148       -14.8614
 177   2.0000      -0.542161       -14.7529
 178   2.0000      -0.536353       -14.5949
 179   2.0000      -0.535079       -14.5602
 180   2.0000      -0.534265       -14.5381
 181   2.0000      -0.530282       -14.4297
 182   2.0000      -0.523768       -14.2525
 183   2.0000      -0.522329       -14.2133
 184   2.0000      -0.520301       -14.1581
 185   2.0000      -0.516689       -14.0598
 186   2.0000      -0.515165       -14.0183
 187   2.0000      -0.512118       -13.9354
 188   2.0000      -0.509688       -13.8693
 189   2.0000      -0.505408       -13.7528
 190   2.0000      -0.505015       -13.7422
 191   2.0000      -0.500618       -13.6225
 192   2.0000      -0.497845       -13.5471
 193   2.0000      -0.496202       -13.5023
 194   2.0000      -0.494332       -13.4515
 195   2.0000      -0.491157       -13.3650
 196   2.0000      -0.489342       -13.3157
 197   2.0000      -0.489004       -13.3065
 198   2.0000      -0.487618       -13.2688
 199   2.0000      -0.486653       -13.2425
 200   2.0000      -0.480124       -13.0648
 201   2.0000      -0.479026       -13.0350
 202   2.0000      -0.477812       -13.0019
 203   2.0000      -0.475431       -12.9371
 204   2.0000      -0.470165       -12.7938
 205   2.0000      -0.467084       -12.7100
 206   2.0000      -0.465934       -12.6787
 207   2.0000      -0.464185       -12.6311
 208   2.0000      -0.459807       -12.5120
 209   2.0000      -0.454119       -12.3572
 210   2.0000      -0.451460       -12.2849
 211   2.0000      -0.448780       -12.2119
 212   2.0000      -0.446885       -12.1603
 213   2.0000      -0.445552       -12.1241
 214   2.0000      -0.444616       -12.0986
 215   2.0000      -0.443127       -12.0581
 216   2.0000      -0.442023       -12.0281
 217   2.0000      -0.439011       -11.9461
 218   2.0000      -0.438465       -11.9312
 219   2.0000      -0.435040       -11.8380
 220   2.0000      -0.434426       -11.8213
 221   2.0000      -0.430428       -11.7125
 222   2.0000      -0.425994       -11.5919
 223   2.0000      -0.424311       -11.5461
 224   2.0000      -0.422235       -11.4896
 225   2.0000      -0.418837       -11.3971
 226   2.0000      -0.418324       -11.3832
 227   2.0000      -0.412802       -11.2329
 228   2.0000      -0.409141       -11.1333
 229   2.0000      -0.404703       -11.0125
 230   2.0000      -0.402647       -10.9566
 231   2.0000      -0.402180       -10.9439
 232   2.0000      -0.390559       -10.6277
 233   2.0000      -0.385733       -10.4963
 234   2.0000      -0.383005       -10.4221
 235   2.0000      -0.375995       -10.2313
 236   2.0000      -0.374343       -10.1864
 237   2.0000      -0.372627       -10.1397
 238   2.0000      -0.371780       -10.1166
 239   2.0000      -0.366423        -9.9709
 240   2.0000      -0.354695        -9.6517
 241   2.0000      -0.352558        -9.5936
 242   2.0000      -0.342818        -9.3286
 243   2.0000      -0.339677        -9.2431
 244   2.0000      -0.337188        -9.1754
 245   2.0000      -0.330452        -8.9921
 246   2.0000      -0.324255        -8.8234
 247   2.0000      -0.320954        -8.7336
 248   2.0000      -0.315940        -8.5972
 249   2.0000      -0.311819        -8.4850
 250   2.0000      -0.309899        -8.4328
 251   2.0000      -0.291642        -7.9360
 252   2.0000      -0.287912        -7.8345
 253   2.0000      -0.269263        -7.3270
 254   2.0000      -0.242578        -6.6009
 255   2.0000      -0.218139        -5.9359
 256   0.0000      -0.094553        -2.5729
 257   0.0000      -0.070538        -1.9194
 258   0.0000      -0.061941        -1.6855
 259   0.0000      -0.053357        -1.4519
 260   0.0000      -0.035448        -0.9646

MULLIKEN ATOMIC CHARGES
-----------------------
   0 C :   -0.036380
   1 C :   -0.059533
   2 C :    0.050567
   3 C :    0.030525
   4 C :   -0.069006
   5 S :    0.071410
   6 C :   -0.046377
   7 C :    0.026847
   8 C :    0.044107
   9 C :   -0.046143
  10 S :    0.046257
  11 C :    0.028299
  12 N :   -0.026161
  13 C :   -0.112741
  14 S :    0.150115
  15 C :   -0.012552
  16 N :    0.281484
  17 O :   -0.262578
  18 O :   -0.278377
  19 C :    0.011850
  20 C :    0.111983
  21 C :   -0.033562
  22 C :   -0.028678
  23 C :   -0.187197
  24 S :    0.129129
  25 C :   -0.208884
  26 C :    0.205423
  27 C :    0.055282
  28 N :   -0.065260
  29 C :    0.192882
  30 O :   -0.211593
  31 C :    0.097298
  32 C :   -0.059991
  33 C :    0.127531
  34 C :   -0.087072
  35 C :    0.105760
  36 C :   -0.075371
  37 C :    0.093443
  38 C :   -0.066051
  39 C :   -0.090719
  40 C :    0.088744
  41 C :   -0.011420
  42 C :    0.008285
  43 C :    0.050358
  44 C :   -0.010048
  45 C :   -0.027425
  46 C :   -0.076649
  47 C :    0.331964
  48 C :   -0.356857
  49 C :   -0.183792
  50 N :    0.143737
  51 C :   -0.192253
  52 N :    0.142074
  53 C :    0.013953
  54 C :   -0.011063
  55 C :    0.144344
  56 O :   -0.157816
  57 C :   -0.074640
  58 C :    0.118110
  59 C :   -0.091131
  60 C :   -0.023962
  61 S :    0.184609
  62 C :   -0.122300
  63 C :    0.038124
  64 Br:    0.020912
  65 H :    0.019463
  66 H :    0.016117
  67 H :   -0.011723
  68 H :   -0.011574
  69 H :   -0.012937
  70 H :   -0.010107
  71 H :    0.022185
  72 H :    0.147765
  73 H :    0.007291
  74 H :   -0.001060
  75 H :    0.007701
  76 H :    0.034393
  77 H :   -0.026277
  78 H :   -0.008476
  79 H :    0.033591
  80 H :    0.008694
  81 H :    0.030635
  82 H :   -0.038904
  83 H :   -0.042276
  84 H :    0.040953
  85 H :    0.012514
  86 H :    0.032140
  87 H :   -0.000625
  88 H :   -0.004627
  89 H :    0.008301
  90 H :    0.022186
  91 H :    0.006579
  92 H :   -0.012170
  93 H :   -0.006675
  94 H :   -0.004899
Sum of atomic charges:   -0.0000000

LOEWDIN ATOMIC CHARGES
----------------------
   0 C :   -0.083732
   1 C :   -0.138281
   2 C :   -0.033726
   3 C :   -0.025151
   4 C :   -0.182326
   5 S :    0.344609
   6 C :   -0.174360
   7 C :   -0.038315
   8 C :   -0.029630
   9 C :   -0.178748
  10 S :    0.349133
  11 C :   -0.014971
  12 N :    0.053757
  13 C :   -0.094915
  14 S :    0.447636
  15 C :   -0.219076
  16 N :    0.274306
  17 O :   -0.227801
  18 O :   -0.244591
  19 C :    0.005889
  20 C :   -0.110441
  21 C :   -0.022975
  22 C :   -0.058395
  23 C :   -0.181409
  24 S :    0.442465
  25 C :   -0.194851
  26 C :   -0.003181
  27 C :   -0.063973
  28 N :   -0.094854
  29 C :    0.099912
  30 O :   -0.017297
  31 C :   -0.032538
  32 C :   -0.019134
  33 C :   -0.018044
  34 C :   -0.022841
  35 C :   -0.046377
  36 C :   -0.012156
  37 C :   -0.039181
  38 C :   -0.009525
  39 C :   -0.017253
  40 C :   -0.046715
  41 C :    0.022771
  42 C :   -0.038188
  43 C :    0.039430
  44 C :   -0.042687
  45 C :    0.070570
  46 C :   -0.102703
  47 C :    0.076598
  48 C :   -0.145982
  49 C :   -0.017930
  50 N :   -0.058979
  51 C :   -0.019872
  52 N :   -0.058394
  53 C :   -0.020372
  54 C :   -0.049662
  55 C :    0.084475
  56 O :   -0.150177
  57 C :    0.020078
  58 C :   -0.033152
  59 C :   -0.144295
  60 C :   -0.010684
  61 S :    0.430720
  62 C :   -0.272066
  63 C :   -0.070684
  64 Br:    0.134833
  65 H :    0.028492
  66 H :    0.023535
  67 H :    0.033395
  68 H :    0.032510
  69 H :    0.032284
  70 H :    0.034476
  71 H :    0.030687
  72 H :    0.081517
  73 H :    0.045864
  74 H :    0.028381
  75 H :    0.034177
  76 H :    0.026865
  77 H :    0.027311
  78 H :    0.028194
  79 H :    0.035828
  80 H :    0.030537
  81 H :    0.035799
  82 H :    0.024666
  83 H :    0.022995
  84 H :    0.036879
  85 H :    0.031301
  86 H :    0.034965
  87 H :    0.033195
  88 H :    0.032578
  89 H :    0.034747
  90 H :    0.033637
  91 H :    0.041260
  92 H :    0.040122
  93 H :    0.040879
  94 H :    0.038332

  Mayer bond orders larger than 0.100000
B(  0-C ,  1-C ) :   1.8647 B(  0-C , 65-H ) :   0.9508 B(  0-C , 66-H ) :   0.9432
B(  1-C ,  2-C ) :   1.0788 B(  1-C ,  5-S ) :   1.0053 B(  2-C ,  3-C ) :   1.6659
B(  2-C , 67-H ) :   0.9930 B(  3-C ,  4-C ) :   1.1485 B(  3-C , 68-H ) :   0.9916
B(  4-C ,  5-S ) :   1.0381 B(  4-C ,  6-C ) :   1.5783 B(  6-C ,  7-C ) :   1.1607
B(  6-C , 10-S ) :   1.0406 B(  7-C ,  8-C ) :   1.6353 B(  7-C , 69-H ) :   0.9914
B(  8-C ,  9-C ) :   1.1392 B(  8-C , 70-H ) :   0.9948 B(  9-C , 10-S ) :   1.0138
B(  9-C , 11-C ) :   1.6194 B( 11-C , 12-N ) :   1.1265 B( 11-C , 71-H ) :   0.9635
B( 12-N , 13-C ) :   1.2594 B( 12-N , 72-H ) :   0.8915 B( 13-C , 14-S ) :   1.1337
B( 13-C , 20-C ) :   1.3301 B( 14-S , 15-C ) :   1.0573 B( 15-C , 16-N ) :   0.9930
B( 15-C , 19-C ) :   1.4667 B( 16-N , 17-O ) :   1.5222 B( 16-N , 18-O ) :   1.4960
B( 17-O , 18-O ) :   0.2490 B( 19-C , 20-C ) :   1.2408 B( 19-C , 73-H ) :   1.0095
B( 20-C , 21-C ) :   1.0879 B( 21-C , 22-C ) :   1.6371 B( 21-C , 74-H ) :   0.9691
B( 22-C , 23-C ) :   1.2048 B( 22-C , 75-H ) :   0.9593 B( 23-C , 24-S ) :   1.1030
B( 23-C , 25-C ) :   0.1171 B( 23-C , 27-C ) :   1.4119 B( 24-S , 25-C ) :   1.1005
B( 25-C , 26-C ) :   1.4625 B( 25-C , 31-C ) :   1.1278 B( 26-C , 27-C ) :   1.2512
B( 26-C , 30-O ) :   1.0937 B( 27-C , 28-N ) :   1.2824 B( 28-N , 29-C ) :   1.7937
B( 29-C , 30-O ) :   1.1090 B( 29-C , 76-H ) :   0.9830 B( 31-C , 32-C ) :   1.6933
B( 31-C , 77-H ) :   0.9543 B( 32-C , 33-C ) :   1.0776 B( 32-C , 78-H ) :   0.9633
B( 33-C , 34-C ) :   1.3240 B( 33-C , 39-C ) :   1.3211 B( 34-C , 35-C ) :   1.0881
B( 34-C , 36-C ) :   1.4146 B( 35-C , 79-H ) :   0.9389 B( 35-C , 80-H ) :   0.9520
B( 35-C , 81-H ) :   0.9437 B( 36-C , 37-C ) :   1.2962 B( 36-C , 82-H ) :   0.9948
B( 37-C , 38-C ) :   1.3424 B( 37-C , 41-C ) :   1.0663 B( 38-C , 39-C ) :   1.4103
B( 38-C , 40-C ) :   1.0801 B( 39-C , 83-H ) :   0.9886 B( 40-C , 84-H ) :   0.9408
B( 40-C , 85-H ) :   0.9495 B( 40-C , 86-H ) :   0.9473 B( 41-C , 42-C ) :   1.6320
B( 41-C , 87-H ) :   0.9741 B( 42-C , 43-C ) :   1.1380 B( 42-C , 88-H ) :   0.9856
B( 43-C , 44-C ) :   1.5324 B( 43-C , 89-H ) :   0.9920 B( 44-C , 45-C ) :   1.1718
B( 44-C , 90-H ) :   0.9860 B( 45-C , 46-C ) :   1.5225 B( 45-C , 91-H ) :   0.9577
B( 46-C , 47-C ) :   1.0752 B( 46-C , 55-C ) :   0.9521 B( 47-C , 48-C ) :   1.6147
B( 47-C , 53-C ) :   0.9993 B( 48-C , 49-C ) :   1.1439 B( 48-C , 51-C ) :   1.1501
B( 49-C , 50-N ) :   2.9645 B( 51-C , 52-N ) :   2.9595 B( 53-C , 54-C ) :   1.2773
B( 53-C , 60-C ) :   1.4094 B( 54-C , 55-C ) :   0.9414 B( 54-C , 57-C ) :   1.4251
B( 55-C , 56-O ) :   2.1953 B( 57-C , 58-C ) :   1.2447 B( 57-C , 92-H ) :   1.0162
B( 58-C , 59-C ) :   1.3087 B( 58-C , 63-C ) :   1.1604 B( 59-C , 60-C ) :   1.3308
B( 59-C , 61-S ) :   1.0838 B( 60-C , 93-H ) :   0.9786 B( 61-S , 62-C ) :   1.0863
B( 62-C , 63-C ) :   1.6191 B( 62-C , 64-Br) :   1.0173 B( 63-C , 94-H ) :   1.0006

-----------------------------------------------------------------------------
         ABSORPTION SPECTRUM VIA TRANSITION ELECTRIC DIPOLE MOMENTS
-----------------------------------------------------------------------------
State   Energy  Wavelength   fosc         T2         TX        TY        TZ
        (cm-1)    (nm)                  (au**2)     (au)      (au)      (au)
-----------------------------------------------------------------------------
   0   16393.4    610.0   0.710915981  14.27664   0.30588  -3.15296  -2.05959
   1   18973.4    527.1   1.886607264  32.73498  -5.19781  -2.30495  -0.63632
   2   20340.6    491.6   0.582364556   9.42555   0.23971   2.92689   0.89521
   3   22345.7    447.5   0.513653228   7.56749   2.59421   0.69141   0.59959
   4   24231.8    412.7   0.290184187   3.94244   1.86341  -0.22663   0.64712
   5   25535.7    391.6   0.015337422   0.19773  -0.19964   0.36888  -0.14767
   6   26222.7    381.3   0.300686132   3.77495  -1.76013  -0.55456  -0.60773
   7   26782.7    373.4   0.042405847   0.52125   0.40693   0.30928   0.50991
   8   27252.0    366.9   0.433398488   5.23557   1.93733   1.06593   0.58830
   9   28184.5    354.8   0.505582736   5.90552   0.32638  -2.08929   1.19744
  10   28676.8    348.7   0.000105970   0.00122  -0.00905   0.02862  -0.01777
  11   29431.8    339.8   0.063904446   0.71481  -0.00588   0.64855  -0.54236
  12   30095.9    332.3   0.031841308   0.34830   0.21710  -0.22891   0.49877
  13   31040.8    322.2   0.149898979   1.58979  -0.21446  -1.20946  -0.28464
  14   31398.9    318.5   0.007389095   0.07747  -0.23782   0.12022   0.08039
  15   31717.8    315.3   0.045079429   0.46790   0.55339   0.27667  -0.29173
  16   31887.1    313.6   0.055834789   0.57645  -0.39004   0.54127  -0.36243
  17   32557.1    307.2   0.050489672   0.51054   0.37199  -0.60828   0.04653
  18   32577.3    307.0   0.002589983   0.02617   0.09891  -0.12653  -0.01949
  19   32920.6    303.8   0.043088142   0.43089   0.47403  -0.42217  -0.16721
  20   33422.2    299.2   0.523033223   5.15193  -0.29714   1.58123  -1.60105
  21   33704.6    296.7   0.138550088   1.35330   0.13915   0.87197  -0.75736
  22   34368.8    291.0   0.033531072   0.32119  -0.31419   0.19089   0.43132
  23   34645.3    288.6   0.046720281   0.44395  -0.01884   0.52704   0.40722
  24   35558.7    281.2   0.060159115   0.55697  -0.59279   0.02281   0.45282
  25   36165.6    276.5   0.040660319   0.37013   0.53146   0.22160   0.19639
  26   36737.8    272.2   0.019126378   0.17139  -0.31196  -0.26386   0.06671
  27   37142.2    269.2   0.009230152   0.08181  -0.21544  -0.13943  -0.12633
  28   37424.4    267.2   0.039166426   0.34454  -0.47690  -0.15216  -0.30650
  29   37920.1    263.7   0.009765405   0.08478   0.16506   0.14881   0.18813
  30   38177.7    261.9   0.153595580   1.32448   0.60365  -0.96599  -0.16413
  31   38855.9    257.4   0.057584823   0.48790  -0.03934   0.62157   0.31622
  32   39038.1    256.2   0.162327545   1.36892  -0.82547  -0.49127  -0.66796
  33   39318.4    254.3   0.125554016   1.05126   0.91194  -0.20978   0.41906
  34   39648.6    252.2   0.007350767   0.06104  -0.01034  -0.23796  -0.06559
  35   39731.8    251.7   0.020672233   0.17129   0.29357   0.24665   0.15577

FINAL SINGLE POINT ENERGY     -7058.968183841922

DIPOLE MOMENT
-------------
                                X             Y             Z
Electronic contribution:    -74.51285    -193.65780     -10.61290
Nuclear contribution   :     73.46754     195.82111      13.06650
                        -----------------------------------------
Total Dipole Moment    :     -1.04530       2.16331       2.45359
                        -----------------------------------------
Magnitude (a.u.)       :      3.43405
Magnitude (Debye)      :      8.72867

Rotational constants in cm-1:     0.001347     0.000158     0.000153
Rotational constants in MHz :    40.369330     4.739035     4.598943

                             ****ORCA TERMINATED NORMALLY****
TOTAL RUN TIME: 0 days 0 hours 8 minutes 33 seconds 731 msec
