                         Program Version 4.2.0 -  RELEASE  -
|  1> # ORCA input file
|  2> # SCF done       -171.881678834610          0.000360376000
|  3> ! CAM-B3LYP def2-SVP def2/J RIJCOSX Grid4 TightSCF
|  4> %maxcore 5000
|  5> %tddft
|  6>     Mode sTDDFT
|  7>     Ethresh 5.0
|  8>     maxcore 5000
|  9> end
| 10>
| 11> %pal
| 12>   nprocs 6
| 13>   end
| 14> * xyz 0 1
| 15>    C        2.58244       -20.15186       -13.21456
| 16>    C        3.22943       -19.16361       -13.84474
| 17>    C        3.70961       -19.14835       -15.19806
| 18>    C        4.32174       -18.00205       -15.56300
| 19>    C        4.38098       -17.01574       -14.53645
| 20>    S        3.62123       -17.61806       -13.07397
| 21>    C        4.92774       -15.76148       -14.61776
| 22>    C        5.55054       -15.14224       -15.73272
| 23>    C        5.97936       -13.87556       -15.50674
| 24>    C        5.72936       -13.40130       -14.19020
| 25>    S        4.91726       -14.66023       -13.24972
| 26>    C        6.03933       -12.18125       -13.67628
| 27>    N        5.76568       -11.84085       -12.38714
| 28>    C        6.00349       -10.65125       -11.79440
| 29>    S        6.67615        -9.32858       -12.68880
| 30>    C        6.61952        -8.35442       -11.24942
| 31>    N        7.09835        -7.06466       -11.37894
| 32>    O        7.13359        -6.35354       -10.38214
| 33>    O        7.45617        -6.71610       -12.49814
| 34>    C        6.10100        -9.00802       -10.15800
| 35>    C        5.73424       -10.33190       -10.45074
| 36>    C        5.08539       -11.24517        -9.54830
| 37>    C        4.66305       -10.92281        -8.31435
| 38>    N        3.93460       -11.79870        -7.54520
| 39>    C        3.09757       -11.46042        -6.52779
| 40>    S        2.68132       -12.68944        -5.37052
| 41>    C        1.77951       -11.51811        -4.45751
| 42>    N        1.11659       -11.96431        -3.31520
| 43>    O        0.47393       -11.15329        -2.67262
| 44>    O        1.22886       -13.15094        -3.04431
| 45>    C        1.81780       -10.26674        -5.01297
| 46>    C        2.53841       -10.21549        -6.22048
| 47>    C        2.62578        -8.99891        -7.00059
| 48>    C        2.62038        -8.93412        -8.34502
| 49>    C        2.85675        -7.74727        -9.10174
| 50>    S        2.43894        -7.70361       -10.78895
| 51>    C        3.04111        -6.07357       -10.96183
| 52>    C        3.54070        -5.60380        -9.75781
| 53>    C        3.44348        -6.55607        -8.72942
| 54>    S        4.37072        -6.36304        -7.21390
| 55>    O        5.29018        -7.47898        -7.20466
| 56>    O        3.49453        -6.25020        -6.07336
| 57>    C        5.25411        -4.77789        -7.33970
| 58>    C        5.44865        -4.33426        -8.77272
| 59>    C        4.11892        -4.24605        -9.52514
| 60>    C        2.99014        -5.38679       -12.20297
| 61>    C        2.54973        -5.92295       -13.36014
| 62>    C        2.46372        -5.20904       -14.58987
| 63>    S        2.42236        -6.08957       -16.08352
| 64>    C        2.32377        -4.62811       -17.02562
| 65>    C        2.32568        -3.51439       -16.20616
| 66>    C        2.40095        -3.85437       -14.84002
| 67>    S        2.22559        -2.63121       -13.54793
| 68>    O        3.50797        -2.36387       -12.94372
| 69>    O        1.16339        -3.03638       -12.66642
| 70>    C        1.73017        -1.14745       -14.46840
| 71>    C        2.66398        -1.07091       -15.65645
| 72>    C        2.28593        -2.10518       -16.71298
| 73>    C        2.26810        -4.78029       -18.45656
| 74>    C        1.92153        -3.87615       -19.37048
| 75>    H        2.36371       -21.07481       -13.72185
| 76>    H        2.26238       -20.05871       -12.19300
| 77>    H        3.57114       -20.00290       -15.83632
| 78>    H        4.73959       -17.82012       -16.53730
| 79>    H        5.65758       -15.65740       -16.67006
| 80>    H        6.46936       -13.25528       -16.23550
| 81>    H        6.52234       -11.43133       -14.28362
| 82>    H        5.33680       -12.56552       -11.82244
| 83>    H        5.99954        -8.53480        -9.19573
| 84>    H        4.86644       -12.23895        -9.92032
| 85>    H        4.85028        -9.95810        -7.87118
| 86>    H        3.97461       -12.77999        -7.79021
| 87>    H        1.31316        -9.42198        -4.58009
| 88>    H        2.66804        -8.09251        -6.41729
| 89>    H        2.43745        -9.82214        -8.93648
| 90>    H        6.19957        -4.93719        -6.82749
| 91>    H        4.63377        -4.08657        -6.77317
| 92>    H        5.92554        -3.35180        -8.77567
| 93>    H        6.11503        -5.02760        -9.28615
| 94>    H        4.27027        -3.73235       -10.47372
| 95>    H        3.40492        -3.65582        -8.94100
| 96>    H        3.34656        -4.37061       -12.19300
| 97>    H        2.26153        -6.96668       -13.39525
| 98>    H        1.84900        -0.31276       -13.78302
| 99>    H        0.68595        -1.26330       -14.74488
|100>    H        2.63542        -0.07521       -16.10463
|101>    H        3.67975        -1.25423       -15.29800
|102>    H        2.96956        -2.02299       -17.56194
|103>    H        1.27663        -1.88582       -17.07809
|104>    H        2.52535        -5.77836       -18.78945
|105>    H        1.60909        -2.87707       -19.13275
|106>    H        1.92324        -4.13474       -20.41511
|107> *
|108>
|109>                          ****END OF INPUT****

CARTESIAN COORDINATES (ANGSTROEM)
---------------------------------
  C      2.582440  -20.151860  -13.214560
  C      3.229430  -19.163610  -13.844740
  C      3.709610  -19.148350  -15.198060
  C      4.321740  -18.002050  -15.563000
  C      4.380980  -17.015740  -14.536450
  S      3.621230  -17.618060  -13.073970
  C      4.927740  -15.761480  -14.617760
  C      5.550540  -15.142240  -15.732720
  C      5.979360  -13.875560  -15.506740
  C      5.729360  -13.401300  -14.190200
  S      4.917260  -14.660230  -13.249720
  C      6.039330  -12.181250  -13.676280
  N      5.765680  -11.840850  -12.387140
  C      6.003490  -10.651250  -11.794400
  S      6.676150   -9.328580  -12.688800
  C      6.619520   -8.354420  -11.249420
  N      7.098350   -7.064660  -11.378940
  O      7.133590   -6.353540  -10.382140
  O      7.456170   -6.716100  -12.498140
  C      6.101000   -9.008020  -10.158000
  C      5.734240  -10.331900  -10.450740
  C      5.085390  -11.245170   -9.548300
  C      4.663050  -10.922810   -8.314350
  N      3.934600  -11.798700   -7.545200
  C      3.097570  -11.460420   -6.527790
  S      2.681320  -12.689440   -5.370520
  C      1.779510  -11.518110   -4.457510
  N      1.116590  -11.964310   -3.315200
  O      0.473930  -11.153290   -2.672620
  O      1.228860  -13.150940   -3.044310
  C      1.817800  -10.266740   -5.012970
  C      2.538410  -10.215490   -6.220480
  C      2.625780   -8.998910   -7.000590
  C      2.620380   -8.934120   -8.345020
  C      2.856750   -7.747270   -9.101740
  S      2.438940   -7.703610  -10.788950
  C      3.041110   -6.073570  -10.961830
  C      3.540700   -5.603800   -9.757810
  C      3.443480   -6.556070   -8.729420
  S      4.370720   -6.363040   -7.213900
  O      5.290180   -7.478980   -7.204660
  O      3.494530   -6.250200   -6.073360
  C      5.254110   -4.777890   -7.339700
  C      5.448650   -4.334260   -8.772720
  C      4.118920   -4.246050   -9.525140
  C      2.990140   -5.386790  -12.202970
  C      2.549730   -5.922950  -13.360140
  C      2.463720   -5.209040  -14.589870
  S      2.422360   -6.089570  -16.083520
  C      2.323770   -4.628110  -17.025620
  C      2.325680   -3.514390  -16.206160
  C      2.400950   -3.854370  -14.840020
  S      2.225590   -2.631210  -13.547930
  O      3.507970   -2.363870  -12.943720
  O      1.163390   -3.036380  -12.666420
  C      1.730170   -1.147450  -14.468400
  C      2.663980   -1.070910  -15.656450
  C      2.285930   -2.105180  -16.712980
  C      2.268100   -4.780290  -18.456560
  C      1.921530   -3.876150  -19.370480
  H      2.363710  -21.074810  -13.721850
  H      2.262380  -20.058710  -12.193000
  H      3.571140  -20.002900  -15.836320
  H      4.739590  -17.820120  -16.537300
  H      5.657580  -15.657400  -16.670060
  H      6.469360  -13.255280  -16.235500
  H      6.522340  -11.431330  -14.283620
  H      5.336800  -12.565520  -11.822440
  H      5.999540   -8.534800   -9.195730
  H      4.866440  -12.238950   -9.920320
  H      4.850280   -9.958100   -7.871180
  H      3.974610  -12.779990   -7.790210
  H      1.313160   -9.421980   -4.580090
  H      2.668040   -8.092510   -6.417290
  H      2.437450   -9.822140   -8.936480
  H      6.199570   -4.937190   -6.827490
  H      4.633770   -4.086570   -6.773170
  H      5.925540   -3.351800   -8.775670
  H      6.115030   -5.027600   -9.286150
  H      4.270270   -3.732350  -10.473720
  H      3.404920   -3.655820   -8.941000
  H      3.346560   -4.370610  -12.193000
  H      2.261530   -6.966680  -13.395250
  H      1.849000   -0.312760  -13.783020
  H      0.685950   -1.263300  -14.744880
  H      2.635420   -0.075210  -16.104630
  H      3.679750   -1.254230  -15.298000
  H      2.969560   -2.022990  -17.561940
  H      1.276630   -1.885820  -17.078090
  H      2.525350   -5.778360  -18.789450
  H      1.609090   -2.877070  -19.132750
  H      1.923240   -4.134740  -20.415110

 Total Charge           Charge          ....    0
 Multiplicity           Mult            ....    1
 Number of Electrons    NEL             ....  492
 Basis Dimension        Dim             .... 1032

ORBITAL ENERGIES
----------------

  NO   OCC          E(Eh)            E(eV)
   0   2.0000     -89.140916     -2425.6476
   1   2.0000     -89.139114     -2425.5986
   2   2.0000     -88.976152     -2421.1642
   3   2.0000     -88.971096     -2421.0266
   4   2.0000     -88.964180     -2420.8384
   5   2.0000     -88.961267     -2420.7591
   6   2.0000     -88.952377     -2420.5172
   7   2.0000     -88.939679     -2420.1717
   8   2.0000     -19.228357      -523.2302
   9   2.0000     -19.227743      -523.2135
  10   2.0000     -19.222247      -523.0639
  11   2.0000     -19.221966      -523.0563
  12   2.0000     -19.194333      -522.3044
  13   2.0000     -19.191542      -522.2284
  14   2.0000     -19.187473      -522.1177
  15   2.0000     -19.187411      -522.1160
  16   2.0000     -14.639383      -398.3579
  17   2.0000     -14.634246      -398.2181
  18   2.0000     -14.486623      -394.2011
  19   2.0000     -14.471585      -393.7918
  20   2.0000     -10.363331      -282.0006
  21   2.0000     -10.360145      -281.9139
  22   2.0000     -10.335639      -281.2470
  23   2.0000     -10.330418      -281.1050
  24   2.0000     -10.328080      -281.0413
  25   2.0000     -10.321203      -280.8542
  26   2.0000     -10.319917      -280.8192
  27   2.0000     -10.319538      -280.8089
  28   2.0000     -10.315054      -280.6869
  29   2.0000     -10.312668      -280.6220
  30   2.0000     -10.310228      -280.5556
  31   2.0000     -10.307522      -280.4819
  32   2.0000     -10.307479      -280.4808
  33   2.0000     -10.305713      -280.4327
  34   2.0000     -10.301467      -280.3172
  35   2.0000     -10.300237      -280.2837
  36   2.0000     -10.297812      -280.2177
  37   2.0000     -10.297413      -280.2068
  38   2.0000     -10.296743      -280.1886
  39   2.0000     -10.296579      -280.1841
  40   2.0000     -10.294032      -280.1149
  41   2.0000     -10.293096      -280.0894
  42   2.0000     -10.292241      -280.0661
  43   2.0000     -10.291621      -280.0492
  44   2.0000     -10.291053      -280.0338
  45   2.0000     -10.290934      -280.0306
  46   2.0000     -10.290658      -280.0230
  47   2.0000     -10.290596      -280.0214
  48   2.0000     -10.290222      -280.0112
  49   2.0000     -10.286810      -279.9183
  50   2.0000     -10.286743      -279.9165
  51   2.0000     -10.285344      -279.8784
  52   2.0000     -10.282461      -279.8000
  53   2.0000     -10.281003      -279.7603
  54   2.0000     -10.280161      -279.7374
  55   2.0000     -10.278565      -279.6940
  56   2.0000     -10.274254      -279.5767
  57   2.0000     -10.273244      -279.5492
  58   2.0000     -10.270513      -279.4749
  59   2.0000     -10.269954      -279.4597
  60   2.0000      -8.205958      -223.2955
  61   2.0000      -8.204582      -223.2580
  62   2.0000      -8.071575      -219.6387
  63   2.0000      -8.067150      -219.5183
  64   2.0000      -8.060220      -219.3297
  65   2.0000      -8.056693      -219.2338
  66   2.0000      -8.048597      -219.0135
  67   2.0000      -8.036371      -218.6808
  68   2.0000      -6.174901      -168.0276
  69   2.0000      -6.174766      -168.0239
  70   2.0000      -6.174059      -168.0047
  71   2.0000      -6.173672      -167.9942
  72   2.0000      -6.173374      -167.9860
  73   2.0000      -6.172466      -167.9613
  74   2.0000      -6.041343      -164.3933
  75   2.0000      -6.036933      -164.2733
  76   2.0000      -6.036883      -164.2719
  77   2.0000      -6.032855      -164.1623
  78   2.0000      -6.032434      -164.1509
  79   2.0000      -6.029316      -164.0660
  80   2.0000      -6.028441      -164.0422
  81   2.0000      -6.025883      -163.9726
  82   2.0000      -6.025383      -163.9590
  83   2.0000      -6.022411      -163.8781
  84   2.0000      -6.021935      -163.8652
  85   2.0000      -6.018815      -163.7803
  86   2.0000      -6.018500      -163.7717
  87   2.0000      -6.014619      -163.6661
  88   2.0000      -6.009149      -163.5173
  89   2.0000      -6.006218      -163.4375
  90   2.0000      -6.002358      -163.3325
  91   2.0000      -5.996836      -163.1822
  92   2.0000      -1.305790       -35.5324
  93   2.0000      -1.302553       -35.4443
  94   2.0000      -1.198414       -32.6105
  95   2.0000      -1.195679       -32.5361
  96   2.0000      -1.124227       -30.5918
  97   2.0000      -1.121253       -30.5108
  98   2.0000      -1.093567       -29.7575
  99   2.0000      -1.077031       -29.3075
 100   2.0000      -1.075331       -29.2612
 101   2.0000      -1.072907       -29.1953
 102   2.0000      -1.001781       -27.2598
 103   2.0000      -1.000799       -27.2331
 104   2.0000      -0.996944       -27.1282
 105   2.0000      -0.992267       -27.0009
 106   2.0000      -0.990427       -26.9509
 107   2.0000      -0.970136       -26.3987
 108   2.0000      -0.934546       -25.4303
 109   2.0000      -0.923207       -25.1217
 110   2.0000      -0.915291       -24.9063
 111   2.0000      -0.914478       -24.8842
 112   2.0000      -0.902635       -24.5619
 113   2.0000      -0.894072       -24.3289
 114   2.0000      -0.884903       -24.0794
 115   2.0000      -0.877409       -23.8755
 116   2.0000      -0.866830       -23.5876
 117   2.0000      -0.857983       -23.3469
 118   2.0000      -0.853200       -23.2168
 119   2.0000      -0.850905       -23.1543
 120   2.0000      -0.848252       -23.0821
 121   2.0000      -0.844002       -22.9665
 122   2.0000      -0.835947       -22.7473
 123   2.0000      -0.830584       -22.6014
 124   2.0000      -0.825533       -22.4639
 125   2.0000      -0.823984       -22.4218
 126   2.0000      -0.803376       -21.8610
 127   2.0000      -0.798502       -21.7283
 128   2.0000      -0.778377       -21.1807
 129   2.0000      -0.765639       -20.8341
 130   2.0000      -0.754173       -20.5221
 131   2.0000      -0.733628       -19.9630
 132   2.0000      -0.728475       -19.8228
 133   2.0000      -0.726553       -19.7705
 134   2.0000      -0.724692       -19.7199
 135   2.0000      -0.722496       -19.6601
 136   2.0000      -0.720663       -19.6102
 137   2.0000      -0.714861       -19.4524
 138   2.0000      -0.695582       -18.9278
 139   2.0000      -0.684599       -18.6289
 140   2.0000      -0.678752       -18.4698
 141   2.0000      -0.668800       -18.1990
 142   2.0000      -0.660835       -17.9822
 143   2.0000      -0.653136       -17.7727
 144   2.0000      -0.639154       -17.3923
 145   2.0000      -0.635965       -17.3055
 146   2.0000      -0.634513       -17.2660
 147   2.0000      -0.630673       -17.1615
 148   2.0000      -0.626754       -17.0549
 149   2.0000      -0.622088       -16.9279
 150   2.0000      -0.620849       -16.8942
 151   2.0000      -0.618041       -16.8178
 152   2.0000      -0.616660       -16.7802
 153   2.0000      -0.615367       -16.7450
 154   2.0000      -0.605329       -16.4718
 155   2.0000      -0.602542       -16.3960
 156   2.0000      -0.599163       -16.3040
 157   2.0000      -0.597031       -16.2460
 158   2.0000      -0.591621       -16.0988
 159   2.0000      -0.586562       -15.9612
 160   2.0000      -0.584230       -15.8977
 161   2.0000      -0.578367       -15.7382
 162   2.0000      -0.573213       -15.5979
 163   2.0000      -0.568917       -15.4810
 164   2.0000      -0.567217       -15.4348
 165   2.0000      -0.562650       -15.3105
 166   2.0000      -0.560263       -15.2455
 167   2.0000      -0.556709       -15.1488
 168   2.0000      -0.552228       -15.0269
 169   2.0000      -0.549486       -14.9523
 170   2.0000      -0.544979       -14.8296
 171   2.0000      -0.540053       -14.6956
 172   2.0000      -0.538229       -14.6459
 173   2.0000      -0.537027       -14.6133
 174   2.0000      -0.535407       -14.5692
 175   2.0000      -0.528224       -14.3737
 176   2.0000      -0.525089       -14.2884
 177   2.0000      -0.520660       -14.1679
 178   2.0000      -0.520014       -14.1503
 179   2.0000      -0.518791       -14.1170
 180   2.0000      -0.516089       -14.0435
 181   2.0000      -0.514862       -14.0101
 182   2.0000      -0.512543       -13.9470
 183   2.0000      -0.508961       -13.8495
 184   2.0000      -0.504139       -13.7183
 185   2.0000      -0.497676       -13.5425
 186   2.0000      -0.496544       -13.5116
 187   2.0000      -0.495629       -13.4867
 188   2.0000      -0.493910       -13.4400
 189   2.0000      -0.486833       -13.2474
 190   2.0000      -0.485628       -13.2146
 191   2.0000      -0.484446       -13.1825
 192   2.0000      -0.480246       -13.0682
 193   2.0000      -0.473857       -12.8943
 194   2.0000      -0.472983       -12.8705
 195   2.0000      -0.471340       -12.8258
 196   2.0000      -0.466448       -12.6927
 197   2.0000      -0.465315       -12.6619
 198   2.0000      -0.464049       -12.6274
 199   2.0000      -0.457378       -12.4459
 200   2.0000      -0.455137       -12.3849
 201   2.0000      -0.450721       -12.2647
 202   2.0000      -0.449449       -12.2301
 203   2.0000      -0.445379       -12.1194
 204   2.0000      -0.444648       -12.0995
 205   2.0000      -0.441939       -12.0258
 206   2.0000      -0.433798       -11.8043
 207   2.0000      -0.431563       -11.7434
 208   2.0000      -0.427294       -11.6273
 209   2.0000      -0.426536       -11.6066
 210   2.0000      -0.426037       -11.5931
 211   2.0000      -0.423779       -11.5316
 212   2.0000      -0.422149       -11.4873
 213   2.0000      -0.416222       -11.3260
 214   2.0000      -0.411184       -11.1889
 215   2.0000      -0.403189       -10.9713
 216   2.0000      -0.399552       -10.8724
 217   2.0000      -0.395546       -10.7633
 218   2.0000      -0.392626       -10.6839
 219   2.0000      -0.386706       -10.5228
 220   2.0000      -0.385349       -10.4859
 221   2.0000      -0.383965       -10.4482
 222   2.0000      -0.379935       -10.3386
 223   2.0000      -0.377750       -10.2791
 224   2.0000      -0.374251       -10.1839
 225   2.0000      -0.371072       -10.0974
 226   2.0000      -0.368519       -10.0279
 227   2.0000      -0.366144        -9.9633
 228   2.0000      -0.363639        -9.8951
 229   2.0000      -0.359000        -9.7689
 230   2.0000      -0.356513        -9.7012
 231   2.0000      -0.351153        -9.5554
 232   2.0000      -0.349565        -9.5121
 233   2.0000      -0.348908        -9.4943
 234   2.0000      -0.343562        -9.3488
 235   2.0000      -0.337410        -9.1814
 236   2.0000      -0.331332        -9.0160
 237   2.0000      -0.326190        -8.8761
 238   2.0000      -0.324049        -8.8178
 239   2.0000      -0.320263        -8.7148
 240   2.0000      -0.318552        -8.6682
 241   2.0000      -0.297684        -8.1004
 242   2.0000      -0.282118        -7.6768
 243   2.0000      -0.257595        -7.0095
 244   2.0000      -0.240909        -6.5555
 245   2.0000      -0.217676        -5.9233
 246   0.0000      -0.067422        -1.8346
 247   0.0000      -0.058824        -1.6007
 248   0.0000      -0.045714        -1.2439
 249   0.0000      -0.036693        -0.9985
 250   0.0000      -0.020374        -0.5544

MULLIKEN ATOMIC CHARGES
-----------------------
   0 C :   -0.029546
   1 C :   -0.063251
   2 C :    0.051132
   3 C :    0.029630
   4 C :   -0.067284
   5 S :    0.066968
   6 C :   -0.045720
   7 C :    0.027238
   8 C :    0.041759
   9 C :   -0.041626
  10 S :    0.020568
  11 C :    0.023684
  12 N :   -0.033846
  13 C :   -0.113658
  14 S :    0.136362
  15 C :   -0.012310
  16 N :    0.299616
  17 O :   -0.267972
  18 O :   -0.275440
  19 C :    0.012601
  20 C :    0.111852
  21 C :   -0.064658
  22 C :    0.053095
  23 N :   -0.038473
  24 C :   -0.113600
  25 S :    0.157388
  26 C :   -0.013920
  27 N :    0.279979
  28 O :   -0.255096
  29 O :   -0.275821
  30 C :    0.014268
  31 C :    0.083260
  32 C :   -0.046817
  33 C :    0.031768
  34 C :   -0.106851
  35 S :    0.134148
  36 C :   -0.127662
  37 C :   -0.028595
  38 C :   -0.054884
  39 S :    0.730170
  40 O :   -0.461010
  41 O :   -0.457894
  42 C :    0.007032
  43 C :   -0.039693
  44 C :    0.115180
  45 C :    0.029795
  46 C :    0.019123
  47 C :   -0.111659
  48 S :    0.143389
  49 C :   -0.166525
  50 C :   -0.023366
  51 C :   -0.055560
  52 S :    0.715881
  53 O :   -0.459150
  54 O :   -0.453966
  55 C :   -0.003886
  56 C :   -0.015906
  57 C :    0.069233
  58 C :    0.041309
  59 C :   -0.033066
  60 H :    0.019553
  61 H :    0.020824
  62 H :   -0.011242
  63 H :   -0.012954
  64 H :   -0.013670
  65 H :   -0.010773
  66 H :    0.025615
  67 H :    0.146630
  68 H :    0.008703
  69 H :   -0.048382
  70 H :    0.067443
  71 H :    0.134114
  72 H :    0.015547
  73 H :    0.024384
  74 H :   -0.003669
  75 H :    0.069377
  76 H :    0.053620
  77 H :    0.025930
  78 H :    0.054268
  79 H :    0.031382
  80 H :    0.027952
  81 H :    0.005314
  82 H :   -0.015536
  83 H :    0.068707
  84 H :    0.053670
  85 H :    0.024238
  86 H :    0.047560
  87 H :    0.036444
  88 H :    0.032739
  89 H :   -0.006700
  90 H :    0.013658
  91 H :    0.027535
Sum of atomic charges:   -0.0000000

LOEWDIN ATOMIC CHARGES
----------------------
   0 C :   -0.078536
   1 C :   -0.138582
   2 C :   -0.032744
   3 C :   -0.026320
   4 C :   -0.183438
   5 S :    0.340754
   6 C :   -0.175241
   7 C :   -0.039774
   8 C :   -0.030346
   9 C :   -0.183376
  10 S :    0.327041
  11 C :   -0.014193
  12 N :    0.045942
  13 C :   -0.104059
  14 S :    0.442697
  15 C :   -0.217411
  16 N :    0.281373
  17 O :   -0.230203
  18 O :   -0.242155
  19 C :    0.011528
  20 C :   -0.102029
  21 C :   -0.088053
  22 C :    0.044743
  23 N :    0.023330
  24 C :   -0.097742
  25 S :    0.440462
  26 C :   -0.216411
  27 N :    0.274234
  28 O :   -0.220874
  29 O :   -0.241379
  30 C :    0.014819
  31 C :   -0.107985
  32 C :   -0.000493
  33 C :   -0.066597
  34 C :   -0.145360
  35 S :    0.449834
  36 C :   -0.176258
  37 C :   -0.043660
  38 C :   -0.230096
  39 S :    1.186493
  40 O :   -0.521015
  41 O :   -0.508358
  42 C :   -0.124832
  43 C :   -0.045570
  44 C :   -0.024136
  45 C :   -0.006167
  46 C :   -0.072134
  47 C :   -0.148199
  48 S :    0.458056
  49 C :   -0.182945
  50 C :   -0.058340
  51 C :   -0.231651
  52 S :    1.175311
  53 O :   -0.513834
  54 O :   -0.507921
  55 C :   -0.128305
  56 C :   -0.047695
  57 C :   -0.028472
  58 C :   -0.040947
  59 C :   -0.047715
  60 H :    0.028791
  61 H :    0.026130
  62 H :    0.033528
  63 H :    0.031989
  64 H :    0.032330
  65 H :    0.034115
  66 H :    0.030346
  67 H :    0.082983
  68 H :    0.041015
  69 H :    0.015714
  70 H :    0.040524
  71 H :    0.089194
  72 H :    0.049677
  73 H :    0.025106
  74 H :    0.027004
  75 H :    0.045303
  76 H :    0.034968
  77 H :    0.037182
  78 H :    0.028292
  79 H :    0.042556
  80 H :    0.037310
  81 H :    0.023728
  82 H :    0.019979
  83 H :    0.043243
  84 H :    0.033407
  85 H :    0.035129
  86 H :    0.032250
  87 H :    0.041084
  88 H :    0.033961
  89 H :    0.029697
  90 H :    0.019912
  91 H :    0.028493

  Mayer bond orders larger than 0.100000
B(  0-C ,  1-C ) :   1.8698 B(  0-C , 60-H ) :   0.9502 B(  0-C , 61-H ) :   0.9416
B(  1-C ,  2-C ) :   1.0774 B(  1-C ,  5-S ) :   1.0067 B(  2-C ,  3-C ) :   1.6693
B(  2-C , 62-H ) :   0.9928 B(  3-C ,  4-C ) :   1.1467 B(  3-C , 63-H ) :   0.9914
B(  4-C ,  5-S ) :   1.0362 B(  4-C ,  6-C ) :   1.5805 B(  6-C ,  7-C ) :   1.1624
B(  6-C , 10-S ) :   1.0320 B(  7-C ,  8-C ) :   1.6358 B(  7-C , 64-H ) :   0.9912
B(  8-C ,  9-C ) :   1.1405 B(  8-C , 65-H ) :   0.9939 B(  9-C , 10-S ) :   1.0034
B(  9-C , 11-C ) :   1.6303 B( 11-C , 12-N ) :   1.1282 B( 11-C , 66-H ) :   0.9583
B( 12-N , 13-C ) :   1.2417 B( 12-N , 67-H ) :   0.9055 B( 13-C , 14-S ) :   1.1265
B( 13-C , 20-C ) :   1.3429 B( 14-S , 15-C ) :   1.0556 B( 15-C , 16-N ) :   1.0134
B( 15-C , 19-C ) :   1.4484 B( 16-N , 17-O ) :   1.4495 B( 16-N , 18-O ) :   1.4994
B( 17-O , 18-O ) :   0.2333 B( 17-O , 78-H ) :   0.1051 B( 19-C , 20-C ) :   1.2622
B( 19-C , 68-H ) :   0.9813 B( 20-C , 21-C ) :   1.0805 B( 21-C , 22-C ) :   1.7522
B( 21-C , 69-H ) :   0.9589 B( 22-C , 23-N ) :   1.1062 B( 22-C , 70-H ) :   0.9393
B( 23-N , 24-C ) :   1.1923 B( 23-N , 71-H ) :   0.9126 B( 24-C , 25-S ) :   1.1346
B( 24-C , 31-C ) :   1.3857 B( 25-S , 26-C ) :   1.0709 B( 26-C , 27-N ) :   0.9812
B( 26-C , 30-C ) :   1.4732 B( 27-N , 28-O ) :   1.5323 B( 27-N , 29-O ) :   1.5013
B( 28-O , 29-O ) :   0.2532 B( 30-C , 31-C ) :   1.2326 B( 30-C , 72-H ) :   1.0115
B( 31-C , 32-C ) :   1.0639 B( 32-C , 33-C ) :   1.7233 B( 32-C , 73-H ) :   0.9311
B( 33-C , 34-C ) :   1.1371 B( 33-C , 74-H ) :   0.9378 B( 34-C , 35-S ) :   1.1576
B( 34-C , 38-C ) :   1.5350 B( 35-S , 36-C ) :   1.0782 B( 36-C , 37-C ) :   1.5314
B( 36-C , 45-C ) :   1.1866 B( 37-C , 38-C ) :   1.2688 B( 37-C , 44-C ) :   1.0652
B( 38-C , 39-S ) :   0.8390 B( 39-S , 40-O ) :   1.6319 B( 39-S , 41-O ) :   1.6568
B( 39-S , 42-C ) :   0.8532 B( 41-O , 73-H ) :   0.1097 B( 42-C , 43-C ) :   1.0631
B( 42-C , 75-H ) :   0.9277 B( 42-C , 76-H ) :   0.9284 B( 43-C , 44-C ) :   1.0623
B( 43-C , 77-H ) :   0.9278 B( 43-C , 78-H ) :   0.9208 B( 44-C , 79-H ) :   0.9040
B( 44-C , 80-H ) :   0.9226 B( 45-C , 46-C ) :   1.6747 B( 45-C , 81-H ) :   0.9332
B( 46-C , 47-C ) :   1.1184 B( 46-C , 82-H ) :   0.9515 B( 47-C , 48-S ) :   1.1629
B( 47-C , 51-C ) :   1.5502 B( 48-S , 49-C ) :   1.1075 B( 49-C , 50-C ) :   1.5591
B( 49-C , 58-C ) :   1.0953 B( 50-C , 51-C ) :   1.2867 B( 50-C , 57-C ) :   1.0539
B( 51-C , 52-S ) :   0.8153 B( 52-S , 53-O ) :   1.6242 B( 52-S , 54-O ) :   1.7240
B( 52-S , 55-C ) :   0.8715 B( 55-C , 56-C ) :   1.0237 B( 55-C , 83-H ) :   0.9335
B( 55-C , 84-H ) :   0.9377 B( 56-C , 57-C ) :   1.0811 B( 56-C , 85-H ) :   0.9319
B( 56-C , 86-H ) :   0.9431 B( 57-C , 87-H ) :   0.9137 B( 57-C , 88-H ) :   0.9144
B( 58-C , 59-C ) :   1.9383 B( 58-C , 89-H ) :   0.9451 B( 59-C , 90-H ) :   0.9584
B( 59-C , 91-H ) :   0.9441

-----------------------------------------------------------------------------
         ABSORPTION SPECTRUM VIA TRANSITION ELECTRIC DIPOLE MOMENTS
-----------------------------------------------------------------------------
State   Energy  Wavelength   fosc         T2         TX        TY        TZ
        (cm-1)    (nm)                  (au**2)     (au)      (au)      (au)
-----------------------------------------------------------------------------
   0   18485.8    541.0   1.438639791  25.62059   1.14225   4.73990   1.35985
   1   20942.9    477.5   0.108718392   1.70900  -0.87641   0.67927  -0.69246
   2   23288.1    429.4   0.093943465   1.32803  -0.06179   0.90235  -0.71412
   3   23987.8    416.9   0.619229125   8.49838  -0.43981   1.26853  -2.58762
   4   24469.7    408.7   0.561875446   7.55939  -0.58595  -0.68843   2.59656
   5   26113.7    382.9   0.120329082   1.51697   0.75689   0.65460  -0.71805
   6   27016.1    370.2   0.320802306   3.90923  -1.00535  -0.89239   1.44988
   7   27807.3    359.6   0.188109640   2.22704   0.34067   0.18328  -1.44132
   8   28397.6    352.1   0.451928751   5.23918   0.41291   0.56771  -2.17862
   9   30524.9    327.6   0.041754754   0.45033  -0.56755  -0.33132   0.13579
  10   30638.5    326.4   0.000456305   0.00490  -0.04551  -0.05081   0.01579
  11   31323.0    319.3   0.016276604   0.17107  -0.05938   0.34158  -0.22554
  12   31751.0    315.0   0.290026975   3.00716  -0.94876  -0.63972   1.30299
  13   32392.8    308.7   0.037218427   0.37825   0.27362   0.51622   0.19209
  14   32671.6    306.1   0.011397277   0.11484  -0.04972  -0.33052   0.05595
  15   33235.7    300.9   0.120824661   1.19681   0.40941   0.98197   0.25483
  16   33924.8    294.8   0.018584963   0.18035  -0.08676  -0.35290   0.21975
  17   34107.5    293.2   0.059166025   0.57108   0.28631   0.12324  -0.68842
  18   35463.7    282.0   0.078136318   0.72534  -0.09133  -0.59484  -0.60264
  19   36873.3    271.2   0.004542398   0.04056  -0.19246  -0.00088  -0.05928
  20   37119.8    269.4   0.071440842   0.63360  -0.44885  -0.32629   0.57067
  21   37680.8    265.4   0.058570450   0.51172  -0.26562  -0.58789   0.30911
  22   37771.6    264.7   0.014670656   0.12787  -0.32111  -0.09073   0.12856
  23   37915.2    263.7   0.044677424   0.38793   0.11859  -0.20112   0.57742
  24   38759.6    258.0   0.035137582   0.29845   0.03843   0.53384   0.10948
  25   38887.5    257.2   0.006373303   0.05395  -0.00299  -0.15216   0.17548
  26   39517.9    253.0   0.037870348   0.31549  -0.25325  -0.08946  -0.49330
  27   39724.3    251.7   0.014104960   0.11689   0.09981   0.09410  -0.31317

FINAL SINGLE POINT ENERGY     -5545.524907054256

DIPOLE MOMENT
-------------
                                X             Y             Z
Electronic contribution:      2.04884     -29.92530      33.54180
Nuclear contribution   :     -1.50954      29.87884     -38.93297
                        -----------------------------------------
Total Dipole Moment    :      0.53930      -0.04646      -5.39117
                        -----------------------------------------
Magnitude (a.u.)       :      5.41828
Magnitude (Debye)      :     13.77216

Rotational constants in cm-1:     0.000989     0.000668     0.000456
Rotational constants in MHz :    29.646279    20.035786    13.669701

                             ****ORCA TERMINATED NORMALLY****
TOTAL RUN TIME: 0 days 0 hours 7 minutes 31 seconds 585 msec
