                         Program Version 4.2.0 -  RELEASE  -
|  1> # ORCA input file
|  2> # SCF done       -157.696100546747          0.000604985901
|  3> ! CAM-B3LYP def2-SVP def2/J RIJCOSX Grid4 TightSCF
|  4> %maxcore 5000
|  5> %tddft
|  6>     Mode sTDDFT
|  7>     Ethresh 5.0
|  8>     maxcore 5000
|  9> end
| 10>
| 11> %pal
| 12>   nprocs 6
| 13>   end
| 14> * xyz 0 1
| 15>    C       -9.54502       -11.64127        -0.93562
| 16>    C       -8.91600       -11.68834         0.24519
| 17>    C       -9.46502       -12.05275         1.52117
| 18>    C       -8.58541       -12.00817         2.54391
| 19>    C       -7.27034       -11.60601         2.17057
| 20>    S       -7.20257       -11.28696         0.44605
| 21>    C       -6.17852       -11.46906         2.98722
| 22>    C       -6.09042       -11.69812         4.38558
| 23>    C       -4.86203       -11.47879         4.91604
| 24>    C       -3.88621       -11.05601         3.97216
| 25>    S       -4.61838       -10.95513         2.36485
| 26>    C       -2.57907       -10.76476         4.20487
| 27>    N       -1.73556       -10.36333         3.21458
| 28>    C       -0.42757       -10.05263         3.33635
| 29>    S        0.34776       -10.02184         4.89109
| 30>    C        1.80682        -9.45260         4.13621
| 31>    N        2.90869        -9.23409         4.95434
| 32>    O        3.93799        -8.83441         4.43371
| 33>    O        2.76037        -9.46009         6.14783
| 34>    C        1.68482        -9.29307         2.77915
| 35>    C        0.41956        -9.65379         2.29178
| 36>    C        0.09662        -9.60028         0.88116
| 37>    C       -0.79197       -10.36561         0.22983
| 38>    C       -1.10124       -10.29820        -1.18339
| 39>    C       -0.28454       -10.00676        -2.20203
| 40>    C        1.18424        -9.74399        -2.09279
| 41>    C       -0.80743       -10.01913        -3.61489
| 42>    N       -0.33497       -11.21509        -4.28270
| 43>    C       -0.33363       -11.40642        -5.61723
| 44>    C       -0.68009       -10.49523        -6.55867
| 45>    C       -0.59669       -10.74069        -7.95568
| 46>    S       -1.02990        -9.48619        -9.07848
| 47>    C       -0.66098       -10.48698       -10.46205
| 48>    C       -0.23822       -11.74779       -10.02865
| 49>    C       -0.20467       -11.87967        -8.63368
| 50>    C        0.07844       -12.84273       -10.85340
| 51>    N        0.32260       -13.79730       -11.44089
| 52>    C       -0.80827        -9.95631       -11.75680
| 53>    C       -0.40894       -10.55152       -12.91937
| 54>    C       -0.61708        -9.92290       -14.16071
| 55>    C       -0.18335       -10.40285       -15.36966
| 56>    C       -0.42160        -9.81893       -16.67192
| 57>    C       -1.09740        -8.65591       -16.95040
| 58>    C       -1.29272        -8.14440       -18.24942
| 59>    N       -1.48646        -7.67156       -19.27799
| 60>    C       -1.68629        -7.79778       -15.99991
| 61>    N       -2.19243        -7.04286       -15.29660
| 62>    C        0.19292       -10.69108       -17.66957
| 63>    C        0.81847       -11.77330       -17.00543
| 64>    C        0.62682       -11.63082       -15.54645
| 65>    O        1.07307       -12.36532       -14.69168
| 66>    C        1.48845       -12.76838       -17.67308
| 67>    C        1.54160       -12.69545       -19.06901
| 68>    C        0.91225       -11.61205       -19.72570
| 69>    C        0.23677       -10.60395       -19.04890
| 70>    S        1.09835       -11.71587       -21.45121
| 71>    C        2.00598       -13.19327       -21.26731
| 72>    C        2.16353       -13.59024       -19.98266
| 73>   Br        2.66114       -14.07165       -22.78985
| 74>    H      -10.58764       -11.89431        -1.01172
| 75>    H       -9.03687       -11.35327        -1.83757
| 76>    H      -10.49981       -12.33197         1.61052
| 77>    H       -8.82747       -12.24847         3.56399
| 78>    H       -6.94424       -12.01999         4.95378
| 79>    H       -4.61200       -11.60191         5.95445
| 80>    H       -2.15913       -10.85528         5.19507
| 81>    H       -2.14973       -10.22534         2.29798
| 82>    H        2.49863        -8.94846         2.16696
| 83>    H        0.66234        -8.86362         0.33074
| 84>    H       -1.35951       -11.11968         0.76145
| 85>    H       -2.12847       -10.55588        -1.41672
| 86>    H        1.60703       -10.22533        -1.21462
| 87>    H        1.37755        -8.67318        -2.02649
| 88>    H        1.69267       -10.11402        -2.98150
| 89>    H       -0.42362        -9.14895        -4.15595
| 90>    H       -1.90485        -9.97832        -3.62539
| 91>    H       -0.20364       -12.01848        -3.68934
| 92>    H        0.01298       -12.38404        -5.92098
| 93>    H       -1.03931        -9.51942        -6.27103
| 94>    H        0.09630       -12.79137        -8.14997
| 95>    H       -1.25704        -8.97052       -11.80898
| 96>    H        0.08498       -11.51103       -12.90431
| 97>    H       -1.17111        -8.99276       -14.14219
| 98>    H        1.95478       -13.57827       -17.13435
| 99>    H       -0.22509        -9.80039       -19.59749
|100>    H        2.69555       -14.47647       -19.68845
|101> *
|102>
|103>                          ****END OF INPUT****

CARTESIAN COORDINATES (ANGSTROEM)
---------------------------------
  C     -9.545020  -11.641270   -0.935620
  C     -8.916000  -11.688340    0.245190
  C     -9.465020  -12.052750    1.521170
  C     -8.585410  -12.008170    2.543910
  C     -7.270340  -11.606010    2.170570
  S     -7.202570  -11.286960    0.446050
  C     -6.178520  -11.469060    2.987220
  C     -6.090420  -11.698120    4.385580
  C     -4.862030  -11.478790    4.916040
  C     -3.886210  -11.056010    3.972160
  S     -4.618380  -10.955130    2.364850
  C     -2.579070  -10.764760    4.204870
  N     -1.735560  -10.363330    3.214580
  C     -0.427570  -10.052630    3.336350
  S      0.347760  -10.021840    4.891090
  C      1.806820   -9.452600    4.136210
  N      2.908690   -9.234090    4.954340
  O      3.937990   -8.834410    4.433710
  O      2.760370   -9.460090    6.147830
  C      1.684820   -9.293070    2.779150
  C      0.419560   -9.653790    2.291780
  C      0.096620   -9.600280    0.881160
  C     -0.791970  -10.365610    0.229830
  C     -1.101240  -10.298200   -1.183390
  C     -0.284540  -10.006760   -2.202030
  C      1.184240   -9.743990   -2.092790
  C     -0.807430  -10.019130   -3.614890
  N     -0.334970  -11.215090   -4.282700
  C     -0.333630  -11.406420   -5.617230
  C     -0.680090  -10.495230   -6.558670
  C     -0.596690  -10.740690   -7.955680
  S     -1.029900   -9.486190   -9.078480
  C     -0.660980  -10.486980  -10.462050
  C     -0.238220  -11.747790  -10.028650
  C     -0.204670  -11.879670   -8.633680
  C      0.078440  -12.842730  -10.853400
  N      0.322600  -13.797300  -11.440890
  C     -0.808270   -9.956310  -11.756800
  C     -0.408940  -10.551520  -12.919370
  C     -0.617080   -9.922900  -14.160710
  C     -0.183350  -10.402850  -15.369660
  C     -0.421600   -9.818930  -16.671920
  C     -1.097400   -8.655910  -16.950400
  C     -1.292720   -8.144400  -18.249420
  N     -1.486460   -7.671560  -19.277990
  C     -1.686290   -7.797780  -15.999910
  N     -2.192430   -7.042860  -15.296600
  C      0.192920  -10.691080  -17.669570
  C      0.818470  -11.773300  -17.005430
  C      0.626820  -11.630820  -15.546450
  O      1.073070  -12.365320  -14.691680
  C      1.488450  -12.768380  -17.673080
  C      1.541600  -12.695450  -19.069010
  C      0.912250  -11.612050  -19.725700
  C      0.236770  -10.603950  -19.048900
  S      1.098350  -11.715870  -21.451210
  C      2.005980  -13.193270  -21.267310
  C      2.163530  -13.590240  -19.982660
  Br     2.661140  -14.071650  -22.789850
  H    -10.587640  -11.894310   -1.011720
  H     -9.036870  -11.353270   -1.837570
  H    -10.499810  -12.331970    1.610520
  H     -8.827470  -12.248470    3.563990
  H     -6.944240  -12.019990    4.953780
  H     -4.612000  -11.601910    5.954450
  H     -2.159130  -10.855280    5.195070
  H     -2.149730  -10.225340    2.297980
  H      2.498630   -8.948460    2.166960
  H      0.662340   -8.863620    0.330740
  H     -1.359510  -11.119680    0.761450
  H     -2.128470  -10.555880   -1.416720
  H      1.607030  -10.225330   -1.214620
  H      1.377550   -8.673180   -2.026490
  H      1.692670  -10.114020   -2.981500
  H     -0.423620   -9.148950   -4.155950
  H     -1.904850   -9.978320   -3.625390
  H     -0.203640  -12.018480   -3.689340
  H      0.012980  -12.384040   -5.920980
  H     -1.039310   -9.519420   -6.271030
  H      0.096300  -12.791370   -8.149970
  H     -1.257040   -8.970520  -11.808980
  H      0.084980  -11.511030  -12.904310
  H     -1.171110   -8.992760  -14.142190
  H      1.954780  -13.578270  -17.134350
  H     -0.225090   -9.800390  -19.597490
  H      2.695550  -14.476470  -19.688450

 Total Charge           Charge          ....    0
 Multiplicity           Mult            ....    1
 Number of Electrons    NEL             ....  472
 Basis Dimension        Dim             ....  999

ORBITAL ENERGIES
----------------

  NO   OCC          E(Eh)            E(eV)
   0   2.0000    -482.879253    -13139.8125
   1   2.0000     -88.985887     -2421.4291
   2   2.0000     -88.970686     -2421.0155
   3   2.0000     -88.967714     -2420.9346
   4   2.0000     -88.957929     -2420.6683
   5   2.0000     -88.945491     -2420.3298
   6   2.0000     -62.556968     -1702.2616
   7   2.0000     -56.390911     -1534.4747
   8   2.0000     -56.388207     -1534.4011
   9   2.0000     -56.388174     -1534.4002
  10   2.0000     -19.231112      -523.3052
  11   2.0000     -19.230348      -523.2844
  12   2.0000     -19.203894      -522.5645
  13   2.0000     -14.642989      -398.4560
  14   2.0000     -14.491501      -394.3338
  15   2.0000     -14.457013      -393.3953
  16   2.0000     -14.407445      -392.0465
  17   2.0000     -14.405147      -391.9840
  18   2.0000     -14.404731      -391.9727
  19   2.0000     -10.374100      -282.2936
  20   2.0000     -10.354335      -281.7558
  21   2.0000     -10.351471      -281.6779
  22   2.0000     -10.339984      -281.3653
  23   2.0000     -10.338231      -281.3176
  24   2.0000     -10.337528      -281.2984
  25   2.0000     -10.331443      -281.1329
  26   2.0000     -10.330495      -281.1071
  27   2.0000     -10.326870      -281.0084
  28   2.0000     -10.324995      -280.9574
  29   2.0000     -10.319989      -280.8212
  30   2.0000     -10.319420      -280.8057
  31   2.0000     -10.318900      -280.7915
  32   2.0000     -10.318654      -280.7849
  33   2.0000     -10.316923      -280.7377
  34   2.0000     -10.316501      -280.7263
  35   2.0000     -10.313114      -280.6341
  36   2.0000     -10.310944      -280.5750
  37   2.0000     -10.310063      -280.5511
  38   2.0000     -10.308749      -280.5153
  39   2.0000     -10.306470      -280.4533
  40   2.0000     -10.304024      -280.3867
  41   2.0000     -10.303702      -280.3780
  42   2.0000     -10.301799      -280.3262
  43   2.0000     -10.300635      -280.2945
  44   2.0000     -10.299874      -280.2738
  45   2.0000     -10.298956      -280.2488
  46   2.0000     -10.298497      -280.2363
  47   2.0000     -10.297874      -280.2194
  48   2.0000     -10.296365      -280.1783
  49   2.0000     -10.296244      -280.1751
  50   2.0000     -10.296082      -280.1706
  51   2.0000     -10.295044      -280.1424
  52   2.0000     -10.291030      -280.0332
  53   2.0000     -10.290837      -280.0279
  54   2.0000     -10.289571      -279.9935
  55   2.0000     -10.289218      -279.9839
  56   2.0000     -10.288073      -279.9527
  57   2.0000     -10.284544      -279.8567
  58   2.0000     -10.281661      -279.7782
  59   2.0000     -10.281202      -279.7657
  60   2.0000     -10.276939      -279.6497
  61   2.0000     -10.276163      -279.6286
  62   2.0000     -10.275989      -279.6239
  63   2.0000      -8.786395      -239.0900
  64   2.0000      -8.081275      -219.9027
  65   2.0000      -8.066610      -219.5036
  66   2.0000      -8.063699      -219.4244
  67   2.0000      -8.054114      -219.1636
  68   2.0000      -8.042217      -218.8399
  69   2.0000      -6.622667      -180.2119
  70   2.0000      -6.608151      -179.8169
  71   2.0000      -6.607941      -179.8112
  72   2.0000      -6.051034      -164.6570
  73   2.0000      -6.046577      -164.5357
  74   2.0000      -6.042616      -164.4279
  75   2.0000      -6.035798      -164.2424
  76   2.0000      -6.033391      -164.1769
  77   2.0000      -6.031816      -164.1341
  78   2.0000      -6.029139      -164.0612
  79   2.0000      -6.028688      -164.0489
  80   2.0000      -6.024904      -163.9460
  81   2.0000      -6.024000      -163.9214
  82   2.0000      -6.020124      -163.8159
  83   2.0000      -6.014696      -163.6682
  84   2.0000      -6.012066      -163.5966
  85   2.0000      -6.008203      -163.4915
  86   2.0000      -6.002664      -163.3408
  87   2.0000      -2.738538       -74.5194
  88   2.0000      -2.734458       -74.4084
  89   2.0000      -2.734344       -74.4053
  90   2.0000      -2.722783       -74.0907
  91   2.0000      -2.722763       -74.0902
  92   2.0000      -1.310116       -35.6501
  93   2.0000      -1.129036       -30.7226
  94   2.0000      -1.118844       -30.4453
  95   2.0000      -1.099355       -29.9150
  96   2.0000      -1.055380       -28.7184
  97   2.0000      -1.013730       -27.5850
  98   2.0000      -1.008135       -27.4327
  99   2.0000      -1.008002       -27.4291
 100   2.0000      -1.004698       -27.3392
 101   2.0000      -0.997863       -27.1532
 102   2.0000      -0.985133       -26.8068
 103   2.0000      -0.982520       -26.7357
 104   2.0000      -0.979627       -26.6570
 105   2.0000      -0.975650       -26.5488
 106   2.0000      -0.940861       -25.6021
 107   2.0000      -0.935818       -25.4649
 108   2.0000      -0.920910       -25.0592
 109   2.0000      -0.914500       -24.8848
 110   2.0000      -0.899596       -24.4793
 111   2.0000      -0.898045       -24.4370
 112   2.0000      -0.890989       -24.2450
 113   2.0000      -0.880355       -23.9557
 114   2.0000      -0.877000       -23.8644
 115   2.0000      -0.872764       -23.7491
 116   2.0000      -0.862398       -23.4670
 117   2.0000      -0.857898       -23.3446
 118   2.0000      -0.854052       -23.2399
 119   2.0000      -0.852796       -23.2057
 120   2.0000      -0.838225       -22.8093
 121   2.0000      -0.829482       -22.5714
 122   2.0000      -0.820498       -22.3269
 123   2.0000      -0.808943       -22.0125
 124   2.0000      -0.805131       -21.9087
 125   2.0000      -0.797874       -21.7113
 126   2.0000      -0.789625       -21.4868
 127   2.0000      -0.761662       -20.7259
 128   2.0000      -0.760018       -20.6811
 129   2.0000      -0.748283       -20.3618
 130   2.0000      -0.734719       -19.9927
 131   2.0000      -0.724993       -19.7281
 132   2.0000      -0.718240       -19.5443
 133   2.0000      -0.711943       -19.3730
 134   2.0000      -0.704895       -19.1812
 135   2.0000      -0.688216       -18.7273
 136   2.0000      -0.686431       -18.6787
 137   2.0000      -0.682664       -18.5762
 138   2.0000      -0.671768       -18.2797
 139   2.0000      -0.661887       -18.0109
 140   2.0000      -0.658515       -17.9191
 141   2.0000      -0.652744       -17.7621
 142   2.0000      -0.648256       -17.6400
 143   2.0000      -0.637065       -17.3354
 144   2.0000      -0.632607       -17.2141
 145   2.0000      -0.628111       -17.0918
 146   2.0000      -0.626972       -17.0608
 147   2.0000      -0.624241       -16.9865
 148   2.0000      -0.623854       -16.9759
 149   2.0000      -0.617549       -16.8044
 150   2.0000      -0.612338       -16.6626
 151   2.0000      -0.607450       -16.5296
 152   2.0000      -0.604459       -16.4482
 153   2.0000      -0.595385       -16.2012
 154   2.0000      -0.588734       -16.0203
 155   2.0000      -0.586194       -15.9511
 156   2.0000      -0.583419       -15.8756
 157   2.0000      -0.577160       -15.7053
 158   2.0000      -0.575536       -15.6611
 159   2.0000      -0.572613       -15.5816
 160   2.0000      -0.567737       -15.4489
 161   2.0000      -0.555102       -15.1051
 162   2.0000      -0.550085       -14.9686
 163   2.0000      -0.542952       -14.7745
 164   2.0000      -0.539651       -14.6846
 165   2.0000      -0.534696       -14.5498
 166   2.0000      -0.529795       -14.4165
 167   2.0000      -0.529436       -14.4067
 168   2.0000      -0.526018       -14.3137
 169   2.0000      -0.524468       -14.2715
 170   2.0000      -0.520952       -14.1758
 171   2.0000      -0.519005       -14.1228
 172   2.0000      -0.516696       -14.0600
 173   2.0000      -0.514010       -13.9869
 174   2.0000      -0.510436       -13.8897
 175   2.0000      -0.509308       -13.8590
 176   2.0000      -0.503305       -13.6956
 177   2.0000      -0.500455       -13.6181
 178   2.0000      -0.499964       -13.6047
 179   2.0000      -0.499759       -13.5991
 180   2.0000      -0.496673       -13.5152
 181   2.0000      -0.493874       -13.4390
 182   2.0000      -0.491925       -13.3860
 183   2.0000      -0.485290       -13.2054
 184   2.0000      -0.483829       -13.1657
 185   2.0000      -0.483263       -13.1502
 186   2.0000      -0.481202       -13.0942
 187   2.0000      -0.475772       -12.9464
 188   2.0000      -0.472118       -12.8470
 189   2.0000      -0.470676       -12.8078
 190   2.0000      -0.463611       -12.6155
 191   2.0000      -0.462002       -12.5717
 192   2.0000      -0.458183       -12.4678
 193   2.0000      -0.454568       -12.3694
 194   2.0000      -0.450575       -12.2608
 195   2.0000      -0.449319       -12.2266
 196   2.0000      -0.443956       -12.0807
 197   2.0000      -0.440923       -11.9981
 198   2.0000      -0.439926       -11.9710
 199   2.0000      -0.439258       -11.9528
 200   2.0000      -0.437548       -11.9063
 201   2.0000      -0.435023       -11.8376
 202   2.0000      -0.432069       -11.7572
 203   2.0000      -0.431210       -11.7338
 204   2.0000      -0.430453       -11.7132
 205   2.0000      -0.430075       -11.7029
 206   2.0000      -0.428025       -11.6472
 207   2.0000      -0.418571       -11.3899
 208   2.0000      -0.416232       -11.3262
 209   2.0000      -0.414702       -11.2846
 210   2.0000      -0.411146       -11.1878
 211   2.0000      -0.408634       -11.1195
 212   2.0000      -0.401819       -10.9340
 213   2.0000      -0.398710       -10.8494
 214   2.0000      -0.396750       -10.7961
 215   2.0000      -0.390922       -10.6375
 216   2.0000      -0.379952       -10.3390
 217   2.0000      -0.379454       -10.3255
 218   2.0000      -0.372601       -10.1390
 219   2.0000      -0.368715       -10.0332
 220   2.0000      -0.367890       -10.0108
 221   2.0000      -0.359973        -9.7954
 222   2.0000      -0.357928        -9.7397
 223   2.0000      -0.348959        -9.4957
 224   2.0000      -0.343493        -9.3469
 225   2.0000      -0.343431        -9.3452
 226   2.0000      -0.332755        -9.0547
 227   2.0000      -0.330274        -8.9872
 228   2.0000      -0.323400        -8.8002
 229   2.0000      -0.313780        -8.5384
 230   2.0000      -0.306674        -8.3450
 231   2.0000      -0.300451        -8.1757
 232   2.0000      -0.285091        -7.7577
 233   2.0000      -0.280908        -7.6439
 234   2.0000      -0.245277        -6.6743
 235   2.0000      -0.225928        -6.1478
 236   0.0000      -0.092268        -2.5107
 237   0.0000      -0.072811        -1.9813
 238   0.0000      -0.053639        -1.4596
 239   0.0000      -0.042758        -1.1635
 240   0.0000      -0.025443        -0.6923

MULLIKEN ATOMIC CHARGES
-----------------------
   0 C :   -0.026859
   1 C :   -0.064866
   2 C :    0.054123
   3 C :    0.029006
   4 C :   -0.065256
   5 S :    0.065866
   6 C :   -0.049011
   7 C :    0.030120
   8 C :    0.040890
   9 C :   -0.041424
  10 S :    0.027313
  11 C :    0.023994
  12 N :   -0.033954
  13 C :   -0.110272
  14 S :    0.149146
  15 C :   -0.014839
  16 N :    0.280500
  17 O :   -0.261199
  18 O :   -0.276397
  19 C :    0.015137
  20 C :    0.093744
  21 C :   -0.015034
  22 C :   -0.033432
  23 C :    0.013471
  24 C :   -0.233788
  25 C :    0.091694
  26 C :    0.219113
  27 N :   -0.162721
  28 C :    0.072033
  29 C :   -0.021700
  30 C :   -0.041969
  31 S :    0.144880
  32 C :   -0.067784
  33 C :   -0.037774
  34 C :   -0.019664
  35 C :   -0.191501
  36 N :    0.135394
  37 C :    0.063884
  38 C :   -0.036602
  39 C :   -0.034485
  40 C :   -0.072811
  41 C :    0.335571
  42 C :   -0.361301
  43 C :   -0.183852
  44 N :    0.141362
  45 C :   -0.190317
  46 N :    0.139253
  47 C :    0.013326
  48 C :   -0.010802
  49 C :    0.140340
  50 O :   -0.138809
  51 C :   -0.073551
  52 C :    0.119884
  53 C :   -0.092454
  54 C :   -0.024279
  55 S :    0.181571
  56 C :   -0.122315
  57 C :    0.037080
  58 Br:    0.018555
  59 H :    0.022047
  60 H :    0.020893
  61 H :   -0.009490
  62 H :   -0.010786
  63 H :   -0.011447
  64 H :   -0.008625
  65 H :    0.024548
  66 H :    0.143603
  67 H :    0.005704
  68 H :    0.000546
  69 H :   -0.002411
  70 H :   -0.007677
  71 H :    0.028881
  72 H :    0.038218
  73 H :    0.016725
  74 H :    0.025702
  75 H :    0.017408
  76 H :    0.129748
  77 H :    0.012038
  78 H :   -0.021413
  79 H :   -0.014361
  80 H :    0.001055
  81 H :    0.048784
  82 H :    0.005693
  83 H :   -0.009124
  84 H :   -0.008396
  85 H :   -0.004090
Sum of atomic charges:   -0.0000000

LOEWDIN ATOMIC CHARGES
----------------------
   0 C :   -0.075736
   1 C :   -0.138787
   2 C :   -0.030165
   3 C :   -0.026291
   4 C :   -0.180415
   5 S :    0.340495
   6 C :   -0.176660
   7 C :   -0.036726
   8 C :   -0.030275
   9 C :   -0.179132
  10 S :    0.329649
  11 C :   -0.017025
  12 N :    0.048782
  13 C :   -0.092894
  14 S :    0.450390
  15 C :   -0.220481
  16 N :    0.274369
  17 O :   -0.227411
  18 O :   -0.242592
  19 C :    0.004870
  20 C :   -0.113691
  21 C :   -0.011127
  22 C :   -0.051936
  23 C :   -0.046199
  24 C :   -0.034805
  25 C :   -0.053180
  26 C :    0.049986
  27 N :    0.002521
  28 C :    0.061007
  29 C :   -0.156400
  30 C :   -0.129150
  31 S :    0.453281
  32 C :   -0.172778
  33 C :   -0.075523
  34 C :   -0.059178
  35 C :   -0.031609
  36 N :   -0.039707
  37 C :    0.008577
  38 C :   -0.031987
  39 C :    0.066313
  40 C :   -0.100244
  41 C :    0.076812
  42 C :   -0.147957
  43 C :   -0.017876
  44 N :   -0.061073
  45 C :   -0.019381
  46 N :   -0.061255
  47 C :   -0.020597
  48 C :   -0.048491
  49 C :    0.081681
  50 O :   -0.135912
  51 C :    0.020856
  52 C :   -0.033117
  53 C :   -0.144751
  54 C :   -0.011589
  55 S :    0.428518
  56 C :   -0.272680
  57 C :   -0.070234
  58 Br:    0.132909
  59 H :    0.029784
  60 H :    0.026183
  61 H :    0.034399
  62 H :    0.032677
  63 H :    0.033193
  64 H :    0.035007
  65 H :    0.030378
  66 H :    0.082551
  67 H :    0.044865
  68 H :    0.034218
  69 H :    0.021840
  70 H :    0.029586
  71 H :    0.034098
  72 H :    0.039052
  73 H :    0.030193
  74 H :    0.030558
  75 H :    0.022931
  76 H :    0.081955
  77 H :    0.031302
  78 H :    0.022734
  79 H :    0.032487
  80 H :    0.036197
  81 H :    0.039206
  82 H :    0.040340
  83 H :    0.041364
  84 H :    0.040349
  85 H :    0.038554

  Mayer bond orders larger than 0.100000
B(  0-C ,  1-C ) :   1.8711 B(  0-C , 59-H ) :   0.9498 B(  0-C , 60-H ) :   0.9418
B(  1-C ,  2-C ) :   1.0772 B(  1-C ,  5-S ) :   1.0050 B(  2-C ,  3-C ) :   1.6696
B(  2-C , 61-H ) :   0.9926 B(  3-C ,  4-C ) :   1.1463 B(  3-C , 62-H ) :   0.9919
B(  4-C ,  5-S ) :   1.0370 B(  4-C ,  6-C ) :   1.5819 B(  6-C ,  7-C ) :   1.1624
B(  6-C , 10-S ) :   1.0296 B(  7-C ,  8-C ) :   1.6380 B(  7-C , 63-H ) :   0.9905
B(  8-C ,  9-C ) :   1.1374 B(  8-C , 64-H ) :   0.9943 B(  9-C , 10-S ) :   1.0070
B(  9-C , 11-C ) :   1.6322 B( 11-C , 12-N ) :   1.1224 B( 11-C , 65-H ) :   0.9596
B( 12-N , 13-C ) :   1.2501 B( 12-N , 66-H ) :   0.8951 B( 13-C , 14-S ) :   1.1367
B( 13-C , 20-C ) :   1.3527 B( 14-S , 15-C ) :   1.0597 B( 15-C , 16-N ) :   0.9932
B( 15-C , 19-C ) :   1.4696 B( 16-N , 17-O ) :   1.5221 B( 16-N , 18-O ) :   1.4972
B( 17-O , 18-O ) :   0.2499 B( 19-C , 20-C ) :   1.2458 B( 19-C , 67-H ) :   1.0061
B( 20-C , 21-C ) :   1.0639 B( 21-C , 22-C ) :   1.7698 B( 21-C , 68-H ) :   0.9609
B( 22-C , 23-C ) :   1.0719 B( 22-C , 69-H ) :   0.9460 B( 23-C , 24-C ) :   1.8616
B( 23-C , 70-H ) :   0.9480 B( 24-C , 25-C ) :   1.0763 B( 24-C , 26-C ) :   1.0396
B( 25-C , 71-H ) :   0.9477 B( 25-C , 72-H ) :   0.9406 B( 25-C , 73-H ) :   0.9466
B( 26-C , 27-N ) :   0.9726 B( 26-C , 74-H ) :   0.9268 B( 26-C , 75-H ) :   0.9368
B( 27-N , 28-C ) :   1.2632 B( 27-N , 76-H ) :   0.9327 B( 28-C , 29-C ) :   1.6303
B( 28-C , 77-H ) :   0.9613 B( 29-C , 30-C ) :   1.1368 B( 29-C , 78-H ) :   0.9515
B( 30-C , 31-S ) :   1.1495 B( 30-C , 34-C ) :   1.4470 B( 31-S , 32-C ) :   1.0928
B( 32-C , 33-C ) :   1.4259 B( 32-C , 37-C ) :   1.1615 B( 33-C , 34-C ) :   1.3337
B( 33-C , 35-C ) :   1.1102 B( 34-C , 79-H ) :   0.9962 B( 35-C , 36-N ) :   2.9921
B( 37-C , 38-C ) :   1.5497 B( 37-C , 80-H ) :   0.9578 B( 38-C , 39-C ) :   1.1962
B( 38-C , 81-H ) :   0.9675 B( 39-C , 40-C ) :   1.5023 B( 39-C , 82-H ) :   0.9613
B( 40-C , 41-C ) :   1.0815 B( 40-C , 49-C ) :   0.9478 B( 41-C , 42-C ) :   1.6069
B( 41-C , 47-C ) :   0.9979 B( 42-C , 43-C ) :   1.1453 B( 42-C , 45-C ) :   1.1519
B( 43-C , 44-N ) :   2.9636 B( 45-C , 46-N ) :   2.9579 B( 47-C , 48-C ) :   1.2769
B( 47-C , 54-C ) :   1.4097 B( 48-C , 49-C ) :   0.9378 B( 48-C , 51-C ) :   1.4286
B( 49-C , 50-O ) :   2.2075 B( 51-C , 52-C ) :   1.2431 B( 51-C , 83-H ) :   1.0165
B( 52-C , 53-C ) :   1.3073 B( 52-C , 57-C ) :   1.1610 B( 53-C , 54-C ) :   1.3320
B( 53-C , 55-S ) :   1.0831 B( 54-C , 84-H ) :   0.9787 B( 55-S , 56-C ) :   1.0848
B( 56-C , 57-C ) :   1.6198 B( 56-C , 58-Br) :   1.0159 B( 57-C , 85-H ) :   1.0004

-----------------------------------------------------------------------------
         ABSORPTION SPECTRUM VIA TRANSITION ELECTRIC DIPOLE MOMENTS
-----------------------------------------------------------------------------
State   Energy  Wavelength   fosc         T2         TX        TY        TZ
        (cm-1)    (nm)                  (au**2)     (au)      (au)      (au)
-----------------------------------------------------------------------------
   0   18112.9    552.1   1.436449126  26.10828   0.56939   0.81294  -5.01230
   1   19038.7    525.2   1.448301987  25.04367   4.54027   0.82381   1.93673
   2   22338.5    447.7   0.000088927   0.00131   0.02514   0.00705   0.02508
   3   25824.6    387.2   0.011597202   0.14784   0.09110  -0.11040  -0.35687
   4   25982.2    384.9   0.007087703   0.08981   0.14052  -0.22951   0.13186
   5   27110.1    368.9   0.302543400   3.67395  -0.70329   1.15461   1.35875
   6   27338.4    365.8   0.052520114   0.63245   0.22694  -0.41671  -0.63821
   7   27560.3    362.8   0.151526787   1.81001  -0.87675  -0.06467  -1.01840
   8   29139.5    343.2   0.000049210   0.00056  -0.00442   0.00355  -0.02289
   9   29374.4    340.4   0.015792888   0.17700   0.09287  -0.24160   0.33167
  10   30198.0    331.1   0.208125132   2.26894  -0.29565  -0.29465   1.44731
  11   31009.6    322.5   0.192737149   2.04618   0.50843  -0.43546  -1.26414
  12   31618.3    316.3   0.027548562   0.28684   0.05589   0.04373  -0.53085
  13   31682.6    315.6   0.008643633   0.08982   0.11514  -0.18224  -0.20820
  14   31807.2    314.4   0.000498528   0.00516  -0.00262  -0.00615   0.07152
  15   33012.8    302.9   0.506930910   5.05524  -0.98539   1.54853   1.29858
  16   33672.2    297.0   0.000931061   0.00910   0.04212  -0.01991   0.08326
  17   34026.7    293.9   0.127092888   1.22964   0.63022  -0.65336   0.63685
  18   34253.5    291.9   0.025366806   0.24380   0.30540  -0.30465   0.24025
  19   34370.6    290.9   0.054976488   0.52658  -0.13522  -0.13758  -0.69955
  20   35349.8    282.9   0.131902197   1.22840  -0.17039   0.01603  -1.09504
  21   35664.7    280.4   0.141987404   1.31065  -0.44375   0.98332   0.38318
  22   36343.6    275.2   0.192702175   1.74556   0.72948   0.24425   1.07413
  23   36654.0    272.8   0.001068784   0.00960  -0.05550   0.03450   0.07300
  24   37916.2    263.7   0.165853469   1.44004  -0.70883  -0.19422  -0.94862
  25   37960.7    263.4   0.070207257   0.60887  -0.41628   0.58917   0.29742
  26   38277.4    261.3   0.243384615   2.09328  -0.27697   0.66734  -1.25348
  27   38344.8    260.8   0.000431039   0.00370   0.02324   0.01820   0.05319
  28   39639.3    252.3   0.209657353   1.74125   0.21067   0.27420   1.27345
  29   40023.4    249.9   0.127779571   1.05105  -0.08798  -0.24181  -0.99239

FINAL SINGLE POINT ENERGY     -6808.341502108879

DIPOLE MOMENT
-------------
                                X             Y             Z
Electronic contribution:     55.49090     -32.49965    -227.12513
Nuclear contribution   :    -57.52341      30.87552     231.14230
                        -----------------------------------------
Total Dipole Moment    :     -2.03251      -1.62413       4.01717
                        -----------------------------------------
Magnitude (a.u.)       :      4.78608
Magnitude (Debye)      :     12.16524

Rotational constants in cm-1:     0.001746     0.000176     0.000167
Rotational constants in MHz :    52.350345     5.286169     4.999899

                             ****ORCA TERMINATED NORMALLY****
TOTAL RUN TIME: 0 days 0 hours 5 minutes 50 seconds 549 msec
