                         Program Version 4.2.0 -  RELEASE  -
|  1> # ORCA input file
|  2> # SCF done       -126.956939639829          0.000658117058
|  3> ! CAM-B3LYP def2-SVP def2/J RIJCOSX Grid4 TightSCF
|  4> %maxcore 5000
|  5> %tddft
|  6>     Mode sTDDFT
|  7>     Ethresh 5.0
|  8>     maxcore 5000
|  9> end
| 10>
| 11> %pal
| 12>   nprocs 6
| 13>   end
| 14> * xyz 0 1
| 15>    C        6.24485       -13.21518        -9.99060
| 16>    C        6.54964       -13.98302        -8.93702
| 17>    C        7.19732       -15.26460        -8.94093
| 18>    C        7.37644       -15.80679        -7.71771
| 19>    C        6.89081       -15.00682        -6.64404
| 20>    S        6.18621       -13.52381        -7.26574
| 21>    C        6.93425       -15.29335        -5.30468
| 22>    C        7.45558       -16.44790        -4.66430
| 23>    C        7.34250       -16.44211        -3.31255
| 24>    C        6.72547       -15.27650        -2.78356
| 25>    S        6.29230       -14.18318        -4.10547
| 26>    C        6.46909       -14.98365        -1.48062
| 27>    N        5.87899       -13.81736        -1.10647
| 28>    C        5.55133       -13.42638         0.14322
| 29>    S        5.95686       -14.39122         1.52865
| 30>    C        5.31620       -13.14781         2.56193
| 31>    N        5.35633       -13.37508         3.93123
| 32>    O        4.91489       -12.50933         4.67083
| 33>    O        5.83889       -14.43914         4.29859
| 34>    C        4.83213       -12.06662         1.86928
| 35>    C        4.93617       -12.20963         0.47698
| 36>    C        4.47920       -11.19851        -0.44775
| 37>    C        4.07509       -11.37228        -1.71960
| 38>    C        3.66226       -10.28041        -2.55530
| 39>    C        3.26527       -10.38710        -3.83220
| 40>    C        3.19905       -11.68778        -4.57539
| 41>    C        2.82710        -9.16720        -4.60610
| 42>    N        1.45107        -9.24841        -5.04258
| 43>    C        0.39147        -9.15883        -4.19946
| 44>    C        0.39760        -8.81232        -2.89770
| 45>    C       -0.83192        -8.68767        -2.14390
| 46>    C       -0.88252        -8.39060        -0.82318
| 47>    N       -1.95141        -9.03448        -2.85878
| 48>    N       -3.09511        -8.58796        -2.52666
| 49>    C       -4.08293        -8.94072        -3.38271
| 50>    S       -5.76724        -8.66868        -3.00671
| 51>    C       -6.31375        -9.18008        -4.55150
| 52>    C       -5.25487        -9.53628        -5.35612
| 53>    C       -4.00156        -9.40640        -4.68386
| 54>    O       -2.97845        -9.72925        -5.49378
| 55>    C       -3.55560       -10.07166        -6.67641
| 56>    N       -2.68613       -10.45238        -7.72317
| 57>    O       -3.20100       -10.75875        -8.78193
| 58>    O       -1.49225       -10.44267        -7.49676
| 59>    C       -4.92325        -9.98244        -6.66584
| 60>    H        6.48347       -13.53581       -10.98920
| 61>    H        5.75544       -12.26535        -9.87761
| 62>    H        7.49997       -15.72059        -9.86682
| 63>    H        7.84434       -16.75842        -7.53751
| 64>    H        7.89729       -17.24863        -5.22938
| 65>    H        7.68050       -17.23218        -2.66628
| 66>    H        6.71715       -15.68078        -0.69472
| 67>    H        5.71073       -13.13840        -1.84311
| 68>    H        4.40093       -11.21466         2.36312
| 69>    H        4.43827       -10.20134        -0.02795
| 70>    H        3.99458       -12.35870        -2.15257
| 71>    H        3.69860        -9.30073        -2.09634
| 72>    H        2.49588       -12.37151        -4.10151
| 73>    H        4.17578       -12.17056        -4.59856
| 74>    H        2.87980       -11.53095        -5.60193
| 75>    H        3.45197        -9.05807        -5.49838
| 76>    H        2.94280        -8.26872        -3.99399
| 77>    H        1.27566        -9.72114        -5.91454
| 78>    H       -0.55905        -9.36274        -4.67257
| 79>    H        1.30818        -8.60670        -2.36037
| 80>    H        0.01294        -8.25075        -0.24497
| 81>    H       -1.82641        -8.35687        -0.30871
| 82>    H       -7.36123        -9.19160        -4.77159
| 83>    H       -5.57580       -10.19841        -7.48619
| 84> *
| 85>
| 86>                          ****END OF INPUT****

CARTESIAN COORDINATES (ANGSTROEM)
---------------------------------
  C      6.244850  -13.215180   -9.990600
  C      6.549640  -13.983020   -8.937020
  C      7.197320  -15.264600   -8.940930
  C      7.376440  -15.806790   -7.717710
  C      6.890810  -15.006820   -6.644040
  S      6.186210  -13.523810   -7.265740
  C      6.934250  -15.293350   -5.304680
  C      7.455580  -16.447900   -4.664300
  C      7.342500  -16.442110   -3.312550
  C      6.725470  -15.276500   -2.783560
  S      6.292300  -14.183180   -4.105470
  C      6.469090  -14.983650   -1.480620
  N      5.878990  -13.817360   -1.106470
  C      5.551330  -13.426380    0.143220
  S      5.956860  -14.391220    1.528650
  C      5.316200  -13.147810    2.561930
  N      5.356330  -13.375080    3.931230
  O      4.914890  -12.509330    4.670830
  O      5.838890  -14.439140    4.298590
  C      4.832130  -12.066620    1.869280
  C      4.936170  -12.209630    0.476980
  C      4.479200  -11.198510   -0.447750
  C      4.075090  -11.372280   -1.719600
  C      3.662260  -10.280410   -2.555300
  C      3.265270  -10.387100   -3.832200
  C      3.199050  -11.687780   -4.575390
  C      2.827100   -9.167200   -4.606100
  N      1.451070   -9.248410   -5.042580
  C      0.391470   -9.158830   -4.199460
  C      0.397600   -8.812320   -2.897700
  C     -0.831920   -8.687670   -2.143900
  C     -0.882520   -8.390600   -0.823180
  N     -1.951410   -9.034480   -2.858780
  N     -3.095110   -8.587960   -2.526660
  C     -4.082930   -8.940720   -3.382710
  S     -5.767240   -8.668680   -3.006710
  C     -6.313750   -9.180080   -4.551500
  C     -5.254870   -9.536280   -5.356120
  C     -4.001560   -9.406400   -4.683860
  O     -2.978450   -9.729250   -5.493780
  C     -3.555600  -10.071660   -6.676410
  N     -2.686130  -10.452380   -7.723170
  O     -3.201000  -10.758750   -8.781930
  O     -1.492250  -10.442670   -7.496760
  C     -4.923250   -9.982440   -6.665840
  H      6.483470  -13.535810  -10.989200
  H      5.755440  -12.265350   -9.877610
  H      7.499970  -15.720590   -9.866820
  H      7.844340  -16.758420   -7.537510
  H      7.897290  -17.248630   -5.229380
  H      7.680500  -17.232180   -2.666280
  H      6.717150  -15.680780   -0.694720
  H      5.710730  -13.138400   -1.843110
  H      4.400930  -11.214660    2.363120
  H      4.438270  -10.201340   -0.027950
  H      3.994580  -12.358700   -2.152570
  H      3.698600   -9.300730   -2.096340
  H      2.495880  -12.371510   -4.101510
  H      4.175780  -12.170560   -4.598560
  H      2.879800  -11.530950   -5.601930
  H      3.451970   -9.058070   -5.498380
  H      2.942800   -8.268720   -3.993990
  H      1.275660   -9.721140   -5.914540
  H     -0.559050   -9.362740   -4.672570
  H      1.308180   -8.606700   -2.360370
  H      0.012940   -8.250750   -0.244970
  H     -1.826410   -8.356870   -0.308710
  H     -7.361230   -9.191600   -4.771590
  H     -5.575800  -10.198410   -7.486190

 Total Charge           Charge          ....    0
 Multiplicity           Mult            ....    1
 Number of Electrons    NEL             ....  350
 Basis Dimension        Dim             ....  766

ORBITAL ENERGIES
----------------

  NO   OCC          E(Eh)            E(eV)
   0   2.0000     -88.984301     -2421.3859
   1   2.0000     -88.975004     -2421.1329
   2   2.0000     -88.950796     -2420.4742
   3   2.0000     -88.938988     -2420.1529
   4   2.0000     -19.315421      -525.5993
   5   2.0000     -19.253576      -523.9164
   6   2.0000     -19.251613      -523.8630
   7   2.0000     -19.221068      -523.0319
   8   2.0000     -19.220484      -523.0160
   9   2.0000     -14.664536      -399.0423
  10   2.0000     -14.632992      -398.1840
  11   2.0000     -14.481243      -394.0547
  12   2.0000     -14.457722      -393.4146
  13   2.0000     -14.442629      -393.0039
  14   2.0000     -14.414990      -392.2518
  15   2.0000     -10.394067      -282.8369
  16   2.0000     -10.361816      -281.9593
  17   2.0000     -10.354046      -281.7479
  18   2.0000     -10.335498      -281.2432
  19   2.0000     -10.332865      -281.1715
  20   2.0000     -10.327697      -281.0309
  21   2.0000     -10.324746      -280.9506
  22   2.0000     -10.321554      -280.8638
  23   2.0000     -10.313153      -280.6352
  24   2.0000     -10.310284      -280.5571
  25   2.0000     -10.308793      -280.5165
  26   2.0000     -10.307145      -280.4717
  27   2.0000     -10.306495      -280.4540
  28   2.0000     -10.298653      -280.2406
  29   2.0000     -10.298322      -280.2316
  30   2.0000     -10.291281      -280.0400
  31   2.0000     -10.289699      -279.9969
  32   2.0000     -10.288773      -279.9718
  33   2.0000     -10.288480      -279.9638
  34   2.0000     -10.285087      -279.8714
  35   2.0000     -10.284934      -279.8673
  36   2.0000     -10.283917      -279.8396
  37   2.0000     -10.282899      -279.8119
  38   2.0000     -10.276427      -279.6358
  39   2.0000     -10.271975      -279.5146
  40   2.0000     -10.268812      -279.4286
  41   2.0000     -10.260336      -279.1979
  42   2.0000     -10.259723      -279.1812
  43   2.0000     -10.244899      -278.7779
  44   2.0000     -10.230348      -278.3819
  45   2.0000      -8.079379      -219.8511
  46   2.0000      -8.070486      -219.6091
  47   2.0000      -8.046757      -218.9634
  48   2.0000      -8.035546      -218.6583
  49   2.0000      -6.048478      -164.5874
  50   2.0000      -6.044249      -164.4724
  51   2.0000      -6.042002      -164.4112
  52   2.0000      -6.040221      -164.3628
  53   2.0000      -6.035809      -164.2427
  54   2.0000      -6.031810      -164.1339
  55   2.0000      -6.016648      -163.7213
  56   2.0000      -6.012750      -163.6152
  57   2.0000      -6.007351      -163.4683
  58   2.0000      -6.005378      -163.4146
  59   2.0000      -6.001555      -163.3106
  60   2.0000      -5.996036      -163.1604
  61   2.0000      -1.335204       -36.3327
  62   2.0000      -1.299827       -35.3701
  63   2.0000      -1.237424       -33.6720
  64   2.0000      -1.151430       -31.3320
  65   2.0000      -1.118576       -30.4380
  66   2.0000      -1.117229       -30.4013
  67   2.0000      -1.089558       -29.6484
  68   2.0000      -1.014384       -27.6028
  69   2.0000      -1.002684       -27.2844
  70   2.0000      -0.998379       -27.1673
  71   2.0000      -0.989534       -26.9266
  72   2.0000      -0.968441       -26.3526
  73   2.0000      -0.943305       -25.6686
  74   2.0000      -0.921262       -25.0688
  75   2.0000      -0.917796       -24.9745
  76   2.0000      -0.898811       -24.4579
  77   2.0000      -0.893457       -24.3122
  78   2.0000      -0.883794       -24.0493
  79   2.0000      -0.869272       -23.6541
  80   2.0000      -0.849345       -23.1119
  81   2.0000      -0.846836       -23.0436
  82   2.0000      -0.841669       -22.9030
  83   2.0000      -0.833032       -22.6679
  84   2.0000      -0.822238       -22.3742
  85   2.0000      -0.804816       -21.9001
  86   2.0000      -0.797466       -21.7001
  87   2.0000      -0.794863       -21.6293
  88   2.0000      -0.775722       -21.1085
  89   2.0000      -0.766142       -20.8478
  90   2.0000      -0.762631       -20.7522
  91   2.0000      -0.747596       -20.3431
  92   2.0000      -0.723665       -19.6919
  93   2.0000      -0.714985       -19.4557
  94   2.0000      -0.705036       -19.1850
  95   2.0000      -0.691585       -18.8190
  96   2.0000      -0.683249       -18.5922
  97   2.0000      -0.677203       -18.4276
  98   2.0000      -0.665808       -18.1176
  99   2.0000      -0.651175       -17.7194
 100   2.0000      -0.648878       -17.6569
 101   2.0000      -0.647382       -17.6162
 102   2.0000      -0.631845       -17.1934
 103   2.0000      -0.628709       -17.1081
 104   2.0000      -0.627166       -17.0660
 105   2.0000      -0.620208       -16.8767
 106   2.0000      -0.617564       -16.8048
 107   2.0000      -0.615594       -16.7512
 108   2.0000      -0.614002       -16.7078
 109   2.0000      -0.610772       -16.6199
 110   2.0000      -0.600078       -16.3289
 111   2.0000      -0.596862       -16.2415
 112   2.0000      -0.595312       -16.1992
 113   2.0000      -0.585464       -15.9313
 114   2.0000      -0.575219       -15.6525
 115   2.0000      -0.573543       -15.6069
 116   2.0000      -0.567870       -15.4525
 117   2.0000      -0.563261       -15.3271
 118   2.0000      -0.561601       -15.2819
 119   2.0000      -0.547708       -14.9039
 120   2.0000      -0.543971       -14.8022
 121   2.0000      -0.539816       -14.6891
 122   2.0000      -0.535852       -14.5813
 123   2.0000      -0.529311       -14.4033
 124   2.0000      -0.526919       -14.3382
 125   2.0000      -0.519657       -14.1406
 126   2.0000      -0.515575       -14.0295
 127   2.0000      -0.513296       -13.9675
 128   2.0000      -0.511773       -13.9260
 129   2.0000      -0.505969       -13.7681
 130   2.0000      -0.503936       -13.7128
 131   2.0000      -0.495643       -13.4871
 132   2.0000      -0.492431       -13.3997
 133   2.0000      -0.490450       -13.3458
 134   2.0000      -0.487885       -13.2760
 135   2.0000      -0.484648       -13.1879
 136   2.0000      -0.482971       -13.1423
 137   2.0000      -0.471604       -12.8330
 138   2.0000      -0.465326       -12.6622
 139   2.0000      -0.464630       -12.6432
 140   2.0000      -0.463111       -12.6019
 141   2.0000      -0.452606       -12.3160
 142   2.0000      -0.449847       -12.2410
 143   2.0000      -0.447847       -12.1865
 144   2.0000      -0.443434       -12.0664
 145   2.0000      -0.440452       -11.9853
 146   2.0000      -0.437352       -11.9010
 147   2.0000      -0.433644       -11.8000
 148   2.0000      -0.431148       -11.7321
 149   2.0000      -0.425843       -11.5878
 150   2.0000      -0.423958       -11.5365
 151   2.0000      -0.421675       -11.4743
 152   2.0000      -0.404893       -11.0177
 153   2.0000      -0.403878       -10.9901
 154   2.0000      -0.401443       -10.9238
 155   2.0000      -0.399491       -10.8707
 156   2.0000      -0.390619       -10.6293
 157   2.0000      -0.385500       -10.4900
 158   2.0000      -0.383083       -10.4242
 159   2.0000      -0.380873       -10.3641
 160   2.0000      -0.370359       -10.0780
 161   2.0000      -0.362747        -9.8708
 162   2.0000      -0.352943        -9.6041
 163   2.0000      -0.349875        -9.5206
 164   2.0000      -0.344106        -9.3636
 165   2.0000      -0.341559        -9.2943
 166   2.0000      -0.335773        -9.1369
 167   2.0000      -0.328117        -8.9285
 168   2.0000      -0.321380        -8.7452
 169   2.0000      -0.298146        -8.1130
 170   2.0000      -0.295417        -8.0387
 171   2.0000      -0.284126        -7.7315
 172   2.0000      -0.262598        -7.1457
 173   2.0000      -0.235286        -6.4025
 174   2.0000      -0.217069        -5.9067
 175   0.0000      -0.076730        -2.0879
 176   0.0000      -0.064810        -1.7636
 177   0.0000      -0.047558        -1.2941
 178   0.0000      -0.033314        -0.9065
 179   0.0000      -0.012578        -0.3423

MULLIKEN ATOMIC CHARGES
-----------------------
   0 C :   -0.029337
   1 C :   -0.060645
   2 C :    0.050129
   3 C :    0.031453
   4 C :   -0.068896
   5 S :    0.065517
   6 C :   -0.041599
   7 C :    0.024720
   8 C :    0.042247
   9 C :   -0.039602
  10 S :    0.024097
  11 C :    0.030387
  12 N :   -0.028718
  13 C :   -0.118368
  14 S :    0.143790
  15 C :   -0.014734
  16 N :    0.283231
  17 O :   -0.264373
  18 O :   -0.280054
  19 C :    0.011753
  20 C :    0.118928
  21 C :   -0.029325
  22 C :   -0.022416
  23 C :    0.002774
  24 C :   -0.188918
  25 C :    0.095550
  26 C :    0.210962
  27 N :   -0.157981
  28 C :    0.059614
  29 C :   -0.057963
  30 C :    0.024604
  31 C :   -0.028350
  32 N :   -0.106470
  33 N :   -0.018291
  34 C :   -0.234110
  35 S :    0.183012
  36 C :   -0.138084
  37 C :    0.110923
  38 C :    0.253619
  39 O :   -0.167600
  40 C :    0.237968
  41 N :    0.270933
  42 O :   -0.243005
  43 O :   -0.236238
  44 C :   -0.062524
  45 H :    0.019699
  46 H :    0.018956
  47 H :   -0.012280
  48 H :   -0.012293
  49 H :   -0.013655
  50 H :   -0.009758
  51 H :    0.023002
  52 H :    0.144289
  53 H :    0.006684
  54 H :   -0.008515
  55 H :   -0.014758
  56 H :   -0.024556
  57 H :    0.040576
  58 H :    0.027857
  59 H :   -0.005416
  60 H :    0.014252
  61 H :    0.004573
  62 H :    0.128739
  63 H :    0.017170
  64 H :   -0.054239
  65 H :    0.001153
  66 H :    0.016546
  67 H :    0.038257
  68 H :    0.015107
Sum of atomic charges:   -0.0000000

LOEWDIN ATOMIC CHARGES
----------------------
   0 C :   -0.079202
   1 C :   -0.138358
   2 C :   -0.032866
   3 C :   -0.025935
   4 C :   -0.183212
   5 S :    0.340468
   6 C :   -0.175003
   7 C :   -0.040129
   8 C :   -0.029318
   9 C :   -0.182151
  10 S :    0.341840
  11 C :   -0.011876
  12 N :    0.050112
  13 C :   -0.096191
  14 S :    0.445796
  15 C :   -0.220868
  16 N :    0.274800
  17 O :   -0.229520
  18 O :   -0.246736
  19 C :    0.006175
  20 C :   -0.108264
  21 C :   -0.023227
  22 C :   -0.040493
  23 C :   -0.052239
  24 C :   -0.028433
  25 C :   -0.055857
  26 C :    0.041270
  27 N :   -0.010381
  28 C :    0.041644
  29 C :   -0.140518
  30 C :   -0.029331
  31 C :   -0.064010
  32 N :   -0.008186
  33 N :   -0.030701
  34 C :   -0.228456
  35 S :    0.498988
  36 C :   -0.176229
  37 C :   -0.085336
  38 C :    0.021263
  39 O :    0.020858
  40 C :    0.024633
  41 N :    0.274985
  42 O :   -0.204498
  43 O :   -0.203080
  44 C :   -0.005437
  45 H :    0.028729
  46 H :    0.025499
  47 H :    0.033320
  48 H :    0.032216
  49 H :    0.032261
  50 H :    0.034692
  51 H :    0.030594
  52 H :    0.082197
  53 H :    0.045518
  54 H :    0.032324
  55 H :    0.018996
  56 H :    0.022615
  57 H :    0.040474
  58 H :    0.027214
  59 H :    0.023777
  60 H :    0.030063
  61 H :    0.025496
  62 H :    0.077261
  63 H :    0.023625
  64 H :    0.016318
  65 H :    0.020744
  66 H :    0.020340
  67 H :    0.031007
  68 H :    0.047928

  Mayer bond orders larger than 0.100000
B(  0-C ,  1-C ) :   1.8679 B(  0-C , 45-H ) :   0.9508 B(  0-C , 46-H ) :   0.9416
B(  1-C ,  2-C ) :   1.0778 B(  1-C ,  5-S ) :   1.0066 B(  2-C ,  3-C ) :   1.6674
B(  2-C , 47-H ) :   0.9931 B(  3-C ,  4-C ) :   1.1489 B(  3-C , 48-H ) :   0.9908
B(  4-C ,  5-S ) :   1.0346 B(  4-C ,  6-C ) :   1.5790 B(  6-C ,  7-C ) :   1.1628
B(  6-C , 10-S ) :   1.0330 B(  7-C ,  8-C ) :   1.6363 B(  7-C , 49-H ) :   0.9903
B(  8-C ,  9-C ) :   1.1409 B(  8-C , 50-H ) :   0.9933 B(  9-C , 10-S ) :   1.0063
B(  9-C , 11-C ) :   1.6233 B( 11-C , 12-N ) :   1.1325 B( 11-C , 51-H ) :   0.9610
B( 12-N , 13-C ) :   1.2479 B( 12-N , 52-H ) :   0.8905 B( 13-C , 14-S ) :   1.1337
B( 13-C , 20-C ) :   1.3495 B( 14-S , 15-C ) :   1.0594 B( 15-C , 16-N ) :   0.9968
B( 15-C , 19-C ) :   1.4628 B( 16-N , 17-O ) :   1.5204 B( 16-N , 18-O ) :   1.4943
B( 17-O , 18-O ) :   0.2479 B( 19-C , 20-C ) :   1.2454 B( 19-C , 53-H ) :   1.0078
B( 20-C , 21-C ) :   1.0416 B( 21-C , 22-C ) :   1.7175 B( 21-C , 54-H ) :   0.9737
B( 22-C , 23-C ) :   1.1136 B( 22-C , 55-H ) :   0.9532 B( 23-C , 24-C ) :   1.7857
B( 23-C , 56-H ) :   0.9738 B( 24-C , 25-C ) :   1.0624 B( 24-C , 26-C ) :   1.0438
B( 25-C , 57-H ) :   0.9446 B( 25-C , 58-H ) :   0.9444 B( 25-C , 59-H ) :   0.9496
B( 26-C , 27-N ) :   1.0327 B( 26-C , 60-H ) :   0.9312 B( 26-C , 61-H ) :   0.9327
B( 27-N , 28-C ) :   1.2095 B( 27-N , 62-H ) :   0.9367 B( 28-C , 29-C ) :   1.6847
B( 28-C , 63-H ) :   0.9416 B( 29-C , 30-C ) :   1.0999 B( 29-C , 64-H ) :   0.9616
B( 30-C , 31-C ) :   1.8136 B( 30-C , 32-N ) :   1.1728 B( 31-C , 65-H ) :   0.9404
B( 31-C , 66-H ) :   0.9323 B( 32-N , 33-N ) :   1.6128 B( 33-N , 34-C ) :   1.2836
B( 34-C , 35-S ) :   1.1479 B( 34-C , 38-C ) :   1.3557 B( 35-S , 36-C ) :   1.2278
B( 36-C , 37-C ) :   1.3963 B( 36-C , 67-H ) :   0.9780 B( 37-C , 38-C ) :   1.2382
B( 37-C , 44-C ) :   1.0713 B( 38-C , 39-O ) :   1.1169 B( 39-O , 40-C ) :   1.1187
B( 40-C , 41-N ) :   0.9164 B( 40-C , 44-C ) :   1.5764 B( 41-N , 42-O ) :   1.5373
B( 41-N , 43-O ) :   1.5136 B( 42-O , 43-O ) :   0.2770 B( 44-C , 68-H ) :   1.0264

-----------------------------------------------------------------------------
         ABSORPTION SPECTRUM VIA TRANSITION ELECTRIC DIPOLE MOMENTS
-----------------------------------------------------------------------------
State   Energy  Wavelength   fosc         T2         TX        TY        TZ
        (cm-1)    (nm)                  (au**2)     (au)      (au)      (au)
-----------------------------------------------------------------------------
   0   17431.5    573.7   0.018916399   0.35726   0.47097   0.08694   0.35761
   1   18666.8    535.7   1.220977917  21.53342   0.74168  -0.55023  -4.54759
   2   20784.7    481.1   0.007388299   0.11702   0.06644   0.10941   0.31724
   3   21261.6    470.3   0.000135940   0.00210  -0.01019   0.01527   0.04205
   4   21603.2    462.9   0.021042515   0.32067   0.10734  -0.11833  -0.54327
   5   25576.5    391.0   0.008681537   0.11175  -0.23546   0.12884  -0.19926
   6   25870.2    386.5   0.013736189   0.17480   0.27696  -0.09156   0.29952
   7   26637.7    375.4   0.111691205   1.38038  -1.16057   0.10004  -0.15312
   8   26906.5    371.7   0.008374540   0.10247   0.12683  -0.01604   0.29346
   9   27134.3    368.5   0.022191399   0.26924   0.03105   0.07997   0.51174
  10   28942.5    345.5   0.437516510   4.97662  -0.83619   1.34053  -1.57492
  11   29677.0    337.0   0.003106645   0.03446  -0.17726  -0.03508  -0.04257
  12   30092.2    332.3   0.062198881   0.68046  -0.73297   0.00721  -0.37838
  13   30201.2    331.1   0.003630317   0.03957   0.06190   0.13159   0.13574
  14   31303.9    319.4   0.010408573   0.10946  -0.15172   0.15266  -0.25128
  15   32072.2    311.8   0.517530916   5.31231   1.78717   0.28661   1.42695
  16   32890.8    304.0   0.000319909   0.00320  -0.05006   0.00013  -0.02637
  17   33274.9    300.5   0.018619893   0.18422   0.17866  -0.25651   0.29411
  18   33403.3    299.4   0.101825304   1.00356  -0.44999   0.88145  -0.15529
  19   33990.6    294.2   0.223835379   2.16793   0.24371  -0.48091   1.37013
  20   34544.2    289.5   0.000203831   0.00194   0.02123  -0.01672   0.03482
  21   35515.8    281.6   0.026114873   0.24207   0.22350   0.00430   0.43829
  22   35592.6    281.0   0.489113843   4.52404  -1.12961   0.61970   1.69233
  23   36915.4    270.9   0.024606716   0.21944   0.03972  -0.09199   0.45761
  24   37774.9    264.7   0.000375662   0.00327   0.00170  -0.00240   0.05714
  25   38735.6    258.2   0.000241225   0.00205   0.02757  -0.02737   0.02326
  26   39106.4    255.7   0.408176563   3.43618  -0.78483   0.89952  -1.41813
  27   39710.6    251.8   0.042593326   0.35311   0.30741  -0.31836   0.39656

FINAL SINGLE POINT ENERGY     -3451.851334690251

DIPOLE MOMENT
-------------
                                X             Y             Z
Electronic contribution:    -18.23037      -4.13291      14.51582
Nuclear contribution   :     17.54818       3.68075     -17.39950
                        -----------------------------------------
Total Dipole Moment    :     -0.68219      -0.45216      -2.88368
                        -----------------------------------------
Magnitude (a.u.)       :      2.99757
Magnitude (Debye)      :      7.61922

Rotational constants in cm-1:     0.001826     0.000913     0.000647
Rotational constants in MHz :    54.752697    27.382870    19.401071

                             ****ORCA TERMINATED NORMALLY****
TOTAL RUN TIME: 0 days 0 hours 4 minutes 48 seconds 325 msec
