                         Program Version 4.2.0 -  RELEASE  -
|  1> # ORCA input file
|  2> # SCF done       -157.596860019733          0.000552337727
|  3> ! CAM-B3LYP def2-SVP def2/J RIJCOSX Grid4 TightSCF
|  4> %maxcore 5000
|  5> %tddft
|  6>     Mode sTDDFT
|  7>     Ethresh 5.0
|  8>     maxcore 5000
|  9> end
| 10>
| 11> %pal
| 12>   nprocs 6
| 13>   end
| 14> * xyz 0 1
| 15>    C       -4.50940         0.55327        -6.02386
| 16>    C       -4.26439         0.64110        -4.71011
| 17>    C       -4.67094         1.68144        -3.80795
| 18>    C       -4.27717         1.49987        -2.52935
| 19>    C       -3.53017         0.30719        -2.30833
| 20>    S       -3.34756        -0.57955        -3.81211
| 21>    C       -3.01057        -0.13875        -1.12034
| 22>    C       -3.08779         0.47819         0.15568
| 23>    C       -2.48136        -0.21350         1.15216
| 24>    C       -1.88202        -1.43283         0.73401
| 25>    S       -2.12040        -1.64864        -1.00468
| 26>    C       -1.22687        -2.33292         1.51524
| 27>    N       -0.69054        -3.48538         1.03066
| 28>    C       -0.07726        -4.45027         1.74953
| 29>    S        0.07141        -4.32458         3.47417
| 30>    C        0.85636        -5.87598         3.50162
| 31>    N        1.27230        -6.35472         4.73847
| 32>    O        1.82934        -7.44035         4.77658
| 33>    O        1.04685        -5.64118         5.70774
| 34>    C        0.98651        -6.44266         2.26052
| 35>    C        0.46196        -5.64212         1.23016
| 36>    C        0.49293        -5.95240        -0.16988
| 37>    C        0.75809        -7.18228        -0.66966
| 38>    C        0.86384        -7.53343        -2.03825
| 39>    S        0.67174        -9.22305        -2.43772
| 40>    C        0.85490        -8.92244        -4.12002
| 41>    C        1.08566        -7.56980        -4.38518
| 42>    C        1.10408        -6.77439        -3.19533
| 43>    C        1.40789        -5.40783        -3.30868
| 44>    C        1.63015        -4.84004        -4.54607
| 45>    O        1.92158        -3.51534        -4.54609
| 46>    C        2.15608        -2.86747        -5.77661
| 47>    C        1.55939        -5.62877        -5.71963
| 48>    C        1.30396        -6.96508        -5.63825
| 49>    N        0.81639        -9.87867        -5.09271
| 50>    C        0.53755       -11.19693        -5.02743
| 51>    S       -0.02113       -11.98299        -3.59043
| 52>    C       -0.19591       -13.46265        -4.49425
| 53>    N       -0.65901       -14.58165        -3.81254
| 54>    O       -0.77934       -15.62314        -4.43960
| 55>    O       -0.91575       -14.43702        -2.62577
| 56>    C        0.16378       -13.34628        -5.81354
| 57>    C        0.60184       -12.05757        -6.14238
| 58>    C        1.09215       -11.60578        -7.41686
| 59>    C        0.91178       -12.22092        -8.59643
| 60>    N        1.36070       -11.75185        -9.81330
| 61>    C        1.77006       -10.51019       -10.16060
| 62>    S        1.62861        -9.12557        -9.12092
| 63>    C        2.14969        -8.08788       -10.41436
| 64>    N        2.25854        -6.73860       -10.12342
| 65>    O        2.63198        -5.97910       -11.00183
| 66>    O        1.96574        -6.40131        -8.97852
| 67>    C        2.41246        -8.77808       -11.57136
| 68>    C        2.22247       -10.15983       -11.44163
| 69>    C        2.47496       -11.08645       -12.53374
| 70>    C        2.88807       -12.34470       -12.42524
| 71>    H       -5.07173         1.31898        -6.52833
| 72>    H       -4.15746        -0.27410        -6.61219
| 73>    H       -5.24350         2.52015        -4.16251
| 74>    H       -4.49633         2.17937        -1.72478
| 75>    H       -3.59264         1.41712         0.29405
| 76>    H       -2.44119         0.10054         2.17978
| 77>    H       -1.11476        -2.15813         2.57471
| 78>    H       -0.78871        -3.64219         0.03314
| 79>    H        1.46613        -7.39341         2.11975
| 80>    H        0.27516        -5.14553        -0.85297
| 81>    H        0.85601        -8.01078         0.01939
| 82>    H        1.51089        -4.78179        -2.43981
| 83>    H        2.36466        -1.82928        -5.52334
| 84>    H        1.27802        -2.91138        -6.42737
| 85>    H        3.01821        -3.29321        -6.29824
| 86>    H        1.72674        -5.19954        -6.69296
| 87>    H        1.27930        -7.54233        -6.55085
| 88>    H        1.01069        -9.51642        -6.02050
| 89>    H        0.12467       -14.17974        -6.48975
| 90>    H        1.68280       -10.70321        -7.39201
| 91>    H        0.38197       -13.15841        -8.66605
| 92>    H        1.28764       -12.38969       -10.59738
| 93>    H        2.74888        -8.29277       -12.46965
| 94>    H        2.33841       -10.65647       -13.51749
| 95>    H        3.12848       -12.80777       -11.48222
| 96>    H        3.06013       -12.94651       -13.30037
| 97> *
| 98>
| 99>                          ****END OF INPUT****

CARTESIAN COORDINATES (ANGSTROEM)
---------------------------------
  C     -4.509400    0.553270   -6.023860
  C     -4.264390    0.641100   -4.710110
  C     -4.670940    1.681440   -3.807950
  C     -4.277170    1.499870   -2.529350
  C     -3.530170    0.307190   -2.308330
  S     -3.347560   -0.579550   -3.812110
  C     -3.010570   -0.138750   -1.120340
  C     -3.087790    0.478190    0.155680
  C     -2.481360   -0.213500    1.152160
  C     -1.882020   -1.432830    0.734010
  S     -2.120400   -1.648640   -1.004680
  C     -1.226870   -2.332920    1.515240
  N     -0.690540   -3.485380    1.030660
  C     -0.077260   -4.450270    1.749530
  S      0.071410   -4.324580    3.474170
  C      0.856360   -5.875980    3.501620
  N      1.272300   -6.354720    4.738470
  O      1.829340   -7.440350    4.776580
  O      1.046850   -5.641180    5.707740
  C      0.986510   -6.442660    2.260520
  C      0.461960   -5.642120    1.230160
  C      0.492930   -5.952400   -0.169880
  C      0.758090   -7.182280   -0.669660
  C      0.863840   -7.533430   -2.038250
  S      0.671740   -9.223050   -2.437720
  C      0.854900   -8.922440   -4.120020
  C      1.085660   -7.569800   -4.385180
  C      1.104080   -6.774390   -3.195330
  C      1.407890   -5.407830   -3.308680
  C      1.630150   -4.840040   -4.546070
  O      1.921580   -3.515340   -4.546090
  C      2.156080   -2.867470   -5.776610
  C      1.559390   -5.628770   -5.719630
  C      1.303960   -6.965080   -5.638250
  N      0.816390   -9.878670   -5.092710
  C      0.537550  -11.196930   -5.027430
  S     -0.021130  -11.982990   -3.590430
  C     -0.195910  -13.462650   -4.494250
  N     -0.659010  -14.581650   -3.812540
  O     -0.779340  -15.623140   -4.439600
  O     -0.915750  -14.437020   -2.625770
  C      0.163780  -13.346280   -5.813540
  C      0.601840  -12.057570   -6.142380
  C      1.092150  -11.605780   -7.416860
  C      0.911780  -12.220920   -8.596430
  N      1.360700  -11.751850   -9.813300
  C      1.770060  -10.510190  -10.160600
  S      1.628610   -9.125570   -9.120920
  C      2.149690   -8.087880  -10.414360
  N      2.258540   -6.738600  -10.123420
  O      2.631980   -5.979100  -11.001830
  O      1.965740   -6.401310   -8.978520
  C      2.412460   -8.778080  -11.571360
  C      2.222470  -10.159830  -11.441630
  C      2.474960  -11.086450  -12.533740
  C      2.888070  -12.344700  -12.425240
  H     -5.071730    1.318980   -6.528330
  H     -4.157460   -0.274100   -6.612190
  H     -5.243500    2.520150   -4.162510
  H     -4.496330    2.179370   -1.724780
  H     -3.592640    1.417120    0.294050
  H     -2.441190    0.100540    2.179780
  H     -1.114760   -2.158130    2.574710
  H     -0.788710   -3.642190    0.033140
  H      1.466130   -7.393410    2.119750
  H      0.275160   -5.145530   -0.852970
  H      0.856010   -8.010780    0.019390
  H      1.510890   -4.781790   -2.439810
  H      2.364660   -1.829280   -5.523340
  H      1.278020   -2.911380   -6.427370
  H      3.018210   -3.293210   -6.298240
  H      1.726740   -5.199540   -6.692960
  H      1.279300   -7.542330   -6.550850
  H      1.010690   -9.516420   -6.020500
  H      0.124670  -14.179740   -6.489750
  H      1.682800  -10.703210   -7.392010
  H      0.381970  -13.158410   -8.666050
  H      1.287640  -12.389690  -10.597380
  H      2.748880   -8.292770  -12.469650
  H      2.338410  -10.656470  -13.517490
  H      3.128480  -12.807770  -11.482220
  H      3.060130  -12.946510  -13.300370

 Total Charge           Charge          ....    0
 Multiplicity           Mult            ....    1
 Number of Electrons    NEL             ....  442
 Basis Dimension        Dim             ....  938

ORBITAL ENERGIES
----------------

  NO   OCC          E(Eh)            E(eV)
   0   2.0000     -88.999747     -2421.8062
   1   2.0000     -88.985015     -2421.4054
   2   2.0000     -88.974216     -2421.1115
   3   2.0000     -88.970650     -2421.0145
   4   2.0000     -88.944815     -2420.3115
   5   2.0000     -88.933279     -2419.9975
   6   2.0000     -19.245924      -523.7082
   7   2.0000     -19.245056      -523.6846
   8   2.0000     -19.241498      -523.5878
   9   2.0000     -19.228160      -523.2248
  10   2.0000     -19.227199      -523.1987
  11   2.0000     -19.218219      -522.9543
  12   2.0000     -19.217883      -522.9452
  13   2.0000     -14.657150      -398.8413
  14   2.0000     -14.639931      -398.3728
  15   2.0000     -14.630137      -398.1063
  16   2.0000     -14.495251      -394.4358
  17   2.0000     -14.494516      -394.4158
  18   2.0000     -14.479557      -394.0088
  19   2.0000     -10.384317      -282.5716
  20   2.0000     -10.371541      -282.2240
  21   2.0000     -10.356151      -281.8052
  22   2.0000     -10.354591      -281.7627
  23   2.0000     -10.347640      -281.5736
  24   2.0000     -10.344725      -281.4943
  25   2.0000     -10.335742      -281.2498
  26   2.0000     -10.333150      -281.1793
  27   2.0000     -10.329106      -281.0693
  28   2.0000     -10.324711      -280.9497
  29   2.0000     -10.320634      -280.8387
  30   2.0000     -10.318372      -280.7772
  31   2.0000     -10.308656      -280.5128
  32   2.0000     -10.308500      -280.5085
  33   2.0000     -10.308307      -280.5033
  34   2.0000     -10.308275      -280.5024
  35   2.0000     -10.305525      -280.4276
  36   2.0000     -10.303178      -280.3637
  37   2.0000     -10.301978      -280.3311
  38   2.0000     -10.301791      -280.3260
  39   2.0000     -10.301321      -280.3132
  40   2.0000     -10.294287      -280.1218
  41   2.0000     -10.294045      -280.1152
  42   2.0000     -10.292758      -280.0802
  43   2.0000     -10.286764      -279.9171
  44   2.0000     -10.285754      -279.8896
  45   2.0000     -10.285357      -279.8788
  46   2.0000     -10.285256      -279.8760
  47   2.0000     -10.284977      -279.8684
  48   2.0000     -10.283794      -279.8363
  49   2.0000     -10.282512      -279.8014
  50   2.0000     -10.281798      -279.7820
  51   2.0000     -10.279118      -279.7090
  52   2.0000     -10.275540      -279.6117
  53   2.0000     -10.272904      -279.5399
  54   2.0000     -10.264011      -279.2980
  55   2.0000     -10.261676      -279.2344
  56   2.0000      -8.094153      -220.2531
  57   2.0000      -8.079994      -219.8678
  58   2.0000      -8.069326      -219.5775
  59   2.0000      -8.066105      -219.4899
  60   2.0000      -8.041111      -218.8098
  61   2.0000      -8.029984      -218.5070
  62   2.0000      -6.063830      -165.0052
  63   2.0000      -6.059418      -164.8851
  64   2.0000      -6.055797      -164.7866
  65   2.0000      -6.049718      -164.6212
  66   2.0000      -6.045294      -164.5008
  67   2.0000      -6.041372      -164.3941
  68   2.0000      -6.038634      -164.3196
  69   2.0000      -6.035846      -164.2437
  70   2.0000      -6.034294      -164.2015
  71   2.0000      -6.031663      -164.1299
  72   2.0000      -6.031490      -164.1252
  73   2.0000      -6.027376      -164.0132
  74   2.0000      -6.011015      -163.5680
  75   2.0000      -6.007117      -163.4620
  76   2.0000      -6.001617      -163.3123
  77   2.0000      -5.999849      -163.2642
  78   2.0000      -5.995964      -163.1585
  79   2.0000      -5.990420      -163.0076
  80   2.0000      -1.323314       -36.0092
  81   2.0000      -1.307134       -35.5689
  82   2.0000      -1.297197       -35.2985
  83   2.0000      -1.146439       -31.1962
  84   2.0000      -1.141963       -31.0744
  85   2.0000      -1.126001       -30.6401
  86   2.0000      -1.116106       -30.3708
  87   2.0000      -1.102347       -29.9964
  88   2.0000      -1.099395       -29.9161
  89   2.0000      -1.086019       -29.5521
  90   2.0000      -1.014214       -27.5982
  91   2.0000      -1.008254       -27.4360
  92   2.0000      -0.993755       -27.0414
  93   2.0000      -0.985786       -26.8246
  94   2.0000      -0.984561       -26.7913
  95   2.0000      -0.963658       -26.2225
  96   2.0000      -0.932890       -25.3852
  97   2.0000      -0.929784       -25.3007
  98   2.0000      -0.915951       -24.9243
  99   2.0000      -0.906580       -24.6693
 100   2.0000      -0.894067       -24.3288
 101   2.0000      -0.889858       -24.2143
 102   2.0000      -0.883091       -24.0301
 103   2.0000      -0.870067       -23.6757
 104   2.0000      -0.859137       -23.3783
 105   2.0000      -0.854447       -23.2507
 106   2.0000      -0.849896       -23.1269
 107   2.0000      -0.843888       -22.9633
 108   2.0000      -0.841729       -22.9046
 109   2.0000      -0.837835       -22.7987
 110   2.0000      -0.834520       -22.7085
 111   2.0000      -0.817620       -22.2486
 112   2.0000      -0.814495       -22.1635
 113   2.0000      -0.794961       -21.6320
 114   2.0000      -0.791521       -21.5384
 115   2.0000      -0.776056       -21.1176
 116   2.0000      -0.766404       -20.8549
 117   2.0000      -0.746843       -20.3226
 118   2.0000      -0.738980       -20.1087
 119   2.0000      -0.721456       -19.6318
 120   2.0000      -0.717362       -19.5204
 121   2.0000      -0.714614       -19.4456
 122   2.0000      -0.710507       -19.3339
 123   2.0000      -0.707464       -19.2511
 124   2.0000      -0.692772       -18.8513
 125   2.0000      -0.684524       -18.6269
 126   2.0000      -0.677604       -18.4385
 127   2.0000      -0.672059       -18.2877
 128   2.0000      -0.650451       -17.6997
 129   2.0000      -0.649704       -17.6793
 130   2.0000      -0.643702       -17.5160
 131   2.0000      -0.638846       -17.3839
 132   2.0000      -0.637315       -17.3422
 133   2.0000      -0.627876       -17.0854
 134   2.0000      -0.626942       -17.0600
 135   2.0000      -0.622986       -16.9523
 136   2.0000      -0.621241       -16.9048
 137   2.0000      -0.618313       -16.8252
 138   2.0000      -0.617246       -16.7961
 139   2.0000      -0.611870       -16.6498
 140   2.0000      -0.611238       -16.6326
 141   2.0000      -0.610591       -16.6150
 142   2.0000      -0.607830       -16.5399
 143   2.0000      -0.601030       -16.3549
 144   2.0000      -0.595753       -16.2113
 145   2.0000      -0.590678       -16.0732
 146   2.0000      -0.588526       -16.0146
 147   2.0000      -0.585888       -15.9428
 148   2.0000      -0.580482       -15.7957
 149   2.0000      -0.574337       -15.6285
 150   2.0000      -0.573154       -15.5963
 151   2.0000      -0.570209       -15.5162
 152   2.0000      -0.563805       -15.3419
 153   2.0000      -0.557689       -15.1755
 154   2.0000      -0.551430       -15.0052
 155   2.0000      -0.549239       -14.9455
 156   2.0000      -0.547455       -14.8970
 157   2.0000      -0.545591       -14.8463
 158   2.0000      -0.541268       -14.7286
 159   2.0000      -0.536015       -14.5857
 160   2.0000      -0.529923       -14.4199
 161   2.0000      -0.527668       -14.3586
 162   2.0000      -0.520668       -14.1681
 163   2.0000      -0.517255       -14.0752
 164   2.0000      -0.514915       -14.0115
 165   2.0000      -0.512013       -13.9326
 166   2.0000      -0.509295       -13.8586
 167   2.0000      -0.504621       -13.7314
 168   2.0000      -0.501799       -13.6546
 169   2.0000      -0.498393       -13.5620
 170   2.0000      -0.494674       -13.4608
 171   2.0000      -0.493789       -13.4367
 172   2.0000      -0.490565       -13.3490
 173   2.0000      -0.487593       -13.2681
 174   2.0000      -0.480532       -13.0759
 175   2.0000      -0.475892       -12.9497
 176   2.0000      -0.472037       -12.8448
 177   2.0000      -0.467612       -12.7244
 178   2.0000      -0.464522       -12.6403
 179   2.0000      -0.463567       -12.6143
 180   2.0000      -0.461088       -12.5468
 181   2.0000      -0.458981       -12.4895
 182   2.0000      -0.455238       -12.3877
 183   2.0000      -0.454248       -12.3607
 184   2.0000      -0.446525       -12.1506
 185   2.0000      -0.441663       -12.0183
 186   2.0000      -0.437965       -11.9176
 187   2.0000      -0.434207       -11.8154
 188   2.0000      -0.428648       -11.6641
 189   2.0000      -0.425449       -11.5771
 190   2.0000      -0.419808       -11.4236
 191   2.0000      -0.418772       -11.3954
 192   2.0000      -0.406289       -11.0557
 193   2.0000      -0.399740       -10.8775
 194   2.0000      -0.397938       -10.8284
 195   2.0000      -0.396543       -10.7905
 196   2.0000      -0.395442       -10.7605
 197   2.0000      -0.391585       -10.6556
 198   2.0000      -0.386022       -10.5042
 199   2.0000      -0.379445       -10.3252
 200   2.0000      -0.377851       -10.2819
 201   2.0000      -0.376528       -10.2458
 202   2.0000      -0.374023       -10.1777
 203   2.0000      -0.368401       -10.0247
 204   2.0000      -0.367522       -10.0008
 205   2.0000      -0.359665        -9.7870
 206   2.0000      -0.357124        -9.7178
 207   2.0000      -0.350211        -9.5297
 208   2.0000      -0.347174        -9.4471
 209   2.0000      -0.347061        -9.4440
 210   2.0000      -0.336650        -9.1607
 211   2.0000      -0.336628        -9.1601
 212   2.0000      -0.331392        -9.0176
 213   2.0000      -0.320885        -8.7317
 214   2.0000      -0.316632        -8.6160
 215   2.0000      -0.309368        -8.4183
 216   2.0000      -0.292315        -7.9543
 217   2.0000      -0.279123        -7.5953
 218   2.0000      -0.265820        -7.2333
 219   2.0000      -0.225694        -6.1414
 220   2.0000      -0.206260        -5.6126
 221   0.0000      -0.069495        -1.8911
 222   0.0000      -0.062163        -1.6915
 223   0.0000      -0.057172        -1.5557
 224   0.0000      -0.034398        -0.9360
 225   0.0000      -0.027357        -0.7444

MULLIKEN ATOMIC CHARGES
-----------------------
   0 C :   -0.035935
   1 C :   -0.060982
   2 C :    0.048388
   3 C :    0.028502
   4 C :   -0.069609
   5 S :    0.069025
   6 C :   -0.045374
   7 C :    0.025246
   8 C :    0.039426
   9 C :   -0.041125
  10 S :    0.035975
  11 C :    0.020924
  12 N :   -0.028568
  13 C :   -0.118346
  14 S :    0.138741
  15 C :   -0.010557
  16 N :    0.281721
  17 O :   -0.264091
  18 O :   -0.280824
  19 C :    0.005277
  20 C :    0.126017
  21 C :   -0.072505
  22 C :    0.049527
  23 C :   -0.150813
  24 S :    0.133070
  25 C :   -0.131080
  26 C :    0.143167
  27 C :    0.151794
  28 C :   -0.111288
  29 C :    0.242788
  30 O :   -0.305046
  31 C :    0.171110
  32 C :   -0.081465
  33 C :   -0.061168
  34 N :    0.005648
  35 C :   -0.100586
  36 S :    0.166733
  37 C :   -0.016387
  38 N :    0.278859
  39 O :   -0.266196
  40 O :   -0.272023
  41 C :    0.006120
  42 C :    0.116037
  43 C :   -0.086288
  44 C :    0.045531
  45 N :   -0.022528
  46 C :   -0.079385
  47 S :    0.102256
  48 C :   -0.006689
  49 N :    0.299072
  50 O :   -0.253351
  51 O :   -0.290842
  52 C :    0.018668
  53 C :    0.077749
  54 C :   -0.030650
  55 C :   -0.052322
  56 H :    0.017344
  57 H :    0.018569
  58 H :   -0.013966
  59 H :   -0.013036
  60 H :   -0.015245
  61 H :   -0.011120
  62 H :    0.024878
  63 H :    0.150580
  64 H :    0.007208
  65 H :   -0.031998
  66 H :   -0.018871
  67 H :   -0.032725
  68 H :    0.038817
  69 H :    0.029620
  70 H :    0.029709
  71 H :   -0.012785
  72 H :   -0.044289
  73 H :    0.141867
  74 H :    0.002071
  75 H :    0.006280
  76 H :    0.016183
  77 H :    0.139239
  78 H :    0.010794
  79 H :    0.013586
  80 H :    0.026685
  81 H :    0.039257
Sum of atomic charges:    0.0000000

LOEWDIN ATOMIC CHARGES
----------------------
   0 C :   -0.085113
   1 C :   -0.137854
   2 C :   -0.036281
   3 C :   -0.025908
   4 C :   -0.186156
   5 S :    0.341385
   6 C :   -0.173392
   7 C :   -0.042015
   8 C :   -0.029015
   9 C :   -0.185020
  10 S :    0.334403
  11 C :   -0.013226
  12 N :    0.048980
  13 C :   -0.103711
  14 S :    0.443525
  15 C :   -0.216539
  16 N :    0.274345
  17 O :   -0.229713
  18 O :   -0.246877
  19 C :    0.003181
  20 C :   -0.102207
  21 C :   -0.057056
  22 C :   -0.037626
  23 C :   -0.209579
  24 S :    0.456679
  25 C :   -0.144261
  26 C :   -0.085256
  27 C :   -0.024954
  28 C :   -0.062295
  29 C :    0.062040
  30 O :   -0.100586
  31 C :    0.077245
  32 C :   -0.053199
  33 C :   -0.011470
  34 N :    0.043295
  35 C :   -0.106459
  36 S :    0.458607
  37 C :   -0.218362
  38 N :    0.274185
  39 O :   -0.231577
  40 O :   -0.239146
  41 C :   -0.002185
  42 C :   -0.108890
  43 C :   -0.091852
  44 C :    0.018938
  45 N :    0.042336
  46 C :   -0.085160
  47 S :    0.461917
  48 C :   -0.226607
  49 N :    0.280337
  50 O :   -0.218308
  51 O :   -0.257686
  52 C :    0.010236
  53 C :   -0.111835
  54 C :   -0.015049
  55 C :   -0.059209
  56 H :    0.027484
  57 H :    0.024832
  58 H :    0.032402
  59 H :    0.031655
  60 H :    0.031571
  61 H :    0.033913
  62 H :    0.029990
  63 H :    0.088051
  64 H :    0.042803
  65 H :    0.019586
  66 H :    0.026168
  67 H :    0.028637
  68 H :    0.029937
  69 H :    0.017723
  70 H :    0.017626
  71 H :    0.033623
  72 H :    0.016531
  73 H :    0.095306
  74 H :    0.041247
  75 H :    0.004689
  76 H :    0.032467
  77 H :    0.096181
  78 H :    0.047645
  79 H :    0.037570
  80 H :    0.020780
  81 H :    0.031585

  Mayer bond orders larger than 0.100000
B(  0-C ,  1-C ) :   1.8663 B(  0-C , 56-H ) :   0.9501 B(  0-C , 57-H ) :   0.9416
B(  1-C ,  2-C ) :   1.0798 B(  1-C ,  5-S ) :   1.0083 B(  2-C ,  3-C ) :   1.6657
B(  2-C , 58-H ) :   0.9924 B(  3-C ,  4-C ) :   1.1501 B(  3-C , 59-H ) :   0.9911
B(  4-C ,  5-S ) :   1.0332 B(  4-C ,  6-C ) :   1.5779 B(  6-C ,  7-C ) :   1.1637
B(  6-C , 10-S ) :   1.0336 B(  7-C ,  8-C ) :   1.6331 B(  7-C , 60-H ) :   0.9909
B(  8-C ,  9-C ) :   1.1410 B(  8-C , 61-H ) :   0.9945 B(  9-C , 10-S ) :   1.0048
B(  9-C , 11-C ) :   1.6276 B( 11-C , 12-N ) :   1.1341 B( 11-C , 62-H ) :   0.9581
B( 12-N , 13-C ) :   1.2424 B( 12-N , 63-H ) :   0.9044 B( 13-C , 14-S ) :   1.1256
B( 13-C , 20-C ) :   1.3324 B( 14-S , 15-C ) :   1.0595 B( 15-C , 16-N ) :   0.9948
B( 15-C , 19-C ) :   1.4734 B( 16-N , 17-O ) :   1.5182 B( 16-N , 18-O ) :   1.4940
B( 17-O , 18-O ) :   0.2475 B( 19-C , 20-C ) :   1.2446 B( 19-C , 64-H ) :   0.9976
B( 20-C , 21-C ) :   1.0790 B( 21-C , 22-C ) :   1.7089 B( 21-C , 65-H ) :   0.9644
B( 22-C , 23-C ) :   1.1544 B( 22-C , 66-H ) :   0.9471 B( 23-C , 24-S ) :   1.0860
B( 23-C , 25-C ) :   0.1103 B( 23-C , 27-C ) :   1.3407 B( 24-S , 25-C ) :   1.1734
B( 25-C , 26-C ) :   1.3013 B( 25-C , 34-N ) :   1.1605 B( 26-C , 27-C ) :   1.2275
B( 26-C , 33-C ) :   1.1402 B( 27-C , 28-C ) :   1.1997 B( 28-C , 29-C ) :   1.4849
B( 28-C , 67-H ) :   0.9971 B( 29-C , 30-O ) :   1.1598 B( 29-C , 32-C ) :   1.1401
B( 30-O , 31-C ) :   0.9596 B( 31-C , 68-H ) :   0.9785 B( 31-C , 69-H ) :   0.9710
B( 31-C , 70-H ) :   0.9711 B( 32-C , 33-C ) :   1.5747 B( 32-C , 71-H ) :   0.9882
B( 33-C , 72-H ) :   0.9884 B( 34-N , 35-C ) :   1.2347 B( 34-N , 73-H ) :   0.8848
B( 35-C , 36-S ) :   1.1358 B( 35-C , 42-C ) :   1.3370 B( 36-S , 37-C ) :   1.0675
B( 37-C , 38-N ) :   0.9953 B( 37-C , 41-C ) :   1.4635 B( 38-N , 39-O ) :   1.5163
B( 38-N , 40-O ) :   1.4998 B( 39-O , 40-O ) :   0.2490 B( 41-C , 42-C ) :   1.2739
B( 41-C , 74-H ) :   0.9985 B( 42-C , 43-C ) :   1.0910 B( 43-C , 44-C ) :   1.7421
B( 43-C , 75-H ) :   0.9215 B( 44-C , 45-N ) :   1.1073 B( 44-C , 76-H ) :   0.9658
B( 45-N , 46-C ) :   1.2455 B( 45-N , 77-H ) :   0.8991 B( 46-C , 47-S ) :   1.1361
B( 46-C , 53-C ) :   1.3615 B( 47-S , 48-C ) :   1.0659 B( 48-C , 49-N ) :   1.0052
B( 48-C , 52-C ) :   1.4401 B( 49-N , 50-O ) :   1.5275 B( 49-N , 51-O ) :   1.4363
B( 50-O , 51-O ) :   0.2413 B( 52-C , 53-C ) :   1.2798 B( 52-C , 78-H ) :   1.0061
B( 53-C , 54-C ) :   1.0542 B( 54-C , 55-C ) :   1.9364 B( 54-C , 79-H ) :   0.9614
B( 55-C , 80-H ) :   0.9621 B( 55-C , 81-H ) :   0.9502

-----------------------------------------------------------------------------
         ABSORPTION SPECTRUM VIA TRANSITION ELECTRIC DIPOLE MOMENTS
-----------------------------------------------------------------------------
State   Energy  Wavelength   fosc         T2         TX        TY        TZ
        (cm-1)    (nm)                  (au**2)     (au)      (au)      (au)
-----------------------------------------------------------------------------
   0   16612.1    602.0   0.716773563  14.20469   1.49161  -3.39209  -0.68813
   1   18081.3    553.1   0.636420998  11.58749   1.01343  -2.12593   2.45782
   2   19073.8    524.3   0.488836549   8.43726  -1.31167  -0.67595  -2.50197
   3   22102.3    452.4   0.257152212   3.83027  -0.75019  -0.19647  -1.79691
   4   23138.4    432.2   0.069310287   0.98614  -0.74076   0.10185  -0.65349
   5   23830.6    419.6   0.408878915   5.64854  -0.28597  -1.21938   2.01987
   6   24279.3    411.9   0.056004001   0.75938  -0.19424   0.81936   0.22427
   7   25336.7    394.7   0.209848206   2.72666  -0.00907   0.28665  -1.62616
   8   26138.4    382.6   0.179624683   2.26237   0.43924   1.42023  -0.22885
   9   28757.1    347.7   0.150416685   1.72197   0.31983   0.60368  -1.12038
  10   28814.5    347.0   0.192841719   2.20326  -0.10681   0.14351  -1.47352
  11   29411.6    340.0   0.186279969   2.08508  -0.22874  -1.41653  -0.16191
  12   29919.7    334.2   0.112946303   1.24277   0.16667   0.72694  -0.82858
  13   30788.0    324.8   0.086999257   0.93027  -0.19166   0.09431   0.94055
  14   31003.6    322.5   0.009901459   0.10514  -0.05122   0.18228   0.26323
  15   31927.2    313.2   0.019221342   0.19820   0.16590  -0.38221  -0.15680
  16   32154.9    311.0   0.311092878   3.18507   0.10766  -1.74782  -0.34439
  17   32349.1    309.1   0.089774934   0.91362   0.51508   0.18202  -0.78434
  18   33441.1    299.0   0.006830320   0.06724   0.09262   0.22749  -0.08312
  19   33531.2    298.2   0.023209978   0.22788   0.00770   0.32248   0.35188
  20   33809.4    295.8   0.101336059   0.98674  -0.12008  -0.97286   0.16082
  21   34339.6    291.2   0.046560325   0.44637  -0.26346   0.61176   0.05211
  22   34830.0    287.1   0.182895939   1.72873  -0.23193  -0.25535   1.26875
  23   35469.3    281.9   0.146454508   1.35933   0.43708   0.48444  -0.96623
  24   35711.3    280.0   0.006612660   0.06096  -0.05671   0.09059   0.22257
  25   35819.8    279.2   0.117448505   1.07944  -0.29303  -0.54337   0.83566
  26   36237.6    276.0   0.031255645   0.28395   0.15928   0.50784   0.02618
  27   36426.1    274.5   0.066105702   0.59745   0.12717   0.06314  -0.75980
  28   37129.9    269.3   0.008074749   0.07159   0.04977   0.25421   0.06704
  29   37702.2    265.2   0.081526304   0.71188  -0.02418   0.64899   0.53862
  30   38022.4    263.0   0.080502013   0.69702  -0.22174   0.11643   0.79642
  31   38250.5    261.4   0.000954634   0.00822  -0.03064   0.06935  -0.04968
  32   38983.1    256.5   0.024600840   0.20775   0.11932   0.39381  -0.19605
  33   39374.8    254.0   0.077178478   0.64529   0.10766   0.12617   0.78599
  34   39897.9    250.6   0.004246117   0.03504   0.09205   0.15536   0.04924
  35   40019.6    249.9   0.007510622   0.06178  -0.08595  -0.23323   0.00149

FINAL SINGLE POINT ENERGY     -4665.867439454280

DIPOLE MOMENT
-------------
                                X             Y             Z
Electronic contribution:     -0.57279     -21.12408      32.74576
Nuclear contribution   :      0.39144      22.29700     -38.04008
                        -----------------------------------------
Total Dipole Moment    :     -0.18135       1.17292      -5.29432
                        -----------------------------------------
Magnitude (a.u.)       :      5.42573
Magnitude (Debye)      :     13.79110

Rotational constants in cm-1:     0.001270     0.000605     0.000452
Rotational constants in MHz :    38.064002    18.122977    13.565075

                             ****ORCA TERMINATED NORMALLY****
TOTAL RUN TIME: 0 days 0 hours 6 minutes 42 seconds 972 msec
