                         Program Version 4.2.0 -  RELEASE  -
|  1> # ORCA input file
|  2> # SCF done       -168.831483739597          0.000313180017
|  3> ! CAM-B3LYP def2-SVP def2/J RIJCOSX Grid4 TightSCF
|  4> %maxcore 5000
|  5> %tddft
|  6>     Mode sTDDFT
|  7>     Ethresh 5.0
|  8>     maxcore 5000
|  9> end
| 10>
| 11> %pal
| 12>   nprocs 6
| 13>   end
| 14> * xyz 0 1
| 15>    C        8.44392        -4.42136       -12.21218
| 16>    C        9.24210        -4.08083       -11.19273
| 17>    C       10.46540        -3.33011       -11.24075
| 18>    C       11.07695        -3.17543       -10.04675
| 19>    C       10.38742        -3.77315        -8.95410
| 20>    S        8.91366        -4.54370        -9.51533
| 21>    C       10.75665        -3.79884        -7.63432
| 22>    C       11.93009        -3.29594        -7.01597
| 23>    C       12.00447        -3.51831        -5.67814
| 24>    C       10.88415        -4.20219        -5.13701
| 25>    S        9.72879        -4.55799        -6.43323
| 26>    C       10.63113        -4.56627        -3.84906
| 27>    N        9.45993        -5.18270        -3.53592
| 28>    C        9.00284        -5.63814        -2.35223
| 29>    S        9.97197        -5.64272        -0.91731
| 30>    C        8.65171        -6.37884        -0.05530
| 31>    N        8.85209        -6.65263         1.29269
| 32>    O        7.93890        -7.16943         1.91563
| 33>    O        9.94407        -6.35050         1.75672
| 34>    C        7.54188        -6.59752        -0.83248
| 35>    C        7.71474        -6.17508        -2.15930
| 36>    C        6.74220        -6.22215        -3.21413
| 37>    C        5.50574        -6.75208        -3.16443
| 38>    N        4.68993        -6.69079        -4.25992
| 39>    C        3.42521        -7.15818        -4.39562
| 40>    S        2.62455        -8.00585        -3.11617
| 41>    C        1.22428        -8.17363        -4.13033
| 42>    N        0.12214        -8.83807        -3.60906
| 43>    O       -0.86324        -8.95600        -4.32243
| 44>    O        0.21903        -9.26196        -2.46525
| 45>    C        1.38187        -7.60740        -5.37111
| 46>    C        2.64170        -7.01606        -5.55231
| 47>    C        3.10386        -6.33077        -6.73281
| 48>    C        2.39653        -6.17914        -7.86568
| 49>    N        2.82911        -5.52987        -8.99113
| 50>    C        3.88539        -4.62793        -9.09535
| 51>    C        4.35116        -3.79338        -8.12400
| 52>    S        5.62298        -2.78426        -8.68481
| 53>    C        5.53772        -3.48011       -10.25731
| 54>    C        4.58443        -4.45098       -10.34172
| 55>    N        4.23830        -5.18976       -11.45609
| 56>    C        4.80977        -5.02839       -12.71136
| 57>    C        4.75145        -5.96719       -13.65964
| 58>    N        5.36820        -5.88728       -14.91386
| 59>    N        4.71745        -6.51555       -16.02418
| 60>    C        3.97104        -5.48241       -16.74873
| 61>    C        2.43345        -5.53990       -16.64234
| 62>    C        1.86888        -5.93853       -15.27736
| 63>    C        1.88480        -4.19336       -17.15084
| 64>    C        2.40619        -2.95948       -16.34767
| 65>    N        1.31504        -2.44031       -15.54126
| 66>    S       -0.06461        -2.58131       -16.51241
| 67>    N        0.43203        -4.18756       -17.02578
| 68>    C        3.64512        -3.23070       -15.49898
| 69>    C        4.34203        -1.92033       -15.14085
| 70>    C        4.61037        -4.15878       -16.24672
| 71>    N        5.68741        -4.60250       -15.36149
| 72>    C        7.00342        -4.42479       -15.77688
| 73>    C        8.01645        -5.22370       -15.47722
| 74>    H        8.67155        -4.12693       -13.22165
| 75>    H        7.55983        -5.01523       -12.06694
| 76>    H       10.83431        -2.94869       -12.17627
| 77>    H       12.00289        -2.64784        -9.90018
| 78>    H       12.68908        -2.79204        -7.58697
| 79>    H       12.82419        -3.21289        -5.05287
| 80>    H       11.32766        -4.37535        -3.04842
| 81>    H        8.83676        -5.31063        -4.32658
| 82>    H        6.64756        -7.03984        -0.43505
| 83>    H        7.02882        -5.76386        -4.15385
| 84>    H        5.09482        -7.23856        -2.29485
| 85>    H        5.07579        -6.22863        -5.07471
| 86>    H        0.59537        -7.63129        -6.10179
| 87>    H        4.10018        -5.91565        -6.70399
| 88>    H        1.41557        -6.61910        -7.96886
| 89>    H        2.23696        -5.58813        -9.80527
| 90>    H        3.98979        -3.67740        -7.12307
| 91>    H        6.21367        -3.13485       -11.01110
| 92>    H        3.85134        -6.10463       -11.26973
| 93>    H        5.26506        -4.06997       -12.89391
| 94>    H        4.31651        -6.93766       -13.45962
| 95>    H        4.13593        -7.28280       -15.70747
| 96>    H        4.22436        -5.60905       -17.81007
| 97>    H        2.08958        -6.30306       -17.35149
| 98>    H        2.33586        -5.40931       -14.45205
| 99>    H        1.99560        -7.00732       -15.11256
|100>    H        0.80233        -5.72677       -15.27367
|101>    H        2.21077        -4.08170       -18.19582
|102>    H        2.63746        -2.17197       -17.07617
|103>    H        1.20099        -2.97480       -14.68330
|104>    H       -0.04678        -4.43393       -17.88237
|105>    H        3.34513        -3.71006       -14.56447
|106>    H        4.68113        -1.40877       -16.03899
|107>    H        5.20442        -2.11478       -14.50829
|108>    H        3.65257        -1.26776       -14.61230
|109>    H        5.03333        -3.60303       -17.08854
|110>    H        7.14897        -3.49873       -16.31583
|111>    H        7.86673        -6.14245       -14.94062
|112>    H        9.01779        -4.98172       -15.78119
|113> *
|114>
|115>                          ****END OF INPUT****

CARTESIAN COORDINATES (ANGSTROEM)
---------------------------------
  C      8.443920   -4.421360  -12.212180
  C      9.242100   -4.080830  -11.192730
  C     10.465400   -3.330110  -11.240750
  C     11.076950   -3.175430  -10.046750
  C     10.387420   -3.773150   -8.954100
  S      8.913660   -4.543700   -9.515330
  C     10.756650   -3.798840   -7.634320
  C     11.930090   -3.295940   -7.015970
  C     12.004470   -3.518310   -5.678140
  C     10.884150   -4.202190   -5.137010
  S      9.728790   -4.557990   -6.433230
  C     10.631130   -4.566270   -3.849060
  N      9.459930   -5.182700   -3.535920
  C      9.002840   -5.638140   -2.352230
  S      9.971970   -5.642720   -0.917310
  C      8.651710   -6.378840   -0.055300
  N      8.852090   -6.652630    1.292690
  O      7.938900   -7.169430    1.915630
  O      9.944070   -6.350500    1.756720
  C      7.541880   -6.597520   -0.832480
  C      7.714740   -6.175080   -2.159300
  C      6.742200   -6.222150   -3.214130
  C      5.505740   -6.752080   -3.164430
  N      4.689930   -6.690790   -4.259920
  C      3.425210   -7.158180   -4.395620
  S      2.624550   -8.005850   -3.116170
  C      1.224280   -8.173630   -4.130330
  N      0.122140   -8.838070   -3.609060
  O     -0.863240   -8.956000   -4.322430
  O      0.219030   -9.261960   -2.465250
  C      1.381870   -7.607400   -5.371110
  C      2.641700   -7.016060   -5.552310
  C      3.103860   -6.330770   -6.732810
  C      2.396530   -6.179140   -7.865680
  N      2.829110   -5.529870   -8.991130
  C      3.885390   -4.627930   -9.095350
  C      4.351160   -3.793380   -8.124000
  S      5.622980   -2.784260   -8.684810
  C      5.537720   -3.480110  -10.257310
  C      4.584430   -4.450980  -10.341720
  N      4.238300   -5.189760  -11.456090
  C      4.809770   -5.028390  -12.711360
  C      4.751450   -5.967190  -13.659640
  N      5.368200   -5.887280  -14.913860
  N      4.717450   -6.515550  -16.024180
  C      3.971040   -5.482410  -16.748730
  C      2.433450   -5.539900  -16.642340
  C      1.868880   -5.938530  -15.277360
  C      1.884800   -4.193360  -17.150840
  C      2.406190   -2.959480  -16.347670
  N      1.315040   -2.440310  -15.541260
  S     -0.064610   -2.581310  -16.512410
  N      0.432030   -4.187560  -17.025780
  C      3.645120   -3.230700  -15.498980
  C      4.342030   -1.920330  -15.140850
  C      4.610370   -4.158780  -16.246720
  N      5.687410   -4.602500  -15.361490
  C      7.003420   -4.424790  -15.776880
  C      8.016450   -5.223700  -15.477220
  H      8.671550   -4.126930  -13.221650
  H      7.559830   -5.015230  -12.066940
  H     10.834310   -2.948690  -12.176270
  H     12.002890   -2.647840   -9.900180
  H     12.689080   -2.792040   -7.586970
  H     12.824190   -3.212890   -5.052870
  H     11.327660   -4.375350   -3.048420
  H      8.836760   -5.310630   -4.326580
  H      6.647560   -7.039840   -0.435050
  H      7.028820   -5.763860   -4.153850
  H      5.094820   -7.238560   -2.294850
  H      5.075790   -6.228630   -5.074710
  H      0.595370   -7.631290   -6.101790
  H      4.100180   -5.915650   -6.703990
  H      1.415570   -6.619100   -7.968860
  H      2.236960   -5.588130   -9.805270
  H      3.989790   -3.677400   -7.123070
  H      6.213670   -3.134850  -11.011100
  H      3.851340   -6.104630  -11.269730
  H      5.265060   -4.069970  -12.893910
  H      4.316510   -6.937660  -13.459620
  H      4.135930   -7.282800  -15.707470
  H      4.224360   -5.609050  -17.810070
  H      2.089580   -6.303060  -17.351490
  H      2.335860   -5.409310  -14.452050
  H      1.995600   -7.007320  -15.112560
  H      0.802330   -5.726770  -15.273670
  H      2.210770   -4.081700  -18.195820
  H      2.637460   -2.171970  -17.076170
  H      1.200990   -2.974800  -14.683300
  H     -0.046780   -4.433930  -17.882370
  H      3.345130   -3.710060  -14.564470
  H      4.681130   -1.408770  -16.038990
  H      5.204420   -2.114780  -14.508290
  H      3.652570   -1.267760  -14.612300
  H      5.033330   -3.603030  -17.088540
  H      7.148970   -3.498730  -16.315830
  H      7.866730   -6.142450  -14.940620
  H      9.017790   -4.981720  -15.781190

 Total Charge           Charge          ....    0
 Multiplicity           Mult            ....    1
 Number of Electrons    NEL             ....  472
 Basis Dimension        Dim             .... 1045

ORBITAL ENERGIES
----------------

  NO   OCC          E(Eh)            E(eV)
   0   2.0000     -88.978081     -2421.2167
   1   2.0000     -88.972708     -2421.0705
   2   2.0000     -88.953844     -2420.5571
   3   2.0000     -88.950245     -2420.4592
   4   2.0000     -88.946218     -2420.3496
   5   2.0000     -88.937204     -2420.1044
   6   2.0000     -19.223430      -523.0961
   7   2.0000     -19.223253      -523.0913
   8   2.0000     -19.219501      -522.9892
   9   2.0000     -19.218697      -522.9673
  10   2.0000     -14.635520      -398.2527
  11   2.0000     -14.631471      -398.1426
  12   2.0000     -14.484137      -394.1334
  13   2.0000     -14.475231      -393.8911
  14   2.0000     -14.468670      -393.7125
  15   2.0000     -14.451932      -393.2571
  16   2.0000     -14.451649      -393.2494
  17   2.0000     -14.441157      -392.9639
  18   2.0000     -14.424898      -392.5214
  19   2.0000     -14.424134      -392.5006
  20   2.0000     -14.412505      -392.1842
  21   2.0000     -10.363382      -282.0020
  22   2.0000     -10.356172      -281.8058
  23   2.0000     -10.334575      -281.2181
  24   2.0000     -10.333680      -281.1937
  25   2.0000     -10.331625      -281.1378
  26   2.0000     -10.326078      -280.9869
  27   2.0000     -10.321361      -280.8585
  28   2.0000     -10.315372      -280.6956
  29   2.0000     -10.314407      -280.6693
  30   2.0000     -10.313710      -280.6503
  31   2.0000     -10.312844      -280.6268
  32   2.0000     -10.310855      -280.5726
  33   2.0000     -10.308215      -280.5008
  34   2.0000     -10.306214      -280.4463
  35   2.0000     -10.305521      -280.4275
  36   2.0000     -10.304417      -280.3974
  37   2.0000     -10.303902      -280.3834
  38   2.0000     -10.302616      -280.3484
  39   2.0000     -10.300480      -280.2903
  40   2.0000     -10.297449      -280.2078
  41   2.0000     -10.297164      -280.2001
  42   2.0000     -10.296314      -280.1770
  43   2.0000     -10.295789      -280.1627
  44   2.0000     -10.291692      -280.0512
  45   2.0000     -10.290158      -280.0094
  46   2.0000     -10.289601      -279.9943
  47   2.0000     -10.289163      -279.9824
  48   2.0000     -10.288323      -279.9595
  49   2.0000     -10.287242      -279.9301
  50   2.0000     -10.283882      -279.8387
  51   2.0000     -10.278584      -279.6945
  52   2.0000     -10.278128      -279.6821
  53   2.0000     -10.278105      -279.6814
  54   2.0000     -10.270521      -279.4751
  55   2.0000     -10.263803      -279.2923
  56   2.0000     -10.259556      -279.1767
  57   2.0000     -10.259372      -279.1717
  58   2.0000     -10.240914      -278.6694
  59   2.0000      -8.073448      -219.6897
  60   2.0000      -8.068134      -219.5451
  61   2.0000      -8.046619      -218.9596
  62   2.0000      -8.046076      -218.9449
  63   2.0000      -8.042060      -218.8356
  64   2.0000      -8.033561      -218.6043
  65   2.0000      -6.043170      -164.4430
  66   2.0000      -6.038844      -164.3253
  67   2.0000      -6.037851      -164.2983
  68   2.0000      -6.034740      -164.2136
  69   2.0000      -6.033514      -164.1803
  70   2.0000      -6.029461      -164.0700
  71   2.0000      -6.018982      -163.7848
  72   2.0000      -6.016495      -163.7171
  73   2.0000      -6.013338      -163.6313
  74   2.0000      -6.012641      -163.6123
  75   2.0000      -6.011604      -163.5840
  76   2.0000      -6.007258      -163.4658
  77   2.0000      -6.007165      -163.4633
  78   2.0000      -6.003870      -163.3736
  79   2.0000      -6.003389      -163.3605
  80   2.0000      -6.002786      -163.3441
  81   2.0000      -5.999498      -163.2546
  82   2.0000      -5.994113      -163.1081
  83   2.0000      -1.302749       -35.4496
  84   2.0000      -1.298322       -35.3291
  85   2.0000      -1.145752       -31.1775
  86   2.0000      -1.121708       -30.5232
  87   2.0000      -1.116932       -30.3933
  88   2.0000      -1.093039       -29.7431
  89   2.0000      -1.083072       -29.4719
  90   2.0000      -1.061825       -28.8937
  91   2.0000      -1.059214       -28.8227
  92   2.0000      -1.031902       -28.0795
  93   2.0000      -1.001316       -27.2472
  94   2.0000      -0.992046       -26.9949
  95   2.0000      -0.990370       -26.9493
  96   2.0000      -0.990024       -26.9399
  97   2.0000      -0.967882       -26.3374
  98   2.0000      -0.962500       -26.1910
  99   2.0000      -0.958543       -26.0833
 100   2.0000      -0.946810       -25.7640
 101   2.0000      -0.916407       -24.9367
 102   2.0000      -0.901876       -24.5413
 103   2.0000      -0.899590       -24.4791
 104   2.0000      -0.889747       -24.2112
 105   2.0000      -0.874802       -23.8046
 106   2.0000      -0.866984       -23.5918
 107   2.0000      -0.865712       -23.5572
 108   2.0000      -0.848938       -23.1008
 109   2.0000      -0.846672       -23.0391
 110   2.0000      -0.844819       -22.9887
 111   2.0000      -0.837633       -22.7932
 112   2.0000      -0.837159       -22.7802
 113   2.0000      -0.828065       -22.5328
 114   2.0000      -0.821463       -22.3531
 115   2.0000      -0.806040       -21.9335
 116   2.0000      -0.805179       -21.9100
 117   2.0000      -0.797783       -21.7088
 118   2.0000      -0.791634       -21.5414
 119   2.0000      -0.773903       -21.0590
 120   2.0000      -0.758085       -20.6285
 121   2.0000      -0.751346       -20.4452
 122   2.0000      -0.747609       -20.3435
 123   2.0000      -0.727433       -19.7945
 124   2.0000      -0.723347       -19.6833
 125   2.0000      -0.722120       -19.6499
 126   2.0000      -0.720156       -19.5964
 127   2.0000      -0.715545       -19.4710
 128   2.0000      -0.701128       -19.0787
 129   2.0000      -0.695799       -18.9336
 130   2.0000      -0.685142       -18.6437
 131   2.0000      -0.683168       -18.5900
 132   2.0000      -0.676970       -18.4213
 133   2.0000      -0.668548       -18.1921
 134   2.0000      -0.659456       -17.9447
 135   2.0000      -0.652572       -17.7574
 136   2.0000      -0.644500       -17.5377
 137   2.0000      -0.639218       -17.3940
 138   2.0000      -0.632464       -17.2102
 139   2.0000      -0.631188       -17.1755
 140   2.0000      -0.626966       -17.0606
 141   2.0000      -0.621364       -16.9082
 142   2.0000      -0.619891       -16.8681
 143   2.0000      -0.616880       -16.7862
 144   2.0000      -0.616748       -16.7826
 145   2.0000      -0.612658       -16.6713
 146   2.0000      -0.610770       -16.6199
 147   2.0000      -0.609839       -16.5946
 148   2.0000      -0.598981       -16.2991
 149   2.0000      -0.597412       -16.2564
 150   2.0000      -0.594308       -16.1719
 151   2.0000      -0.591474       -16.0948
 152   2.0000      -0.588968       -16.0266
 153   2.0000      -0.586324       -15.9547
 154   2.0000      -0.583406       -15.8753
 155   2.0000      -0.575975       -15.6731
 156   2.0000      -0.573995       -15.6192
 157   2.0000      -0.573021       -15.5927
 158   2.0000      -0.560153       -15.2425
 159   2.0000      -0.555944       -15.1280
 160   2.0000      -0.554471       -15.0879
 161   2.0000      -0.551868       -15.0171
 162   2.0000      -0.545755       -14.8507
 163   2.0000      -0.542391       -14.7592
 164   2.0000      -0.538065       -14.6415
 165   2.0000      -0.534520       -14.5450
 166   2.0000      -0.533308       -14.5120
 167   2.0000      -0.528052       -14.3690
 168   2.0000      -0.526747       -14.3335
 169   2.0000      -0.519450       -14.1350
 170   2.0000      -0.516803       -14.0629
 171   2.0000      -0.514797       -14.0083
 172   2.0000      -0.510797       -13.8995
 173   2.0000      -0.506734       -13.7889
 174   2.0000      -0.505484       -13.7549
 175   2.0000      -0.499139       -13.5823
 176   2.0000      -0.495966       -13.4959
 177   2.0000      -0.492945       -13.4137
 178   2.0000      -0.489228       -13.3126
 179   2.0000      -0.488899       -13.3036
 180   2.0000      -0.487419       -13.2633
 181   2.0000      -0.484418       -13.1817
 182   2.0000      -0.480953       -13.0874
 183   2.0000      -0.479765       -13.0551
 184   2.0000      -0.477452       -12.9921
 185   2.0000      -0.477184       -12.9848
 186   2.0000      -0.471906       -12.8412
 187   2.0000      -0.469304       -12.7704
 188   2.0000      -0.464428       -12.6377
 189   2.0000      -0.463430       -12.6106
 190   2.0000      -0.459192       -12.4953
 191   2.0000      -0.455783       -12.4025
 192   2.0000      -0.454251       -12.3608
 193   2.0000      -0.451676       -12.2907
 194   2.0000      -0.448298       -12.1988
 195   2.0000      -0.446859       -12.1597
 196   2.0000      -0.442206       -12.0330
 197   2.0000      -0.441666       -12.0183
 198   2.0000      -0.440537       -11.9876
 199   2.0000      -0.437348       -11.9008
 200   2.0000      -0.436110       -11.8672
 201   2.0000      -0.432667       -11.7735
 202   2.0000      -0.428388       -11.6570
 203   2.0000      -0.423956       -11.5364
 204   2.0000      -0.421092       -11.4585
 205   2.0000      -0.419974       -11.4281
 206   2.0000      -0.414205       -11.2711
 207   2.0000      -0.403612       -10.9828
 208   2.0000      -0.399145       -10.8613
 209   2.0000      -0.392620       -10.6837
 210   2.0000      -0.385113       -10.4795
 211   2.0000      -0.382542       -10.4095
 212   2.0000      -0.382174       -10.3995
 213   2.0000      -0.372810       -10.1447
 214   2.0000      -0.371490       -10.1088
 215   2.0000      -0.369063       -10.0427
 216   2.0000      -0.367705       -10.0058
 217   2.0000      -0.363804        -9.8996
 218   2.0000      -0.359170        -9.7735
 219   2.0000      -0.352612        -9.5951
 220   2.0000      -0.348570        -9.4851
 221   2.0000      -0.342156        -9.3105
 222   2.0000      -0.336845        -9.1660
 223   2.0000      -0.334247        -9.0953
 224   2.0000      -0.328164        -8.9298
 225   2.0000      -0.325503        -8.8574
 226   2.0000      -0.321761        -8.7556
 227   2.0000      -0.311281        -8.4704
 228   2.0000      -0.293453        -7.9853
 229   2.0000      -0.289085        -7.8664
 230   2.0000      -0.277928        -7.5628
 231   2.0000      -0.266943        -7.2639
 232   2.0000      -0.263109        -7.1596
 233   2.0000      -0.239426        -6.5151
 234   2.0000      -0.231196        -6.2912
 235   2.0000      -0.213659        -5.8140
 236   0.0000      -0.066000        -1.7959
 237   0.0000      -0.046225        -1.2578
 238   0.0000      -0.033806        -0.9199
 239   0.0000      -0.001985        -0.0540
 240   0.0000       0.014032         0.3818

MULLIKEN ATOMIC CHARGES
-----------------------
   0 C :   -0.053699
   1 C :   -0.061043
   2 C :    0.051631
   3 C :    0.029943
   4 C :   -0.064395
   5 S :    0.075064
   6 C :   -0.042570
   7 C :    0.028980
   8 C :    0.044690
   9 C :   -0.048484
  10 S :   -0.001882
  11 C :    0.035599
  12 N :   -0.036696
  13 C :   -0.117870
  14 S :    0.155842
  15 C :   -0.019138
  16 N :    0.280363
  17 O :   -0.260960
  18 O :   -0.279384
  19 C :    0.003321
  20 C :    0.126833
  21 C :   -0.058335
  22 C :    0.060362
  23 N :   -0.037011
  24 C :   -0.125748
  25 S :    0.144702
  26 C :   -0.018858
  27 N :    0.281287
  28 O :   -0.269441
  29 O :   -0.279017
  30 C :   -0.004486
  31 C :    0.138745
  32 C :   -0.085593
  33 C :    0.054625
  34 N :   -0.080012
  35 C :    0.114944
  36 C :   -0.194891
  37 S :    0.114513
  38 C :   -0.234964
  39 C :    0.144919
  40 N :   -0.102120
  41 C :    0.070710
  42 C :    0.025588
  43 N :   -0.113571
  44 N :   -0.106759
  45 C :    0.084171
  46 C :    0.011273
  47 C :    0.020111
  48 C :    0.112045
  49 C :    0.003346
  50 N :   -0.318377
  51 S :    0.217483
  52 N :   -0.362172
  53 C :    0.083804
  54 C :    0.087468
  55 C :    0.001529
  56 N :   -0.197465
  57 C :    0.063502
  58 C :   -0.029183
  59 H :    0.023135
  60 H :    0.027917
  61 H :   -0.013364
  62 H :   -0.013841
  63 H :   -0.013427
  64 H :   -0.010676
  65 H :    0.021718
  66 H :    0.154026
  67 H :    0.004532
  68 H :   -0.043055
  69 H :    0.025050
  70 H :    0.137213
  71 H :    0.000180
  72 H :   -0.033503
  73 H :   -0.002528
  74 H :    0.124035
  75 H :    0.013475
  76 H :    0.011699
  77 H :    0.106254
  78 H :    0.020988
  79 H :   -0.012155
  80 H :    0.097050
  81 H :   -0.002940
  82 H :   -0.010502
  83 H :    0.018588
  84 H :   -0.007953
  85 H :    0.032587
  86 H :   -0.011378
  87 H :   -0.002701
  88 H :    0.135064
  89 H :    0.125944
  90 H :   -0.036929
  91 H :   -0.005041
  92 H :    0.017074
  93 H :    0.022241
  94 H :   -0.000449
  95 H :    0.001472
  96 H :    0.027991
  97 H :    0.008941
Sum of atomic charges:   -0.0000000

LOEWDIN ATOMIC CHARGES
----------------------
   0 C :   -0.079255
   1 C :   -0.142510
   2 C :   -0.031764
   3 C :   -0.028469
   4 C :   -0.182934
   5 S :    0.349536
   6 C :   -0.176716
   7 C :   -0.039380
   8 C :   -0.032113
   9 C :   -0.181065
  10 S :    0.326898
  11 C :   -0.011114
  12 N :    0.045958
  13 C :   -0.108220
  14 S :    0.448034
  15 C :   -0.214950
  16 N :    0.273674
  17 O :   -0.227493
  18 O :   -0.245488
  19 C :    0.000155
  20 C :   -0.103252
  21 C :   -0.090012
  22 C :    0.030563
  23 N :    0.036369
  24 C :   -0.110057
  25 S :    0.444682
  26 C :   -0.219227
  27 N :    0.274315
  28 O :   -0.235483
  29 O :   -0.245050
  30 C :   -0.003964
  31 C :   -0.098186
  32 C :   -0.116486
  33 C :    0.035181
  34 N :    0.006786
  35 C :   -0.038973
  36 C :   -0.223404
  37 S :    0.432631
  38 C :   -0.244821
  39 C :   -0.026755
  40 N :   -0.009582
  41 C :   -0.026988
  42 C :   -0.059269
  43 N :    0.023596
  44 N :   -0.049953
  45 C :    0.008719
  46 C :   -0.046083
  47 C :   -0.067367
  48 C :   -0.005104
  49 C :   -0.002067
  50 N :   -0.210714
  51 S :    0.346480
  52 N :   -0.241626
  53 C :   -0.040652
  54 C :   -0.043748
  55 C :    0.034652
  56 N :   -0.013690
  57 C :    0.008220
  58 C :   -0.111090
  59 H :    0.028727
  60 H :    0.024756
  61 H :    0.032806
  62 H :    0.031697
  63 H :    0.032384
  64 H :    0.034378
  65 H :    0.032247
  66 H :    0.075780
  67 H :    0.042829
  68 H :    0.018489
  69 H :    0.027041
  70 H :    0.093005
  71 H :    0.039002
  72 H :    0.017692
  73 H :    0.025931
  74 H :    0.078324
  75 H :    0.020253
  76 H :    0.017758
  77 H :    0.070987
  78 H :    0.026335
  79 H :    0.017193
  80 H :    0.048928
  81 H :    0.021308
  82 H :    0.024278
  83 H :    0.015170
  84 H :    0.015849
  85 H :    0.028610
  86 H :    0.010488
  87 H :    0.020462
  88 H :    0.049340
  89 H :    0.050573
  90 H :    0.022349
  91 H :    0.019457
  92 H :    0.021764
  93 H :    0.029799
  94 H :    0.023683
  95 H :    0.022598
  96 H :    0.024344
  97 H :    0.022013

  Mayer bond orders larger than 0.100000
B(  0-C ,  1-C ) :   1.8370 B(  0-C , 59-H ) :   0.9420 B(  0-C , 60-H ) :   0.9395
B(  1-C ,  2-C ) :   1.0772 B(  1-C ,  5-S ) :   1.0105 B(  2-C ,  3-C ) :   1.6636
B(  2-C , 61-H ) :   0.9940 B(  3-C ,  4-C ) :   1.1469 B(  3-C , 62-H ) :   0.9921
B(  4-C ,  5-S ) :   1.0383 B(  4-C ,  6-C ) :   1.5747 B(  6-C ,  7-C ) :   1.1658
B(  6-C , 10-S ) :   1.0334 B(  7-C ,  8-C ) :   1.6315 B(  7-C , 63-H ) :   0.9906
B(  8-C ,  9-C ) :   1.1461 B(  8-C , 64-H ) :   0.9935 B(  9-C , 10-S ) :   1.0052
B(  9-C , 11-C ) :   1.6165 B( 11-C , 12-N ) :   1.1292 B( 11-C , 65-H ) :   0.9650
B( 12-N , 13-C ) :   1.2452 B( 12-N , 66-H ) :   0.8981 B( 13-C , 14-S ) :   1.1250
B( 13-C , 20-C ) :   1.3408 B( 14-S , 15-C ) :   1.0660 B( 15-C , 16-N ) :   0.9937
B( 15-C , 19-C ) :   1.4747 B( 16-N , 17-O ) :   1.5206 B( 16-N , 18-O ) :   1.4938
B( 17-O , 18-O ) :   0.2481 B( 19-C , 20-C ) :   1.2529 B( 19-C , 67-H ) :   0.9979
B( 20-C , 21-C ) :   1.0980 B( 21-C , 22-C ) :   1.7180 B( 21-C , 68-H ) :   0.9486
B( 22-C , 23-N ) :   1.1198 B( 22-C , 69-H ) :   0.9650 B( 23-N , 24-C ) :   1.2223
B( 23-N , 70-H ) :   0.9116 B( 24-C , 25-S ) :   1.1247 B( 24-C , 31-C ) :   1.3544
B( 25-S , 26-C ) :   1.0660 B( 26-C , 27-N ) :   0.9981 B( 26-C , 30-C ) :   1.4661
B( 27-N , 28-O ) :   1.5118 B( 27-N , 29-O ) :   1.4959 B( 28-O , 29-O ) :   0.2458
B( 30-C , 31-C ) :   1.2557 B( 30-C , 71-H ) :   0.9962 B( 31-C , 32-C ) :   1.0786
B( 32-C , 33-C ) :   1.7343 B( 32-C , 72-H ) :   0.9545 B( 33-C , 34-N ) :   1.1584
B( 33-C , 73-H ) :   0.9619 B( 34-N , 35-C ) :   1.0615 B( 34-N , 74-H ) :   0.9205
B( 35-C , 36-C ) :   1.5272 B( 35-C , 39-C ) :   1.2589 B( 36-C , 37-S ) :   1.1634
B( 36-C , 75-H ) :   0.9745 B( 37-S , 38-C ) :   1.1242 B( 38-C , 39-C ) :   1.5118
B( 38-C , 76-H ) :   0.9764 B( 39-C , 40-N ) :   1.1297 B( 40-N , 41-C ) :   1.0786
B( 40-N , 77-H ) :   0.9161 B( 41-C , 42-C ) :   1.7675 B( 41-C , 78-H ) :   0.9477
B( 42-C , 43-N ) :   1.0421 B( 42-C , 79-H ) :   0.9572 B( 43-N , 44-N ) :   0.9597
B( 43-N , 56-N ) :   1.0254 B( 44-N , 45-C ) :   1.0780 B( 44-N , 80-H ) :   0.9587
B( 45-C , 46-C ) :   1.0176 B( 45-C , 55-C ) :   1.0048 B( 45-C , 81-H ) :   0.9079
B( 46-C , 47-C ) :   1.0480 B( 46-C , 48-C ) :   1.0466 B( 46-C , 82-H ) :   0.9094
B( 47-C , 83-H ) :   0.9591 B( 47-C , 84-H ) :   0.9547 B( 47-C , 85-H ) :   0.9384
B( 48-C , 49-C ) :   0.9801 B( 48-C , 52-N ) :   1.0145 B( 48-C , 86-H ) :   0.9163
B( 49-C , 50-N ) :   1.0114 B( 49-C , 53-C ) :   1.0260 B( 49-C , 87-H ) :   0.8966
B( 50-N , 51-S ) :   1.0393 B( 50-N , 88-H ) :   0.9355 B( 51-S , 52-N ) :   0.9130
B( 52-N , 89-H ) :   0.9399 B( 53-C , 54-C ) :   1.0677 B( 53-C , 55-C ) :   1.0531
B( 53-C , 90-H ) :   0.8389 B( 54-C , 91-H ) :   0.9584 B( 54-C , 92-H ) :   0.9613
B( 54-C , 93-H ) :   0.9610 B( 55-C , 56-N ) :   0.9855 B( 55-C , 94-H ) :   0.9121
B( 56-N , 57-C ) :   1.0450 B( 57-C , 58-C ) :   1.9463 B( 57-C , 95-H ) :   0.9625
B( 58-C , 96-H ) :   0.9419 B( 58-C , 97-H ) :   0.9442

-----------------------------------------------------------------------------
         ABSORPTION SPECTRUM VIA TRANSITION ELECTRIC DIPOLE MOMENTS
-----------------------------------------------------------------------------
State   Energy  Wavelength   fosc         T2         TX        TY        TZ
        (cm-1)    (nm)                  (au**2)     (au)      (au)      (au)
-----------------------------------------------------------------------------
   0   17792.9    562.0   1.103217298  20.41222  -1.02901  -1.10710   4.25766
   1   22348.5    447.5   0.512417508   7.54835  -2.37478  -0.59893  -1.24502
   2   22816.6    438.3   0.084843418   1.22417  -0.38086  -0.34308   0.98052
   3   24473.8    408.6   0.141182277   1.89913   0.80747   0.17845   1.10240
   4   25270.9    395.7   0.150577298   1.96161  -1.17834  -0.60120  -0.46010
   5   26743.3    373.9   0.031008314   0.38172  -0.07502  -0.14465   0.59596
   6   28909.0    345.9   0.176385091   2.00865   0.25706   0.58177  -1.26653
   7   29701.6    336.7   0.013118442   0.14540   0.27917   0.18987  -0.17724
   8   29837.9    335.1   0.199031344   2.19598   1.35052   0.49150   0.36125
   9   30603.2    326.8   0.333715981   3.58992   1.23753   0.04404   1.43405
  10   31252.8    320.0   0.176248959   1.85658  -0.50695   0.41307  -1.19539
  11   32693.7    305.9   0.112131780   1.12912   0.91166   0.33416   0.43166
  12   33229.0    300.9   0.003133922   0.03105   0.13906   0.06666  -0.08525
  13   33309.9    300.2   0.055672143   0.55022  -0.58042  -0.39860   0.23335
  14   33432.6    299.1   0.059263308   0.58357  -0.21871  -0.61092   0.40313
  15   33486.4    298.6   0.010162190   0.09991  -0.23866  -0.15346   0.13928
  16   34548.5    289.4   0.173170853   1.65014  -0.63989  -0.86740   0.69878
  17   35070.7    285.1   0.007140907   0.06703  -0.21768  -0.13168   0.04804
  18   35167.2    284.4   0.108243679   1.01331  -0.84712  -0.54360   0.01359
  19   35748.8    279.7   0.283993281   2.61531   0.52019  -0.03187   1.53091
  20   35927.1    278.3   0.025865384   0.23701  -0.36249  -0.19007  -0.26360
  21   36236.2    276.0   0.009951900   0.09041   0.17745   0.08442   0.22759
  22   36448.2    274.4   0.015450632   0.13955   0.15351   0.21522   0.26395
  23   37235.6    268.6   0.028810664   0.25472  -0.01619   0.01917   0.50408
  24   37466.5    266.9   0.026819209   0.23566  -0.10224  -0.17513   0.44106
  25   37642.9    265.7   0.016075147   0.14059  -0.08351   0.34862   0.10989
  26   38292.6    261.1   0.082916607   0.71286  -0.10646  -0.65307  -0.52443
  27   39253.3    254.8   0.304261457   2.55180  -0.33871   0.00645   1.56110
  28   39686.2    252.0   0.000341754   0.00283  -0.00412   0.02983   0.04391
  29   39735.9    251.7   0.010138589   0.08400  -0.01983   0.28002  -0.07207
  30   40087.2    249.5   0.021478494   0.17639  -0.19212  -0.37347  -0.00139

FINAL SINGLE POINT ENERGY     -4759.717101961690

DIPOLE MOMENT
-------------
                                X             Y             Z
Electronic contribution:     13.66532     -16.04120     107.12898
Nuclear contribution   :    -12.34419      17.86538    -112.70047
                        -----------------------------------------
Total Dipole Moment    :      1.32114       1.82418      -5.57150
                        -----------------------------------------
Magnitude (a.u.)       :      6.00954
Magnitude (Debye)      :     15.27505

Rotational constants in cm-1:     0.001459     0.000514     0.000399
Rotational constants in MHz :    43.736235    15.397556    11.949500

                             ****ORCA TERMINATED NORMALLY****
TOTAL RUN TIME: 0 days 0 hours 8 minutes 21 seconds 222 msec
