                         Program Version 4.2.0 -  RELEASE  -
|  1> # ORCA input file
|  2> # SCF done       -179.537768938879          0.000747607339
|  3> ! CAM-B3LYP def2-SVP def2/J RIJCOSX Grid4 TightSCF
|  4> %maxcore 5000
|  5> %tddft
|  6>     Mode sTDDFT
|  7>     Ethresh 5.0
|  8>     maxcore 5000
|  9> end
| 10>
| 11> %pal
| 12>   nprocs 6
| 13>   end
| 14> * xyz 0 1
| 15>    C        4.19570         6.37170        -5.08817
| 16>    C        3.51016         5.23181        -5.24283
| 17>    C        2.31282         5.02270        -6.00764
| 18>    C        1.84149         3.75819        -5.97538
| 19>    C        2.61931         2.86156        -5.18695
| 20>    S        3.98969         3.70365        -4.48712
| 21>    C        2.37934         1.53020        -4.96332
| 22>    C        1.30673         0.73989        -5.45362
| 23>    C        1.32756        -0.55146        -5.04136
| 24>    C        2.42081        -0.87373        -4.18966
| 25>    S        3.43745         0.55247        -3.95895
| 26>    C        2.66716        -2.07621        -3.60527
| 27>    N        3.72040        -2.29210        -2.76587
| 28>    C        4.06076        -3.43800        -2.12958
| 29>    S        5.05154        -3.31541        -0.70308
| 30>    C        4.91184        -5.03211        -0.47042
| 31>    N        5.58530        -5.59559         0.60967
| 32>    O        5.48646        -6.80016         0.77925
| 33>    O        6.22923        -4.83217         1.31579
| 34>    C        4.15228        -5.64567        -1.43190
| 35>    C        3.66861        -4.75724        -2.40863
| 36>    C        2.96658        -5.17688        -3.59474
| 37>    C        2.18168        -6.27428        -3.64800
| 38>    C        1.50288        -6.76473        -4.79754
| 39>    S        0.08055        -7.71934        -4.56515
| 40>    C       -0.21844        -7.89133        -6.26639
| 41>    C        0.76288        -7.21166        -7.00195
| 42>    C        1.75386        -6.59269        -6.16855
| 43>    C        2.84927        -5.95173        -6.76926
| 44>    C        2.91663        -5.83738        -8.13769
| 45>    C        4.08776        -5.14364        -8.71578
| 46>    O        4.92213        -4.56151        -8.06361
| 47>    O        4.12968        -5.22426       -10.05522
| 48>    C        5.22847        -4.57769       -10.67766
| 49>    C        1.87990        -6.34977        -8.95284
| 50>    C        0.83458        -7.02795        -8.40025
| 51>    C       -1.35492        -8.64044        -6.65735
| 52>    C       -1.57958        -9.24122        -7.85333
| 53>    C       -2.78721        -9.92814        -8.14588
| 54>    O       -3.83542        -9.88847        -7.27881
| 55>    C       -4.85631       -10.59610        -7.80293
| 56>    C       -4.47892       -11.12663        -9.04305
| 57>    C       -3.14944       -10.68812        -9.25140
| 58>    O       -2.39452       -10.98251       -10.34404
| 59>    C       -5.30926       -11.95519        -9.93048
| 60>    O       -6.44032       -12.27784        -9.67149
| 61>    O       -4.72337       -12.33939       -11.07360
| 62>    C       -6.08745       -10.70079        -7.11825
| 63>    C       -6.32116       -10.08240        -5.92902
| 64>    C       -7.52905       -10.13688        -5.20867
| 65>    S       -8.89839       -11.04295        -5.75130
| 66>    C       -9.87996       -10.55712        -4.41205
| 67>    C       -9.15759        -9.74411        -3.53318
| 68>    C       -7.82364        -9.49319        -3.99190
| 69>    C       -6.97050        -8.67734        -3.23647
| 70>    C       -7.40855        -8.14423        -2.04629
| 71>    C       -6.47718        -7.27948        -1.28943
| 72>    O       -5.35752        -7.00356        -1.65141
| 73>    O       -7.00814        -6.82074        -0.14455
| 74>    C       -6.16795        -5.98316         0.63272
| 75>    C       -8.70621        -8.43944        -1.56281
| 76>    C       -9.55959        -9.22106        -2.28253
| 77>    C      -11.24207       -11.01285        -4.38609
| 78>    C      -12.26862       -10.42494        -3.77214
| 79>    H        3.86767         7.27809        -5.56564
| 80>    H        5.08635         6.41989        -4.48886
| 81>    H        1.86003         5.83541        -6.54751
| 82>    H        0.95718         3.42645        -6.49030
| 83>    H        0.55070         1.15670        -6.09429
| 84>    H        0.59606        -1.29255        -5.31007
| 85>    H        1.99146        -2.90077        -3.76483
| 86>    H        4.24447        -1.46230        -2.50787
| 87>    H        3.99631        -6.70879        -1.44535
| 88>    H        3.10426        -4.56588        -4.47360
| 89>    H        1.96779        -6.80398        -2.72842
| 90>    H        3.66385        -5.56452        -6.17933
| 91>    H        5.12720        -4.76331       -11.74390
| 92>    H        6.17024        -4.98543       -10.30405
| 93>    H        5.20518        -3.50555       -10.47007
| 94>    H        1.93692        -6.19921       -10.01883
| 95>    H        0.04247        -7.40075        -9.02856
| 96>    H       -2.10486        -8.77933        -5.88933
| 97>    H       -0.82649        -9.24076        -8.62740
| 98>    H       -1.51510       -10.59873       -10.25177
| 99>    H       -3.81376       -12.00830       -11.14501
|100>    H       -6.84331       -11.29653        -7.60790
|101>    H       -5.52848        -9.49173        -5.49039
|102>    H       -5.96700        -8.45899        -3.56721
|103>    H       -6.75305        -5.68324         1.49824
|104>    H       -5.86216        -5.10923         0.05341
|105>    H       -5.27309        -6.52646         0.94383
|106>    H       -9.00369        -8.03721        -0.60782
|107>    H      -10.53296        -9.46621        -1.89091
|108>    H      -11.42410       -11.90074        -4.97960
|109>    H      -12.17120        -9.50124        -3.23060
|110>    H      -13.25672       -10.84722        -3.82549
|111> *
|112>
|113>                          ****END OF INPUT****

CARTESIAN COORDINATES (ANGSTROEM)
---------------------------------
  C      4.195700    6.371700   -5.088170
  C      3.510160    5.231810   -5.242830
  C      2.312820    5.022700   -6.007640
  C      1.841490    3.758190   -5.975380
  C      2.619310    2.861560   -5.186950
  S      3.989690    3.703650   -4.487120
  C      2.379340    1.530200   -4.963320
  C      1.306730    0.739890   -5.453620
  C      1.327560   -0.551460   -5.041360
  C      2.420810   -0.873730   -4.189660
  S      3.437450    0.552470   -3.958950
  C      2.667160   -2.076210   -3.605270
  N      3.720400   -2.292100   -2.765870
  C      4.060760   -3.438000   -2.129580
  S      5.051540   -3.315410   -0.703080
  C      4.911840   -5.032110   -0.470420
  N      5.585300   -5.595590    0.609670
  O      5.486460   -6.800160    0.779250
  O      6.229230   -4.832170    1.315790
  C      4.152280   -5.645670   -1.431900
  C      3.668610   -4.757240   -2.408630
  C      2.966580   -5.176880   -3.594740
  C      2.181680   -6.274280   -3.648000
  C      1.502880   -6.764730   -4.797540
  S      0.080550   -7.719340   -4.565150
  C     -0.218440   -7.891330   -6.266390
  C      0.762880   -7.211660   -7.001950
  C      1.753860   -6.592690   -6.168550
  C      2.849270   -5.951730   -6.769260
  C      2.916630   -5.837380   -8.137690
  C      4.087760   -5.143640   -8.715780
  O      4.922130   -4.561510   -8.063610
  O      4.129680   -5.224260  -10.055220
  C      5.228470   -4.577690  -10.677660
  C      1.879900   -6.349770   -8.952840
  C      0.834580   -7.027950   -8.400250
  C     -1.354920   -8.640440   -6.657350
  C     -1.579580   -9.241220   -7.853330
  C     -2.787210   -9.928140   -8.145880
  O     -3.835420   -9.888470   -7.278810
  C     -4.856310  -10.596100   -7.802930
  C     -4.478920  -11.126630   -9.043050
  C     -3.149440  -10.688120   -9.251400
  O     -2.394520  -10.982510  -10.344040
  C     -5.309260  -11.955190   -9.930480
  O     -6.440320  -12.277840   -9.671490
  O     -4.723370  -12.339390  -11.073600
  C     -6.087450  -10.700790   -7.118250
  C     -6.321160  -10.082400   -5.929020
  C     -7.529050  -10.136880   -5.208670
  S     -8.898390  -11.042950   -5.751300
  C     -9.879960  -10.557120   -4.412050
  C     -9.157590   -9.744110   -3.533180
  C     -7.823640   -9.493190   -3.991900
  C     -6.970500   -8.677340   -3.236470
  C     -7.408550   -8.144230   -2.046290
  C     -6.477180   -7.279480   -1.289430
  O     -5.357520   -7.003560   -1.651410
  O     -7.008140   -6.820740   -0.144550
  C     -6.167950   -5.983160    0.632720
  C     -8.706210   -8.439440   -1.562810
  C     -9.559590   -9.221060   -2.282530
  C    -11.242070  -11.012850   -4.386090
  C    -12.268620  -10.424940   -3.772140
  H      3.867670    7.278090   -5.565640
  H      5.086350    6.419890   -4.488860
  H      1.860030    5.835410   -6.547510
  H      0.957180    3.426450   -6.490300
  H      0.550700    1.156700   -6.094290
  H      0.596060   -1.292550   -5.310070
  H      1.991460   -2.900770   -3.764830
  H      4.244470   -1.462300   -2.507870
  H      3.996310   -6.708790   -1.445350
  H      3.104260   -4.565880   -4.473600
  H      1.967790   -6.803980   -2.728420
  H      3.663850   -5.564520   -6.179330
  H      5.127200   -4.763310  -11.743900
  H      6.170240   -4.985430  -10.304050
  H      5.205180   -3.505550  -10.470070
  H      1.936920   -6.199210  -10.018830
  H      0.042470   -7.400750   -9.028560
  H     -2.104860   -8.779330   -5.889330
  H     -0.826490   -9.240760   -8.627400
  H     -1.515100  -10.598730  -10.251770
  H     -3.813760  -12.008300  -11.145010
  H     -6.843310  -11.296530   -7.607900
  H     -5.528480   -9.491730   -5.490390
  H     -5.967000   -8.458990   -3.567210
  H     -6.753050   -5.683240    1.498240
  H     -5.862160   -5.109230    0.053410
  H     -5.273090   -6.526460    0.943830
  H     -9.003690   -8.037210   -0.607820
  H    -10.532960   -9.466210   -1.890910
  H    -11.424100  -11.900740   -4.979600
  H    -12.171200   -9.501240   -3.230600
  H    -13.256720  -10.847220   -3.825490

 Total Charge           Charge          ....    0
 Multiplicity           Mult            ....    1
 Number of Electrons    NEL             ....  488
 Basis Dimension        Dim             .... 1076

ORBITAL ENERGIES
----------------

  NO   OCC          E(Eh)            E(eV)
   0   2.0000     -88.977841     -2421.2101
   1   2.0000     -88.971355     -2421.0337
   2   2.0000     -88.968183     -2420.9473
   3   2.0000     -88.946778     -2420.3649
   4   2.0000     -88.934892     -2420.0414
   5   2.0000     -19.301231      -525.2132
   6   2.0000     -19.289215      -524.8862
   7   2.0000     -19.260111      -524.0943
   8   2.0000     -19.257442      -524.0216
   9   2.0000     -19.242718      -523.6210
  10   2.0000     -19.227446      -523.2054
  11   2.0000     -19.226638      -523.1834
  12   2.0000     -19.199935      -522.4568
  13   2.0000     -19.197647      -522.3945
  14   2.0000     -19.186163      -522.0820
  15   2.0000     -14.638944      -398.3459
  16   2.0000     -14.485634      -394.1741
  17   2.0000     -10.396825      -282.9120
  18   2.0000     -10.396305      -282.8979
  19   2.0000     -10.394343      -282.8445
  20   2.0000     -10.367386      -282.1109
  21   2.0000     -10.354043      -281.7478
  22   2.0000     -10.351593      -281.6812
  23   2.0000     -10.337522      -281.2983
  24   2.0000     -10.334540      -281.2171
  25   2.0000     -10.330212      -281.0994
  26   2.0000     -10.322714      -280.8953
  27   2.0000     -10.320502      -280.8351
  28   2.0000     -10.313138      -280.6348
  29   2.0000     -10.310377      -280.5596
  30   2.0000     -10.309974      -280.5487
  31   2.0000     -10.307876      -280.4916
  32   2.0000     -10.307642      -280.4852
  33   2.0000     -10.306814      -280.4627
  34   2.0000     -10.305296      -280.4213
  35   2.0000     -10.303869      -280.3825
  36   2.0000     -10.303368      -280.3689
  37   2.0000     -10.297121      -280.1989
  38   2.0000     -10.295526      -280.1555
  39   2.0000     -10.292763      -280.0803
  40   2.0000     -10.292210      -280.0653
  41   2.0000     -10.291802      -280.0542
  42   2.0000     -10.291385      -280.0428
  43   2.0000     -10.290596      -280.0214
  44   2.0000     -10.290083      -280.0074
  45   2.0000     -10.288504      -279.9644
  46   2.0000     -10.287822      -279.9459
  47   2.0000     -10.287115      -279.9266
  48   2.0000     -10.287001      -279.9235
  49   2.0000     -10.286658      -279.9142
  50   2.0000     -10.286279      -279.9039
  51   2.0000     -10.285968      -279.8954
  52   2.0000     -10.285497      -279.8826
  53   2.0000     -10.285345      -279.8785
  54   2.0000     -10.284243      -279.8485
  55   2.0000     -10.282728      -279.8072
  56   2.0000     -10.282486      -279.8007
  57   2.0000     -10.281140      -279.7640
  58   2.0000     -10.280624      -279.7500
  59   2.0000     -10.278824      -279.7010
  60   2.0000     -10.276352      -279.6338
  61   2.0000     -10.274420      -279.5812
  62   2.0000     -10.271357      -279.4978
  63   2.0000     -10.265751      -279.3453
  64   2.0000      -8.073775      -219.6986
  65   2.0000      -8.066862      -219.5105
  66   2.0000      -8.063438      -219.4173
  67   2.0000      -8.043179      -218.8660
  68   2.0000      -8.031655      -218.5525
  69   2.0000      -6.043541      -164.4531
  70   2.0000      -6.039150      -164.3336
  71   2.0000      -6.035685      -164.2393
  72   2.0000      -6.034944      -164.2192
  73   2.0000      -6.032200      -164.1445
  74   2.0000      -6.031673      -164.1302
  75   2.0000      -6.029823      -164.0798
  76   2.0000      -6.028205      -164.0358
  77   2.0000      -6.026505      -163.9895
  78   2.0000      -6.013083      -163.6243
  79   2.0000      -6.009159      -163.5175
  80   2.0000      -6.003703      -163.3691
  81   2.0000      -6.001509      -163.3094
  82   2.0000      -5.997629      -163.2038
  83   2.0000      -5.992088      -163.0530
  84   2.0000      -1.306354       -35.5477
  85   2.0000      -1.221386       -33.2356
  86   2.0000      -1.189828       -32.3769
  87   2.0000      -1.187291       -32.3078
  88   2.0000      -1.179783       -32.1035
  89   2.0000      -1.165366       -31.7112
  90   2.0000      -1.125272       -30.6202
  91   2.0000      -1.093368       -29.7520
  92   2.0000      -1.090740       -29.6806
  93   2.0000      -1.089958       -29.6593
  94   2.0000      -1.083387       -29.4805
  95   2.0000      -1.003661       -27.3110
  96   2.0000      -1.000488       -27.2247
  97   2.0000      -0.999633       -27.2014
  98   2.0000      -0.988598       -26.9011
  99   2.0000      -0.965878       -26.2829
 100   2.0000      -0.942944       -25.6588
 101   2.0000      -0.938822       -25.5466
 102   2.0000      -0.929709       -25.2987
 103   2.0000      -0.919115       -25.0104
 104   2.0000      -0.910957       -24.7884
 105   2.0000      -0.905832       -24.6489
 106   2.0000      -0.896425       -24.3930
 107   2.0000      -0.884979       -24.0815
 108   2.0000      -0.873356       -23.7652
 109   2.0000      -0.866867       -23.5886
 110   2.0000      -0.857534       -23.3347
 111   2.0000      -0.854217       -23.2444
 112   2.0000      -0.846135       -23.0245
 113   2.0000      -0.843812       -22.9613
 114   2.0000      -0.842984       -22.9388
 115   2.0000      -0.838676       -22.8215
 116   2.0000      -0.831201       -22.6181
 117   2.0000      -0.818851       -22.2821
 118   2.0000      -0.809704       -22.0332
 119   2.0000      -0.806043       -21.9335
 120   2.0000      -0.801891       -21.8206
 121   2.0000      -0.789023       -21.4704
 122   2.0000      -0.780064       -21.2266
 123   2.0000      -0.766566       -20.8593
 124   2.0000      -0.745685       -20.2911
 125   2.0000      -0.737639       -20.0722
 126   2.0000      -0.731722       -19.9112
 127   2.0000      -0.721840       -19.6423
 128   2.0000      -0.718590       -19.5538
 129   2.0000      -0.716636       -19.5006
 130   2.0000      -0.712459       -19.3870
 131   2.0000      -0.709447       -19.3050
 132   2.0000      -0.697227       -18.9725
 133   2.0000      -0.691890       -18.8273
 134   2.0000      -0.686502       -18.6807
 135   2.0000      -0.677933       -18.4475
 136   2.0000      -0.665779       -18.1168
 137   2.0000      -0.659043       -17.9335
 138   2.0000      -0.655791       -17.8450
 139   2.0000      -0.651952       -17.7405
 140   2.0000      -0.644017       -17.5246
 141   2.0000      -0.639054       -17.3895
 142   2.0000      -0.634192       -17.2572
 143   2.0000      -0.633682       -17.2434
 144   2.0000      -0.625179       -17.0120
 145   2.0000      -0.620987       -16.8979
 146   2.0000      -0.619930       -16.8692
 147   2.0000      -0.615852       -16.7582
 148   2.0000      -0.615307       -16.7434
 149   2.0000      -0.606307       -16.4984
 150   2.0000      -0.602817       -16.4035
 151   2.0000      -0.596779       -16.2392
 152   2.0000      -0.595236       -16.1972
 153   2.0000      -0.582737       -15.8571
 154   2.0000      -0.579496       -15.7689
 155   2.0000      -0.577000       -15.7010
 156   2.0000      -0.576624       -15.6907
 157   2.0000      -0.575199       -15.6520
 158   2.0000      -0.572382       -15.5753
 159   2.0000      -0.569443       -15.4953
 160   2.0000      -0.567777       -15.4500
 161   2.0000      -0.567321       -15.4376
 162   2.0000      -0.563520       -15.3342
 163   2.0000      -0.556826       -15.1520
 164   2.0000      -0.550685       -14.9849
 165   2.0000      -0.547317       -14.8933
 166   2.0000      -0.543635       -14.7930
 167   2.0000      -0.541501       -14.7350
 168   2.0000      -0.536115       -14.5884
 169   2.0000      -0.534904       -14.5555
 170   2.0000      -0.530598       -14.4383
 171   2.0000      -0.529608       -14.4114
 172   2.0000      -0.527401       -14.3513
 173   2.0000      -0.521188       -14.1822
 174   2.0000      -0.519379       -14.1330
 175   2.0000      -0.517121       -14.0716
 176   2.0000      -0.514028       -13.9874
 177   2.0000      -0.510713       -13.8972
 178   2.0000      -0.509932       -13.8759
 179   2.0000      -0.508476       -13.8363
 180   2.0000      -0.507315       -13.8047
 181   2.0000      -0.504292       -13.7225
 182   2.0000      -0.503417       -13.6987
 183   2.0000      -0.499869       -13.6021
 184   2.0000      -0.499069       -13.5804
 185   2.0000      -0.495601       -13.4860
 186   2.0000      -0.493838       -13.4380
 187   2.0000      -0.492943       -13.4137
 188   2.0000      -0.489207       -13.3120
 189   2.0000      -0.484849       -13.1934
 190   2.0000      -0.481683       -13.1073
 191   2.0000      -0.481213       -13.0945
 192   2.0000      -0.477033       -12.9807
 193   2.0000      -0.475953       -12.9513
 194   2.0000      -0.472857       -12.8671
 195   2.0000      -0.469656       -12.7800
 196   2.0000      -0.467771       -12.7287
 197   2.0000      -0.460001       -12.5173
 198   2.0000      -0.454671       -12.3722
 199   2.0000      -0.451091       -12.2748
 200   2.0000      -0.448954       -12.2167
 201   2.0000      -0.447187       -12.1686
 202   2.0000      -0.442536       -12.0420
 203   2.0000      -0.440697       -11.9920
 204   2.0000      -0.439076       -11.9479
 205   2.0000      -0.435457       -11.8494
 206   2.0000      -0.432794       -11.7769
 207   2.0000      -0.432102       -11.7581
 208   2.0000      -0.431164       -11.7326
 209   2.0000      -0.427656       -11.6371
 210   2.0000      -0.423147       -11.5144
 211   2.0000      -0.422310       -11.4916
 212   2.0000      -0.421170       -11.4606
 213   2.0000      -0.418019       -11.3749
 214   2.0000      -0.413925       -11.2635
 215   2.0000      -0.410387       -11.1672
 216   2.0000      -0.409507       -11.1432
 217   2.0000      -0.398596       -10.8463
 218   2.0000      -0.388610       -10.5746
 219   2.0000      -0.381819       -10.3898
 220   2.0000      -0.381056       -10.3690
 221   2.0000      -0.378009       -10.2861
 222   2.0000      -0.376065       -10.2332
 223   2.0000      -0.375437       -10.2162
 224   2.0000      -0.369779       -10.0622
 225   2.0000      -0.365186        -9.9372
 226   2.0000      -0.356205        -9.6928
 227   2.0000      -0.355596        -9.6763
 228   2.0000      -0.352914        -9.6033
 229   2.0000      -0.350994        -9.5510
 230   2.0000      -0.342685        -9.3249
 231   2.0000      -0.340979        -9.2785
 232   2.0000      -0.339216        -9.2305
 233   2.0000      -0.336066        -9.1448
 234   2.0000      -0.335698        -9.1348
 235   2.0000      -0.327054        -8.8996
 236   2.0000      -0.323186        -8.7943
 237   2.0000      -0.318805        -8.6751
 238   2.0000      -0.317751        -8.6465
 239   2.0000      -0.296947        -8.0803
 240   2.0000      -0.281539        -7.6611
 241   2.0000      -0.249904        -6.8002
 242   2.0000      -0.223027        -6.0689
 243   2.0000      -0.212977        -5.7954
 244   0.0000      -0.079948        -2.1755
 245   0.0000      -0.063842        -1.7372
 246   0.0000      -0.058923        -1.6034
 247   0.0000      -0.036497        -0.9931
 248   0.0000      -0.019100        -0.5197

MULLIKEN ATOMIC CHARGES
-----------------------
   0 C :   -0.031089
   1 C :   -0.063956
   2 C :    0.051449
   3 C :    0.028259
   4 C :   -0.068761
   5 S :    0.070145
   6 C :   -0.050209
   7 C :    0.026357
   8 C :    0.038808
   9 C :   -0.048037
  10 S :    0.040607
  11 C :    0.020875
  12 N :   -0.019988
  13 C :   -0.106545
  14 S :    0.167242
  15 C :   -0.016255
  16 N :    0.280582
  17 O :   -0.259509
  18 O :   -0.273424
  19 C :    0.005018
  20 C :    0.076975
  21 C :   -0.052275
  22 C :    0.028736
  23 C :   -0.130021
  24 S :    0.178032
  25 C :   -0.130154
  26 C :    0.119996
  27 C :    0.120766
  28 C :   -0.073360
  29 C :   -0.033944
  30 C :    0.199198
  31 O :   -0.213699
  32 O :   -0.303300
  33 C :    0.186894
  34 C :    0.029317
  35 C :   -0.036001
  36 C :    0.028779
  37 C :   -0.075618
  38 C :    0.125309
  39 O :   -0.210726
  40 C :    0.115930
  41 C :   -0.077345
  42 C :    0.092937
  43 O :   -0.214874
  44 C :    0.151897
  45 O :   -0.184650
  46 O :   -0.161529
  47 C :   -0.053165
  48 C :    0.015739
  49 C :   -0.098589
  50 S :    0.177575
  51 C :   -0.142510
  52 C :    0.115767
  53 C :    0.142028
  54 C :   -0.066647
  55 C :   -0.037723
  56 C :    0.200741
  57 O :   -0.216173
  58 O :   -0.301656
  59 C :    0.190374
  60 C :    0.029015
  61 C :   -0.025276
  62 C :    0.020057
  63 C :   -0.026738
  64 H :    0.017373
  65 H :    0.020179
  66 H :   -0.013531
  67 H :   -0.013747
  68 H :   -0.014774
  69 H :   -0.009912
  70 H :    0.029132
  71 H :    0.143344
  72 H :    0.011843
  73 H :    0.020756
  74 H :   -0.006971
  75 H :   -0.002822
  76 H :    0.032971
  77 H :    0.034064
  78 H :    0.034145
  79 H :   -0.010016
  80 H :   -0.035578
  81 H :    0.002725
  82 H :   -0.026280
  83 H :    0.199603
  84 H :    0.178803
  85 H :    0.024798
  86 H :    0.002171
  87 H :   -0.010027
  88 H :    0.032281
  89 H :    0.031506
  90 H :    0.031888
  91 H :   -0.009474
  92 H :   -0.026396
  93 H :    0.002652
  94 H :    0.027721
  95 H :    0.029915
Sum of atomic charges:    0.0000000

LOEWDIN ATOMIC CHARGES
----------------------
   0 C :   -0.081627
   1 C :   -0.138442
   2 C :   -0.034479
   3 C :   -0.026386
   4 C :   -0.185038
   5 S :    0.342883
   6 C :   -0.174672
   7 C :   -0.040631
   8 C :   -0.028746
   9 C :   -0.185665
  10 S :    0.333199
  11 C :   -0.007382
  12 N :    0.044064
  13 C :   -0.097503
  14 S :    0.446157
  15 C :   -0.214465
  16 N :    0.274419
  17 O :   -0.225357
  18 O :   -0.239290
  19 C :    0.005481
  20 C :   -0.109299
  21 C :   -0.027262
  22 C :   -0.048847
  23 C :   -0.174690
  24 S :    0.492695
  25 C :   -0.182107
  26 C :   -0.039852
  27 C :   -0.050106
  28 C :    0.027902
  29 C :   -0.078222
  30 C :    0.089565
  31 O :   -0.182666
  32 O :   -0.093529
  33 C :    0.080953
  34 C :   -0.009660
  35 C :   -0.023015
  36 C :   -0.044148
  37 C :   -0.056811
  38 C :   -0.019822
  39 O :    0.016188
  40 C :    0.081879
  41 C :   -0.148416
  42 C :    0.018303
  43 O :   -0.046980
  44 C :    0.081669
  45 O :   -0.173136
  46 O :   -0.033081
  47 C :   -0.053730
  48 C :   -0.012466
  49 C :   -0.179766
  50 S :    0.504773
  51 C :   -0.171807
  52 C :   -0.041006
  53 C :   -0.040488
  54 C :    0.028505
  55 C :   -0.075394
  56 C :    0.090627
  57 O :   -0.185235
  58 O :   -0.092236
  59 C :    0.081205
  60 C :   -0.010590
  61 C :   -0.014729
  62 C :   -0.043893
  63 C :   -0.038209
  64 H :    0.027802
  65 H :    0.025651
  66 H :    0.032683
  67 H :    0.031493
  68 H :    0.031847
  69 H :    0.034259
  70 H :    0.039787
  71 H :    0.085554
  72 H :    0.044983
  73 H :    0.031959
  74 H :    0.030022
  75 H :    0.035226
  76 H :    0.024940
  77 H :    0.024035
  78 H :    0.023969
  79 H :    0.031636
  80 H :    0.024578
  81 H :    0.032655
  82 H :    0.023581
  83 H :    0.105263
  84 H :    0.075666
  85 H :    0.036962
  86 H :    0.035983
  87 H :    0.034164
  88 H :    0.024936
  89 H :    0.022940
  90 H :    0.023251
  91 H :    0.031921
  92 H :    0.029237
  93 H :    0.031841
  94 H :    0.023188
  95 H :    0.028400

  Mayer bond orders larger than 0.100000
B(  0-C ,  1-C ) :   1.8696 B(  0-C , 64-H ) :   0.9501 B(  0-C , 65-H ) :   0.9415
B(  1-C ,  2-C ) :   1.0766 B(  1-C ,  5-S ) :   1.0081 B(  2-C ,  3-C ) :   1.6682
B(  2-C , 66-H ) :   0.9930 B(  3-C ,  4-C ) :   1.1466 B(  3-C , 67-H ) :   0.9918
B(  4-C ,  5-S ) :   1.0356 B(  4-C ,  6-C ) :   1.5802 B(  6-C ,  7-C ) :   1.1615
B(  6-C , 10-S ) :   1.0335 B(  7-C ,  8-C ) :   1.6385 B(  7-C , 68-H ) :   0.9915
B(  8-C ,  9-C ) :   1.1365 B(  8-C , 69-H ) :   0.9940 B(  9-C , 10-S ) :   1.0009
B(  9-C , 11-C ) :   1.6352 B( 11-C , 12-N ) :   1.1361 B( 11-C , 70-H ) :   0.9539
B( 12-N , 13-C ) :   1.2171 B( 12-N , 71-H ) :   0.9018 B( 13-C , 14-S ) :   1.1347
B( 13-C , 20-C ) :   1.3536 B( 14-S , 15-C ) :   1.0724 B( 15-C , 16-N ) :   0.9860
B( 15-C , 19-C ) :   1.4730 B( 16-N , 17-O ) :   1.5244 B( 16-N , 18-O ) :   1.5008
B( 17-O , 18-O ) :   0.2526 B( 19-C , 20-C ) :   1.2525 B( 19-C , 72-H ) :   1.0007
B( 20-C , 21-C ) :   1.0683 B( 21-C , 22-C ) :   1.7117 B( 21-C , 73-H ) :   0.9612
B( 22-C , 23-C ) :   1.1265 B( 22-C , 74-H ) :   0.9537 B( 23-C , 24-S ) :   1.1705
B( 23-C , 25-C ) :   0.1077 B( 23-C , 27-C ) :   1.3274 B( 24-S , 25-C ) :   1.1503
B( 25-C , 26-C ) :   1.3488 B( 25-C , 36-C ) :   1.1264 B( 26-C , 27-C ) :   1.2093
B( 26-C , 35-C ) :   1.1919 B( 27-C , 28-C ) :   1.1719 B( 28-C , 29-C ) :   1.5309
B( 28-C , 75-H ) :   0.9914 B( 29-C , 30-C ) :   0.9273 B( 29-C , 34-C ) :   1.1996
B( 30-C , 31-O ) :   2.1014 B( 30-C , 32-O ) :   1.2255 B( 32-O , 33-C ) :   0.9231
B( 33-C , 76-H ) :   0.9810 B( 33-C , 77-H ) :   0.9757 B( 33-C , 78-H ) :   0.9767
B( 34-C , 35-C ) :   1.5348 B( 34-C , 79-H ) :   0.9889 B( 35-C , 80-H ) :   0.9893
B( 36-C , 37-C ) :   1.6615 B( 36-C , 81-H ) :   0.9592 B( 37-C , 38-C ) :   1.1562
B( 37-C , 82-H ) :   0.9524 B( 38-C , 39-O ) :   1.0940 B( 38-C , 42-C ) :   1.3827
B( 39-O , 40-C ) :   1.1736 B( 40-C , 41-C ) :   1.3710 B( 40-C , 47-C ) :   1.2343
B( 41-C , 42-C ) :   1.2064 B( 41-C , 44-C ) :   0.9120 B( 42-C , 43-O ) :   1.1645
B( 43-O , 83-H ) :   0.9501 B( 44-C , 45-O ) :   2.1373 B( 44-C , 46-O ) :   1.2845
B( 46-O , 84-H ) :   0.9342 B( 47-C , 48-C ) :   1.5627 B( 47-C , 85-H ) :   0.9443
B( 48-C , 49-C ) :   1.1897 B( 48-C , 86-H ) :   0.9759 B( 49-C , 50-S ) :   1.1539
B( 49-C , 51-C ) :   0.1060 B( 49-C , 53-C ) :   1.2900 B( 50-S , 51-C ) :   1.1688
B( 51-C , 52-C ) :   1.3706 B( 51-C , 62-C ) :   1.0968 B( 52-C , 53-C ) :   1.2079
B( 52-C , 61-C ) :   1.1861 B( 53-C , 54-C ) :   1.1851 B( 54-C , 55-C ) :   1.5310
B( 54-C , 87-H ) :   0.9935 B( 55-C , 56-C ) :   0.9270 B( 55-C , 60-C ) :   1.1988
B( 56-C , 57-O ) :   2.0985 B( 56-C , 58-O ) :   1.2267 B( 58-O , 59-C ) :   0.9252
B( 59-C , 88-H ) :   0.9811 B( 59-C , 89-H ) :   0.9755 B( 59-C , 90-H ) :   0.9767
B( 60-C , 61-C ) :   1.5403 B( 60-C , 91-H ) :   0.9880 B( 61-C , 92-H ) :   0.9933
B( 62-C , 63-C ) :   1.9285 B( 62-C , 93-H ) :   0.9495 B( 63-C , 94-H ) :   0.9599
B( 63-C , 95-H ) :   0.9482

-----------------------------------------------------------------------------
         ABSORPTION SPECTRUM VIA TRANSITION ELECTRIC DIPOLE MOMENTS
-----------------------------------------------------------------------------
State   Energy  Wavelength   fosc         T2         TX        TY        TZ
        (cm-1)    (nm)                  (au**2)     (au)      (au)      (au)
-----------------------------------------------------------------------------
   0   15460.0    646.8   1.194233134  25.43045  -4.06277  -2.97718   0.24653
   1   18151.2    550.9   0.651699721  11.82001  -2.08500   2.64037   0.70797
   2   19679.0    508.2   0.691492235  11.56806  -0.31170   2.92978  -1.69920
   3   20711.8    482.8   0.330740958   5.25710   0.40420  -0.08356   2.25538
   4   23163.6    431.7   0.390945854   5.55630  -0.16347   0.74138   2.23158
   5   23750.8    421.0   0.077273460   1.07110  -0.10971  -0.95944  -0.37219
   6   24331.9    411.0   0.010031006   0.13572   0.15930   0.24419   0.22520
   7   25242.9    396.2   0.192066936   2.50489   0.51016   1.48847  -0.17052
   8   27374.2    365.3   0.138869911   1.67010   0.90977   0.89441  -0.20603
   9   28129.8    355.5   0.048700951   0.56996  -0.59600  -0.11092  -0.44994
  10   28965.2    345.2   0.048360017   0.54965  -0.03535   0.56186  -0.48240
  11   30675.3    326.0   0.067460127   0.72399   0.52015   0.09130   0.66716
  12   30899.0    323.6   0.113525062   1.20955  -0.48566  -0.75811  -0.63163
  13   30929.5    323.3   0.099688709   1.06108   0.89033   0.38850   0.34274
  14   31137.8    321.2   0.008959714   0.09473  -0.28083  -0.02205   0.12400
  15   31575.1    316.7   0.097710550   1.01876  -0.17511   0.45459   0.88399
  16   32207.3    310.5   0.036412011   0.37219   0.57364   0.20764  -0.00273
  17   32746.0    305.4   0.020263724   0.20372  -0.34865  -0.23082  -0.16996
  18   33069.5    302.4   0.067706676   0.67403   0.54657  -0.08591   0.60656
  19   33553.0    298.0   0.023826989   0.23378  -0.01552   0.38008   0.29847
  20   34562.9    289.3   0.238283201   2.26965  -0.97206   0.10707  -1.14599
  21   35374.7    282.7   0.031498380   0.29314  -0.38401  -0.38164   0.00537
  22   35737.6    279.8   0.033066293   0.30460  -0.03413  -0.51870   0.18544
  23   35885.6    278.7   0.033732824   0.30946  -0.19557  -0.42552  -0.30025
  24   36421.0    274.6   0.011276908   0.10193  -0.12446  -0.10382   0.27507
  25   36680.7    272.6   0.466354030   4.18556  -0.92988  -1.11764  -1.43936
  26   37443.0    267.1   0.009399557   0.08264  -0.07093  -0.26205   0.09457
  27   37603.7    265.9   0.046787378   0.40961   0.47684   0.34638  -0.24952
  28   37694.3    265.3   0.031139341   0.27196  -0.39604  -0.27986   0.19182
  29   38571.2    259.3   0.111890946   0.95501   0.25816   0.44898  -0.82872
  30   38687.2    258.5   0.085778734   0.72994  -0.07270   0.44018   0.72863
  31   39225.8    254.9   0.089286124   0.74936  -0.73188  -0.46043   0.04143
  32   39340.5    254.2   0.110412423   0.92396  -0.57457  -0.57920  -0.50829
  33   39800.8    251.3   0.005250817   0.04343   0.16813  -0.06340   0.10557
  34   40035.8    249.8   0.001168215   0.00961   0.07691   0.03059   0.05249

FINAL SINGLE POINT ENERGY     -4658.922889980952

DIPOLE MOMENT
-------------
                                X             Y             Z
Electronic contribution:     20.93156     -11.50746      10.70853
Nuclear contribution   :    -22.15504      13.36569     -12.23051
                        -----------------------------------------
Total Dipole Moment    :     -1.22348       1.85823      -1.52198
                        -----------------------------------------
Magnitude (a.u.)       :      2.69561
Magnitude (Debye)      :      6.85171

Rotational constants in cm-1:     0.001018     0.000364     0.000339
Rotational constants in MHz :    30.511255    10.900919    10.149947

                             ****ORCA TERMINATED NORMALLY****
TOTAL RUN TIME: 0 days 0 hours 10 minutes 58 seconds 237 msec
