                         Program Version 4.2.0 -  RELEASE  -
|  1> # ORCA input file
|  2> # SCF done       -162.736838214630          0.000373744220
|  3> ! CAM-B3LYP def2-SVP def2/J RIJCOSX Grid4 TightSCF
|  4> %maxcore 5000
|  5> %tddft
|  6>     Mode sTDDFT
|  7>     Ethresh 5.0
|  8>     maxcore 5000
|  9> end
| 10>
| 11> %pal
| 12>   nprocs 6
| 13>   end
| 14> * xyz 0 1
| 15>    C       -4.18289        -4.33770         4.99684
| 16>    C       -3.52072        -5.42551         5.41077
| 17>    C       -3.46618        -5.96981         6.73847
| 18>    C       -2.70895        -7.08105         6.85705
| 19>    C       -2.10087        -7.50902         5.64154
| 20>    S       -2.54285        -6.43205         4.33068
| 21>    C       -1.27204        -8.58731         5.46111
| 22>    C       -0.82752        -9.52357         6.43035
| 23>    C        0.01528       -10.47136         5.94938
| 24>    C        0.29448       -10.35124         4.56055
| 25>    S       -0.58230        -8.97167         3.89301
| 26>    C        1.11874       -11.14129         3.81987
| 27>    N        1.32538       -10.95520         2.48927
| 28>    C        2.16939       -11.64536         1.70155
| 29>    S        3.17463       -12.90558         2.34757
| 30>    C        3.87908       -13.13097         0.76970
| 31>    N        5.03438       -13.84790         0.64471
| 32>    O        5.68058       -13.67323        -0.41247
| 33>    O        5.43095       -14.54110         1.57295
| 34>    C        3.31148       -12.31743        -0.19262
| 35>    C        2.37232       -11.42306         0.32697
| 36>    C        1.75443       -10.35536        -0.40482
| 37>    C        2.18734        -9.75585        -1.53452
| 38>    C        3.38693        -9.90741        -2.31608
| 39>    C        3.30101        -9.55303        -3.68800
| 40>    C        4.39711        -9.74608        -4.60533
| 41>    N        4.27673        -9.35713        -5.88372
| 42>    C        3.12759        -8.89363        -6.30740
| 43>    C        1.99871        -8.81720        -5.42700
| 44>    N        2.12106        -9.11665        -4.15779
| 45>    C        0.73340        -8.42885        -5.92853
| 46>    N       -0.27624        -8.12422        -6.37756
| 47>    C        2.99694        -8.51791        -7.66524
| 48>    N        2.84537        -8.25466        -8.77080
| 49>    C        5.58954       -10.39098        -4.21086
| 50>    C        5.70496       -10.65947        -2.84683
| 51>    C        4.64548       -10.37744        -1.90283
| 52>    N        5.00577       -10.73260        -0.65460
| 53>    S        6.45080       -11.43008        -0.70637
| 54>    N        6.75847       -11.24933        -2.24570
| 55>    C        6.57030       -10.81964        -5.18718
| 56>    C        7.93873       -10.65133        -5.12049
| 57>    C        8.78834       -10.00953        -4.08629
| 58>    N        8.46915       -11.14773        -6.27036
| 59>    C        7.49037       -11.63884        -7.08460
| 60>    C        7.80978       -12.28141        -8.38542
| 61>    C        6.28454       -11.45984        -6.44364
| 62>    C        4.97198       -11.82716        -6.92109
| 63>    C        3.99605       -12.20631        -6.08786
| 64>    N        2.66514       -12.31889        -6.43587
| 65>    C        1.65469       -12.33387        -5.54281
| 66>    S        1.96418       -12.68025        -3.86724
| 67>    C        0.26342       -12.52999        -3.52751
| 68>    N       -0.14208       -12.69595        -2.21825
| 69>    O       -1.32244       -12.53316        -1.94477
| 70>    O        0.72530       -12.99740        -1.39947
| 71>    C       -0.47796       -12.24975        -4.65018
| 72>    C        0.29521       -12.12283        -5.81039
| 73>    C       -0.29685       -11.78495        -7.09504
| 74>    C        0.26685       -11.14239        -8.11156
| 75>    H       -4.76486        -3.75368         5.68773
| 76>    H       -4.15655        -4.01454         3.97240
| 77>    H       -3.99951        -5.49867         7.54490
| 78>    H       -2.55768        -7.61733         7.77701
| 79>    H       -1.14529        -9.46271         7.45542
| 80>    H        0.45314       -11.25758         6.53764
| 81>    H        1.65370       -11.95847         4.28040
| 82>    H        0.77634       -10.22657         2.04313
| 83>    H        3.48147       -12.47047        -1.24022
| 84>    H        0.80996        -9.99890        -0.01001
| 85>    H        1.50144        -9.04973        -1.98716
| 86>    H        9.71341        -9.64124        -4.52597
| 87>    H        9.02854       -10.72359        -3.29907
| 88>    H        8.25891        -9.17913        -3.62649
| 89>    H        9.45217       -11.15276        -6.49034
| 90>    H        8.60457       -11.73883        -8.89550
| 91>    H        6.93007       -12.29474        -9.02220
| 92>    H        8.13964       -13.31136        -8.24050
| 93>    H        4.77651       -11.72154        -7.98050
| 94>    H        4.19257       -12.37030        -5.03841
| 95>    H        2.41640       -12.20649        -7.41130
| 96>    H       -1.54426       -12.11708        -4.61559
| 97>    H       -1.33703       -12.07213        -7.17653
| 98>    H        1.26813       -10.74407        -8.09787
| 99>    H       -0.29419       -10.93065        -9.00418
|100> *
|101>
|102>                          ****END OF INPUT****

CARTESIAN COORDINATES (ANGSTROEM)
---------------------------------
  C     -4.182890   -4.337700    4.996840
  C     -3.520720   -5.425510    5.410770
  C     -3.466180   -5.969810    6.738470
  C     -2.708950   -7.081050    6.857050
  C     -2.100870   -7.509020    5.641540
  S     -2.542850   -6.432050    4.330680
  C     -1.272040   -8.587310    5.461110
  C     -0.827520   -9.523570    6.430350
  C      0.015280  -10.471360    5.949380
  C      0.294480  -10.351240    4.560550
  S     -0.582300   -8.971670    3.893010
  C      1.118740  -11.141290    3.819870
  N      1.325380  -10.955200    2.489270
  C      2.169390  -11.645360    1.701550
  S      3.174630  -12.905580    2.347570
  C      3.879080  -13.130970    0.769700
  N      5.034380  -13.847900    0.644710
  O      5.680580  -13.673230   -0.412470
  O      5.430950  -14.541100    1.572950
  C      3.311480  -12.317430   -0.192620
  C      2.372320  -11.423060    0.326970
  C      1.754430  -10.355360   -0.404820
  C      2.187340   -9.755850   -1.534520
  C      3.386930   -9.907410   -2.316080
  C      3.301010   -9.553030   -3.688000
  C      4.397110   -9.746080   -4.605330
  N      4.276730   -9.357130   -5.883720
  C      3.127590   -8.893630   -6.307400
  C      1.998710   -8.817200   -5.427000
  N      2.121060   -9.116650   -4.157790
  C      0.733400   -8.428850   -5.928530
  N     -0.276240   -8.124220   -6.377560
  C      2.996940   -8.517910   -7.665240
  N      2.845370   -8.254660   -8.770800
  C      5.589540  -10.390980   -4.210860
  C      5.704960  -10.659470   -2.846830
  C      4.645480  -10.377440   -1.902830
  N      5.005770  -10.732600   -0.654600
  S      6.450800  -11.430080   -0.706370
  N      6.758470  -11.249330   -2.245700
  C      6.570300  -10.819640   -5.187180
  C      7.938730  -10.651330   -5.120490
  C      8.788340  -10.009530   -4.086290
  N      8.469150  -11.147730   -6.270360
  C      7.490370  -11.638840   -7.084600
  C      7.809780  -12.281410   -8.385420
  C      6.284540  -11.459840   -6.443640
  C      4.971980  -11.827160   -6.921090
  C      3.996050  -12.206310   -6.087860
  N      2.665140  -12.318890   -6.435870
  C      1.654690  -12.333870   -5.542810
  S      1.964180  -12.680250   -3.867240
  C      0.263420  -12.529990   -3.527510
  N     -0.142080  -12.695950   -2.218250
  O     -1.322440  -12.533160   -1.944770
  O      0.725300  -12.997400   -1.399470
  C     -0.477960  -12.249750   -4.650180
  C      0.295210  -12.122830   -5.810390
  C     -0.296850  -11.784950   -7.095040
  C      0.266850  -11.142390   -8.111560
  H     -4.764860   -3.753680    5.687730
  H     -4.156550   -4.014540    3.972400
  H     -3.999510   -5.498670    7.544900
  H     -2.557680   -7.617330    7.777010
  H     -1.145290   -9.462710    7.455420
  H      0.453140  -11.257580    6.537640
  H      1.653700  -11.958470    4.280400
  H      0.776340  -10.226570    2.043130
  H      3.481470  -12.470470   -1.240220
  H      0.809960   -9.998900   -0.010010
  H      1.501440   -9.049730   -1.987160
  H      9.713410   -9.641240   -4.525970
  H      9.028540  -10.723590   -3.299070
  H      8.258910   -9.179130   -3.626490
  H      9.452170  -11.152760   -6.490340
  H      8.604570  -11.738830   -8.895500
  H      6.930070  -12.294740   -9.022200
  H      8.139640  -13.311360   -8.240500
  H      4.776510  -11.721540   -7.980500
  H      4.192570  -12.370300   -5.038410
  H      2.416400  -12.206490   -7.411300
  H     -1.544260  -12.117080   -4.615590
  H     -1.337030  -12.072130   -7.176530
  H      1.268130  -10.744070   -8.097870
  H     -0.294190  -10.930650   -9.004180

 Total Charge           Charge          ....    0
 Multiplicity           Mult            ....    1
 Number of Electrons    NEL             ....  454
 Basis Dimension        Dim             ....  985

ORBITAL ENERGIES
----------------

  NO   OCC          E(Eh)            E(eV)
   0   2.0000     -89.043358     -2422.9929
   1   2.0000     -88.975951     -2421.1587
   2   2.0000     -88.973456     -2421.0908
   3   2.0000     -88.948649     -2420.4158
   4   2.0000     -88.936874     -2420.0954
   5   2.0000     -19.229103      -523.2505
   6   2.0000     -19.223915      -523.1093
   7   2.0000     -19.223837      -523.1072
   8   2.0000     -19.222906      -523.0819
   9   2.0000     -14.634701      -398.2305
  10   2.0000     -14.632592      -398.1731
  11   2.0000     -14.487361      -394.2211
  12   2.0000     -14.471197      -393.7813
  13   2.0000     -14.456439      -393.3797
  14   2.0000     -14.448594      -393.1662
  15   2.0000     -14.448235      -393.1564
  16   2.0000     -14.433944      -392.7676
  17   2.0000     -14.433647      -392.7595
  18   2.0000     -14.423730      -392.4896
  19   2.0000     -14.419972      -392.3874
  20   2.0000     -10.368711      -282.1470
  21   2.0000     -10.366946      -282.0989
  22   2.0000     -10.365893      -282.0703
  23   2.0000     -10.363187      -281.9967
  24   2.0000     -10.333157      -281.1795
  25   2.0000     -10.331771      -281.1418
  26   2.0000     -10.330314      -281.1021
  27   2.0000     -10.326405      -280.9958
  28   2.0000     -10.326359      -280.9945
  29   2.0000     -10.325606      -280.9740
  30   2.0000     -10.325458      -280.9700
  31   2.0000     -10.318151      -280.7712
  32   2.0000     -10.313806      -280.6529
  33   2.0000     -10.311703      -280.5957
  34   2.0000     -10.311396      -280.5873
  35   2.0000     -10.311262      -280.5837
  36   2.0000     -10.308276      -280.5024
  37   2.0000     -10.305073      -280.4153
  38   2.0000     -10.303832      -280.3815
  39   2.0000     -10.301946      -280.3302
  40   2.0000     -10.300450      -280.2895
  41   2.0000     -10.299525      -280.2643
  42   2.0000     -10.299419      -280.2614
  43   2.0000     -10.293313      -280.0953
  44   2.0000     -10.289920      -280.0030
  45   2.0000     -10.288695      -279.9696
  46   2.0000     -10.288597      -279.9669
  47   2.0000     -10.286327      -279.9052
  48   2.0000     -10.285966      -279.8954
  49   2.0000     -10.283335      -279.8238
  50   2.0000     -10.283230      -279.8209
  51   2.0000     -10.282893      -279.8117
  52   2.0000     -10.275544      -279.6118
  53   2.0000     -10.275264      -279.6042
  54   2.0000     -10.272672      -279.5336
  55   2.0000     -10.268011      -279.4068
  56   2.0000     -10.268001      -279.4065
  57   2.0000     -10.267541      -279.3940
  58   2.0000     -10.258467      -279.1471
  59   2.0000     -10.257111      -279.1102
  60   2.0000      -8.132180      -221.2879
  61   2.0000      -8.070163      -219.6003
  62   2.0000      -8.069171      -219.5733
  63   2.0000      -8.045019      -218.9161
  64   2.0000      -8.033625      -218.6061
  65   2.0000      -6.102446      -166.0560
  66   2.0000      -6.097225      -165.9139
  67   2.0000      -6.094372      -165.8363
  68   2.0000      -6.039938      -164.3551
  69   2.0000      -6.038972      -164.3288
  70   2.0000      -6.035635      -164.2380
  71   2.0000      -6.034767      -164.2143
  72   2.0000      -6.031562      -164.1272
  73   2.0000      -6.030107      -164.0876
  74   2.0000      -6.014913      -163.6741
  75   2.0000      -6.010999      -163.5676
  76   2.0000      -6.005544      -163.4191
  77   2.0000      -6.003472      -163.3628
  78   2.0000      -5.999585      -163.2570
  79   2.0000      -5.994083      -163.1073
  80   2.0000      -1.300578       -35.3905
  81   2.0000      -1.296805       -35.2879
  82   2.0000      -1.129838       -30.7445
  83   2.0000      -1.118306       -30.4307
  84   2.0000      -1.114288       -30.3213
  85   2.0000      -1.107604       -30.1394
  86   2.0000      -1.093697       -29.7610
  87   2.0000      -1.078921       -29.3589
  88   2.0000      -1.074727       -29.2448
  89   2.0000      -1.034270       -28.1439
  90   2.0000      -1.006247       -27.3814
  91   2.0000      -0.999386       -27.1947
  92   2.0000      -0.995675       -27.0937
  93   2.0000      -0.991187       -26.9716
  94   2.0000      -0.990272       -26.9467
  95   2.0000      -0.977709       -26.6048
  96   2.0000      -0.967859       -26.3368
  97   2.0000      -0.965567       -26.2744
  98   2.0000      -0.914841       -24.8941
  99   2.0000      -0.908882       -24.7319
 100   2.0000      -0.900853       -24.5135
 101   2.0000      -0.895709       -24.3735
 102   2.0000      -0.890445       -24.2302
 103   2.0000      -0.881104       -23.9761
 104   2.0000      -0.872820       -23.7506
 105   2.0000      -0.870732       -23.6938
 106   2.0000      -0.858916       -23.3723
 107   2.0000      -0.849857       -23.1258
 108   2.0000      -0.845618       -23.0104
 109   2.0000      -0.840631       -22.8747
 110   2.0000      -0.829368       -22.5682
 111   2.0000      -0.825044       -22.4506
 112   2.0000      -0.821635       -22.3578
 113   2.0000      -0.816620       -22.2214
 114   2.0000      -0.813248       -22.1296
 115   2.0000      -0.796746       -21.6806
 116   2.0000      -0.785560       -21.3762
 117   2.0000      -0.766397       -20.8547
 118   2.0000      -0.760692       -20.6995
 119   2.0000      -0.743795       -20.2397
 120   2.0000      -0.727746       -19.8030
 121   2.0000      -0.722801       -19.6684
 122   2.0000      -0.721548       -19.6343
 123   2.0000      -0.714279       -19.4365
 124   2.0000      -0.705214       -19.1898
 125   2.0000      -0.699890       -19.0450
 126   2.0000      -0.694000       -18.8847
 127   2.0000      -0.682890       -18.5824
 128   2.0000      -0.676111       -18.3979
 129   2.0000      -0.674295       -18.3485
 130   2.0000      -0.665406       -18.1066
 131   2.0000      -0.652968       -17.7682
 132   2.0000      -0.645038       -17.5524
 133   2.0000      -0.640359       -17.4250
 134   2.0000      -0.633137       -17.2285
 135   2.0000      -0.629516       -17.1300
 136   2.0000      -0.625400       -17.0180
 137   2.0000      -0.622716       -16.9450
 138   2.0000      -0.618289       -16.8245
 139   2.0000      -0.615736       -16.7550
 140   2.0000      -0.615350       -16.7445
 141   2.0000      -0.611684       -16.6448
 142   2.0000      -0.607482       -16.5304
 143   2.0000      -0.601980       -16.3807
 144   2.0000      -0.600710       -16.3462
 145   2.0000      -0.598447       -16.2846
 146   2.0000      -0.589146       -16.0315
 147   2.0000      -0.584154       -15.8957
 148   2.0000      -0.577965       -15.7272
 149   2.0000      -0.576180       -15.6787
 150   2.0000      -0.572052       -15.5663
 151   2.0000      -0.571072       -15.5397
 152   2.0000      -0.568711       -15.4754
 153   2.0000      -0.557641       -15.1742
 154   2.0000      -0.547779       -14.9058
 155   2.0000      -0.546836       -14.8802
 156   2.0000      -0.541169       -14.7259
 157   2.0000      -0.538139       -14.6435
 158   2.0000      -0.533979       -14.5303
 159   2.0000      -0.532180       -14.4814
 160   2.0000      -0.523170       -14.2362
 161   2.0000      -0.518492       -14.1089
 162   2.0000      -0.518183       -14.1005
 163   2.0000      -0.516150       -14.0452
 164   2.0000      -0.514445       -13.9988
 165   2.0000      -0.512612       -13.9489
 166   2.0000      -0.505116       -13.7449
 167   2.0000      -0.503286       -13.6951
 168   2.0000      -0.498838       -13.5741
 169   2.0000      -0.496982       -13.5236
 170   2.0000      -0.494278       -13.4500
 171   2.0000      -0.492188       -13.3931
 172   2.0000      -0.490609       -13.3502
 173   2.0000      -0.484640       -13.1877
 174   2.0000      -0.483208       -13.1487
 175   2.0000      -0.478880       -13.0310
 176   2.0000      -0.477315       -12.9884
 177   2.0000      -0.473578       -12.8867
 178   2.0000      -0.471071       -12.8185
 179   2.0000      -0.467918       -12.7327
 180   2.0000      -0.466568       -12.6960
 181   2.0000      -0.462974       -12.5982
 182   2.0000      -0.457191       -12.4408
 183   2.0000      -0.455210       -12.3869
 184   2.0000      -0.452555       -12.3147
 185   2.0000      -0.450453       -12.2575
 186   2.0000      -0.449932       -12.2433
 187   2.0000      -0.446299       -12.1444
 188   2.0000      -0.445828       -12.1316
 189   2.0000      -0.442304       -12.0357
 190   2.0000      -0.440857       -11.9963
 191   2.0000      -0.438586       -11.9345
 192   2.0000      -0.436258       -11.8712
 193   2.0000      -0.431584       -11.7440
 194   2.0000      -0.429278       -11.6812
 195   2.0000      -0.427124       -11.6226
 196   2.0000      -0.423363       -11.5203
 197   2.0000      -0.416363       -11.3298
 198   2.0000      -0.411106       -11.1868
 199   2.0000      -0.404216       -10.9993
 200   2.0000      -0.401674       -10.9301
 201   2.0000      -0.400166       -10.8891
 202   2.0000      -0.398753       -10.8506
 203   2.0000      -0.386511       -10.5175
 204   2.0000      -0.381517       -10.3816
 205   2.0000      -0.380261       -10.3474
 206   2.0000      -0.379825       -10.3356
 207   2.0000      -0.374768       -10.1980
 208   2.0000      -0.369582       -10.0568
 209   2.0000      -0.365903        -9.9567
 210   2.0000      -0.363138        -9.8815
 211   2.0000      -0.357922        -9.7395
 212   2.0000      -0.355443        -9.6721
 213   2.0000      -0.352081        -9.5806
 214   2.0000      -0.342009        -9.3065
 215   2.0000      -0.339997        -9.2518
 216   2.0000      -0.334144        -9.0925
 217   2.0000      -0.328020        -8.9259
 218   2.0000      -0.318504        -8.6669
 219   2.0000      -0.317191        -8.6312
 220   2.0000      -0.307518        -8.3680
 221   2.0000      -0.303306        -8.2534
 222   2.0000      -0.290810        -7.9133
 223   2.0000      -0.275451        -7.4954
 224   2.0000      -0.251022        -6.8307
 225   2.0000      -0.241786        -6.5793
 226   2.0000      -0.216177        -5.8825
 227   0.0000      -0.099042        -2.6951
 228   0.0000      -0.065275        -1.7762
 229   0.0000      -0.049351        -1.3429
 230   0.0000      -0.042259        -1.1499
 231   0.0000      -0.033400        -0.9089

MULLIKEN ATOMIC CHARGES
-----------------------
   0 C :   -0.030333
   1 C :   -0.064645
   2 C :    0.053959
   3 C :    0.028196
   4 C :   -0.065338
   5 S :    0.075393
   6 C :   -0.050800
   7 C :    0.030616
   8 C :    0.037442
   9 C :   -0.038497
  10 S :    0.040383
  11 C :    0.020667
  12 N :   -0.014935
  13 C :   -0.102612
  14 S :    0.129213
  15 C :   -0.082258
  16 N :    0.291865
  17 O :   -0.320369
  18 O :   -0.278885
  19 C :    0.120212
  20 C :    0.164960
  21 C :   -0.032616
  22 C :   -0.070420
  23 C :    0.061068
  24 C :   -0.036248
  25 C :   -0.145877
  26 N :    0.099384
  27 C :   -0.165770
  28 C :   -0.144811
  29 N :    0.057065
  30 C :   -0.203824
  31 N :    0.231143
  32 C :   -0.206007
  33 N :    0.220368
  34 C :    0.039193
  35 C :    0.004606
  36 C :   -0.009102
  37 N :   -0.328598
  38 S :    0.628631
  39 N :   -0.281505
  40 C :   -0.017230
  41 C :   -0.156467
  42 C :    0.161661
  43 N :   -0.037263
  44 C :   -0.169955
  45 C :    0.133578
  46 C :    0.060632
  47 C :   -0.051090
  48 C :    0.056782
  49 N :   -0.031244
  50 C :   -0.122265
  51 S :    0.109363
  52 C :   -0.004746
  53 N :    0.298077
  54 O :   -0.267585
  55 O :   -0.294926
  56 C :    0.009560
  57 C :    0.092672
  58 C :   -0.014304
  59 C :   -0.042336
  60 H :    0.019958
  61 H :    0.022851
  62 H :   -0.011878
  63 H :   -0.012328
  64 H :   -0.012997
  65 H :   -0.009907
  66 H :    0.026219
  67 H :    0.152107
  68 H :    0.020172
  69 H :   -0.014332
  70 H :    0.011166
  71 H :   -0.007063
  72 H :    0.041752
  73 H :    0.019037
  74 H :    0.112866
  75 H :    0.011782
  76 H :    0.015142
  77 H :    0.033312
  78 H :   -0.009214
  79 H :    0.034537
  80 H :    0.130269
  81 H :    0.008510
  82 H :    0.004170
  83 H :    0.002528
  84 H :    0.037513
Sum of atomic charges:   -0.0000000

LOEWDIN ATOMIC CHARGES
----------------------
   0 C :   -0.077049
   1 C :   -0.138985
   2 C :   -0.031162
   3 C :   -0.026745
   4 C :   -0.180841
   5 S :    0.347164
   6 C :   -0.176688
   7 C :   -0.035836
   8 C :   -0.031208
   9 C :   -0.177727
  10 S :    0.337990
  11 C :   -0.018288
  12 N :    0.060743
  13 C :   -0.071732
  14 S :    0.432342
  15 C :   -0.233950
  16 N :    0.273554
  17 O :   -0.293338
  18 O :   -0.246073
  19 C :    0.044929
  20 C :   -0.100958
  21 C :   -0.017735
  22 C :   -0.027970
  23 C :   -0.042551
  24 C :   -0.009278
  25 C :   -0.019977
  26 N :    0.021931
  27 C :   -0.052114
  28 C :   -0.035536
  29 N :   -0.001318
  30 C :   -0.034400
  31 N :   -0.015067
  32 C :   -0.035765
  33 N :   -0.024720
  34 C :   -0.011878
  35 C :   -0.049257
  36 C :   -0.046722
  37 N :   -0.292912
  38 S :    0.790875
  39 N :   -0.299366
  40 C :   -0.078252
  41 C :    0.011683
  42 C :   -0.055206
  43 N :    0.091564
  44 C :   -0.018911
  45 C :   -0.052023
  46 C :   -0.069468
  47 C :   -0.049072
  48 C :   -0.003740
  49 N :    0.039179
  50 C :   -0.088199
  51 S :    0.453385
  52 C :   -0.225815
  53 N :    0.279541
  54 O :   -0.232434
  55 O :   -0.249772
  56 C :    0.014358
  57 C :   -0.119286
  58 C :   -0.015323
  59 C :   -0.056519
  60 H :    0.028701
  61 H :    0.026776
  62 H :    0.033419
  63 H :    0.031989
  64 H :    0.032592
  65 H :    0.034332
  66 H :    0.030484
  67 H :    0.091340
  68 H :    0.032126
  69 H :    0.028468
  70 H :    0.037713
  71 H :    0.025662
  72 H :    0.038478
  73 H :    0.039060
  74 H :    0.086785
  75 H :    0.031679
  76 H :    0.038941
  77 H :    0.037409
  78 H :    0.026008
  79 H :    0.020382
  80 H :    0.091721
  81 H :    0.046742
  82 H :    0.036160
  83 H :    0.011851
  84 H :    0.033106

  Mayer bond orders larger than 0.100000
B(  0-C ,  1-C ) :   1.8679 B(  0-C , 60-H ) :   0.9507 B(  0-C , 61-H ) :   0.9416
B(  1-C ,  2-C ) :   1.0788 B(  1-C ,  5-S ) :   1.0075 B(  2-C ,  3-C ) :   1.6673
B(  2-C , 62-H ) :   0.9928 B(  3-C ,  4-C ) :   1.1472 B(  3-C , 63-H ) :   0.9915
B(  4-C ,  5-S ) :   1.0391 B(  4-C ,  6-C ) :   1.5768 B(  6-C ,  7-C ) :   1.1636
B(  6-C , 10-S ) :   1.0324 B(  7-C ,  8-C ) :   1.6358 B(  7-C , 64-H ) :   0.9910
B(  8-C ,  9-C ) :   1.1384 B(  8-C , 65-H ) :   0.9945 B(  9-C , 10-S ) :   1.0107
B(  9-C , 11-C ) :   1.6302 B( 11-C , 12-N ) :   1.1213 B( 11-C , 66-H ) :   0.9581
B( 12-N , 13-C ) :   1.2838 B( 12-N , 67-H ) :   0.9003 B( 13-C , 14-S ) :   1.1263
B( 13-C , 20-C ) :   1.3217 B( 14-S , 15-C ) :   1.0393 B( 15-C , 16-N ) :   1.1030
B( 15-C , 19-C ) :   1.3703 B( 16-N , 17-O ) :   1.3655 B( 16-N , 18-O ) :   1.4825
B( 17-O , 18-O ) :   0.1921 B( 17-O , 38-S ) :   0.1167 B( 19-C , 20-C ) :   1.2963
B( 19-C , 68-H ) :   0.9636 B( 20-C , 21-C ) :   1.0565 B( 21-C , 22-C ) :   1.7792
B( 21-C , 69-H ) :   0.9468 B( 22-C , 23-C ) :   1.1186 B( 22-C , 70-H ) :   0.9302
B( 23-C , 24-C ) :   1.2398 B( 23-C , 34-C ) :   0.1255 B( 23-C , 36-C ) :   1.2472
B( 24-C , 25-C ) :   1.1050 B( 24-C , 29-N ) :   1.4472 B( 25-C , 26-N ) :   1.4784
B( 25-C , 34-C ) :   1.2702 B( 26-N , 27-C ) :   1.7155 B( 27-C , 28-C ) :   1.2063
B( 27-C , 32-C ) :   1.1557 B( 28-C , 29-N ) :   1.7427 B( 28-C , 30-C ) :   1.1562
B( 30-C , 31-N ) :   3.0309 B( 32-C , 33-N ) :   3.0239 B( 34-C , 35-C ) :   1.3254
B( 34-C , 40-C ) :   0.9625 B( 35-C , 36-C ) :   1.1083 B( 35-C , 39-N ) :   1.4298
B( 36-C , 37-N ) :   1.4185 B( 37-N , 38-S ) :   1.3074 B( 37-N , 39-N ) :   0.1271
B( 38-S , 39-N ) :   1.3739 B( 40-C , 41-C ) :   1.4852 B( 40-C , 46-C ) :   1.2751
B( 41-C , 42-C ) :   1.1264 B( 41-C , 43-N ) :   1.2384 B( 42-C , 71-H ) :   0.9314
B( 42-C , 72-H ) :   0.9264 B( 42-C , 73-H ) :   0.9376 B( 43-N , 44-C ) :   1.1981
B( 43-N , 74-H ) :   0.9380 B( 44-C , 45-C ) :   1.1127 B( 44-C , 46-C ) :   1.4858
B( 45-C , 75-H ) :   0.9408 B( 45-C , 76-H ) :   0.9396 B( 45-C , 77-H ) :   0.9448
B( 46-C , 47-C ) :   1.0784 B( 47-C , 48-C ) :   1.7833 B( 47-C , 78-H ) :   0.9513
B( 48-C , 49-N ) :   1.0570 B( 48-C , 79-H ) :   0.9413 B( 49-N , 50-C ) :   1.2719
B( 49-N , 80-H ) :   0.9079 B( 50-C , 51-S ) :   1.1448 B( 50-C , 57-C ) :   1.3415
B( 51-S , 52-C ) :   1.0521 B( 52-C , 53-N ) :   1.0156 B( 52-C , 56-C ) :   1.4435
B( 53-N , 54-O ) :   1.5169 B( 53-N , 55-O ) :   1.4410 B( 54-O , 55-O ) :   0.2339
B( 56-C , 57-C ) :   1.2637 B( 56-C , 81-H ) :   1.0044 B( 57-C , 58-C ) :   1.0585
B( 58-C , 59-C ) :   1.9389 B( 58-C , 82-H ) :   0.9584 B( 59-C , 83-H ) :   0.9579
B( 59-C , 84-H ) :   0.9479

-----------------------------------------------------------------------------
         ABSORPTION SPECTRUM VIA TRANSITION ELECTRIC DIPOLE MOMENTS
-----------------------------------------------------------------------------
State   Energy  Wavelength   fosc         T2         TX        TY        TZ
        (cm-1)    (nm)                  (au**2)     (au)      (au)      (au)
-----------------------------------------------------------------------------
   0   11983.2    834.5   0.156493742   4.29933  -1.08895   0.46041   1.70339
   1   12281.8    814.2   0.160977422   4.31498   1.33503  -0.21869  -1.57634
   2   16312.9    613.0   0.007385673   0.14905   0.16211   0.34631   0.05328
   3   18763.6    532.9   1.336034705  23.44103  -3.04802   2.97762   2.29879
   4   20975.5    476.7   0.008427208   0.13227  -0.08628   0.06564  -0.34715
   5   22678.6    440.9   0.015419185   0.22383  -0.09679   0.13487  -0.44303
   6   23056.8    433.7   0.035743254   0.51035  -0.70769  -0.05505   0.08063
   7   24147.6    414.1   0.077978360   1.06310   0.72334  -0.73014   0.08234
   8   24641.0    405.8   0.126382008   1.68851   0.56334   0.69905  -0.93941
   9   24945.8    400.9   0.024762102   0.32679  -0.11035   0.27548   0.48859
  10   25468.0    392.6   0.219456456   2.83680   1.44629   0.01052  -0.86310
  11   25977.0    385.0   0.055827827   0.70752   0.63256  -0.51014  -0.21712
  12   26386.9    379.0   0.084783103   1.05778  -0.17953   0.86742  -0.52262
  13   26758.6    373.7   0.038018232   0.46774   0.20150   0.39856  -0.51797
  14   27187.3    367.8   0.065154724   0.78896  -0.77671  -0.00473   0.43088
  15   27355.6    365.6   0.064494939   0.77617  -0.01082   0.16865  -0.86464
  16   27724.2    360.7   0.070505373   0.83722  -0.39071  -0.04358   0.82624
  17   28269.7    353.7   0.006658216   0.07754   0.21848   0.04786   0.16587
  18   28738.6    348.0   0.069770999   0.79926   0.67971  -0.12965  -0.56607
  19   29079.4    343.9   0.012199184   0.13811  -0.04246  -0.11057   0.35225
  20   29952.5    333.9   0.135941367   1.49415   0.65713  -0.49773   0.90255
  21   30866.9    324.0   0.206803003   2.20567   0.41414  -0.91812   1.09142
  22   31495.6    317.5   0.008943922   0.09349  -0.13186  -0.03749   0.27331
  23   31715.4    315.3   0.052625510   0.54626   0.60441  -0.24506   0.34771
  24   31787.7    314.6   0.166633256   1.72575  -0.07689  -0.53488   1.19739
  25   31981.9    312.7   0.193836166   1.99529   0.42850   0.61088  -1.19938
  26   32667.1    306.1   0.016700633   0.16831   0.13062   0.00340   0.38889
  27   32993.3    303.1   0.023687681   0.23636  -0.34773   0.07032  -0.33242
  28   33227.1    301.0   0.122470280   1.21343  -0.80600   0.68662  -0.30389
  29   33320.7    300.1   0.013988053   0.13820   0.25042  -0.04951   0.27026
  30   33663.4    297.1   0.426852305   4.17441   0.68088  -1.07117   1.60107
  31   33810.5    295.8   0.036348154   0.35392   0.10781  -0.05712   0.58227
  32   34112.6    293.1   0.058238631   0.56205  -0.02486   0.49672  -0.56098
  33   34862.1    286.8   0.086378649   0.81570  -0.06712   0.23595  -0.86921
  34   35044.5    285.4   0.120489272   1.13189  -0.31198   0.52951  -0.86844
  35   35418.9    282.3   0.090309069   0.83941  -0.62978   0.12089  -0.65434
  36   35492.0    281.8   0.075928786   0.70429  -0.78886  -0.12407  -0.25807
  37   35972.6    278.0   0.032736470   0.29960  -0.51773   0.17481  -0.03157
  38   36174.9    276.4   0.052070636   0.47387   0.30830  -0.35386   0.50359
  39   36342.2    275.2   0.066407880   0.60157  -0.72231   0.27980   0.03938
  40   36835.3    271.5   0.070482253   0.62993  -0.63913   0.37967  -0.27802
  41   36844.0    271.4   0.048851168   0.43650  -0.53253   0.24095  -0.30799
  42   37198.3    268.8   0.034450447   0.30489   0.10842  -0.09726   0.53261
  43   37270.3    268.3   0.006371225   0.05628  -0.15035   0.11647  -0.14180
  44   37498.0    266.7   0.067010302   0.58831   0.55713  -0.31252   0.42456
  45   37771.6    264.7   0.026809725   0.23367  -0.01331  -0.04916   0.48070
  46   37869.7    264.1   0.144831642   1.25906  -0.97423   0.11974   0.54369
  47   37966.6    263.4   0.037050222   0.32127   0.15194   0.17524  -0.51718
  48   38115.6    262.4   0.018776180   0.16217   0.37729  -0.03825  -0.13550
  49   38512.3    259.7   0.032098676   0.27439  -0.40456   0.32674   0.06293
  50   38705.2    258.4   0.025111862   0.21359   0.03373   0.00407  -0.46091
  51   39112.4    255.7   0.013210312   0.11119   0.24152   0.04249   0.22595
  52   39468.9    253.4   0.036111409   0.30121  -0.52374   0.16351   0.01288
  53   39800.1    251.3   0.116591222   0.96440   0.19149  -0.50124   0.82249
  54   40244.1    248.5   0.077709081   0.63569  -0.67131   0.35226   0.24687

FINAL SINGLE POINT ENERGY     -4429.404955462047

DIPOLE MOMENT
-------------
                                X             Y             Z
Electronic contribution:     -0.22155      -7.50883      14.60128
Nuclear contribution   :      1.73371       7.92718     -13.55261
                        -----------------------------------------
Total Dipole Moment    :      1.51215       0.41835       1.04867
                        -----------------------------------------
Magnitude (a.u.)       :      1.88715
Magnitude (Debye)      :      4.79675

Rotational constants in cm-1:     0.001941     0.000677     0.000591
Rotational constants in MHz :    58.176333    20.297773    17.727208

                             ****ORCA TERMINATED NORMALLY****
TOTAL RUN TIME: 0 days 0 hours 8 minutes 17 seconds 154 msec
