                         Program Version 4.2.0 -  RELEASE  -
|  1> # ORCA input file
|  2> # SCF done       -145.239539305469          0.000669176608
|  3> ! CAM-B3LYP def2-SVP def2/J RIJCOSX Grid4 TightSCF
|  4> %maxcore 5000
|  5> %tddft
|  6>     Mode sTDDFT
|  7>     Ethresh 5.0
|  8>     maxcore 5000
|  9> end
| 10>
| 11> %pal
| 12>   nprocs 6
| 13>   end
| 14> * xyz 0 1
| 15>    C       12.47783       -10.30682        -8.56550
| 16>    C       12.27741        -9.76685        -7.35642
| 17>    C       13.25986        -9.20904        -6.46984
| 18>    C       12.75984        -8.73215        -5.31019
| 19>    C       11.34813        -8.87510        -5.17678
| 20>    S       10.67898        -9.64165        -6.60435
| 21>    C       10.56899        -8.49133        -4.11607
| 22>    C       10.97403        -7.86596        -2.90782
| 23>    C        9.95931        -7.61186        -2.04783
| 24>    C        8.67445        -8.03010        -2.50917
| 25>    S        8.83113        -8.74877        -4.10793
| 26>    C        7.51171        -7.82334        -1.83422
| 27>    N        6.24959        -8.23839        -2.17939
| 28>    C        5.88149        -9.34736        -2.87114
| 29>    S        6.90922       -10.73832        -2.98567
| 30>    C        5.63455       -11.59539        -3.79695
| 31>    N        5.88334       -12.89797        -4.20723
| 32>    O        4.98230       -13.50050        -4.77467
| 33>    O        6.99051       -13.35835        -3.96179
| 34>    C        4.49299       -10.85019        -3.95470
| 35>    C        4.60544        -9.55620        -3.42579
| 36>    C        3.57926        -8.54659        -3.45075
| 37>    C        2.31394        -8.75936        -3.85434
| 38>    C        1.26153        -7.77982        -3.88757
| 39>    C        1.35891        -6.47905        -3.48287
| 40>    S       -0.09850        -5.57254        -3.62775
| 41>    C       -0.91906        -6.96495        -4.26266
| 42>    C       -0.07185        -8.08089        -4.35344
| 43>    C       -0.57076        -9.28116        -4.86505
| 44>    C       -1.88602        -9.41157        -5.28148
| 45>    C       -2.74073        -8.28055        -5.17518
| 46>    C       -2.24237        -7.06828        -4.66733
| 47>    S       -3.45482        -5.82556        -4.62752
| 48>    C       -4.61869        -6.92679        -5.27564
| 49>    C       -4.12051        -8.15935        -5.51138
| 50>    C       -2.39324       -10.64472        -5.84315
| 51>    C       -1.81079       -11.85533        -5.76865
| 52>    C       -2.36405       -13.01661        -6.40296
| 53>    C       -1.82849       -14.24809        -6.42017
| 54>    C       -0.56196       -14.63814        -5.72494
| 55>    C       -2.51574       -15.35901        -7.17550
| 56>    N       -3.01664       -16.39013        -6.29367
| 57>    C       -2.38923       -17.57252        -6.01892
| 58>    C       -1.33280       -18.11651        -6.65960
| 59>    C       -0.79532       -19.40862        -6.37964
| 60>    C       -1.21586       -20.34913        -5.47970
| 61>    C       -0.36258       -21.47878        -5.59101
| 62>    N       -0.18984       -22.71049        -5.06190
| 63>    C        0.88947       -23.30460        -5.67971
| 64>    C        1.40222       -22.41144        -6.62327
| 65>    C        0.61461       -21.26802        -6.56586
| 66>    C        0.41440       -19.91272        -7.14749
| 67>    C        1.35708       -24.62109        -5.37187
| 68>    C        0.83701       -25.46169        -4.47450
| 69>    H       13.46711       -10.36398        -8.98425
| 70>    H       11.66732       -10.70137        -9.14998
| 71>    H       14.29964        -9.19440        -6.74503
| 72>    H       13.35172        -8.28271        -4.53252
| 73>    H       12.00410        -7.62679        -2.71428
| 74>    H       10.07633        -7.14603        -1.08540
| 75>    H        7.55067        -7.22876        -0.93118
| 76>    H        5.48520        -7.68242        -1.81824
| 77>    H        3.62902       -11.24515        -4.45503
| 78>    H        3.86987        -7.55549        -3.12984
| 79>    H        2.03081        -9.74876        -4.17828
| 80>    H        2.22099        -5.97427        -3.09354
| 81>    H        0.09560       -10.12260        -4.96208
| 82>    H       -5.61894        -6.57710        -5.44076
| 83>    H       -4.71868        -8.96007        -5.90634
| 84>    H       -3.33073       -10.56767        -6.37693
| 85>    H       -0.88684       -11.98375        -5.22603
| 86>    H       -3.29063       -12.85208        -6.94135
| 87>    H       -0.40098       -14.06005        -4.81880
| 88>    H        0.29190       -14.47737        -6.38492
| 89>    H       -0.58280       -15.69413        -5.46356
| 90>    H       -1.82005       -15.81773        -7.87975
| 91>    H       -3.36169       -14.95650        -7.74422
| 92>    H       -3.66140       -16.05597        -5.59468
| 93>    H       -2.86593       -18.12985        -5.22466
| 94>    H       -0.83468       -17.57223        -7.44973
| 95>    H       -2.04782       -20.26398        -4.80449
| 96>    H       -0.73883       -23.14039        -4.33780
| 97>    H        2.24577       -22.60242        -7.25820
| 98>    H        0.21241       -19.94135        -8.22031
| 99>    H        1.27481       -19.25881        -6.99038
|100>    H        2.21851       -24.93085        -5.94904
|101>    H       -0.02161       -25.21501        -3.87206
|102>    H        1.25896       -26.43733        -4.31126
|103> *
|104>
|105>                          ****END OF INPUT****

CARTESIAN COORDINATES (ANGSTROEM)
---------------------------------
  C     12.477830  -10.306820   -8.565500
  C     12.277410   -9.766850   -7.356420
  C     13.259860   -9.209040   -6.469840
  C     12.759840   -8.732150   -5.310190
  C     11.348130   -8.875100   -5.176780
  S     10.678980   -9.641650   -6.604350
  C     10.568990   -8.491330   -4.116070
  C     10.974030   -7.865960   -2.907820
  C      9.959310   -7.611860   -2.047830
  C      8.674450   -8.030100   -2.509170
  S      8.831130   -8.748770   -4.107930
  C      7.511710   -7.823340   -1.834220
  N      6.249590   -8.238390   -2.179390
  C      5.881490   -9.347360   -2.871140
  S      6.909220  -10.738320   -2.985670
  C      5.634550  -11.595390   -3.796950
  N      5.883340  -12.897970   -4.207230
  O      4.982300  -13.500500   -4.774670
  O      6.990510  -13.358350   -3.961790
  C      4.492990  -10.850190   -3.954700
  C      4.605440   -9.556200   -3.425790
  C      3.579260   -8.546590   -3.450750
  C      2.313940   -8.759360   -3.854340
  C      1.261530   -7.779820   -3.887570
  C      1.358910   -6.479050   -3.482870
  S     -0.098500   -5.572540   -3.627750
  C     -0.919060   -6.964950   -4.262660
  C     -0.071850   -8.080890   -4.353440
  C     -0.570760   -9.281160   -4.865050
  C     -1.886020   -9.411570   -5.281480
  C     -2.740730   -8.280550   -5.175180
  C     -2.242370   -7.068280   -4.667330
  S     -3.454820   -5.825560   -4.627520
  C     -4.618690   -6.926790   -5.275640
  C     -4.120510   -8.159350   -5.511380
  C     -2.393240  -10.644720   -5.843150
  C     -1.810790  -11.855330   -5.768650
  C     -2.364050  -13.016610   -6.402960
  C     -1.828490  -14.248090   -6.420170
  C     -0.561960  -14.638140   -5.724940
  C     -2.515740  -15.359010   -7.175500
  N     -3.016640  -16.390130   -6.293670
  C     -2.389230  -17.572520   -6.018920
  C     -1.332800  -18.116510   -6.659600
  C     -0.795320  -19.408620   -6.379640
  C     -1.215860  -20.349130   -5.479700
  C     -0.362580  -21.478780   -5.591010
  N     -0.189840  -22.710490   -5.061900
  C      0.889470  -23.304600   -5.679710
  C      1.402220  -22.411440   -6.623270
  C      0.614610  -21.268020   -6.565860
  C      0.414400  -19.912720   -7.147490
  C      1.357080  -24.621090   -5.371870
  C      0.837010  -25.461690   -4.474500
  H     13.467110  -10.363980   -8.984250
  H     11.667320  -10.701370   -9.149980
  H     14.299640   -9.194400   -6.745030
  H     13.351720   -8.282710   -4.532520
  H     12.004100   -7.626790   -2.714280
  H     10.076330   -7.146030   -1.085400
  H      7.550670   -7.228760   -0.931180
  H      5.485200   -7.682420   -1.818240
  H      3.629020  -11.245150   -4.455030
  H      3.869870   -7.555490   -3.129840
  H      2.030810   -9.748760   -4.178280
  H      2.220990   -5.974270   -3.093540
  H      0.095600  -10.122600   -4.962080
  H     -5.618940   -6.577100   -5.440760
  H     -4.718680   -8.960070   -5.906340
  H     -3.330730  -10.567670   -6.376930
  H     -0.886840  -11.983750   -5.226030
  H     -3.290630  -12.852080   -6.941350
  H     -0.400980  -14.060050   -4.818800
  H      0.291900  -14.477370   -6.384920
  H     -0.582800  -15.694130   -5.463560
  H     -1.820050  -15.817730   -7.879750
  H     -3.361690  -14.956500   -7.744220
  H     -3.661400  -16.055970   -5.594680
  H     -2.865930  -18.129850   -5.224660
  H     -0.834680  -17.572230   -7.449730
  H     -2.047820  -20.263980   -4.804490
  H     -0.738830  -23.140390   -4.337800
  H      2.245770  -22.602420   -7.258200
  H      0.212410  -19.941350   -8.220310
  H      1.274810  -19.258810   -6.990380
  H      2.218510  -24.930850   -5.949040
  H     -0.021610  -25.215010   -3.872060
  H      1.258960  -26.437330   -4.311260

 Total Charge           Charge          ....    0
 Multiplicity           Mult            ....    1
 Number of Electrons    NEL             ....  416
 Basis Dimension        Dim             ....  946

ORBITAL ENERGIES
----------------

  NO   OCC          E(Eh)            E(eV)
   0   2.0000     -88.969986     -2420.9964
   1   2.0000     -88.954004     -2420.5615
   2   2.0000     -88.950462     -2420.4651
   3   2.0000     -88.943936     -2420.2875
   4   2.0000     -88.934127     -2420.0206
   5   2.0000     -19.218760      -522.9691
   6   2.0000     -19.217778      -522.9423
   7   2.0000     -14.630121      -398.1058
   8   2.0000     -14.477505      -393.9530
   9   2.0000     -14.429967      -392.6594
  10   2.0000     -14.420014      -392.3885
  11   2.0000     -10.354811      -281.7687
  12   2.0000     -10.326930      -281.0101
  13   2.0000     -10.323895      -280.9275
  14   2.0000     -10.308978      -280.5215
  15   2.0000     -10.306970      -280.4669
  16   2.0000     -10.305202      -280.4188
  17   2.0000     -10.302733      -280.3516
  18   2.0000     -10.300705      -280.2964
  19   2.0000     -10.300284      -280.2850
  20   2.0000     -10.298985      -280.2496
  21   2.0000     -10.295622      -280.1581
  22   2.0000     -10.295425      -280.1528
  23   2.0000     -10.294513      -280.1279
  24   2.0000     -10.292765      -280.0804
  25   2.0000     -10.286701      -279.9154
  26   2.0000     -10.286129      -279.8998
  27   2.0000     -10.285851      -279.8922
  28   2.0000     -10.284972      -279.8683
  29   2.0000     -10.284748      -279.8622
  30   2.0000     -10.282060      -279.7891
  31   2.0000     -10.281668      -279.7784
  32   2.0000     -10.279229      -279.7121
  33   2.0000     -10.278620      -279.6955
  34   2.0000     -10.278518      -279.6927
  35   2.0000     -10.277771      -279.6724
  36   2.0000     -10.272469      -279.5281
  37   2.0000     -10.272224      -279.5214
  38   2.0000     -10.270091      -279.4634
  39   2.0000     -10.268722      -279.4261
  40   2.0000     -10.267640      -279.3967
  41   2.0000     -10.266491      -279.3654
  42   2.0000     -10.261792      -279.2376
  43   2.0000     -10.261335      -279.2251
  44   2.0000     -10.260647      -279.2064
  45   2.0000     -10.254781      -279.0468
  46   2.0000     -10.251187      -278.9490
  47   2.0000     -10.250791      -278.9382
  48   2.0000     -10.248231      -278.8685
  49   2.0000     -10.239244      -278.6240
  50   2.0000     -10.234339      -278.4905
  51   2.0000     -10.233394      -278.4648
  52   2.0000     -10.229121      -278.3485
  53   2.0000     -10.217968      -278.0450
  54   2.0000      -8.065010      -219.4601
  55   2.0000      -8.049926      -219.0496
  56   2.0000      -8.046512      -218.9567
  57   2.0000      -8.039872      -218.7761
  58   2.0000      -8.030892      -218.5317
  59   2.0000      -6.034578      -164.2092
  60   2.0000      -6.030162      -164.0890
  61   2.0000      -6.026606      -163.9923
  62   2.0000      -6.019424      -163.7969
  63   2.0000      -6.016106      -163.7066
  64   2.0000      -6.015186      -163.6815
  65   2.0000      -6.011805      -163.5895
  66   2.0000      -6.011652      -163.5854
  67   2.0000      -6.009742      -163.5334
  68   2.0000      -6.008131      -163.4896
  69   2.0000      -6.005585      -163.4203
  70   2.0000      -6.000753      -163.2888
  71   2.0000      -6.000554      -163.2834
  72   2.0000      -5.996818      -163.1817
  73   2.0000      -5.991336      -163.0325
  74   2.0000      -1.296574       -35.2816
  75   2.0000      -1.115018       -30.3412
  76   2.0000      -1.079638       -29.3785
  77   2.0000      -1.044305       -28.4170
  78   2.0000      -1.017283       -27.6817
  79   2.0000      -1.000727       -27.2312
  80   2.0000      -0.991415       -26.9778
  81   2.0000      -0.986836       -26.8532
  82   2.0000      -0.968892       -26.3649
  83   2.0000      -0.965413       -26.2702
  84   2.0000      -0.922896       -25.1133
  85   2.0000      -0.919043       -25.0084
  86   2.0000      -0.910817       -24.7846
  87   2.0000      -0.901526       -24.5318
  88   2.0000      -0.887108       -24.1394
  89   2.0000      -0.874556       -23.7979
  90   2.0000      -0.865705       -23.5570
  91   2.0000      -0.857074       -23.3222
  92   2.0000      -0.849408       -23.1136
  93   2.0000      -0.846013       -23.0212
  94   2.0000      -0.843818       -22.9614
  95   2.0000      -0.842290       -22.9199
  96   2.0000      -0.834708       -22.7136
  97   2.0000      -0.822077       -22.3699
  98   2.0000      -0.817111       -22.2347
  99   2.0000      -0.813802       -22.1447
 100   2.0000      -0.797185       -21.6925
 101   2.0000      -0.793872       -21.6024
 102   2.0000      -0.781472       -21.2649
 103   2.0000      -0.777520       -21.1574
 104   2.0000      -0.762724       -20.7548
 105   2.0000      -0.756877       -20.5957
 106   2.0000      -0.754128       -20.5209
 107   2.0000      -0.732370       -19.9288
 108   2.0000      -0.722163       -19.6511
 109   2.0000      -0.706318       -19.2199
 110   2.0000      -0.703944       -19.1553
 111   2.0000      -0.691476       -18.8160
 112   2.0000      -0.684518       -18.6267
 113   2.0000      -0.675280       -18.3753
 114   2.0000      -0.670605       -18.2481
 115   2.0000      -0.655807       -17.8454
 116   2.0000      -0.651849       -17.7377
 117   2.0000      -0.650348       -17.6969
 118   2.0000      -0.638022       -17.3615
 119   2.0000      -0.632499       -17.2112
 120   2.0000      -0.629083       -17.1182
 121   2.0000      -0.624613       -16.9966
 122   2.0000      -0.620028       -16.8718
 123   2.0000      -0.616435       -16.7741
 124   2.0000      -0.610995       -16.6260
 125   2.0000      -0.608315       -16.5531
 126   2.0000      -0.607172       -16.5220
 127   2.0000      -0.602574       -16.3969
 128   2.0000      -0.599487       -16.3129
 129   2.0000      -0.597414       -16.2565
 130   2.0000      -0.588910       -16.0250
 131   2.0000      -0.587994       -16.0001
 132   2.0000      -0.579882       -15.7794
 133   2.0000      -0.571675       -15.5561
 134   2.0000      -0.566437       -15.4135
 135   2.0000      -0.559800       -15.2329
 136   2.0000      -0.559249       -15.2179
 137   2.0000      -0.547178       -14.8895
 138   2.0000      -0.544074       -14.8050
 139   2.0000      -0.543849       -14.7989
 140   2.0000      -0.539380       -14.6773
 141   2.0000      -0.535497       -14.5716
 142   2.0000      -0.526535       -14.3277
 143   2.0000      -0.522084       -14.2066
 144   2.0000      -0.513780       -13.9807
 145   2.0000      -0.513645       -13.9770
 146   2.0000      -0.512010       -13.9325
 147   2.0000      -0.507837       -13.8189
 148   2.0000      -0.505930       -13.7670
 149   2.0000      -0.505165       -13.7463
 150   2.0000      -0.498421       -13.5627
 151   2.0000      -0.494885       -13.4665
 152   2.0000      -0.493760       -13.4359
 153   2.0000      -0.490488       -13.3469
 154   2.0000      -0.488294       -13.2872
 155   2.0000      -0.483609       -13.1597
 156   2.0000      -0.481564       -13.1040
 157   2.0000      -0.479467       -13.0470
 158   2.0000      -0.475633       -12.9426
 159   2.0000      -0.472013       -12.8441
 160   2.0000      -0.468591       -12.7510
 161   2.0000      -0.464553       -12.6411
 162   2.0000      -0.463463       -12.6115
 163   2.0000      -0.463013       -12.5992
 164   2.0000      -0.459427       -12.5016
 165   2.0000      -0.458179       -12.4677
 166   2.0000      -0.452418       -12.3109
 167   2.0000      -0.450152       -12.2493
 168   2.0000      -0.443438       -12.0666
 169   2.0000      -0.442108       -12.0304
 170   2.0000      -0.438270       -11.9259
 171   2.0000      -0.435461       -11.8495
 172   2.0000      -0.431972       -11.7545
 173   2.0000      -0.429684       -11.6923
 174   2.0000      -0.429208       -11.6793
 175   2.0000      -0.424804       -11.5595
 176   2.0000      -0.424737       -11.5577
 177   2.0000      -0.419258       -11.4086
 178   2.0000      -0.419182       -11.4065
 179   2.0000      -0.416307       -11.3283
 180   2.0000      -0.411488       -11.1972
 181   2.0000      -0.402668       -10.9572
 182   2.0000      -0.401805       -10.9337
 183   2.0000      -0.401172       -10.9164
 184   2.0000      -0.396326       -10.7846
 185   2.0000      -0.393811       -10.7161
 186   2.0000      -0.392853       -10.6901
 187   2.0000      -0.378715       -10.3054
 188   2.0000      -0.378117       -10.2891
 189   2.0000      -0.367826       -10.0091
 190   2.0000      -0.360365        -9.8060
 191   2.0000      -0.360292        -9.8040
 192   2.0000      -0.353220        -9.6116
 193   2.0000      -0.347030        -9.4432
 194   2.0000      -0.339680        -9.2432
 195   2.0000      -0.333601        -9.0777
 196   2.0000      -0.332041        -9.0353
 197   2.0000      -0.328478        -8.9384
 198   2.0000      -0.312242        -8.4965
 199   2.0000      -0.303923        -8.2702
 200   2.0000      -0.301219        -8.1966
 201   2.0000      -0.290315        -7.8999
 202   2.0000      -0.282409        -7.6847
 203   2.0000      -0.266360        -7.2480
 204   2.0000      -0.255368        -6.9489
 205   2.0000      -0.247849        -6.7443
 206   2.0000      -0.216069        -5.8795
 207   2.0000      -0.189531        -5.1574
 208   0.0000      -0.060628        -1.6498
 209   0.0000      -0.034478        -0.9382
 210   0.0000      -0.022350        -0.6082
 211   0.0000      -0.019821        -0.5394
 212   0.0000       0.010258         0.2791

MULLIKEN ATOMIC CHARGES
-----------------------
   0 C :   -0.029258
   1 C :   -0.061858
   2 C :    0.050796
   3 C :    0.029563
   4 C :   -0.063402
   5 S :    0.083714
   6 C :   -0.061961
   7 C :    0.029905
   8 C :    0.036756
   9 C :   -0.056294
  10 S :    0.092212
  11 C :   -0.005145
  12 N :   -0.032177
  13 C :   -0.129733
  14 S :    0.201087
  15 C :   -0.032343
  16 N :    0.280884
  17 O :   -0.266962
  18 O :   -0.274671
  19 C :    0.003340
  20 C :    0.127436
  21 C :   -0.022791
  22 C :   -0.004319
  23 C :    0.136133
  24 C :   -0.152458
  25 S :    0.131919
  26 C :   -0.136682
  27 C :    0.123265
  28 C :   -0.127148
  29 C :    0.144461
  30 C :    0.053502
  31 C :   -0.136122
  32 S :    0.116784
  33 C :   -0.051045
  34 C :    0.006198
  35 C :   -0.045285
  36 C :    0.028857
  37 C :   -0.002149
  38 C :   -0.203874
  39 C :    0.090783
  40 C :    0.223280
  41 N :   -0.162501
  42 C :    0.060151
  43 C :   -0.034473
  44 C :   -0.101584
  45 C :   -0.103578
  46 C :    0.069470
  47 N :   -0.014959
  48 C :    0.032597
  49 C :   -0.106503
  50 C :   -0.117580
  51 C :    0.272359
  52 C :    0.030677
  53 C :   -0.062333
  54 H :    0.019777
  55 H :    0.023588
  56 H :   -0.011008
  57 H :   -0.012438
  58 H :   -0.015726
  59 H :   -0.015553
  60 H :    0.006169
  61 H :    0.146886
  62 H :    0.002882
  63 H :   -0.048958
  64 H :   -0.030611
  65 H :    0.013264
  66 H :   -0.046305
  67 H :    0.024842
  68 H :   -0.017773
  69 H :   -0.029661
  70 H :   -0.017171
  71 H :   -0.038186
  72 H :    0.020769
  73 H :    0.034110
  74 H :    0.028561
  75 H :    0.026621
  76 H :   -0.000832
  77 H :    0.115581
  78 H :   -0.005152
  79 H :   -0.046001
  80 H :   -0.056861
  81 H :    0.112384
  82 H :   -0.048472
  83 H :    0.018104
  84 H :    0.022058
  85 H :   -0.022361
  86 H :   -0.018621
  87 H :    0.009157
Sum of atomic charges:   -0.0000000

LOEWDIN ATOMIC CHARGES
----------------------
   0 C :   -0.074223
   1 C :   -0.139392
   2 C :   -0.029321
   3 C :   -0.027328
   4 C :   -0.175630
   5 S :    0.352754
   6 C :   -0.183878
   7 C :   -0.037337
   8 C :   -0.033391
   9 C :   -0.189120
  10 S :    0.368391
  11 C :   -0.035541
  12 N :    0.033712
  13 C :   -0.121878
  14 S :    0.478493
  15 C :   -0.219344
  16 N :    0.275406
  17 O :   -0.234256
  18 O :   -0.240344
  19 C :   -0.003513
  20 C :   -0.104540
  21 C :   -0.026711
  22 C :   -0.019066
  23 C :   -0.060499
  24 C :   -0.173943
  25 S :    0.417363
  26 C :   -0.178932
  27 C :   -0.040099
  28 C :   -0.020110
  29 C :   -0.021975
  30 C :   -0.044067
  31 C :   -0.175848
  32 S :    0.404380
  33 C :   -0.165328
  34 C :   -0.061476
  35 C :   -0.023586
  36 C :   -0.017226
  37 C :   -0.056379
  38 C :   -0.035128
  39 C :   -0.053954
  40 C :    0.045655
  41 N :   -0.016551
  42 C :    0.038725
  43 C :   -0.137249
  44 C :   -0.006912
  45 C :   -0.078657
  46 C :   -0.010733
  47 N :    0.083081
  48 C :   -0.038962
  49 C :   -0.064694
  50 C :   -0.081781
  51 C :   -0.011482
  52 C :   -0.023560
  53 C :   -0.102269
  54 H :    0.028729
  55 H :    0.027254
  56 H :    0.033541
  57 H :    0.031850
  58 H :    0.031271
  59 H :    0.031411
  60 H :    0.030709
  61 H :    0.094869
  62 H :    0.039841
  63 H :    0.016449
  64 H :    0.025891
  65 H :    0.017456
  66 H :    0.023296
  67 H :    0.024594
  68 H :    0.029347
  69 H :    0.023737
  70 H :    0.022837
  71 H :    0.021321
  72 H :    0.029539
  73 H :    0.042002
  74 H :    0.036687
  75 H :    0.033623
  76 H :    0.024108
  77 H :    0.074118
  78 H :    0.024184
  79 H :    0.016619
  80 H :    0.012311
  81 H :    0.084193
  82 H :    0.018977
  83 H :    0.043452
  84 H :    0.045318
  85 H :    0.032907
  86 H :    0.006159
  87 H :    0.019651

  Mayer bond orders larger than 0.100000
B(  0-C ,  1-C ) :   1.8685 B(  0-C , 54-H ) :   0.9509 B(  0-C , 55-H ) :   0.9417
B(  1-C ,  2-C ) :   1.0766 B(  1-C ,  5-S ) :   1.0075 B(  2-C ,  3-C ) :   1.6683
B(  2-C , 56-H ) :   0.9936 B(  3-C ,  4-C ) :   1.1460 B(  3-C , 57-H ) :   0.9915
B(  4-C ,  5-S ) :   1.0454 B(  4-C ,  6-C ) :   1.5801 B(  6-C ,  7-C ) :   1.1549
B(  6-C , 10-S ) :   1.0269 B(  7-C ,  8-C ) :   1.6483 B(  7-C , 58-H ) :   0.9916
B(  8-C ,  9-C ) :   1.1187 B(  8-C , 59-H ) :   0.9961 B(  9-C , 10-S ) :   1.0272
B(  9-C , 11-C ) :   1.6427 B( 11-C , 12-N ) :   1.1209 B( 11-C , 60-H ) :   0.9588
B( 12-N , 13-C ) :   1.2060 B( 12-N , 61-H ) :   0.9152 B( 13-C , 14-S ) :   1.1404
B( 13-C , 20-C ) :   1.3340 B( 14-S , 15-C ) :   1.0798 B( 15-C , 16-N ) :   0.9920
B( 15-C , 19-C ) :   1.4555 B( 16-N , 17-O ) :   1.5127 B( 16-N , 18-O ) :   1.5010
B( 17-O , 18-O ) :   0.2499 B( 19-C , 20-C ) :   1.2647 B( 19-C , 62-H ) :   0.9961
B( 20-C , 21-C ) :   1.0634 B( 21-C , 22-C ) :   1.7522 B( 21-C , 63-H ) :   0.9656
B( 22-C , 23-C ) :   1.0783 B( 22-C , 64-H ) :   0.9685 B( 23-C , 24-C ) :   1.5844
B( 23-C , 27-C ) :   1.1187 B( 24-C , 25-S ) :   1.1138 B( 24-C , 65-H ) :   0.9545
B( 25-S , 26-C ) :   1.0801 B( 26-C , 27-C ) :   1.3670 B( 26-C , 31-C ) :   1.3844
B( 27-C , 28-C ) :   1.2681 B( 28-C , 29-C ) :   1.4376 B( 28-C , 66-H ) :   0.9827
B( 29-C , 30-C ) :   1.2116 B( 29-C , 35-C ) :   1.0348 B( 30-C , 31-C ) :   1.3863
B( 30-C , 34-C ) :   1.1979 B( 31-C , 32-S ) :   1.0797 B( 32-S , 33-C ) :   1.1164
B( 33-C , 34-C ) :   1.6401 B( 33-C , 67-H ) :   0.9653 B( 34-C , 68-H ) :   0.9890
B( 35-C , 36-C ) :   1.7433 B( 35-C , 69-H ) :   0.9812 B( 36-C , 37-C ) :   1.0936
B( 36-C , 70-H ) :   0.9645 B( 37-C , 38-C ) :   1.7599 B( 37-C , 71-H ) :   0.9761
B( 38-C , 39-C ) :   1.0707 B( 38-C , 40-C ) :   1.0573 B( 39-C , 72-H ) :   0.9481
B( 39-C , 73-H ) :   0.9440 B( 39-C , 74-H ) :   0.9469 B( 40-C , 41-N ) :   0.9929
B( 40-C , 75-H ) :   0.9242 B( 40-C , 76-H ) :   0.9357 B( 41-N , 42-C ) :   1.1944
B( 41-N , 77-H ) :   0.9396 B( 42-C , 43-C ) :   1.6488 B( 42-C , 78-H ) :   0.9587
B( 43-C , 44-C ) :   1.1342 B( 43-C , 79-H ) :   0.9564 B( 44-C , 45-C ) :   1.6345
B( 44-C , 51-C ) :   1.0418 B( 45-C , 46-C ) :   1.0710 B( 45-C , 80-H ) :   1.0156
B( 46-C , 47-N ) :   1.2176 B( 46-C , 50-C ) :   1.4780 B( 47-N , 48-C ) :   1.1840
B( 47-N , 81-H ) :   0.9336 B( 48-C , 49-C ) :   1.3887 B( 48-C , 52-C ) :   1.1372
B( 49-C , 50-C ) :   1.3203 B( 49-C , 82-H ) :   1.0209 B( 50-C , 51-C ) :   1.0174
B( 51-C , 83-H ) :   0.8802 B( 51-C , 84-H ) :   0.8786 B( 52-C , 53-C ) :   1.8815
B( 52-C , 85-H ) :   0.9535 B( 53-C , 86-H ) :   0.9634 B( 53-C , 87-H ) :   0.9441

-----------------------------------------------------------------------------
         ABSORPTION SPECTRUM VIA TRANSITION ELECTRIC DIPOLE MOMENTS
-----------------------------------------------------------------------------
State   Energy  Wavelength   fosc         T2         TX        TY        TZ
        (cm-1)    (nm)                  (au**2)     (au)      (au)      (au)
-----------------------------------------------------------------------------
   0   18796.0    532.0   0.846034374  14.81830   3.41412   0.54520  -1.69259
   1   20565.1    486.3   0.000817275   0.01308  -0.07330   0.06111   0.06306
   2   23794.6    420.3   0.156808140   2.16953   0.43301   1.38393  -0.25840
   3   24250.2    412.4   0.640975547   8.70166   1.90080  -2.07097  -0.89427
   4   24917.9    401.3   0.052697427   0.69623   0.18703  -0.81266   0.02879
   5   27100.4    369.0   0.065710924   0.79825   0.71240  -0.53449  -0.07108
   6   28801.5    347.2   0.409251924   4.67790  -0.44311  -1.09309  -1.81293
   7   29060.1    344.1   0.205935359   2.33297  -0.29733   1.36768   0.61156
   8   29281.8    341.5   1.054529560  11.85597   1.39020  -3.08678   0.62859
   9   30598.0    326.8   0.040720277   0.43812  -0.31069  -0.47355  -0.34255
  10   30780.3    324.9   0.278665204   2.98047  -1.54835   0.49805  -0.57882
  11   31305.9    319.4   0.083499628   0.87808   0.41550   0.26759   0.79614
  12   32488.8    307.8   0.026929618   0.27288   0.22386  -0.27799  -0.38143
  13   32895.7    304.0   0.062630065   0.62679  -0.45923   0.64283   0.05161
  14   33917.5    294.8   0.204540975   1.98533  -0.22841  -1.35258  -0.32200
  15   34100.6    293.2   0.413939055   3.99622  -0.21147   1.92283   0.50421
  16   34686.9    288.3   0.157665101   1.49639   0.28623   1.08101   0.49587
  17   34774.4    287.6   0.012469851   0.11805   0.04004  -0.32780  -0.09485
  18   34958.7    286.1   0.071484643   0.67318  -0.07610  -0.79475  -0.18910
  19   35444.1    282.1   0.014087418   0.13085  -0.34527   0.06225  -0.08808
  20   36058.7    277.3   0.288345814   2.63256  -0.47044   1.50190   0.39438
  21   36752.3    272.1   0.146504557   1.31233  -0.92449   0.67364  -0.06210
  22   37141.2    269.2   0.004369845   0.03873   0.17314   0.06392   0.06834
  23   37343.4    267.8   0.175121110   1.54383  -1.22504  -0.09076  -0.18672
  24   37853.0    264.2   0.030752746   0.26746   0.10057   0.44235   0.24834
  25   39120.3    255.6   0.047315532   0.39818  -0.04042  -0.61610   0.13025
  26   39177.0    255.3   0.123824882   1.04052   0.33425   0.23182   0.93544
  27   39902.3    250.6   0.002553553   0.02107   0.00550  -0.08360  -0.11853
  28   40146.5    249.1   0.025317735   0.20761  -0.09118   0.40890  -0.17916

FINAL SINGLE POINT ENERGY     -4016.034242690257

DIPOLE MOMENT
-------------
                                X             Y             Z
Electronic contribution:     28.77728      67.92065      16.72758
Nuclear contribution   :    -29.04551     -64.42242     -15.45399
                        -----------------------------------------
Total Dipole Moment    :     -0.26823       3.49824       1.27359
                        -----------------------------------------
Magnitude (a.u.)       :      3.73251
Magnitude (Debye)      :      9.48729

Rotational constants in cm-1:     0.000928     0.000567     0.000373
Rotational constants in MHz :    27.817709    16.986725    11.194500

                             ****ORCA TERMINATED NORMALLY****
TOTAL RUN TIME: 0 days 0 hours 5 minutes 58 seconds 508 msec
