                         Program Version 4.2.0 -  RELEASE  -
|  1> # ORCA input file
|  2> # SCF done       -135.095378810032          0.000433147082
|  3> ! CAM-B3LYP def2-SVP def2/J RIJCOSX Grid4 TightSCF
|  4> %maxcore 5000
|  5> %tddft
|  6>     Mode sTDDFT
|  7>     Ethresh 5.0
|  8>     maxcore 5000
|  9> end
| 10>
| 11> %pal
| 12>   nprocs 6
| 13>   end
| 14> * xyz 0 1
| 15>    C       -3.28338        -3.41850         4.92909
| 16>    C       -2.98947        -3.14894         3.65120
| 17>    C       -3.59359        -2.16057         2.80109
| 18>    C       -3.08681        -2.11226         1.55195
| 19>    C       -2.04349        -3.05296         1.30372
| 20>    S       -1.73574        -4.00849         2.74215
| 21>    C       -1.34118        -3.23116         0.14207
| 22>    C       -1.48466        -2.52522        -1.08461
| 23>    C       -0.63440        -2.92438        -2.05750
| 24>    C        0.24921        -3.98295        -1.67559
| 25>    S       -0.07234        -4.43734         0.00021
| 26>    C        1.23899        -4.51328        -2.43639
| 27>    C        2.12216        -5.58879        -2.04781
| 28>    C        1.71524        -6.78316        -1.51373
| 29>    S        0.09998        -7.43167        -1.30642
| 30>    S        3.04683        -7.83813        -1.15378
| 31>    C        4.17518        -6.64714        -1.73105
| 32>    O        5.50250        -6.88041        -1.69271
| 33>    C        3.55796        -5.51115        -2.19119
| 34>    C        4.22510        -4.33820        -2.69319
| 35>    C        5.55652        -4.17606        -2.74330
| 36>    N        6.14986        -3.03488        -3.22408
| 37>    C        7.47402        -2.76754        -3.19486
| 38>    S        8.59250        -3.88754        -2.48754
| 39>    C        9.89287        -2.78259        -2.82971
| 40>    N       11.17608        -3.16278        -2.46510
| 41>    O       12.09230        -2.38771        -2.69789
| 42>    O       11.30027        -4.25739        -1.92994
| 43>    C        9.47417        -1.63137        -3.44716
| 44>    C        8.08932        -1.59791        -3.67286
| 45>    C        7.37422        -0.53388        -4.32936
| 46>    C        7.87738         0.67736        -4.62889
| 47>    C        7.11489         1.65261        -5.35161
| 48>    C        7.53044         2.86531        -5.74303
| 49>    C        8.87210         3.44587        -5.41799
| 50>    C        6.66596         3.75447        -6.61337
| 51>    N        5.55114         3.09999        -7.25674
| 52>    C        5.75961         2.01090        -8.06726
| 53>    C        6.90268         1.70141        -8.69605
| 54>    C        7.06070         0.49978        -9.48411
| 55>    C        6.56805        -0.71466        -9.10265
| 56>    S        5.62249        -1.08382        -7.66707
| 57>    S        6.95814        -1.97919       -10.24045
| 58>    C        7.86222        -0.84770       -11.20674
| 59>    O        8.48755        -1.26120       -12.32728
| 60>    C        7.82643         0.42417       -10.70272
| 61>    C        8.42840         1.59603       -11.30898
| 62>    C        9.27607         1.59955       -12.33076
| 63>    H       -4.05222        -2.86950         5.44368
| 64>    H       -2.76763        -4.18434         5.47871
| 65>    H       -4.38325        -1.53061         3.17088
| 66>    H       -3.42056        -1.43354         0.78701
| 67>    H       -2.21296        -1.74256        -1.20100
| 68>    H       -0.59654        -2.50531        -3.04791
| 69>    H        1.42074        -4.06234        -3.40365
| 70>    H       -0.49902        -6.48353        -2.02717
| 71>    H        5.68627        -7.75237        -1.32333
| 72>    H        3.58120        -3.53772        -3.03108
| 73>    H        6.23800        -4.93663        -2.39967
| 74>    H        5.54218        -2.31228        -3.59008
| 75>    H       10.16432        -0.85973        -3.73327
| 76>    H        6.35376        -0.74582        -4.62535
| 77>    H        8.88880         0.92642        -4.34940
| 78>    H        6.12234         1.32435        -5.63194
| 79>    H        9.60245         3.14918        -6.17190
| 80>    H        9.22966         3.10857        -4.44953
| 81>    H        8.82253         4.53302        -5.41016
| 82>    H        7.29989         4.19795        -7.38989
| 83>    H        6.26975         4.58115        -6.01354
| 84>    H        4.71093         3.05492        -6.70177
| 85>    H        4.87460         1.41305        -8.24084
| 86>    H        7.77629         2.32750        -8.60614
| 87>    H        6.19197        -2.26878        -7.42927
| 88>    H        8.31303        -2.19521       -12.49148
| 89>    H        8.12414         2.53157       -10.85841
| 90>    H        9.60384         0.69268       -12.80573
| 91>    H        9.66844         2.52215       -12.72316
| 92> *
| 93>
| 94>                          ****END OF INPUT****

CARTESIAN COORDINATES (ANGSTROEM)
---------------------------------
  C     -3.283380   -3.418500    4.929090
  C     -2.989470   -3.148940    3.651200
  C     -3.593590   -2.160570    2.801090
  C     -3.086810   -2.112260    1.551950
  C     -2.043490   -3.052960    1.303720
  S     -1.735740   -4.008490    2.742150
  C     -1.341180   -3.231160    0.142070
  C     -1.484660   -2.525220   -1.084610
  C     -0.634400   -2.924380   -2.057500
  C      0.249210   -3.982950   -1.675590
  S     -0.072340   -4.437340    0.000210
  C      1.238990   -4.513280   -2.436390
  C      2.122160   -5.588790   -2.047810
  C      1.715240   -6.783160   -1.513730
  S      0.099980   -7.431670   -1.306420
  S      3.046830   -7.838130   -1.153780
  C      4.175180   -6.647140   -1.731050
  O      5.502500   -6.880410   -1.692710
  C      3.557960   -5.511150   -2.191190
  C      4.225100   -4.338200   -2.693190
  C      5.556520   -4.176060   -2.743300
  N      6.149860   -3.034880   -3.224080
  C      7.474020   -2.767540   -3.194860
  S      8.592500   -3.887540   -2.487540
  C      9.892870   -2.782590   -2.829710
  N     11.176080   -3.162780   -2.465100
  O     12.092300   -2.387710   -2.697890
  O     11.300270   -4.257390   -1.929940
  C      9.474170   -1.631370   -3.447160
  C      8.089320   -1.597910   -3.672860
  C      7.374220   -0.533880   -4.329360
  C      7.877380    0.677360   -4.628890
  C      7.114890    1.652610   -5.351610
  C      7.530440    2.865310   -5.743030
  C      8.872100    3.445870   -5.417990
  C      6.665960    3.754470   -6.613370
  N      5.551140    3.099990   -7.256740
  C      5.759610    2.010900   -8.067260
  C      6.902680    1.701410   -8.696050
  C      7.060700    0.499780   -9.484110
  C      6.568050   -0.714660   -9.102650
  S      5.622490   -1.083820   -7.667070
  S      6.958140   -1.979190  -10.240450
  C      7.862220   -0.847700  -11.206740
  O      8.487550   -1.261200  -12.327280
  C      7.826430    0.424170  -10.702720
  C      8.428400    1.596030  -11.308980
  C      9.276070    1.599550  -12.330760
  H     -4.052220   -2.869500    5.443680
  H     -2.767630   -4.184340    5.478710
  H     -4.383250   -1.530610    3.170880
  H     -3.420560   -1.433540    0.787010
  H     -2.212960   -1.742560   -1.201000
  H     -0.596540   -2.505310   -3.047910
  H      1.420740   -4.062340   -3.403650
  H     -0.499020   -6.483530   -2.027170
  H      5.686270   -7.752370   -1.323330
  H      3.581200   -3.537720   -3.031080
  H      6.238000   -4.936630   -2.399670
  H      5.542180   -2.312280   -3.590080
  H     10.164320   -0.859730   -3.733270
  H      6.353760   -0.745820   -4.625350
  H      8.888800    0.926420   -4.349400
  H      6.122340    1.324350   -5.631940
  H      9.602450    3.149180   -6.171900
  H      9.229660    3.108570   -4.449530
  H      8.822530    4.533020   -5.410160
  H      7.299890    4.197950   -7.389890
  H      6.269750    4.581150   -6.013540
  H      4.710930    3.054920   -6.701770
  H      4.874600    1.413050   -8.240840
  H      7.776290    2.327500   -8.606140
  H      6.191970   -2.268780   -7.429270
  H      8.313030   -2.195210  -12.491480
  H      8.124140    2.531570  -10.858410
  H      9.603840    0.692680  -12.805730
  H      9.668440    2.522150  -12.723160

 Total Charge           Charge          ....    0
 Multiplicity           Mult            ....    1
 Number of Electrons    NEL             ....  398
 Basis Dimension        Dim             ....  845

ORBITAL ENERGIES
----------------

  NO   OCC          E(Eh)            E(eV)
   0   2.0000     -88.966186     -2420.8930
   1   2.0000     -88.958141     -2420.6741
   2   2.0000     -88.945975     -2420.3430
   3   2.0000     -88.939131     -2420.1568
   4   2.0000     -88.937331     -2420.1078
   5   2.0000     -88.931416     -2419.9469
   6   2.0000     -88.931042     -2419.9367
   7   2.0000     -19.270239      -524.3699
   8   2.0000     -19.258325      -524.0457
   9   2.0000     -19.214355      -522.8492
  10   2.0000     -19.213459      -522.8248
  11   2.0000     -14.626234      -398.0001
  12   2.0000     -14.467550      -393.6820
  13   2.0000     -14.419587      -392.3769
  14   2.0000     -10.353814      -281.7416
  15   2.0000     -10.351529      -281.6794
  16   2.0000     -10.343936      -281.4728
  17   2.0000     -10.319400      -280.8052
  18   2.0000     -10.315722      -280.7051
  19   2.0000     -10.310970      -280.5758
  20   2.0000     -10.310369      -280.5594
  21   2.0000     -10.309493      -280.5356
  22   2.0000     -10.306444      -280.4526
  23   2.0000     -10.306308      -280.4489
  24   2.0000     -10.302927      -280.3569
  25   2.0000     -10.297219      -280.2016
  26   2.0000     -10.296530      -280.1828
  27   2.0000     -10.290893      -280.0294
  28   2.0000     -10.290281      -280.0128
  29   2.0000     -10.289409      -279.9891
  30   2.0000     -10.285909      -279.8938
  31   2.0000     -10.285056      -279.8706
  32   2.0000     -10.280808      -279.7550
  33   2.0000     -10.280578      -279.7487
  34   2.0000     -10.279089      -279.7082
  35   2.0000     -10.273815      -279.5647
  36   2.0000     -10.273322      -279.5513
  37   2.0000     -10.271947      -279.5139
  38   2.0000     -10.270302      -279.4691
  39   2.0000     -10.268826      -279.4290
  40   2.0000     -10.267993      -279.4063
  41   2.0000     -10.265299      -279.3330
  42   2.0000     -10.261918      -279.2410
  43   2.0000     -10.254654      -279.0433
  44   2.0000     -10.253804      -279.0202
  45   2.0000     -10.253610      -279.0149
  46   2.0000     -10.242541      -278.7137
  47   2.0000     -10.237702      -278.5820
  48   2.0000      -8.061603      -219.3674
  49   2.0000      -8.055211      -219.1934
  50   2.0000      -8.042883      -218.8580
  51   2.0000      -8.035029      -218.6443
  52   2.0000      -8.034108      -218.6192
  53   2.0000      -8.026873      -218.4223
  54   2.0000      -8.025412      -218.3826
  55   2.0000      -6.031353      -164.1215
  56   2.0000      -6.026967      -164.0021
  57   2.0000      -6.024726      -163.9411
  58   2.0000      -6.022870      -163.8906
  59   2.0000      -6.020741      -163.8327
  60   2.0000      -6.016418      -163.7151
  61   2.0000      -6.012415      -163.6061
  62   2.0000      -6.008469      -163.4988
  63   2.0000      -6.004887      -163.4013
  64   2.0000      -6.004117      -163.3803
  65   2.0000      -6.003957      -163.3760
  66   2.0000      -6.000802      -163.2901
  67   2.0000      -6.000039      -163.2694
  68   2.0000      -5.997409      -163.1978
  69   2.0000      -5.995818      -163.1545
  70   2.0000      -5.995706      -163.1515
  71   2.0000      -5.994547      -163.1199
  72   2.0000      -5.993071      -163.0797
  73   2.0000      -5.991851      -163.0466
  74   2.0000      -5.986709      -162.9066
  75   2.0000      -5.985366      -162.8701
  76   2.0000      -1.292820       -35.1794
  77   2.0000      -1.165073       -31.7032
  78   2.0000      -1.153396       -31.3855
  79   2.0000      -1.111220       -30.2378
  80   2.0000      -1.074201       -29.2305
  81   2.0000      -1.020884       -27.7797
  82   2.0000      -0.992419       -27.0051
  83   2.0000      -0.985153       -26.8074
  84   2.0000      -0.982212       -26.7273
  85   2.0000      -0.968656       -26.3585
  86   2.0000      -0.966503       -26.2999
  87   2.0000      -0.910802       -24.7842
  88   2.0000      -0.898030       -24.4366
  89   2.0000      -0.891892       -24.2696
  90   2.0000      -0.884659       -24.0728
  91   2.0000      -0.875666       -23.8281
  92   2.0000      -0.867819       -23.6145
  93   2.0000      -0.865131       -23.5414
  94   2.0000      -0.860761       -23.4225
  95   2.0000      -0.847061       -23.0497
  96   2.0000      -0.843608       -22.9557
  97   2.0000      -0.835061       -22.7232
  98   2.0000      -0.829857       -22.5816
  99   2.0000      -0.822743       -22.3880
 100   2.0000      -0.814275       -22.1575
 101   2.0000      -0.792889       -21.5756
 102   2.0000      -0.790804       -21.5189
 103   2.0000      -0.771666       -20.9981
 104   2.0000      -0.769379       -20.9359
 105   2.0000      -0.763178       -20.7671
 106   2.0000      -0.751024       -20.4364
 107   2.0000      -0.743544       -20.2329
 108   2.0000      -0.715729       -19.4760
 109   2.0000      -0.712910       -19.3993
 110   2.0000      -0.699447       -19.0329
 111   2.0000      -0.688902       -18.7460
 112   2.0000      -0.681194       -18.5362
 113   2.0000      -0.672053       -18.2875
 114   2.0000      -0.662543       -18.0287
 115   2.0000      -0.649522       -17.6744
 116   2.0000      -0.647989       -17.6327
 117   2.0000      -0.636125       -17.3098
 118   2.0000      -0.631569       -17.1859
 119   2.0000      -0.626724       -17.0540
 120   2.0000      -0.620883       -16.8951
 121   2.0000      -0.617536       -16.8040
 122   2.0000      -0.612683       -16.6720
 123   2.0000      -0.610510       -16.6128
 124   2.0000      -0.607293       -16.5253
 125   2.0000      -0.598388       -16.2830
 126   2.0000      -0.594806       -16.1855
 127   2.0000      -0.591488       -16.0952
 128   2.0000      -0.589864       -16.0510
 129   2.0000      -0.578332       -15.7372
 130   2.0000      -0.573590       -15.6082
 131   2.0000      -0.567411       -15.4400
 132   2.0000      -0.555837       -15.1251
 133   2.0000      -0.548079       -14.9140
 134   2.0000      -0.546028       -14.8582
 135   2.0000      -0.540844       -14.7171
 136   2.0000      -0.538712       -14.6591
 137   2.0000      -0.535619       -14.5749
 138   2.0000      -0.525290       -14.2939
 139   2.0000      -0.523214       -14.2374
 140   2.0000      -0.517157       -14.0726
 141   2.0000      -0.515862       -14.0373
 142   2.0000      -0.514361       -13.9965
 143   2.0000      -0.510803       -13.8997
 144   2.0000      -0.507222       -13.8022
 145   2.0000      -0.505405       -13.7528
 146   2.0000      -0.503700       -13.7064
 147   2.0000      -0.501057       -13.6345
 148   2.0000      -0.494127       -13.4459
 149   2.0000      -0.492378       -13.3983
 150   2.0000      -0.488850       -13.3023
 151   2.0000      -0.487098       -13.2546
 152   2.0000      -0.486016       -13.2252
 153   2.0000      -0.480981       -13.0882
 154   2.0000      -0.474061       -12.8998
 155   2.0000      -0.472086       -12.8461
 156   2.0000      -0.463931       -12.6242
 157   2.0000      -0.460767       -12.5381
 158   2.0000      -0.459775       -12.5111
 159   2.0000      -0.457662       -12.4536
 160   2.0000      -0.456178       -12.4132
 161   2.0000      -0.449572       -12.2335
 162   2.0000      -0.448523       -12.2049
 163   2.0000      -0.446775       -12.1574
 164   2.0000      -0.445099       -12.1118
 165   2.0000      -0.438291       -11.9265
 166   2.0000      -0.435387       -11.8475
 167   2.0000      -0.431223       -11.7342
 168   2.0000      -0.424830       -11.5602
 169   2.0000      -0.424379       -11.5479
 170   2.0000      -0.418435       -11.3862
 171   2.0000      -0.417407       -11.3582
 172   2.0000      -0.415717       -11.3122
 173   2.0000      -0.412658       -11.2290
 174   2.0000      -0.401939       -10.9373
 175   2.0000      -0.397454       -10.8153
 176   2.0000      -0.395673       -10.7668
 177   2.0000      -0.389817       -10.6075
 178   2.0000      -0.389202       -10.5907
 179   2.0000      -0.386710       -10.5229
 180   2.0000      -0.374647       -10.1947
 181   2.0000      -0.364502        -9.9186
 182   2.0000      -0.363981        -9.9044
 183   2.0000      -0.356203        -9.6928
 184   2.0000      -0.345805        -9.4098
 185   2.0000      -0.343172        -9.3382
 186   2.0000      -0.338464        -9.2101
 187   2.0000      -0.337500        -9.1838
 188   2.0000      -0.334041        -9.0897
 189   2.0000      -0.330103        -8.9826
 190   2.0000      -0.313974        -8.5437
 191   2.0000      -0.305833        -8.3221
 192   2.0000      -0.304261        -8.2794
 193   2.0000      -0.281370        -7.6565
 194   2.0000      -0.258044        -7.0217
 195   2.0000      -0.252176        -6.8621
 196   2.0000      -0.238724        -6.4960
 197   2.0000      -0.226908        -6.1745
 198   2.0000      -0.225939        -6.1481
 199   0.0000      -0.058990        -1.6052
 200   0.0000      -0.037963        -1.0330
 201   0.0000      -0.010095        -0.2747
 202   0.0000       0.011839         0.3222
 203   0.0000       0.023662         0.6439

MULLIKEN ATOMIC CHARGES
-----------------------
   0 C :   -0.031445
   1 C :   -0.062607
   2 C :    0.053546
   3 C :    0.029184
   4 C :   -0.062756
   5 S :    0.083853
   6 C :   -0.068867
   7 C :    0.033131
   8 C :    0.036877
   9 C :   -0.044709
  10 S :    0.106148
  11 C :   -0.112173
  12 C :    0.098240
  13 C :   -0.261521
  14 S :    0.052095
  15 S :    0.091194
  16 C :   -0.081623
  17 O :   -0.173669
  18 C :    0.109025
  19 C :   -0.040872
  20 C :    0.058063
  21 N :   -0.025833
  22 C :   -0.115484
  23 S :    0.137683
  24 C :   -0.017447
  25 N :    0.283058
  26 O :   -0.269744
  27 O :   -0.284161
  28 C :    0.006941
  29 C :    0.130530
  30 C :   -0.038111
  31 C :    0.005640
  32 C :    0.064195
  33 C :   -0.243801
  34 C :    0.086257
  35 C :    0.187103
  36 N :   -0.160548
  37 C :    0.018682
  38 C :   -0.049841
  39 C :    0.117532
  40 C :   -0.278194
  41 S :    0.009429
  42 S :    0.057506
  43 C :   -0.073009
  44 O :   -0.166507
  45 C :    0.087651
  46 C :   -0.033829
  47 C :   -0.016327
  48 H :    0.020591
  49 H :    0.024072
  50 H :   -0.011094
  51 H :   -0.012247
  52 H :   -0.014797
  53 H :   -0.016070
  54 H :    0.001490
  55 H :    0.082253
  56 H :    0.197154
  57 H :   -0.037627
  58 H :    0.034067
  59 H :    0.131433
  60 H :    0.004205
  61 H :   -0.052113
  62 H :   -0.024215
  63 H :   -0.047510
  64 H :    0.033491
  65 H :    0.025667
  66 H :    0.011883
  67 H :    0.018810
  68 H :    0.024088
  69 H :    0.120747
  70 H :    0.009128
  71 H :   -0.005372
  72 H :    0.056171
  73 H :    0.190900
  74 H :   -0.019968
  75 H :    0.018446
  76 H :    0.005932
Sum of atomic charges:   -0.0000000

LOEWDIN ATOMIC CHARGES
----------------------
   0 C :   -0.074500
   1 C :   -0.139813
   2 C :   -0.028599
   3 C :   -0.027528
   4 C :   -0.173575
   5 S :    0.352709
   6 C :   -0.185996
   7 C :   -0.029304
   8 C :   -0.039303
   9 C :   -0.145614
  10 S :    0.372184
  11 C :   -0.077202
  12 C :   -0.093144
  13 C :   -0.337633
  14 S :    0.223491
  15 S :    0.380531
  16 C :   -0.106907
  17 O :   -0.043717
  18 C :   -0.098257
  19 C :   -0.071025
  20 C :    0.013843
  21 N :    0.037258
  22 C :   -0.094174
  23 S :    0.447064
  24 C :   -0.222957
  25 N :    0.274942
  26 O :   -0.235700
  27 O :   -0.249766
  28 C :    0.007277
  29 C :   -0.115418
  30 C :   -0.036345
  31 C :   -0.019484
  32 C :   -0.047438
  33 C :   -0.045556
  34 C :   -0.049553
  35 C :    0.034030
  36 N :   -0.025804
  37 C :    0.028314
  38 C :   -0.114408
  39 C :   -0.051099
  40 C :   -0.360090
  41 S :    0.213324
  42 S :    0.351382
  43 C :   -0.091215
  44 O :   -0.040594
  45 C :   -0.110903
  46 C :   -0.025513
  47 C :   -0.055934
  48 H :    0.028891
  49 H :    0.027203
  50 H :    0.033640
  51 H :    0.031941
  52 H :    0.030882
  53 H :    0.031455
  54 H :    0.030153
  55 H :   -0.014790
  56 H :    0.100552
  57 H :    0.022307
  58 H :    0.020055
  59 H :    0.091996
  60 H :    0.042164
  61 H :    0.011209
  62 H :    0.022148
  63 H :    0.014552
  64 H :    0.039537
  65 H :    0.031873
  66 H :    0.029306
  67 H :    0.027514
  68 H :    0.034006
  69 H :    0.072779
  70 H :    0.018757
  71 H :    0.023178
  72 H :   -0.032331
  73 H :    0.095915
  74 H :    0.025836
  75 H :    0.018360
  76 H :    0.018631

  Mayer bond orders larger than 0.100000
B(  0-C ,  1-C ) :   1.8702 B(  0-C , 48-H ) :   0.9511 B(  0-C , 49-H ) :   0.9419
B(  1-C ,  2-C ) :   1.0753 B(  1-C ,  5-S ) :   1.0066 B(  2-C ,  3-C ) :   1.6726
B(  2-C , 50-H ) :   0.9934 B(  3-C ,  4-C ) :   1.1402 B(  3-C , 51-H ) :   0.9918
B(  4-C ,  5-S ) :   1.0443 B(  4-C ,  6-C ) :   1.5875 B(  6-C ,  7-C ) :   1.1458
B(  6-C , 10-S ) :   1.0299 B(  7-C ,  8-C ) :   1.6463 B(  7-C , 52-H ) :   0.9931
B(  8-C ,  9-C ) :   1.0882 B(  8-C , 53-H ) :   0.9987 B(  9-C , 10-S ) :   1.0471
B(  9-C , 11-C ) :   1.6951 B( 11-C , 12-C ) :   1.0194 B( 11-C , 54-H ) :   0.9499
B( 12-C , 13-C ) :   1.5641 B( 12-C , 18-C ) :   1.2018 B( 13-C , 14-S ) :   1.0480
B( 13-C , 15-S ) :   1.0682 B( 14-S , 55-H ) :   0.9412 B( 15-S , 16-C ) :   1.1006
B( 16-C , 17-O ) :   1.1748 B( 16-C , 18-C ) :   1.4814 B( 17-O , 56-H ) :   0.9477
B( 18-C , 19-C ) :   1.1290 B( 19-C , 20-C ) :   1.7161 B( 19-C , 57-H ) :   0.9494
B( 20-C , 21-N ) :   1.0806 B( 20-C , 58-H ) :   0.9453 B( 21-N , 22-C ) :   1.2569
B( 21-N , 59-H ) :   0.9152 B( 22-C , 23-S ) :   1.1356 B( 22-C , 29-C ) :   1.3270
B( 23-S , 24-C ) :   1.0510 B( 24-C , 25-N ) :   1.0016 B( 24-C , 28-C ) :   1.4665
B( 25-N , 26-O ) :   1.5131 B( 25-N , 27-O ) :   1.4919 B( 26-O , 27-O ) :   0.2446
B( 28-C , 29-C ) :   1.2543 B( 28-C , 60-H ) :   1.0009 B( 29-C , 30-C ) :   1.0307
B( 30-C , 31-C ) :   1.7540 B( 30-C , 61-H ) :   0.9715 B( 31-C , 32-C ) :   1.1046
B( 31-C , 62-H ) :   0.9721 B( 32-C , 33-C ) :   1.7886 B( 32-C , 63-H ) :   0.9548
B( 33-C , 34-C ) :   1.0818 B( 33-C , 35-C ) :   0.9843 B( 34-C , 64-H ) :   0.9448
B( 34-C , 65-H ) :   0.9508 B( 34-C , 66-H ) :   0.9538 B( 35-C , 36-N ) :   1.0710
B( 35-C , 67-H ) :   0.9346 B( 35-C , 68-H ) :   0.9299 B( 36-N , 37-C ) :   1.1746
B( 36-N , 69-H ) :   0.9418 B( 37-C , 38-C ) :   1.7360 B( 37-C , 70-H ) :   0.9682
B( 38-C , 39-C ) :   1.0822 B( 38-C , 71-H ) :   0.9391 B( 39-C , 40-C ) :   1.5881
B( 39-C , 45-C ) :   1.1918 B( 40-C , 41-S ) :   1.0365 B( 40-C , 42-S ) :   1.0449
B( 41-S , 72-H ) :   0.9449 B( 42-S , 43-C ) :   1.1051 B( 43-C , 44-O ) :   1.1954
B( 43-C , 45-C ) :   1.4858 B( 44-O , 73-H ) :   0.9513 B( 45-C , 46-C ) :   1.0885
B( 46-C , 47-C ) :   1.9504 B( 46-C , 74-H ) :   0.9533 B( 47-C , 75-H ) :   0.9477
B( 47-C , 76-H ) :   0.9446

-----------------------------------------------------------------------------
         ABSORPTION SPECTRUM VIA TRANSITION ELECTRIC DIPOLE MOMENTS
-----------------------------------------------------------------------------
State   Energy  Wavelength   fosc         T2         TX        TY        TZ
        (cm-1)    (nm)                  (au**2)     (au)      (au)      (au)
-----------------------------------------------------------------------------
   0   22017.3    454.2   0.038862967   0.58109  -0.06057   0.58198   0.48860
   1   22652.9    441.4   1.361526702  19.78694  -3.20925   0.65832   3.00903
   2   24786.1    403.5   0.396732054   5.26944  -1.98743  -0.70058  -0.91036
   3   28539.7    350.4   0.061363508   0.70784   0.23545   0.30805  -0.74667
   4   29882.4    334.6   0.008389875   0.09243   0.12654  -0.24764   0.12286
   5   30445.9    328.5   0.398106048   4.30472   0.58140   1.87241  -0.67880
   6   30645.0    326.3   0.212880688   2.28693   0.30245   1.36413  -0.57844
   7   30977.2    322.8   0.118438525   1.25871   0.20023   1.03210  -0.39165
   8   31935.7    313.1   0.003408056   0.03513   0.09628  -0.14899   0.06054
   9   32349.9    309.1   0.094742874   0.96416   0.23535   0.86840  -0.39326
  10   33280.8    300.5   0.000136154   0.00135   0.03002   0.00351   0.02082
  11   33482.3    298.7   0.006314974   0.06209   0.24756   0.01283  -0.02535
  12   34280.6    291.7   0.010737337   0.10312   0.07537  -0.26157   0.17034
  13   34814.7    287.2   0.017765075   0.16799  -0.18782   0.29336  -0.21599
  14   35126.9    284.7   0.016186692   0.15170  -0.36298  -0.13974  -0.02062
  15   35172.1    284.3   0.077601814   0.72636   0.23860  -0.62108   0.53263
  16   35596.8    280.9   0.017325746   0.16023  -0.03301  -0.38464   0.10582
  17   35694.6    280.2   0.055327576   0.51029  -0.31424   0.55646  -0.31920
  18   35996.1    277.8   0.012391386   0.11333   0.33019  -0.06545  -0.00421
  19   36958.7    270.6   0.018018974   0.16051   0.24585   0.29706   0.10870
  20   37008.0    270.2   0.004461320   0.03969  -0.06574   0.17989  -0.05482
  21   37120.8    269.4   0.113998101   1.01101  -1.00083   0.08991  -0.03560
  22   38265.1    261.3   0.083445426   0.71792  -0.83800   0.02603  -0.12244
  23   38987.2    256.5   0.029811278   0.25173   0.25036   0.41912  -0.11570
  24   40094.3    249.4   0.343042110   2.81670   0.01599  -1.40694   0.91486

FINAL SINGLE POINT ENERGY     -4562.231989425643

DIPOLE MOMENT
-------------
                                X             Y             Z
Electronic contribution:     -7.74824     -53.83680      23.89899
Nuclear contribution   :      4.28548      54.78784     -24.09590
                        -----------------------------------------
Total Dipole Moment    :     -3.46276       0.95104      -0.19691
                        -----------------------------------------
Magnitude (a.u.)       :      3.59638
Magnitude (Debye)      :      9.14128

Rotational constants in cm-1:     0.001895     0.000574     0.000530
Rotational constants in MHz :    56.800852    17.221055    15.899621

                             ****ORCA TERMINATED NORMALLY****
TOTAL RUN TIME: 0 days 0 hours 10 minutes 1 seconds 470 msec
