                         Program Version 4.2.0 -  RELEASE  -
|  1> # ORCA input file
|  2> # SCF done       -144.264028845935          0.000371119011
|  3> ! CAM-B3LYP def2-SVP def2/J RIJCOSX Grid4 TightSCF
|  4> %maxcore 5000
|  5> %tddft
|  6>     Mode sTDDFT
|  7>     Ethresh 5.0
|  8>     maxcore 5000
|  9> end
| 10>
| 11> %pal
| 12>   nprocs 6
| 13>   end
| 14> * xyz 0 1
| 15>    C       11.24659        -6.15244         7.12178
| 16>    C       11.31469        -5.87268         5.81338
| 17>    C       12.37285        -5.20031         5.11356
| 18>    C       12.16871        -5.07414         3.78455
| 19>    C       10.94180        -5.63371         3.32460
| 20>    S       10.04514        -6.31847         4.66045
| 21>    C       10.48088        -5.68859         2.03009
| 22>    C       11.11856        -5.22461         0.85257
| 23>    C       10.42692        -5.49145        -0.28561
| 24>    C        9.20517        -6.18601        -0.07726
| 25>    S        8.94358        -6.44154         1.63358
| 26>    C        8.37554        -6.66129        -1.06182
| 27>    C        7.20983        -7.41465        -0.86970
| 28>    S        6.46981        -7.69343         0.68975
| 29>    C        5.25898        -8.75404         0.00053
| 30>    C        5.42177        -8.84247        -1.37450
| 31>    C        6.49042        -8.07983        -1.86037
| 32>    S        6.76365        -8.12793        -3.57753
| 33>    C        5.43515        -9.21340        -3.94344
| 34>    S        5.09001        -9.69830        -5.45627
| 35>    S        4.50417        -9.74241        -2.54629
| 36>    C        4.33782        -9.42494         0.82503
| 37>    S        3.37109       -10.77845         0.24396
| 38>    C        4.07675        -9.22155         2.16259
| 39>    C        4.51117        -8.30361         3.21471
| 40>    O        5.31580        -7.40130         3.18170
| 41>    N        3.79386        -8.69156         4.34351
| 42>    C        3.88344        -8.00012         5.61089
| 43>    C        2.86867        -6.86464         5.69151
| 44>    C        2.95426        -9.77805         4.12590
| 45>    O        2.24711       -10.28955         4.96450
| 46>    C        3.14059       -10.11977         2.71635
| 47>    C        2.66857       -11.06638         1.83377
| 48>    C        1.84370       -12.17667         2.09570
| 49>    S        1.21567       -12.49094         3.69623
| 50>    C        0.55818       -14.04139         3.20816
| 51>    C        0.78700       -14.25244         1.85476
| 52>    C        1.49308       -13.20551         1.23602
| 53>    S        1.79945       -13.35098        -0.46795
| 54>    C        0.92493       -14.86328        -0.67275
| 55>    S        0.77689       -15.59867        -2.11458
| 56>    S        0.22822       -15.51803         0.79559
| 57>    C       -0.05723       -14.84466         4.19146
| 58>    C       -0.09265       -16.21115         4.25627
| 59>    C       -0.72242       -16.96483         5.28705
| 60>    C       -0.50331       -18.30203         5.22105
| 61>    C        0.32351       -18.69601         4.13855
| 62>    S        0.77649       -17.29275         3.18476
| 63>    C        0.78085       -19.95326         3.82959
| 64>    C        0.53232       -21.16362         4.54065
| 65>    C        1.14663       -22.24786         4.02185
| 66>    C        1.93382       -21.98014         2.85072
| 67>    S        1.82727       -20.25541         2.46032
| 68>    C        2.65634       -22.84979         2.13301
| 69>    H       12.04208        -5.86777         7.78766
| 70>    H       10.40393        -6.66692         7.54590
| 71>    H       13.24036        -4.84525         5.64092
| 72>    H       12.85622        -4.60097         3.10633
| 73>    H       12.06937        -4.72345         0.87914
| 74>    H       10.75538        -5.22913        -1.27575
| 75>    H        8.66837        -6.49115        -2.09006
| 76>    H        4.90014        -7.60915         5.69770
| 77>    H        3.69625        -8.73476         6.39773
| 78>    H        3.05079        -6.14273         4.89867
| 79>    H        2.95372        -6.36071         6.65010
| 80>    H        1.85904        -7.25617         5.58963
| 81>    H       -0.46025       -14.30911         5.04121
| 82>    H       -1.31371       -16.47917         6.04299
| 83>    H       -0.90262       -19.01597         5.91872
| 84>    H       -0.09308       -21.17935         5.41543
| 85>    H        1.08078       -23.24427         4.42138
| 86>    H        2.69739       -23.88909         2.40773
| 87>    H        3.21398       -22.54233         1.26748
| 88> *
| 89>
| 90>                          ****END OF INPUT****

CARTESIAN COORDINATES (ANGSTROEM)
---------------------------------
  C     11.246590   -6.152440    7.121780
  C     11.314690   -5.872680    5.813380
  C     12.372850   -5.200310    5.113560
  C     12.168710   -5.074140    3.784550
  C     10.941800   -5.633710    3.324600
  S     10.045140   -6.318470    4.660450
  C     10.480880   -5.688590    2.030090
  C     11.118560   -5.224610    0.852570
  C     10.426920   -5.491450   -0.285610
  C      9.205170   -6.186010   -0.077260
  S      8.943580   -6.441540    1.633580
  C      8.375540   -6.661290   -1.061820
  C      7.209830   -7.414650   -0.869700
  S      6.469810   -7.693430    0.689750
  C      5.258980   -8.754040    0.000530
  C      5.421770   -8.842470   -1.374500
  C      6.490420   -8.079830   -1.860370
  S      6.763650   -8.127930   -3.577530
  C      5.435150   -9.213400   -3.943440
  S      5.090010   -9.698300   -5.456270
  S      4.504170   -9.742410   -2.546290
  C      4.337820   -9.424940    0.825030
  S      3.371090  -10.778450    0.243960
  C      4.076750   -9.221550    2.162590
  C      4.511170   -8.303610    3.214710
  O      5.315800   -7.401300    3.181700
  N      3.793860   -8.691560    4.343510
  C      3.883440   -8.000120    5.610890
  C      2.868670   -6.864640    5.691510
  C      2.954260   -9.778050    4.125900
  O      2.247110  -10.289550    4.964500
  C      3.140590  -10.119770    2.716350
  C      2.668570  -11.066380    1.833770
  C      1.843700  -12.176670    2.095700
  S      1.215670  -12.490940    3.696230
  C      0.558180  -14.041390    3.208160
  C      0.787000  -14.252440    1.854760
  C      1.493080  -13.205510    1.236020
  S      1.799450  -13.350980   -0.467950
  C      0.924930  -14.863280   -0.672750
  S      0.776890  -15.598670   -2.114580
  S      0.228220  -15.518030    0.795590
  C     -0.057230  -14.844660    4.191460
  C     -0.092650  -16.211150    4.256270
  C     -0.722420  -16.964830    5.287050
  C     -0.503310  -18.302030    5.221050
  C      0.323510  -18.696010    4.138550
  S      0.776490  -17.292750    3.184760
  C      0.780850  -19.953260    3.829590
  C      0.532320  -21.163620    4.540650
  C      1.146630  -22.247860    4.021850
  C      1.933820  -21.980140    2.850720
  S      1.827270  -20.255410    2.460320
  C      2.656340  -22.849790    2.133010
  H     12.042080   -5.867770    7.787660
  H     10.403930   -6.666920    7.545900
  H     13.240360   -4.845250    5.640920
  H     12.856220   -4.600970    3.106330
  H     12.069370   -4.723450    0.879140
  H     10.755380   -5.229130   -1.275750
  H      8.668370   -6.491150   -2.090060
  H      4.900140   -7.609150    5.697700
  H      3.696250   -8.734760    6.397730
  H      3.050790   -6.142730    4.898670
  H      2.953720   -6.360710    6.650100
  H      1.859040   -7.256170    5.589630
  H     -0.460250  -14.309110    5.041210
  H     -1.313710  -16.479170    6.042990
  H     -0.902620  -19.015970    5.918720
  H     -0.093080  -21.179350    5.415430
  H      1.080780  -23.244270    4.421380
  H      2.697390  -23.889090    2.407730
  H      3.213980  -22.542330    1.267480

 Total Charge           Charge          ....    0
 Multiplicity           Mult            ....    1
 Number of Electrons    NEL             ....  478
 Basis Dimension        Dim             ....  903

ORBITAL ENERGIES
----------------

  NO   OCC          E(Eh)            E(eV)
   0   2.0000     -88.977119     -2421.1905
   1   2.0000     -88.969290     -2420.9775
   2   2.0000     -88.967093     -2420.9177
   3   2.0000     -88.966639     -2420.9053
   4   2.0000     -88.963049     -2420.8076
   5   2.0000     -88.962465     -2420.7917
   6   2.0000     -88.958930     -2420.6956
   7   2.0000     -88.948450     -2420.4104
   8   2.0000     -88.944759     -2420.3099
   9   2.0000     -88.943414     -2420.2733
  10   2.0000     -88.940277     -2420.1880
  11   2.0000     -88.888803     -2418.7873
  12   2.0000     -88.886350     -2418.7206
  13   2.0000     -19.206945      -522.6475
  14   2.0000     -19.206288      -522.6297
  15   2.0000     -14.449251      -393.1841
  16   2.0000     -10.389526      -282.7134
  17   2.0000     -10.388883      -282.6959
  18   2.0000     -10.370804      -282.2039
  19   2.0000     -10.366914      -282.0981
  20   2.0000     -10.334088      -281.2048
  21   2.0000     -10.333834      -281.1979
  22   2.0000     -10.318877      -280.7909
  23   2.0000     -10.318785      -280.7884
  24   2.0000     -10.318328      -280.7760
  25   2.0000     -10.317786      -280.7612
  26   2.0000     -10.317110      -280.7428
  27   2.0000     -10.314737      -280.6783
  28   2.0000     -10.314109      -280.6612
  29   2.0000     -10.314069      -280.6601
  30   2.0000     -10.313440      -280.6430
  31   2.0000     -10.313002      -280.6311
  32   2.0000     -10.312028      -280.6046
  33   2.0000     -10.311548      -280.5915
  34   2.0000     -10.310782      -280.5706
  35   2.0000     -10.310764      -280.5701
  36   2.0000     -10.308520      -280.5091
  37   2.0000     -10.308283      -280.5027
  38   2.0000     -10.301576      -280.3201
  39   2.0000     -10.294679      -280.1325
  40   2.0000     -10.291861      -280.0558
  41   2.0000     -10.291766      -280.0532
  42   2.0000     -10.291544      -280.0472
  43   2.0000     -10.289994      -280.0050
  44   2.0000     -10.288272      -279.9581
  45   2.0000     -10.287943      -279.9492
  46   2.0000     -10.286966      -279.9226
  47   2.0000     -10.286753      -279.9168
  48   2.0000     -10.285846      -279.8921
  49   2.0000     -10.285275      -279.8765
  50   2.0000     -10.285000      -279.8691
  51   2.0000     -10.276980      -279.6508
  52   2.0000     -10.273136      -279.5463
  53   2.0000     -10.255365      -279.0627
  54   2.0000      -8.071630      -219.6402
  55   2.0000      -8.064863      -219.4561
  56   2.0000      -8.062815      -219.4004
  57   2.0000      -8.062495      -219.3917
  58   2.0000      -8.058605      -219.2858
  59   2.0000      -8.056387      -219.2254
  60   2.0000      -8.053340      -219.1425
  61   2.0000      -8.044464      -218.9010
  62   2.0000      -8.040996      -218.8066
  63   2.0000      -8.040236      -218.7859
  64   2.0000      -8.037029      -218.6987
  65   2.0000      -7.985987      -217.3097
  66   2.0000      -7.983705      -217.2476
  67   2.0000      -6.041363      -164.3938
  68   2.0000      -6.036969      -164.2743
  69   2.0000      -6.034833      -164.2161
  70   2.0000      -6.033140      -164.1701
  71   2.0000      -6.032772      -164.1601
  72   2.0000      -6.032338      -164.1483
  73   2.0000      -6.030381      -164.0950
  74   2.0000      -6.028526      -164.0445
  75   2.0000      -6.028287      -164.0380
  76   2.0000      -6.028052      -164.0316
  77   2.0000      -6.025947      -163.9744
  78   2.0000      -6.025613      -163.9653
  79   2.0000      -6.024015      -163.9218
  80   2.0000      -6.023582      -163.9100
  81   2.0000      -6.023330      -163.9032
  82   2.0000      -6.022971      -163.8934
  83   2.0000      -6.021669      -163.8579
  84   2.0000      -6.019402      -163.7962
  85   2.0000      -6.018619      -163.7750
  86   2.0000      -6.017976      -163.7574
  87   2.0000      -6.014829      -163.6718
  88   2.0000      -6.014284      -163.6570
  89   2.0000      -6.010748      -163.5608
  90   2.0000      -6.010068      -163.5423
  91   2.0000      -6.010051      -163.5418
  92   2.0000      -6.006857      -163.4549
  93   2.0000      -6.006677      -163.4500
  94   2.0000      -6.006072      -163.4335
  95   2.0000      -6.005319      -163.4130
  96   2.0000      -6.002913      -163.3476
  97   2.0000      -6.001793      -163.3171
  98   2.0000      -6.000763      -163.2891
  99   2.0000      -5.997533      -163.2012
 100   2.0000      -5.955498      -162.0573
 101   2.0000      -5.953243      -161.9960
 102   2.0000      -5.952861      -161.9856
 103   2.0000      -5.950522      -161.9219
 104   2.0000      -5.945969      -161.7980
 105   2.0000      -5.943634      -161.7345
 106   2.0000      -1.152827       -31.3700
 107   2.0000      -1.129307       -30.7300
 108   2.0000      -1.045523       -28.4501
 109   2.0000      -1.022634       -27.8273
 110   2.0000      -1.018198       -27.7066
 111   2.0000      -0.997656       -27.1476
 112   2.0000      -0.995572       -27.0909
 113   2.0000      -0.993272       -27.0283
 114   2.0000      -0.975605       -26.5476
 115   2.0000      -0.971746       -26.4425
 116   2.0000      -0.960561       -26.1382
 117   2.0000      -0.955917       -26.0118
 118   2.0000      -0.915830       -24.9210
 119   2.0000      -0.907814       -24.7029
 120   2.0000      -0.892801       -24.2943
 121   2.0000      -0.885154       -24.0863
 122   2.0000      -0.878583       -23.9075
 123   2.0000      -0.868077       -23.6216
 124   2.0000      -0.863460       -23.4959
 125   2.0000      -0.859952       -23.4005
 126   2.0000      -0.856171       -23.2976
 127   2.0000      -0.850606       -23.1462
 128   2.0000      -0.847071       -23.0500
 129   2.0000      -0.846561       -23.0361
 130   2.0000      -0.826571       -22.4922
 131   2.0000      -0.825059       -22.4510
 132   2.0000      -0.823529       -22.4094
 133   2.0000      -0.813940       -22.1484
 134   2.0000      -0.802295       -21.8316
 135   2.0000      -0.782024       -21.2800
 136   2.0000      -0.781472       -21.2649
 137   2.0000      -0.777543       -21.1580
 138   2.0000      -0.768972       -20.9248
 139   2.0000      -0.745940       -20.2981
 140   2.0000      -0.742894       -20.2152
 141   2.0000      -0.734142       -19.9770
 142   2.0000      -0.719466       -19.5777
 143   2.0000      -0.697281       -18.9740
 144   2.0000      -0.692795       -18.8519
 145   2.0000      -0.683113       -18.5884
 146   2.0000      -0.675654       -18.3855
 147   2.0000      -0.663869       -18.0648
 148   2.0000      -0.653360       -17.7788
 149   2.0000      -0.645732       -17.5713
 150   2.0000      -0.635863       -17.3027
 151   2.0000      -0.631342       -17.1797
 152   2.0000      -0.629978       -17.1426
 153   2.0000      -0.627327       -17.0704
 154   2.0000      -0.626027       -17.0350
 155   2.0000      -0.620762       -16.8918
 156   2.0000      -0.614457       -16.7202
 157   2.0000      -0.610410       -16.6101
 158   2.0000      -0.602872       -16.4050
 159   2.0000      -0.600365       -16.3368
 160   2.0000      -0.596094       -16.2205
 161   2.0000      -0.584568       -15.9069
 162   2.0000      -0.574778       -15.6405
 163   2.0000      -0.567489       -15.4422
 164   2.0000      -0.560200       -15.2438
 165   2.0000      -0.558930       -15.2092
 166   2.0000      -0.552728       -15.0405
 167   2.0000      -0.545316       -14.8388
 168   2.0000      -0.541883       -14.7454
 169   2.0000      -0.536411       -14.5965
 170   2.0000      -0.527296       -14.3485
 171   2.0000      -0.524918       -14.2838
 172   2.0000      -0.522308       -14.2127
 173   2.0000      -0.521367       -14.1871
 174   2.0000      -0.518984       -14.1223
 175   2.0000      -0.517743       -14.0885
 176   2.0000      -0.513928       -13.9847
 177   2.0000      -0.510087       -13.8802
 178   2.0000      -0.505184       -13.7468
 179   2.0000      -0.503211       -13.6931
 180   2.0000      -0.498909       -13.5760
 181   2.0000      -0.496783       -13.5181
 182   2.0000      -0.495337       -13.4788
 183   2.0000      -0.493035       -13.4162
 184   2.0000      -0.491633       -13.3780
 185   2.0000      -0.486342       -13.2340
 186   2.0000      -0.485835       -13.2202
 187   2.0000      -0.483830       -13.1657
 188   2.0000      -0.478792       -13.0286
 189   2.0000      -0.472034       -12.8447
 190   2.0000      -0.471319       -12.8253
 191   2.0000      -0.468107       -12.7378
 192   2.0000      -0.466665       -12.6986
 193   2.0000      -0.463594       -12.6150
 194   2.0000      -0.460874       -12.5410
 195   2.0000      -0.459647       -12.5076
 196   2.0000      -0.459165       -12.4945
 197   2.0000      -0.455733       -12.4011
 198   2.0000      -0.451780       -12.2936
 199   2.0000      -0.447851       -12.1867
 200   2.0000      -0.446634       -12.1535
 201   2.0000      -0.439667       -11.9639
 202   2.0000      -0.437597       -11.9076
 203   2.0000      -0.435009       -11.8372
 204   2.0000      -0.431051       -11.7295
 205   2.0000      -0.429693       -11.6925
 206   2.0000      -0.427309       -11.6277
 207   2.0000      -0.422971       -11.5096
 208   2.0000      -0.418068       -11.3762
 209   2.0000      -0.415881       -11.3167
 210   2.0000      -0.414214       -11.2713
 211   2.0000      -0.412308       -11.2195
 212   2.0000      -0.405186       -11.0257
 213   2.0000      -0.400423       -10.8961
 214   2.0000      -0.393596       -10.7103
 215   2.0000      -0.388676       -10.5764
 216   2.0000      -0.382537       -10.4094
 217   2.0000      -0.374250       -10.1839
 218   2.0000      -0.360035        -9.7970
 219   2.0000      -0.356492        -9.7006
 220   2.0000      -0.353492        -9.6190
 221   2.0000      -0.349959        -9.5229
 222   2.0000      -0.346988        -9.4420
 223   2.0000      -0.342573        -9.3219
 224   2.0000      -0.341108        -9.2820
 225   2.0000      -0.338313        -9.2060
 226   2.0000      -0.336277        -9.1506
 227   2.0000      -0.329638        -8.9699
 228   2.0000      -0.326944        -8.8966
 229   2.0000      -0.323470        -8.8021
 230   2.0000      -0.315830        -8.5942
 231   2.0000      -0.290775        -7.9124
 232   2.0000      -0.286240        -7.7890
 233   2.0000      -0.283393        -7.7115
 234   2.0000      -0.274596        -7.4721
 235   2.0000      -0.270504        -7.3608
 236   2.0000      -0.262123        -7.1327
 237   2.0000      -0.225265        -6.1298
 238   2.0000      -0.212859        -5.7922
 239   0.0000      -0.084435        -2.2976
 240   0.0000      -0.072150        -1.9633
 241   0.0000      -0.040775        -1.1095
 242   0.0000      -0.034052        -0.9266
 243   0.0000      -0.023118        -0.6291

MULLIKEN ATOMIC CHARGES
-----------------------
   0 C :   -0.023410
   1 C :   -0.067432
   2 C :    0.055850
   3 C :    0.031920
   4 C :   -0.064088
   5 S :    0.096874
   6 C :   -0.044709
   7 C :    0.039717
   8 C :    0.027199
   9 C :   -0.025382
  10 S :    0.083404
  11 C :   -0.037660
  12 C :   -0.100335
  13 S :    0.177154
  14 C :   -0.136497
  15 C :   -0.023293
  16 C :   -0.019432
  17 S :    0.186725
  18 C :   -0.159881
  19 S :   -0.108278
  20 S :    0.192125
  21 C :   -0.106425
  22 S :    0.130443
  23 C :   -0.016831
  24 C :    0.185503
  25 O :   -0.176550
  26 N :   -0.308582
  27 C :    0.137341
  28 C :   -0.007296
  29 C :    0.189042
  30 O :   -0.182189
  31 C :   -0.024372
  32 C :   -0.098556
  33 C :   -0.136613
  34 S :    0.199692
  35 C :   -0.156251
  36 C :   -0.011010
  37 C :   -0.052196
  38 S :    0.183658
  39 C :   -0.156995
  40 S :   -0.109578
  41 S :    0.212039
  42 C :   -0.014757
  43 C :   -0.028269
  44 C :    0.030616
  45 C :    0.039233
  46 C :   -0.059441
  47 S :    0.090855
  48 C :   -0.061914
  49 C :    0.028503
  50 C :    0.056233
  51 C :   -0.065232
  52 S :    0.091672
  53 C :   -0.026473
  54 H :    0.023932
  55 H :    0.026029
  56 H :   -0.007698
  57 H :   -0.009109
  58 H :   -0.012288
  59 H :   -0.010140
  60 H :   -0.009812
  61 H :    0.030483
  62 H :    0.030073
  63 H :    0.028032
  64 H :    0.020332
  65 H :    0.026053
  66 H :   -0.002449
  67 H :   -0.009222
  68 H :   -0.012201
  69 H :   -0.009368
  70 H :   -0.008978
  71 H :    0.023054
  72 H :    0.027404
Sum of atomic charges:   -0.0000000

LOEWDIN ATOMIC CHARGES
----------------------
   0 C :   -0.066142
   1 C :   -0.140520
   2 C :   -0.023571
   3 C :   -0.027075
   4 C :   -0.166275
   5 S :    0.364866
   6 C :   -0.185923
   7 C :   -0.026842
   8 C :   -0.036203
   9 C :   -0.139302
  10 S :    0.383089
  11 C :   -0.090651
  12 C :   -0.180227
  13 S :    0.492124
  14 C :   -0.222252
  15 C :   -0.210946
  16 C :   -0.226733
  17 S :    0.405139
  18 C :   -0.440895
  19 S :   -0.010898
  20 S :    0.403358
  21 C :   -0.146001
  22 S :    0.435197
  23 C :   -0.108564
  24 C :    0.084819
  25 O :   -0.173476
  26 N :   -0.031511
  27 C :    0.043346
  28 C :   -0.060002
  29 C :    0.085149
  30 O :   -0.177877
  31 C :   -0.105780
  32 C :   -0.145726
  33 C :   -0.217192
  34 S :    0.492804
  35 C :   -0.183114
  36 C :   -0.232221
  37 C :   -0.209879
  38 S :    0.400185
  39 C :   -0.444287
  40 S :   -0.010964
  41 S :    0.419146
  42 C :   -0.096700
  43 C :   -0.140993
  44 C :   -0.035605
  45 C :   -0.026718
  46 C :   -0.185797
  47 S :    0.377629
  48 C :   -0.168848
  49 C :   -0.027309
  50 C :   -0.024667
  51 C :   -0.140305
  52 S :    0.360722
  53 C :   -0.067347
  54 H :    0.030421
  55 H :    0.028246
  56 H :    0.035030
  57 H :    0.033343
  58 H :    0.032347
  59 H :    0.034265
  60 H :    0.035369
  61 H :    0.031971
  62 H :    0.031613
  63 H :    0.028663
  64 H :    0.029323
  65 H :    0.027970
  66 H :    0.036431
  67 H :    0.034118
  68 H :    0.032315
  69 H :    0.032960
  70 H :    0.034581
  71 H :    0.030041
  72 H :    0.028756

  Mayer bond orders larger than 0.100000
B(  0-C ,  1-C ) :   1.8648 B(  0-C , 54-H ) :   0.9512 B(  0-C , 55-H ) :   0.9415
B(  1-C ,  2-C ) :   1.0789 B(  1-C ,  5-S ) :   1.0057 B(  2-C ,  3-C ) :   1.6646
B(  2-C , 56-H ) :   0.9927 B(  3-C ,  4-C ) :   1.1477 B(  3-C , 57-H ) :   0.9920
B(  4-C ,  5-S ) :   1.0586 B(  4-C ,  6-C ) :   1.5556 B(  6-C ,  7-C ) :   1.1700
B(  6-C , 10-S ) :   1.0303 B(  7-C ,  8-C ) :   1.6054 B(  7-C , 58-H ) :   0.9914
B(  8-C ,  9-C ) :   1.1380 B(  8-C , 59-H ) :   1.0006 B(  9-C , 10-S ) :   1.0563
B(  9-C , 11-C ) :   1.5631 B( 11-C , 12-C ) :   1.1995 B( 11-C , 60-H ) :   0.9676
B( 12-C , 13-S ) :   1.0937 B( 12-C , 14-C ) :   0.1040 B( 12-C , 16-C ) :   1.4810
B( 13-S , 14-C ) :   1.1239 B( 14-C , 15-C ) :   1.4774 B( 14-C , 21-C ) :   1.2238
B( 15-C , 16-C ) :   1.3246 B( 15-C , 20-S ) :   1.0062 B( 16-C , 17-S ) :   0.9948
B( 17-S , 18-C ) :   1.0770 B( 17-S , 19-S ) :   0.1379 B( 18-C , 19-S ) :   1.7040
B( 18-C , 20-S ) :   1.0562 B( 19-S , 20-S ) :   0.1283 B( 21-C , 22-S ) :   1.1004
B( 21-C , 23-C ) :   1.4952 B( 22-S , 32-C ) :   1.1018 B( 23-C , 24-C ) :   0.9053
B( 23-C , 31-C ) :   1.2461 B( 24-C , 25-O ) :   2.1433 B( 24-C , 26-N ) :   1.0749
B( 26-N , 27-C ) :   0.9228 B( 26-N , 29-C ) :   1.0854 B( 27-C , 28-C ) :   1.1264
B( 27-C , 61-H ) :   0.9405 B( 27-C , 62-H ) :   0.9409 B( 28-C , 63-H ) :   0.9689
B( 28-C , 64-H ) :   0.9706 B( 28-C , 65-H ) :   0.9687 B( 29-C , 30-O ) :   2.1335
B( 29-C , 31-C ) :   0.9032 B( 31-C , 32-C ) :   1.5023 B( 32-C , 33-C ) :   1.2120
B( 33-C , 34-S ) :   1.1260 B( 33-C , 35-C ) :   0.1047 B( 33-C , 37-C ) :   1.5124
B( 34-S , 35-C ) :   1.0974 B( 35-C , 36-C ) :   1.5104 B( 35-C , 42-C ) :   1.1348
B( 36-C , 37-C ) :   1.2849 B( 36-C , 41-S ) :   0.9967 B( 37-C , 38-S ) :   1.0122
B( 38-S , 39-C ) :   1.0508 B( 38-S , 40-S ) :   0.1245 B( 39-C , 40-S ) :   1.7051
B( 39-C , 41-S ) :   1.0744 B( 40-S , 41-S ) :   0.1353 B( 42-C , 43-C ) :   1.6214
B( 42-C , 66-H ) :   0.9494 B( 43-C , 44-C ) :   1.1283 B( 43-C , 47-S ) :   1.0452
B( 44-C , 45-C ) :   1.6204 B( 44-C , 67-H ) :   0.9979 B( 45-C , 46-C ) :   1.1626
B( 45-C , 68-H ) :   0.9915 B( 46-C , 47-S ) :   1.0336 B( 46-C , 48-C ) :   1.5656
B( 48-C , 49-C ) :   1.1464 B( 48-C , 52-S ) :   1.0529 B( 49-C , 50-C ) :   1.6667
B( 49-C , 69-H ) :   0.9922 B( 50-C , 51-C ) :   1.0778 B( 50-C , 70-H ) :   0.9932
B( 51-C , 52-S ) :   1.0064 B( 51-C , 53-C ) :   1.8664 B( 53-C , 71-H ) :   0.9513
B( 53-C , 72-H ) :   0.9419

-----------------------------------------------------------------------------
         ABSORPTION SPECTRUM VIA TRANSITION ELECTRIC DIPOLE MOMENTS
-----------------------------------------------------------------------------
State   Energy  Wavelength   fosc         T2         TX        TY        TZ
        (cm-1)    (nm)                  (au**2)     (au)      (au)      (au)
-----------------------------------------------------------------------------
   0   14403.0    694.3   1.510824403  34.53312  -3.54673  -4.55450  -1.10015
   1   17602.9    568.1   0.841986027  15.74695   1.56670  -2.96394   2.12308
   2   19995.5    500.1   0.010289707   0.16941   0.09423   0.32176   0.23875
   3   22114.1    452.2   0.158187543   2.35494   0.46711  -0.84444  -1.19318
   4   23650.3    422.8   0.138466296   1.92745   0.23525  -1.07960  -0.84057
   5   24455.0    408.9   0.260594828   3.50811  -0.69803   0.56432  -1.64390
   6   25621.5    390.3   0.240448152   3.08953  -0.75007  -0.50384   1.50767
   7   26211.4    381.5   0.037000070   0.46472   0.29269   0.11080  -0.60562
   8   26563.1    376.5   0.024735647   0.30656   0.07696   0.44121   0.32554
   9   26617.7    375.7   0.345755895   4.27636  -0.31109   0.77876   1.89027
  10   26921.8    371.4   0.105781998   1.29355  -0.31743   0.02776   1.09180
  11   27191.0    367.8   0.000104834   0.00127  -0.00407   0.00912   0.03420
  12   27338.4    365.8   0.233327570   2.80976  -0.90662  -0.72914   1.20671
  13   28436.5    351.7   0.180275307   2.08707   0.38345   0.22354   1.37479
  14   28892.7    346.1   0.091023451   1.03715   0.80388  -0.56963  -0.25778
  15   30148.2    331.7   0.070957658   0.77484  -0.14077  -0.35257   0.79418
  16   30343.9    329.6   0.005057537   0.05487   0.02854   0.17003   0.15858
  17   31064.0    321.9   0.012117931   0.12842  -0.22734  -0.26420   0.08331
  18   31192.8    320.6   0.005576742   0.05886  -0.15260  -0.16253  -0.09568
  19   31514.5    317.3   0.001056508   0.01104   0.05745  -0.08785  -0.00443
  20   31756.1    314.9   0.021407975   0.22193  -0.00416  -0.04086  -0.46930
  21   32123.6    311.3   0.000472675   0.00484   0.02452  -0.00009  -0.06514
  22   32405.9    308.6   0.002021107   0.02053  -0.04301  -0.13668  -0.00002
  23   32638.6    306.4   0.072674148   0.73303  -0.36265   0.19654   0.75026
  24   32951.9    303.5   0.002874896   0.02872   0.13530  -0.00627   0.10187
  25   33220.7    301.0   0.002781312   0.02756   0.15529  -0.01535   0.05666
  26   33380.6    299.6   0.057772086   0.56977  -0.11767  -0.35727  -0.65443
  27   33547.4    298.1   0.065755404   0.64528  -0.32873   0.17532   0.71167
  28   33829.6    295.6   0.001433557   0.01395  -0.04934  -0.10068   0.03715
  29   34167.9    292.7   0.001194048   0.01150  -0.10119  -0.00671  -0.03495
  30   34491.0    289.9   0.017046100   0.16270  -0.11787   0.17218   0.34520
  31   34593.4    289.1   0.040560422   0.38600   0.18248  -0.26154  -0.53319
  32   34861.0    286.9   0.012106424   0.11433  -0.22196   0.19874   0.15988
  33   35116.7    284.8   0.182797399   1.71369  -0.09547  -0.47682  -1.21541
  34   35388.4    282.6   0.055222197   0.51372  -0.45399  -0.49112  -0.25773
  35   35718.5    280.0   0.080760931   0.74436  -0.41129  -0.75301  -0.09041
  36   36206.4    276.2   0.009400741   0.08548  -0.02372   0.00013  -0.29140
  37   36273.5    275.7   0.000829857   0.00753  -0.01213   0.06014   0.06138
  38   36447.9    274.4   0.006738637   0.06087  -0.17712  -0.16952  -0.02747
  39   36754.0    272.1   0.008917433   0.07987   0.27060   0.08119   0.00772
  40   37348.1    267.8   0.116317129   1.02530   0.21698   0.32539   0.93399
  41   37748.9    264.9   0.007459419   0.06505   0.10373   0.11741   0.20127
  42   38095.4    262.5   0.014254075   0.12318   0.09218   0.22436   0.25367
  43   38312.7    261.0   0.281209819   2.41637  -0.16930  -0.57400  -1.43465
  44   38702.9    258.4   0.019067946   0.16219   0.17013   0.05173  -0.36135
  45   38754.2    258.0   0.073618637   0.62538   0.23310  -0.22506   0.72138
  46   39040.3    256.1   0.012053544   0.10164  -0.09806  -0.30313  -0.01173
  47   39179.9    255.2   0.002024754   0.01701  -0.06363   0.08109   0.07992
  48   39264.1    254.7   0.016241009   0.13617  -0.05266   0.34334   0.12457
  49   39390.3    253.9   0.037898258   0.31674   0.30402  -0.42064  -0.21766
  50   39638.0    252.3   0.040586127   0.33709  -0.16625   0.49586   0.25213
  51   39656.8    252.2   0.137146084   1.13852  -0.15440   0.79095   0.69934
  52   39777.1    251.4   0.063743078   0.52756  -0.33762  -0.30391  -0.56676
  53   39936.8    250.4   0.052727185   0.43465  -0.08202  -0.06914   0.65049
  54   40130.5    249.2   0.028733894   0.23572  -0.16671  -0.15721   0.42803

FINAL SINGLE POINT ENERGY     -6837.435891175186

DIPOLE MOMENT
-------------
                                X             Y             Z
Electronic contribution:    -15.65664      -2.45518     -45.37159
Nuclear contribution   :     17.31038       2.54182      48.56313
                        -----------------------------------------
Total Dipole Moment    :      1.65374       0.08664       3.19154
                        -----------------------------------------
Magnitude (a.u.)       :      3.59560
Magnitude (Debye)      :      9.13928

Rotational constants in cm-1:     0.001544     0.000477     0.000418
Rotational constants in MHz :    46.295783    14.300867    12.527810

                             ****ORCA TERMINATED NORMALLY****
TOTAL RUN TIME: 0 days 0 hours 9 minutes 27 seconds 453 msec
