                         Program Version 4.2.0 -  RELEASE  -
|  1> # ORCA input file
|  2> # SCF done       -127.154132426316          0.000821841814
|  3> ! CAM-B3LYP def2-SVP def2/J RIJCOSX Grid4 TightSCF
|  4> %maxcore 5000
|  5> %tddft
|  6>     Mode sTDDFT
|  7>     Ethresh 5.0
|  8>     maxcore 5000
|  9> end
| 10>
| 11> %pal
| 12>   nprocs 6
| 13>   end
| 14> * xyz 0 2
| 15>    C        6.47022        -9.69718        -8.91093
| 16>    C        6.07777        -8.98623        -7.84188
| 17>    C        4.85832        -8.25745        -7.66841
| 18>    C        4.74693        -7.63144        -6.47067
| 19>    C        5.85471        -7.81649        -5.60843
| 20>    S        7.06483        -8.82033        -6.38031
| 21>    C        6.03163        -7.29589        -4.34008
| 22>    C        5.17233        -6.44217        -3.62220
| 23>    C        5.66311        -6.04707        -2.40810
| 24>    C        6.92975        -6.57528        -2.09484
| 25>    S        7.46482        -7.63338        -3.39321
| 26>    C        7.69192        -6.44340        -0.94512
| 27>    C        7.52456        -5.51575         0.07976
| 28>    C        6.86118        -4.30379         0.20106
| 29>    C        6.73867        -3.85656         1.61306
| 30>    C        7.47983        -4.69174         2.46513
| 31>    S        8.14634        -6.01831         1.69372
| 32>    O        9.83728        -5.73633         1.38862
| 33>    O        6.05466        -2.87684         1.93087
| 34>    C        6.32803        -3.45137        -0.77040
| 35>    C        6.61593        -3.34749        -2.14518
| 36>    C        5.64306        -2.52890        -2.79994
| 37>    C        4.75233        -1.96227        -1.95435
| 38>    S        5.03264        -2.37550        -0.29753
| 39>    O        3.42933        -2.86916         2.90365
| 40>    O        5.68517        -2.35057        -4.16662
| 41>    C        7.76598        -3.84349        -2.79262
| 42>    C        9.01274        -4.23460        -2.27491
| 43>    C        9.73521        -5.04864        -3.23902
| 44>    C        9.13414        -5.14459        -4.44894
| 45>    S        7.61993        -4.29666        -4.49099
| 46>    O        8.11383        -2.98656        -5.37283
| 47>    O       10.91446        -5.62569        -2.98446
| 48>    C        9.60047        -3.85037        -1.06352
| 49>    C        9.28936        -2.76131        -0.26809
| 50>    C        9.73991        -2.55413         1.05458
| 51>    C        9.27055        -1.41559         1.64000
| 52>    C        8.45501        -0.63856         0.79063
| 53>    S        8.34754        -1.38443        -0.78761
| 54>    C        7.77005         0.52129         1.08590
| 55>    C        7.75375         1.22357         2.31799
| 56>    C        6.96705         2.32546         2.32213
| 57>    C        6.30042         2.57949         1.07972
| 58>    S        6.74420         1.32067        -0.08330
| 59>    C        5.46567         3.58775         0.78525
| 60>    H        5.84118        -9.77230        -9.78001
| 61>    H        7.41395       -10.20987        -8.93324
| 62>    H        4.11628        -8.23432        -8.44649
| 63>    H        3.89751        -7.04311        -6.17185
| 64>    H        4.21439        -6.14254        -4.00640
| 65>    H        5.11197        -5.44966        -1.70706
| 66>    H        8.47696        -7.17577        -0.80108
| 67>    H        7.47053        -4.62822         3.53387
| 68>    H       10.36268        -6.27967         1.98174
| 69>    H        4.37211        -2.87832         2.68264
| 70>    H        3.96680        -1.27550        -2.20450
| 71>    H        3.03953        -2.23688         2.29720
| 72>    H        4.94490        -1.78642        -4.41801
| 73>    H        9.47980        -5.69062        -5.30047
| 74>    H        7.41237        -2.32197        -5.33896
| 75>    H       11.16614        -5.46813        -2.06316
| 76>    H       10.39494        -4.47487        -0.66716
| 77>    H       10.35361        -3.28488         1.55050
| 78>    H        9.46943        -1.13204         2.65723
| 79>    H        8.32195         0.88078         3.16413
| 80>    H        6.82399         2.97703         3.16565
| 81>    H        5.22256         4.33083         1.52400
| 82>    H        5.01442         3.68490        -0.18488
| 83> *
| 84>
| 85>                          ****END OF INPUT****

CARTESIAN COORDINATES (ANGSTROEM)
---------------------------------
  C      6.470220   -9.697180   -8.910930
  C      6.077770   -8.986230   -7.841880
  C      4.858320   -8.257450   -7.668410
  C      4.746930   -7.631440   -6.470670
  C      5.854710   -7.816490   -5.608430
  S      7.064830   -8.820330   -6.380310
  C      6.031630   -7.295890   -4.340080
  C      5.172330   -6.442170   -3.622200
  C      5.663110   -6.047070   -2.408100
  C      6.929750   -6.575280   -2.094840
  S      7.464820   -7.633380   -3.393210
  C      7.691920   -6.443400   -0.945120
  C      7.524560   -5.515750    0.079760
  C      6.861180   -4.303790    0.201060
  C      6.738670   -3.856560    1.613060
  C      7.479830   -4.691740    2.465130
  S      8.146340   -6.018310    1.693720
  O      9.837280   -5.736330    1.388620
  O      6.054660   -2.876840    1.930870
  C      6.328030   -3.451370   -0.770400
  C      6.615930   -3.347490   -2.145180
  C      5.643060   -2.528900   -2.799940
  C      4.752330   -1.962270   -1.954350
  S      5.032640   -2.375500   -0.297530
  O      3.429330   -2.869160    2.903650
  O      5.685170   -2.350570   -4.166620
  C      7.765980   -3.843490   -2.792620
  C      9.012740   -4.234600   -2.274910
  C      9.735210   -5.048640   -3.239020
  C      9.134140   -5.144590   -4.448940
  S      7.619930   -4.296660   -4.490990
  O      8.113830   -2.986560   -5.372830
  O     10.914460   -5.625690   -2.984460
  C      9.600470   -3.850370   -1.063520
  C      9.289360   -2.761310   -0.268090
  C      9.739910   -2.554130    1.054580
  C      9.270550   -1.415590    1.640000
  C      8.455010   -0.638560    0.790630
  S      8.347540   -1.384430   -0.787610
  C      7.770050    0.521290    1.085900
  C      7.753750    1.223570    2.317990
  C      6.967050    2.325460    2.322130
  C      6.300420    2.579490    1.079720
  S      6.744200    1.320670   -0.083300
  C      5.465670    3.587750    0.785250
  H      5.841180   -9.772300   -9.780010
  H      7.413950  -10.209870   -8.933240
  H      4.116280   -8.234320   -8.446490
  H      3.897510   -7.043110   -6.171850
  H      4.214390   -6.142540   -4.006400
  H      5.111970   -5.449660   -1.707060
  H      8.476960   -7.175770   -0.801080
  H      7.470530   -4.628220    3.533870
  H     10.362680   -6.279670    1.981740
  H      4.372110   -2.878320    2.682640
  H      3.966800   -1.275500   -2.204500
  H      3.039530   -2.236880    2.297200
  H      4.944900   -1.786420   -4.418010
  H      9.479800   -5.690620   -5.300470
  H      7.412370   -2.321970   -5.338960
  H     11.166140   -5.468130   -2.063160
  H     10.394940   -4.474870   -0.667160
  H     10.353610   -3.284880    1.550500
  H      9.469430   -1.132040    2.657230
  H      8.321950    0.880780    3.164130
  H      6.823990    2.977030    3.165650
  H      5.222560    4.330830    1.524000
  H      5.014420    3.684900   -0.184880

 Total Charge           Charge          ....    0
 Multiplicity           Mult            ....    2
 Number of Electrons    NEL             ....  375
 Basis Dimension        Dim             ....  773

ORBITAL ENERGIES
----------------
                 SPIN UP ORBITALS
  NO   OCC          E(Eh)            E(eV)
   0   1.0000     -89.058094     -2423.3939
   1   1.0000     -89.044586     -2423.0264
   2   1.0000     -88.943947     -2420.2878
   3   1.0000     -88.938107     -2420.1289
   4   1.0000     -88.934161     -2420.0216
   5   1.0000     -88.929475     -2419.8941
   6   1.0000     -88.925836     -2419.7950
   7   1.0000     -19.267772      -524.3027
   8   1.0000     -19.267695      -524.3006
   9   1.0000     -19.247946      -523.7632
  10   1.0000     -19.239894      -523.5441
  11   1.0000     -19.172535      -521.7112
  12   1.0000     -19.128759      -520.5200
  13   1.0000     -10.356625      -281.8181
  14   1.0000     -10.331917      -281.1457
  15   1.0000     -10.323958      -280.9292
  16   1.0000     -10.306098      -280.4432
  17   1.0000     -10.302765      -280.3525
  18   1.0000     -10.300573      -280.2928
  19   1.0000     -10.300471      -280.2901
  20   1.0000     -10.300148      -280.2813
  21   1.0000     -10.298386      -280.2333
  22   1.0000     -10.293188      -280.0919
  23   1.0000     -10.292418      -280.0709
  24   1.0000     -10.290145      -280.0091
  25   1.0000     -10.286316      -279.9049
  26   1.0000     -10.285499      -279.8827
  27   1.0000     -10.284556      -279.8570
  28   1.0000     -10.280064      -279.7348
  29   1.0000     -10.279860      -279.7292
  30   1.0000     -10.278902      -279.7031
  31   1.0000     -10.278781      -279.6998
  32   1.0000     -10.277192      -279.6566
  33   1.0000     -10.276128      -279.6277
  34   1.0000     -10.272077      -279.5174
  35   1.0000     -10.272068      -279.5172
  36   1.0000     -10.271396      -279.4989
  37   1.0000     -10.270540      -279.4756
  38   1.0000     -10.269395      -279.4444
  39   1.0000     -10.268260      -279.4136
  40   1.0000     -10.268079      -279.4086
  41   1.0000     -10.266033      -279.3530
  42   1.0000     -10.262204      -279.2488
  43   1.0000     -10.261334      -279.2251
  44   1.0000     -10.247534      -278.8496
  45   1.0000      -8.141874      -221.5517
  46   1.0000      -8.128908      -221.1988
  47   1.0000      -8.039100      -218.7550
  48   1.0000      -8.034534      -218.6308
  49   1.0000      -8.028916      -218.4779
  50   1.0000      -8.025965      -218.3976
  51   1.0000      -8.019385      -218.2186
  52   1.0000      -6.112946      -166.3417
  53   1.0000      -6.108450      -166.2194
  54   1.0000      -6.102738      -166.0639
  55   1.0000      -6.100156      -165.9937
  56   1.0000      -6.095300      -165.8615
  57   1.0000      -6.089962      -165.7163
  58   1.0000      -6.008671      -163.5042
  59   1.0000      -6.004723      -163.3968
  60   1.0000      -6.004150      -163.3812
  61   1.0000      -6.000520      -163.2824
  62   1.0000      -6.000296      -163.2764
  63   1.0000      -5.998494      -163.2273
  64   1.0000      -5.995659      -163.1502
  65   1.0000      -5.995618      -163.1491
  66   1.0000      -5.994369      -163.1151
  67   1.0000      -5.991698      -163.0424
  68   1.0000      -5.990592      -163.0123
  69   1.0000      -5.989459      -162.9815
  70   1.0000      -5.987040      -162.9156
  71   1.0000      -5.984665      -162.8510
  72   1.0000      -5.980772      -162.7451
  73   1.0000      -1.165604       -31.7177
  74   1.0000      -1.155745       -31.4494
  75   1.0000      -1.139316       -31.0024
  76   1.0000      -1.112772       -30.2801
  77   1.0000      -1.088238       -29.6125
  78   1.0000      -0.997990       -27.1567
  79   1.0000      -0.992004       -26.9938
  80   1.0000      -0.983934       -26.7742
  81   1.0000      -0.977073       -26.5875
  82   1.0000      -0.968847       -26.3637
  83   1.0000      -0.962267       -26.1846
  84   1.0000      -0.954897       -25.9841
  85   1.0000      -0.953061       -25.9341
  86   1.0000      -0.889763       -24.2117
  87   1.0000      -0.882774       -24.0215
  88   1.0000      -0.861369       -23.4390
  89   1.0000      -0.856851       -23.3161
  90   1.0000      -0.853594       -23.2275
  91   1.0000      -0.846275       -23.0283
  92   1.0000      -0.838154       -22.8073
  93   1.0000      -0.831273       -22.6201
  94   1.0000      -0.819595       -22.3023
  95   1.0000      -0.817583       -22.2476
  96   1.0000      -0.806402       -21.9433
  97   1.0000      -0.799405       -21.7529
  98   1.0000      -0.793835       -21.6013
  99   1.0000      -0.779288       -21.2055
 100   1.0000      -0.761743       -20.7281
 101   1.0000      -0.754260       -20.5245
 102   1.0000      -0.720465       -19.6048
 103   1.0000      -0.715853       -19.4793
 104   1.0000      -0.695564       -18.9272
 105   1.0000      -0.690477       -18.7888
 106   1.0000      -0.676561       -18.4102
 107   1.0000      -0.673359       -18.3230
 108   1.0000      -0.671415       -18.2701
 109   1.0000      -0.665198       -18.1009
 110   1.0000      -0.641944       -17.4682
 111   1.0000      -0.633424       -17.2363
 112   1.0000      -0.629464       -17.1286
 113   1.0000      -0.625186       -17.0122
 114   1.0000      -0.616460       -16.7747
 115   1.0000      -0.611157       -16.6304
 116   1.0000      -0.609396       -16.5825
 117   1.0000      -0.604085       -16.4380
 118   1.0000      -0.596330       -16.2270
 119   1.0000      -0.592484       -16.1223
 120   1.0000      -0.589598       -16.0438
 121   1.0000      -0.585514       -15.9326
 122   1.0000      -0.576247       -15.6805
 123   1.0000      -0.566138       -15.4054
 124   1.0000      -0.557078       -15.1589
 125   1.0000      -0.551782       -15.0147
 126   1.0000      -0.545313       -14.8387
 127   1.0000      -0.538745       -14.6600
 128   1.0000      -0.530987       -14.4489
 129   1.0000      -0.527155       -14.3446
 130   1.0000      -0.525984       -14.3128
 131   1.0000      -0.521163       -14.1816
 132   1.0000      -0.517454       -14.0806
 133   1.0000      -0.515231       -14.0201
 134   1.0000      -0.511555       -13.9201
 135   1.0000      -0.503473       -13.7002
 136   1.0000      -0.500981       -13.6324
 137   1.0000      -0.497013       -13.5244
 138   1.0000      -0.492637       -13.4053
 139   1.0000      -0.491921       -13.3858
 140   1.0000      -0.490297       -13.3417
 141   1.0000      -0.488270       -13.2865
 142   1.0000      -0.483115       -13.1462
 143   1.0000      -0.480481       -13.0746
 144   1.0000      -0.480143       -13.0654
 145   1.0000      -0.475191       -12.9306
 146   1.0000      -0.472857       -12.8671
 147   1.0000      -0.469781       -12.7834
 148   1.0000      -0.465423       -12.6648
 149   1.0000      -0.463557       -12.6140
 150   1.0000      -0.461012       -12.5448
 151   1.0000      -0.453882       -12.3508
 152   1.0000      -0.451054       -12.2738
 153   1.0000      -0.445911       -12.1338
 154   1.0000      -0.442485       -12.0406
 155   1.0000      -0.439669       -11.9640
 156   1.0000      -0.434442       -11.8218
 157   1.0000      -0.429488       -11.6870
 158   1.0000      -0.422685       -11.5018
 159   1.0000      -0.420435       -11.4406
 160   1.0000      -0.418761       -11.3951
 161   1.0000      -0.415707       -11.3120
 162   1.0000      -0.412188       -11.2162
 163   1.0000      -0.405052       -11.0220
 164   1.0000      -0.402199       -10.9444
 165   1.0000      -0.396171       -10.7804
 166   1.0000      -0.393844       -10.7170
 167   1.0000      -0.385781       -10.4976
 168   1.0000      -0.383607       -10.4385
 169   1.0000      -0.378532       -10.3004
 170   1.0000      -0.372853       -10.1459
 171   1.0000      -0.364818        -9.9272
 172   1.0000      -0.358551        -9.7567
 173   1.0000      -0.345871        -9.4116
 174   1.0000      -0.331219        -9.0129
 175   1.0000      -0.326668        -8.8891
 176   1.0000      -0.324560        -8.8317
 177   1.0000      -0.310450        -8.4478
 178   1.0000      -0.304908        -8.2970
 179   1.0000      -0.304527        -8.2866
 180   1.0000      -0.302761        -8.2385
 181   1.0000      -0.295608        -8.0439
 182   1.0000      -0.277444        -7.5496
 183   1.0000      -0.274466        -7.4686
 184   1.0000      -0.257793        -7.0149
 185   1.0000      -0.228518        -6.2183
 186   1.0000      -0.225922        -6.1477
 187   1.0000      -0.196648        -5.3511
 188   0.0000      -0.066742        -1.8161
 189   0.0000      -0.037473        -1.0197
 190   0.0000      -0.019503        -0.5307
 191   0.0000       0.012319         0.3352
 192   0.0000       0.024809         0.6751

                 SPIN DOWN ORBITALS
  NO   OCC          E(Eh)            E(eV)
   0   1.0000     -89.058030     -2423.3922
   1   1.0000     -89.044634     -2423.0277
   2   1.0000     -88.943905     -2420.2867
   3   1.0000     -88.937914     -2420.1237
   4   1.0000     -88.933969     -2420.0163
   5   1.0000     -88.929285     -2419.8889
   6   1.0000     -88.925723     -2419.7919
   7   1.0000     -19.267703      -524.3008
   8   1.0000     -19.267691      -524.3005
   9   1.0000     -19.247326      -523.7464
  10   1.0000     -19.239500      -523.5334
  11   1.0000     -19.172388      -521.7072
  12   1.0000     -19.128756      -520.5199
  13   1.0000     -10.357213      -281.8341
  14   1.0000     -10.331668      -281.1390
  15   1.0000     -10.323683      -280.9217
  16   1.0000     -10.304627      -280.4032
  17   1.0000     -10.302996      -280.3588
  18   1.0000     -10.300477      -280.2902
  19   1.0000     -10.300121      -280.2805
  20   1.0000     -10.296645      -280.1860
  21   1.0000     -10.295924      -280.1663
  22   1.0000     -10.294282      -280.1217
  23   1.0000     -10.292839      -280.0824
  24   1.0000     -10.288880      -279.9747
  25   1.0000     -10.286822      -279.9187
  26   1.0000     -10.285844      -279.8920
  27   1.0000     -10.283786      -279.8360
  28   1.0000     -10.283020      -279.8152
  29   1.0000     -10.281752      -279.7807
  30   1.0000     -10.279548      -279.7207
  31   1.0000     -10.276247      -279.6309
  32   1.0000     -10.275847      -279.6200
  33   1.0000     -10.274897      -279.5942
  34   1.0000     -10.274454      -279.5821
  35   1.0000     -10.272590      -279.5314
  36   1.0000     -10.271447      -279.5003
  37   1.0000     -10.271201      -279.4936
  38   1.0000     -10.270929      -279.4862
  39   1.0000     -10.267375      -279.3895
  40   1.0000     -10.264656      -279.3155
  41   1.0000     -10.262678      -279.2617
  42   1.0000     -10.262480      -279.2563
  43   1.0000     -10.256882      -279.1040
  44   1.0000     -10.247783      -278.8564
  45   1.0000      -8.141784      -221.5492
  46   1.0000      -8.128951      -221.2000
  47   1.0000      -8.039058      -218.7539
  48   1.0000      -8.034340      -218.6255
  49   1.0000      -8.028725      -218.4727
  50   1.0000      -8.025774      -218.3924
  51   1.0000      -8.019273      -218.2155
  52   1.0000      -6.112886      -166.3401
  53   1.0000      -6.108337      -166.2163
  54   1.0000      -6.102668      -166.0620
  55   1.0000      -6.100177      -165.9942
  56   1.0000      -6.095446      -165.8655
  57   1.0000      -6.090006      -165.7175
  58   1.0000      -6.008640      -163.5034
  59   1.0000      -6.004711      -163.3965
  60   1.0000      -6.004086      -163.3795
  61   1.0000      -6.000380      -163.2786
  62   1.0000      -6.000228      -163.2745
  63   1.0000      -5.998356      -163.2236
  64   1.0000      -5.995552      -163.1473
  65   1.0000      -5.994935      -163.1305
  66   1.0000      -5.994258      -163.1120
  67   1.0000      -5.991630      -163.0406
  68   1.0000      -5.989988      -162.9959
  69   1.0000      -5.989373      -162.9791
  70   1.0000      -5.986327      -162.8962
  71   1.0000      -5.984607      -162.8494
  72   1.0000      -5.980415      -162.7354
  73   1.0000      -1.165643       -31.7188
  74   1.0000      -1.155397       -31.4400
  75   1.0000      -1.138163       -30.9710
  76   1.0000      -1.111941       -30.2575
  77   1.0000      -1.088006       -29.6062
  78   1.0000      -0.997980       -27.1564
  79   1.0000      -0.991429       -26.9782
  80   1.0000      -0.982754       -26.7421
  81   1.0000      -0.975615       -26.5478
  82   1.0000      -0.968090       -26.3431
  83   1.0000      -0.961040       -26.1512
  84   1.0000      -0.953725       -25.9522
  85   1.0000      -0.953130       -25.9360
  86   1.0000      -0.890037       -24.2191
  87   1.0000      -0.882244       -24.0071
  88   1.0000      -0.858938       -23.3729
  89   1.0000      -0.855882       -23.2897
  90   1.0000      -0.852499       -23.1977
  91   1.0000      -0.846217       -23.0267
  92   1.0000      -0.837055       -22.7774
  93   1.0000      -0.830333       -22.5945
  94   1.0000      -0.816787       -22.2259
  95   1.0000      -0.815825       -22.1997
  96   1.0000      -0.805339       -21.9144
  97   1.0000      -0.797323       -21.6963
  98   1.0000      -0.793184       -21.5836
  99   1.0000      -0.779727       -21.2175
 100   1.0000      -0.759615       -20.6702
 101   1.0000      -0.750122       -20.4119
 102   1.0000      -0.716978       -19.5100
 103   1.0000      -0.713564       -19.4171
 104   1.0000      -0.695549       -18.9268
 105   1.0000      -0.689767       -18.7695
 106   1.0000      -0.675296       -18.3757
 107   1.0000      -0.672430       -18.2978
 108   1.0000      -0.670530       -18.2461
 109   1.0000      -0.664270       -18.0757
 110   1.0000      -0.641510       -17.4564
 111   1.0000      -0.632928       -17.2228
 112   1.0000      -0.629007       -17.1161
 113   1.0000      -0.624287       -16.9877
 114   1.0000      -0.614799       -16.7295
 115   1.0000      -0.610283       -16.6067
 116   1.0000      -0.607895       -16.5417
 117   1.0000      -0.603528       -16.4228
 118   1.0000      -0.595827       -16.2133
 119   1.0000      -0.591325       -16.0908
 120   1.0000      -0.588979       -16.0269
 121   1.0000      -0.584584       -15.9073
 122   1.0000      -0.575945       -15.6723
 123   1.0000      -0.565772       -15.3954
 124   1.0000      -0.556610       -15.1461
 125   1.0000      -0.551170       -14.9981
 126   1.0000      -0.545433       -14.8420
 127   1.0000      -0.538419       -14.6511
 128   1.0000      -0.530705       -14.4412
 129   1.0000      -0.526409       -14.3243
 130   1.0000      -0.525452       -14.2983
 131   1.0000      -0.520555       -14.1650
 132   1.0000      -0.516752       -14.0615
 133   1.0000      -0.514766       -14.0075
 134   1.0000      -0.511216       -13.9109
 135   1.0000      -0.502287       -13.6679
 136   1.0000      -0.499933       -13.6039
 137   1.0000      -0.496271       -13.5042
 138   1.0000      -0.491694       -13.3797
 139   1.0000      -0.489933       -13.3318
 140   1.0000      -0.488996       -13.3063
 141   1.0000      -0.485655       -13.2153
 142   1.0000      -0.482671       -13.1341
 143   1.0000      -0.480275       -13.0689
 144   1.0000      -0.478185       -13.0121
 145   1.0000      -0.473981       -12.8977
 146   1.0000      -0.470855       -12.8126
 147   1.0000      -0.469238       -12.7686
 148   1.0000      -0.462673       -12.5900
 149   1.0000      -0.461467       -12.5571
 150   1.0000      -0.458964       -12.4890
 151   1.0000      -0.452813       -12.3217
 152   1.0000      -0.450377       -12.2554
 153   1.0000      -0.445335       -12.1182
 154   1.0000      -0.440718       -11.9925
 155   1.0000      -0.439408       -11.9569
 156   1.0000      -0.433754       -11.8031
 157   1.0000      -0.429056       -11.6752
 158   1.0000      -0.422037       -11.4842
 159   1.0000      -0.420195       -11.4341
 160   1.0000      -0.418354       -11.3840
 161   1.0000      -0.415157       -11.2970
 162   1.0000      -0.411132       -11.1875
 163   1.0000      -0.404681       -11.0119
 164   1.0000      -0.401810       -10.9338
 165   1.0000      -0.395447       -10.7607
 166   1.0000      -0.392607       -10.6834
 167   1.0000      -0.385259       -10.4834
 168   1.0000      -0.377598       -10.2750
 169   1.0000      -0.376214       -10.2373
 170   1.0000      -0.371168       -10.1000
 171   1.0000      -0.361110        -9.8263
 172   1.0000      -0.347892        -9.4666
 173   1.0000      -0.344704        -9.3799
 174   1.0000      -0.325425        -8.8553
 175   1.0000      -0.321455        -8.7472
 176   1.0000      -0.319028        -8.6812
 177   1.0000      -0.305175        -8.3042
 178   1.0000      -0.304452        -8.2846
 179   1.0000      -0.301841        -8.2135
 180   1.0000      -0.299799        -8.1579
 181   1.0000      -0.294403        -8.0111
 182   1.0000      -0.276964        -7.5366
 183   1.0000      -0.267075        -7.2675
 184   1.0000      -0.249452        -6.7879
 185   1.0000      -0.230973        -6.2851
 186   1.0000      -0.212406        -5.7799
 187   0.0000      -0.068735        -1.8704
 188   0.0000      -0.052325        -1.4238
 189   0.0000      -0.030270        -0.8237
 190   0.0000      -0.016857        -0.4587
 191   0.0000       0.019173         0.5217

MULLIKEN ATOMIC CHARGES AND SPIN POPULATIONS
--------------------------------------------
   0 C :   -0.023919    0.419547
   1 C :   -0.070641   -0.209739
   2 C :    0.046431    0.319920
   3 C :    0.027016   -0.233704
   4 C :   -0.065096    0.373008
   5 S :    0.076724    0.030063
   6 C :   -0.056781   -0.283919
   7 C :   -0.012071    0.267818
   8 C :    0.085595   -0.242624
   9 C :   -0.123844    0.263455
  10 S :    0.095735    0.006512
  11 C :    0.111255   -0.294346
  12 C :   -0.209997    0.202415
  13 C :    0.123828   -0.120363
  14 C :    0.202000    0.017111
  15 C :   -0.230174   -0.017882
  16 S :    0.453571   -0.003270
  17 O :   -0.405926    0.008998
  18 O :   -0.285933    0.004655
  19 C :   -0.299724    0.030747
  20 C :    0.189846   -0.044728
  21 C :    0.132771    0.023069
  22 C :   -0.156187   -0.047989
  23 S :    0.147342    0.021396
  24 O :   -0.338450    0.000076
  25 O :   -0.254227    0.001416
  26 C :   -0.352796   -0.094823
  27 C :    0.162389    0.214363
  28 C :    0.168769   -0.037710
  29 C :   -0.155329    0.067334
  30 S :    0.539338    0.017405
  31 O :   -0.368978    0.012816
  32 O :   -0.145865    0.000592
  33 C :    0.000350   -0.288127
  34 C :   -0.104961    0.247719
  35 C :    0.055234   -0.242405
  36 C :    0.028461    0.248774
  37 C :   -0.038260   -0.289522
  38 S :    0.114519    0.036575
  39 C :   -0.052920    0.364863
  40 C :    0.037577   -0.228795
  41 C :    0.047677    0.304387
  42 C :   -0.065749   -0.201030
  43 S :    0.080148    0.030328
  44 C :   -0.027021    0.399129
  45 H :    0.018547   -0.018857
  46 H :    0.019135   -0.019576
  47 H :   -0.014961   -0.013527
  48 H :   -0.016690    0.008625
  49 H :   -0.023298   -0.010916
  50 H :   -0.000782    0.009316
  51 H :   -0.028896    0.015565
  52 H :    0.009442    0.000557
  53 H :    0.180758    0.001446
  54 H :    0.150651    0.000008
  55 H :   -0.009959    0.002132
  56 H :    0.134723    0.000004
  57 H :    0.195347    0.000136
  58 H :    0.019519   -0.002787
  59 H :    0.192590    0.002334
  60 H :    0.190128   -0.000721
  61 H :   -0.045828    0.014088
  62 H :   -0.029872    0.009495
  63 H :   -0.025009   -0.009821
  64 H :   -0.014101    0.008454
  65 H :   -0.015356   -0.012830
  66 H :    0.018115   -0.017980
  67 H :    0.014071   -0.018661
Sum of atomic charges         :   -0.0000000

LOEWDIN ATOMIC CHARGES AND SPIN POPULATIONS
-------------------------------------------
   0 C :   -0.075271    0.329702
   1 C :   -0.144373   -0.122334
   2 C :   -0.039988    0.236752
   3 C :   -0.035818   -0.146830
   4 C :   -0.182630    0.271563
   5 S :    0.354761    0.033729
   6 C :   -0.193682   -0.186528
   7 C :   -0.054361    0.185945
   8 C :   -0.035567   -0.163807
   9 C :   -0.167807    0.181014
  10 S :    0.402251    0.005878
  11 C :   -0.086635   -0.197383
  12 C :   -0.163280    0.126486
  13 C :   -0.108824   -0.074860
  14 C :    0.055620    0.008728
  15 C :   -0.378256   -0.014019
  16 S :    0.873679    0.000604
  17 O :   -0.314105    0.010099
  18 O :   -0.224470    0.004765
  19 C :   -0.179646    0.017091
  20 C :   -0.106226   -0.036271
  21 C :   -0.009043    0.011162
  22 C :   -0.246298   -0.036880
  23 S :    0.446078    0.017816
  24 O :   -0.172900    0.000073
  25 O :   -0.084672    0.002069
  26 C :   -0.246129   -0.064835
  27 C :   -0.090050    0.136018
  28 C :    0.079643   -0.015935
  29 C :   -0.276261    0.053271
  30 S :    0.942154    0.013822
  31 O :   -0.263896    0.015081
  32 O :   -0.014217   -0.000028
  33 C :   -0.064634   -0.191041
  34 C :   -0.158026    0.167020
  35 C :   -0.030079   -0.168165
  36 C :   -0.042122    0.169767
  37 C :   -0.173413   -0.191219
  38 S :    0.446811    0.030564
  39 C :   -0.167502    0.265689
  40 C :   -0.026804   -0.145051
  41 C :   -0.035466    0.224861
  42 C :   -0.142571   -0.117646
  43 S :    0.359767    0.033915
  44 C :   -0.077351    0.313332
  45 H :    0.027650    0.000006
  46 H :    0.024595    0.000075
  47 H :    0.031191   -0.000072
  48 H :    0.030732   -0.000145
  49 H :    0.028172    0.000074
  50 H :    0.038949   -0.000497
  51 H :    0.019818    0.002529
  52 H :    0.018887   -0.000333
  53 H :    0.054484    0.001281
  54 H :    0.041112    0.000060
  55 H :    0.016131   -0.000151
  56 H :    0.056733    0.000013
  57 H :    0.101635    0.000187
  58 H :    0.026533    0.000130
  59 H :    0.053030    0.001954
  60 H :    0.097683   -0.000559
  61 H :    0.018677    0.001650
  62 H :    0.023540   -0.000087
  63 H :    0.028248    0.000060
  64 H :    0.032382   -0.000099
  65 H :    0.031434   -0.000120
  66 H :    0.027422   -0.000009
  67 H :    0.022567    0.000073

  Mayer bond orders larger than 0.100000
B(  0-C ,  1-C ) :   1.7681 B(  0-C , 45-H ) :   0.9507 B(  0-C , 46-H ) :   0.9417
B(  1-C ,  2-C ) :   1.1265 B(  1-C ,  5-S ) :   1.0193 B(  2-C ,  3-C ) :   1.5402
B(  2-C , 47-H ) :   0.9928 B(  3-C ,  4-C ) :   1.2403 B(  3-C , 48-H ) :   0.9930
B(  4-C ,  5-S ) :   1.0716 B(  4-C ,  6-C ) :   1.3564 B(  6-C ,  7-C ) :   1.2715
B(  6-C , 10-S ) :   1.0866 B(  7-C ,  8-C ) :   1.4531 B(  7-C , 49-H ) :   0.9975
B(  8-C ,  9-C ) :   1.2810 B(  8-C , 50-H ) :   0.9699 B(  9-C , 10-S ) :   1.0754
B(  9-C , 11-C ) :   1.3732 B( 11-C , 12-C ) :   1.3435 B( 11-C , 51-H ) :   0.9242
B( 12-C , 13-C ) :   1.3535 B( 12-C , 16-S ) :   0.9726 B( 13-C , 14-C ) :   0.9450
B( 13-C , 19-C ) :   1.3530 B( 14-C , 15-C ) :   1.2294 B( 14-C , 18-O ) :   1.8544
B( 15-C , 16-S ) :   1.2617 B( 15-C , 52-H ) :   0.9639 B( 16-S , 17-O ) :   0.7634
B( 17-O , 53-H ) :   0.9631 B( 19-C , 20-C ) :   1.3116 B( 19-C , 23-S ) :   1.1072
B( 20-C , 21-C ) :   1.1751 B( 20-C , 26-C ) :   1.2275 B( 21-C , 22-C ) :   1.5865
B( 21-C , 25-O ) :   1.0962 B( 22-C , 23-S ) :   1.0417 B( 22-C , 55-H ) :   0.9750
B( 24-O , 54-H ) :   0.9766 B( 24-O , 56-H ) :   1.0115 B( 25-O , 57-H ) :   0.9553
B( 26-C , 27-C ) :   1.2420 B( 26-C , 30-S ) :   1.0538 B( 27-C , 28-C ) :   1.0406
B( 27-C , 33-C ) :   1.2988 B( 28-C , 29-C ) :   1.5913 B( 28-C , 32-O ) :   1.2964
B( 29-C , 30-S ) :   1.0257 B( 29-C , 58-H ) :   0.9702 B( 30-S , 31-O ) :   0.9071
B( 31-O , 59-H ) :   0.9387 B( 32-O , 60-H ) :   0.9549 B( 33-C , 34-C ) :   1.4070
B( 33-C , 61-H ) :   0.9132 B( 34-C , 35-C ) :   1.2432 B( 34-C , 38-S ) :   1.1003
B( 35-C , 36-C ) :   1.4621 B( 35-C , 62-H ) :   0.9856 B( 36-C , 37-C ) :   1.2590
B( 36-C , 63-H ) :   0.9923 B( 37-C , 38-S ) :   1.0772 B( 37-C , 39-C ) :   1.3862
B( 39-C , 40-C ) :   1.2259 B( 39-C , 43-S ) :   1.0743 B( 40-C , 41-C ) :   1.5575
B( 40-C , 64-H ) :   0.9915 B( 41-C , 42-C ) :   1.1196 B( 41-C , 65-H ) :   0.9926
B( 42-C , 43-S ) :   1.0209 B( 42-C , 44-C ) :   1.7783 B( 44-C , 66-H ) :   0.9499
B( 44-C , 67-H ) :   0.9418

-----------------------------------------------------------------------------
         ABSORPTION SPECTRUM VIA TRANSITION ELECTRIC DIPOLE MOMENTS
-----------------------------------------------------------------------------
State   Energy  Wavelength   fosc         T2         TX        TY        TZ
        (cm-1)    (nm)                  (au**2)     (au)      (au)      (au)
-----------------------------------------------------------------------------
   0    9759.9   1024.6   0.082567162   2.78509  -0.65912  -1.47552  -0.41651
   1   13125.7    761.9   0.281494799   7.06032   0.59085   2.40085   0.97321
   2   14695.5    680.5   0.006059135   0.13574  -0.19540   0.20343   0.23701
   3   15603.0    640.9   0.182274705   3.84585   0.11534   1.45103   1.31418
   4   16471.1    607.1   0.506242501  10.11838  -0.47163  -2.33871  -2.10390
   5   16717.9    598.2   0.092441696   1.82038   0.10020   0.95501   0.94778
   6   17507.5    571.2   0.008619042   0.16207   0.13464  -0.21068   0.31552
   7   18990.4    526.6   0.006651443   0.11531   0.20297  -0.11106   0.24855
   8   19467.9    513.7   0.020183176   0.34131   0.20570  -0.09584  -0.53834
   9   20858.0    479.4   0.325247636   5.13354  -0.32784   0.95117   2.03010
  10   21496.1    465.2   0.191077344   2.92634  -0.42172   1.25295   1.08564
  11   21768.0    459.4   0.016784155   0.25384  -0.42039   0.02096  -0.27690
  12   22311.8    448.2   0.029829946   0.44014  -0.28661   0.59626   0.04970
  13   22756.2    439.4   0.015876624   0.22969   0.16446  -0.36426   0.26449
  14   24015.2    416.4   0.055266609   0.75762   0.01879   0.49690   0.71439
  15   24476.8    408.6   0.027472001   0.36950   0.21718  -0.55727   0.10853
  16   24911.4    401.4   0.112491341   1.48661   0.56341  -0.44755   0.98431
  17   25990.3    384.8   0.010430966   0.13213  -0.26219   0.19017   0.16498
  18   26590.2    376.1   0.006188851   0.07662   0.04945  -0.01549  -0.27192
  19   26786.4    373.3   0.056419983   0.69342   0.58380  -0.59325   0.02532
  20   26968.7    370.8   0.152719649   1.86428  -0.11329   0.38216   1.30591
  21   27150.3    368.3   0.021840747   0.26483   0.49321  -0.05183  -0.13744
  22   27302.5    366.3   0.056817449   0.68510  -0.45728   0.67047   0.16269
  23   27869.3    358.8   0.002567737   0.03033  -0.00096  -0.14300  -0.09941
  24   28118.4    355.6   0.063972213   0.74899  -0.33358   0.40299   0.68943
  25   28574.0    350.0   0.003979735   0.04585  -0.10129  -0.04652  -0.18283
  26   28758.8    347.7   0.016888513   0.19333  -0.03985  -0.11451  -0.42264
  27   28947.2    345.5   0.017887157   0.20343  -0.03744   0.31766   0.31799
  28   29258.4    341.8   0.070603405   0.79442   0.06384  -0.24679  -0.85407
  29   29530.3    338.6   0.032893748   0.36671   0.33300  -0.28849   0.41544
  30   29644.8    337.3   0.069953114   0.77685   0.49527  -0.56534  -0.46038
  31   29806.3    335.5   0.011950333   0.13199  -0.06836   0.05138   0.35310
  32   30280.0    330.3   0.016525236   0.17967   0.10338   0.01773  -0.41069
  33   30748.5    325.2   0.014603584   0.15636  -0.15185  -0.05374  -0.36112
  34   31076.8    321.8   0.017464966   0.18502  -0.33203   0.21032  -0.17475
  35   31479.4    317.7   0.015162837   0.15857   0.14338  -0.29954   0.21975
  36   31643.0    316.0   0.138703616   1.44307  -0.69594   0.33218   0.92108
  37   31881.7    313.7   0.009092332   0.09389   0.06150   0.22413   0.19968
  38   31953.2    313.0   0.035175894   0.36242   0.29733  -0.39581   0.34256
  39   32247.0    310.1   0.050876196   0.51940   0.38137  -0.55967   0.24643
  40   32574.7    307.0   0.046274471   0.46767  -0.09942   0.12751  -0.66447
  41   32735.4    305.5   0.024319601   0.24458  -0.15282   0.05032  -0.46764
  42   33095.4    302.2   0.007158637   0.07121  -0.25327   0.04980   0.06769
  43   33194.6    301.3   0.016290859   0.16157   0.26318  -0.24794   0.17558
  44   33416.3    299.3   0.015099327   0.14876  -0.27241  -0.27230   0.02014
  45   33441.1    299.0   0.023846850   0.23476  -0.12748   0.15861  -0.43972
  46   33722.7    296.5   0.002795217   0.02729   0.12270   0.01837   0.10906
  47   33772.3    296.1   0.014180871   0.13823   0.32847  -0.15331  -0.08269
  48   34192.2    292.5   0.037238430   0.35854   0.46083  -0.11869   0.36344
  49   34411.4    290.6   0.033094967   0.31662   0.13307  -0.05740  -0.54370
  50   34950.9    286.1   0.020755312   0.19550   0.18864  -0.23657  -0.32242
  51   35067.2    285.2   0.093809434   0.88069  -0.37553   0.08870  -0.85545
  52   35302.4    283.3   0.004734630   0.04415  -0.02194   0.06885   0.19731
  53   35357.2    282.8   0.052892980   0.49249  -0.04216  -0.27429  -0.64458
  54   35400.3    282.5   0.101186699   0.94100  -0.87875   0.40207  -0.08449
  55   35495.5    281.7   0.096561847   0.89559  -0.49376   0.72680   0.35150
  56   35893.9    278.6   0.060062876   0.55089   0.31909  -0.59854  -0.30137
  57   35956.1    278.1   0.006157992   0.05638  -0.06398  -0.22724  -0.02548
  58   36055.0    277.4   0.008657410   0.07905  -0.02479   0.03284   0.27813
  59   36210.9    276.2   0.007849646   0.07137   0.19053  -0.18703  -0.00912
  60   36320.0    275.3   0.006067080   0.05499  -0.02766  -0.05357  -0.22662
  61   36461.5    274.3   0.030459853   0.27502  -0.22444   0.09790  -0.46375
  62   36576.7    273.4   0.010811830   0.09731  -0.02513  -0.06304  -0.30448
  63   36846.1    271.4   0.024540544   0.21926   0.44341  -0.08590  -0.12357
  64   36899.2    271.0   0.056554846   0.50458  -0.47877   0.36851  -0.37357
  65   37112.5    269.5   0.046737906   0.41460   0.38852  -0.35591   0.37011
  66   37200.3    268.8   0.017628939   0.15601   0.07910   0.08862   0.37670
  67   37395.2    267.4   0.008180310   0.07202   0.14395  -0.22589  -0.01640
  68   37625.1    265.8   0.006133662   0.05367  -0.22286   0.01112  -0.06229
  69   37768.7    264.8   0.006177130   0.05384   0.04469   0.22622   0.02591
  70   38146.9    262.1   0.010830773   0.09347   0.25786  -0.14572  -0.07580
  71   38372.3    260.6   0.023984381   0.20577   0.29286  -0.15650   0.30905
  72   38420.1    260.3   0.037253315   0.31921   0.31559  -0.45439  -0.11468
  73   38608.9    259.0   0.006547197   0.05583   0.07722  -0.04546  -0.21863
  74   38775.6    257.9   0.026474839   0.22478   0.40084  -0.23964  -0.08170
  75   38856.5    257.4   0.002355375   0.01996   0.01661   0.01112  -0.13984
  76   38910.4    257.0   0.007418553   0.06277   0.01326   0.00038  -0.25018
  77   39150.8    255.4   0.042823769   0.36010  -0.19422   0.21305  -0.52629
  78   39191.0    255.2   0.010924678   0.09177   0.13039  -0.05685  -0.26746
  79   39408.5    253.8   0.039776661   0.33229  -0.44714   0.36363   0.01109
  80   39514.5    253.1   0.038102953   0.31745  -0.47711   0.29906  -0.01961
  81   39540.5    252.9   0.011366811   0.09464  -0.09373   0.28432   0.07083
  82   39643.6    252.2   0.000680371   0.00565   0.00575  -0.07467   0.00639
  83   39852.5    250.9   0.050887016   0.42037  -0.52011   0.34118   0.18289
  84   39934.3    250.4   0.014426913   0.11893   0.08706  -0.25337   0.21716
  85   40018.4    249.9   0.017554423   0.14441   0.27242  -0.24342  -0.10462
  86   40131.4    249.2   0.047610367   0.39056   0.46534  -0.37829   0.17583

FINAL SINGLE POINT ENERGY     -4468.693735568310

DIPOLE MOMENT
-------------
                                X             Y             Z
Electronic contribution:      8.24248      -6.82889      -3.75624
Nuclear contribution   :     -7.35966       6.70717       2.14322
                        -----------------------------------------
Total Dipole Moment    :      0.88281      -0.12172      -1.61302
                        -----------------------------------------
Magnitude (a.u.)       :      1.84283
Magnitude (Debye)      :      4.68410

Rotational constants in cm-1:     0.003804     0.001274     0.001181
Rotational constants in MHz :   114.034096    38.182670    35.407155

                             ****ORCA TERMINATED NORMALLY****
TOTAL RUN TIME: 0 days 0 hours 18 minutes 2 seconds 111 msec
