                         Program Version 4.2.0 -  RELEASE  -
|  1> # ORCA input file
|  2> # SCF done       -137.899008488483          0.000843314199
|  3> ! CAM-B3LYP def2-SVP def2/J RIJCOSX Grid4 TightSCF
|  4> %maxcore 5000
|  5> %tddft
|  6>     Mode sTDDFT
|  7>     Ethresh 5.0
|  8>     maxcore 5000
|  9> end
| 10>
| 11> %pal
| 12>   nprocs 6
| 13>   end
| 14> * xyz 0 1
| 15>    C        5.26005         2.34554         2.19887
| 16>    C        6.21364         1.47890         1.83324
| 17>    C        7.63657         1.66158         1.89784
| 18>    C        8.35542         0.61005         1.45049
| 19>    C        7.56983        -0.48742         0.99502
| 20>    S        5.86283        -0.12589         1.16879
| 21>    C        8.01415        -1.67229         0.46739
| 22>    C        9.35039        -2.07961         0.21605
| 23>    C        9.45102        -3.29209        -0.38035
| 24>    C        8.20381        -3.92437        -0.65624
| 25>    S        6.89571        -2.91672        -0.05956
| 26>    C        8.05242        -5.14528        -1.24497
| 27>    C        6.84270        -5.80247        -1.59751
| 28>    N        6.93613        -7.19698        -1.65406
| 29>    C        5.85833        -7.82236        -1.71688
| 30>    C        5.56910        -9.26189        -1.78599
| 31>    C        4.14207        -9.43708        -1.25023
| 32>    N        3.37626        -8.40351        -1.88935
| 33>    S        4.32728        -6.78080        -1.73591
| 34>    C        5.58279        -5.33707        -1.86064
| 35>    C        5.03819        -4.06394        -2.09090
| 36>    O        3.75310        -3.87887        -1.71057
| 37>    C        3.36300        -2.63712        -2.08828
| 38>    C        4.39476        -2.01400        -2.76126
| 39>    C        5.46887        -2.92101        -2.77045
| 40>    C        6.73340        -2.70557        -3.51197
| 41>    F        7.37828        -3.84511        -3.81568
| 42>    F        6.51350        -2.08332        -4.68782
| 43>    F        7.63256        -1.93065        -2.86915
| 44>    C        2.04949        -2.16470        -1.80469
| 45>    N        1.78581        -0.85742        -2.16253
| 46>    C        0.58766        -0.49660        -2.05291
| 47>    C       -0.05240         0.80549        -2.29331
| 48>    C       -1.53766         0.50860        -2.54042
| 49>    N       -1.89842        -0.43014        -1.51592
| 50>    S       -0.58762        -1.78744        -1.47497
| 51>    C        0.97923        -2.84924        -1.25259
| 52>    C        0.97235        -4.16118        -0.79349
| 53>    C       -0.13694        -4.91170        -0.47503
| 54>    C       -0.11362        -6.25064        -0.01459
| 55>    C       -1.34016        -6.80774         0.17696
| 56>    C       -2.41472        -5.93635        -0.11961
| 57>    S       -1.79897        -4.37593        -0.64104
| 58>    C       -3.76418        -6.19064        -0.03722
| 59>    C       -4.39758        -7.39080         0.38499
| 60>    C       -5.74890        -7.35119         0.35274
| 61>    C       -6.29481        -6.10450        -0.09991
| 62>    S       -4.96765        -4.99321        -0.47572
| 63>    C       -7.58674        -5.77546        -0.23967
| 64>    H        5.51805         3.31074         2.59770
| 65>    H        4.21621         2.10877         2.10538
| 66>    H        8.05440         2.57830         2.27497
| 67>    H        9.43013         0.57519         1.42402
| 68>    H       10.18911        -1.45744         0.47170
| 69>    H       10.37780        -3.75936        -0.66291
| 70>    H        8.94690        -5.72920        -1.41477
| 71>    H        6.30308        -9.84268        -1.22902
| 72>    H        5.59545        -9.57162        -2.83472
| 73>    H        4.15092        -9.35375        -0.14823
| 74>    H        3.75357       -10.42668        -1.50994
| 75>    H        2.45304        -8.30420        -1.48707
| 76>    H        4.08372        -6.65549        -3.04648
| 77>    H        4.37246        -1.03484        -3.19124
| 78>    H        0.41753         1.33099        -3.12365
| 79>    H        0.04279         1.41623        -1.39064
| 80>    H       -1.66787         0.10782        -3.56191
| 81>    H       -2.13145         1.42455        -2.45980
| 82>    H       -2.80752        -0.84519        -1.67583
| 83>    H       -0.63630        -1.60724        -0.14749
| 84>    H        1.92701        -4.65260        -0.64933
| 85>    H        0.81988        -6.75826         0.15703
| 86>    H       -1.50241        -7.81597         0.51406
| 87>    H       -3.82352        -8.24496         0.69836
| 88>    H       -6.39592        -8.16341         0.63315
| 89>    H       -8.36198        -6.48214        -0.00172
| 90>    H       -7.88839        -4.80590        -0.59085
| 91> *
| 92>
| 93>                          ****END OF INPUT****

CARTESIAN COORDINATES (ANGSTROEM)
---------------------------------
  C      5.260050    2.345540    2.198870
  C      6.213640    1.478900    1.833240
  C      7.636570    1.661580    1.897840
  C      8.355420    0.610050    1.450490
  C      7.569830   -0.487420    0.995020
  S      5.862830   -0.125890    1.168790
  C      8.014150   -1.672290    0.467390
  C      9.350390   -2.079610    0.216050
  C      9.451020   -3.292090   -0.380350
  C      8.203810   -3.924370   -0.656240
  S      6.895710   -2.916720   -0.059560
  C      8.052420   -5.145280   -1.244970
  C      6.842700   -5.802470   -1.597510
  N      6.936130   -7.196980   -1.654060
  C      5.858330   -7.822360   -1.716880
  C      5.569100   -9.261890   -1.785990
  C      4.142070   -9.437080   -1.250230
  N      3.376260   -8.403510   -1.889350
  S      4.327280   -6.780800   -1.735910
  C      5.582790   -5.337070   -1.860640
  C      5.038190   -4.063940   -2.090900
  O      3.753100   -3.878870   -1.710570
  C      3.363000   -2.637120   -2.088280
  C      4.394760   -2.014000   -2.761260
  C      5.468870   -2.921010   -2.770450
  C      6.733400   -2.705570   -3.511970
  F      7.378280   -3.845110   -3.815680
  F      6.513500   -2.083320   -4.687820
  F      7.632560   -1.930650   -2.869150
  C      2.049490   -2.164700   -1.804690
  N      1.785810   -0.857420   -2.162530
  C      0.587660   -0.496600   -2.052910
  C     -0.052400    0.805490   -2.293310
  C     -1.537660    0.508600   -2.540420
  N     -1.898420   -0.430140   -1.515920
  S     -0.587620   -1.787440   -1.474970
  C      0.979230   -2.849240   -1.252590
  C      0.972350   -4.161180   -0.793490
  C     -0.136940   -4.911700   -0.475030
  C     -0.113620   -6.250640   -0.014590
  C     -1.340160   -6.807740    0.176960
  C     -2.414720   -5.936350   -0.119610
  S     -1.798970   -4.375930   -0.641040
  C     -3.764180   -6.190640   -0.037220
  C     -4.397580   -7.390800    0.384990
  C     -5.748900   -7.351190    0.352740
  C     -6.294810   -6.104500   -0.099910
  S     -4.967650   -4.993210   -0.475720
  C     -7.586740   -5.775460   -0.239670
  H      5.518050    3.310740    2.597700
  H      4.216210    2.108770    2.105380
  H      8.054400    2.578300    2.274970
  H      9.430130    0.575190    1.424020
  H     10.189110   -1.457440    0.471700
  H     10.377800   -3.759360   -0.662910
  H      8.946900   -5.729200   -1.414770
  H      6.303080   -9.842680   -1.229020
  H      5.595450   -9.571620   -2.834720
  H      4.150920   -9.353750   -0.148230
  H      3.753570  -10.426680   -1.509940
  H      2.453040   -8.304200   -1.487070
  H      4.083720   -6.655490   -3.046480
  H      4.372460   -1.034840   -3.191240
  H      0.417530    1.330990   -3.123650
  H      0.042790    1.416230   -1.390640
  H     -1.667870    0.107820   -3.561910
  H     -2.131450    1.424550   -2.459800
  H     -2.807520   -0.845190   -1.675830
  H     -0.636300   -1.607240   -0.147490
  H      1.927010   -4.652600   -0.649330
  H      0.819880   -6.758260    0.157030
  H     -1.502410   -7.815970    0.514060
  H     -3.823520   -8.244960    0.698360
  H     -6.395920   -8.163410    0.633150
  H     -8.361980   -6.482140   -0.001720
  H     -7.888390   -4.805900   -0.590850

 Total Charge           Charge          ....    0
 Multiplicity           Mult            ....    1
 Number of Electrons    NEL             ....  396
 Basis Dimension        Dim             ....  845

ORBITAL ENERGIES
----------------

  NO   OCC          E(Eh)            E(eV)
   0   2.0000     -89.024084     -2422.4685
   1   2.0000     -89.022129     -2422.4153
   2   2.0000     -88.938715     -2420.1455
   3   2.0000     -88.933285     -2419.9977
   4   2.0000     -88.932842     -2419.9857
   5   2.0000     -88.931900     -2419.9600
   6   2.0000     -24.780239      -674.3046
   7   2.0000     -24.776276      -674.1967
   8   2.0000     -24.774449      -674.1470
   9   2.0000     -19.287018      -524.8264
  10   2.0000     -14.413002      -392.1977
  11   2.0000     -14.412805      -392.1924
  12   2.0000     -14.354490      -390.6055
  13   2.0000     -14.346467      -390.3872
  14   2.0000     -10.500282      -285.7272
  15   2.0000     -10.337110      -281.2871
  16   2.0000     -10.334177      -281.2073
  17   2.0000     -10.330238      -281.1001
  18   2.0000     -10.321322      -280.8575
  19   2.0000     -10.303928      -280.3841
  20   2.0000     -10.303411      -280.3701
  21   2.0000     -10.302994      -280.3587
  22   2.0000     -10.301973      -280.3309
  23   2.0000     -10.301423      -280.3160
  24   2.0000     -10.300964      -280.3035
  25   2.0000     -10.300481      -280.2903
  26   2.0000     -10.298398      -280.2337
  27   2.0000     -10.298345      -280.2322
  28   2.0000     -10.297624      -280.2126
  29   2.0000     -10.286166      -279.9008
  30   2.0000     -10.284509      -279.8557
  31   2.0000     -10.284077      -279.8440
  32   2.0000     -10.280861      -279.7565
  33   2.0000     -10.280137      -279.7368
  34   2.0000     -10.279906      -279.7305
  35   2.0000     -10.279112      -279.7089
  36   2.0000     -10.278593      -279.6947
  37   2.0000     -10.277660      -279.6694
  38   2.0000     -10.276928      -279.6494
  39   2.0000     -10.276480      -279.6372
  40   2.0000     -10.274020      -279.5703
  41   2.0000     -10.272142      -279.5192
  42   2.0000     -10.270377      -279.4712
  43   2.0000     -10.266639      -279.3695
  44   2.0000     -10.265042      -279.3260
  45   2.0000     -10.264617      -279.3144
  46   2.0000     -10.264485      -279.3108
  47   2.0000     -10.259464      -279.1742
  48   2.0000     -10.256780      -279.1012
  49   2.0000      -8.104162      -220.5255
  50   2.0000      -8.101488      -220.4527
  51   2.0000      -8.034569      -218.6317
  52   2.0000      -8.029666      -218.4983
  53   2.0000      -8.028804      -218.4749
  54   2.0000      -8.028535      -218.4675
  55   2.0000      -6.074160      -165.2863
  56   2.0000      -6.071436      -165.2122
  57   2.0000      -6.070862      -165.1965
  58   2.0000      -6.068266      -165.1259
  59   2.0000      -6.067582      -165.1073
  60   2.0000      -6.065107      -165.0399
  61   2.0000      -6.004424      -163.3887
  62   2.0000      -6.000348      -163.2778
  63   2.0000      -5.999502      -163.2547
  64   2.0000      -5.998616      -163.2306
  65   2.0000      -5.998365      -163.2238
  66   2.0000      -5.995583      -163.1481
  67   2.0000      -5.995340      -163.1415
  68   2.0000      -5.994501      -163.1187
  69   2.0000      -5.994443      -163.1171
  70   2.0000      -5.990153      -163.0003
  71   2.0000      -5.989683      -162.9876
  72   2.0000      -5.989050      -162.9703
  73   2.0000      -1.366246       -37.1774
  74   2.0000      -1.269772       -34.5523
  75   2.0000      -1.264735       -34.4152
  76   2.0000      -1.206484       -32.8301
  77   2.0000      -1.058766       -28.8105
  78   2.0000      -1.057864       -28.7859
  79   2.0000      -0.986383       -26.8409
  80   2.0000      -0.983972       -26.7752
  81   2.0000      -0.976497       -26.5718
  82   2.0000      -0.972450       -26.4617
  83   2.0000      -0.963429       -26.2162
  84   2.0000      -0.960573       -26.1385
  85   2.0000      -0.912568       -24.8322
  86   2.0000      -0.903320       -24.5806
  87   2.0000      -0.898421       -24.4473
  88   2.0000      -0.882694       -24.0193
  89   2.0000      -0.871743       -23.7213
  90   2.0000      -0.868896       -23.6439
  91   2.0000      -0.859996       -23.4017
  92   2.0000      -0.845166       -22.9981
  93   2.0000      -0.838238       -22.8096
  94   2.0000      -0.838077       -22.8052
  95   2.0000      -0.836834       -22.7714
  96   2.0000      -0.830104       -22.5883
  97   2.0000      -0.817672       -22.2500
  98   2.0000      -0.812035       -22.0966
  99   2.0000      -0.807875       -21.9834
 100   2.0000      -0.798330       -21.7237
 101   2.0000      -0.780751       -21.2453
 102   2.0000      -0.772444       -21.0193
 103   2.0000      -0.756798       -20.5935
 104   2.0000      -0.731191       -19.8967
 105   2.0000      -0.717464       -19.5232
 106   2.0000      -0.703193       -19.1349
 107   2.0000      -0.700838       -19.0708
 108   2.0000      -0.683616       -18.6021
 109   2.0000      -0.681183       -18.5359
 110   2.0000      -0.676637       -18.4122
 111   2.0000      -0.672658       -18.3040
 112   2.0000      -0.667733       -18.1699
 113   2.0000      -0.664017       -18.0688
 114   2.0000      -0.649368       -17.6702
 115   2.0000      -0.643503       -17.5106
 116   2.0000      -0.637682       -17.3522
 117   2.0000      -0.632469       -17.2103
 118   2.0000      -0.628190       -17.0939
 119   2.0000      -0.624213       -16.9857
 120   2.0000      -0.615744       -16.7552
 121   2.0000      -0.611192       -16.6314
 122   2.0000      -0.604061       -16.4373
 123   2.0000      -0.595581       -16.2066
 124   2.0000      -0.592024       -16.1098
 125   2.0000      -0.591637       -16.0993
 126   2.0000      -0.583334       -15.8733
 127   2.0000      -0.572417       -15.5763
 128   2.0000      -0.568525       -15.4704
 129   2.0000      -0.564741       -15.3674
 130   2.0000      -0.562289       -15.3007
 131   2.0000      -0.557426       -15.1683
 132   2.0000      -0.553655       -15.0657
 133   2.0000      -0.546680       -14.8759
 134   2.0000      -0.540380       -14.7045
 135   2.0000      -0.536188       -14.5904
 136   2.0000      -0.529577       -14.4105
 137   2.0000      -0.526745       -14.3334
 138   2.0000      -0.524012       -14.2591
 139   2.0000      -0.519381       -14.1331
 140   2.0000      -0.513479       -13.9725
 141   2.0000      -0.509038       -13.8516
 142   2.0000      -0.508358       -13.8331
 143   2.0000      -0.505127       -13.7452
 144   2.0000      -0.500976       -13.6322
 145   2.0000      -0.497197       -13.5294
 146   2.0000      -0.493621       -13.4321
 147   2.0000      -0.491523       -13.3750
 148   2.0000      -0.488348       -13.2886
 149   2.0000      -0.486418       -13.2361
 150   2.0000      -0.483711       -13.1624
 151   2.0000      -0.480100       -13.0642
 152   2.0000      -0.478368       -13.0170
 153   2.0000      -0.478079       -13.0092
 154   2.0000      -0.476480       -12.9657
 155   2.0000      -0.475123       -12.9287
 156   2.0000      -0.473428       -12.8826
 157   2.0000      -0.466894       -12.7048
 158   2.0000      -0.464880       -12.6500
 159   2.0000      -0.463098       -12.6015
 160   2.0000      -0.460965       -12.5435
 161   2.0000      -0.457872       -12.4593
 162   2.0000      -0.455931       -12.4065
 163   2.0000      -0.454466       -12.3666
 164   2.0000      -0.450460       -12.2576
 165   2.0000      -0.447845       -12.1865
 166   2.0000      -0.445120       -12.1123
 167   2.0000      -0.442044       -12.0286
 168   2.0000      -0.433039       -11.7836
 169   2.0000      -0.430417       -11.7123
 170   2.0000      -0.428558       -11.6617
 171   2.0000      -0.425359       -11.5746
 172   2.0000      -0.421858       -11.4793
 173   2.0000      -0.419136       -11.4053
 174   2.0000      -0.414344       -11.2749
 175   2.0000      -0.412495       -11.2246
 176   2.0000      -0.393174       -10.6988
 177   2.0000      -0.391800       -10.6614
 178   2.0000      -0.390167       -10.6170
 179   2.0000      -0.378974       -10.3124
 180   2.0000      -0.360447        -9.8083
 181   2.0000      -0.356127        -9.6907
 182   2.0000      -0.345059        -9.3895
 183   2.0000      -0.342602        -9.3227
 184   2.0000      -0.341573        -9.2947
 185   2.0000      -0.332261        -9.0413
 186   2.0000      -0.331735        -9.0270
 187   2.0000      -0.328947        -8.9511
 188   2.0000      -0.318112        -8.6563
 189   2.0000      -0.314353        -8.5540
 190   2.0000      -0.306818        -8.3489
 191   2.0000      -0.301618        -8.2074
 192   2.0000      -0.287178        -7.8145
 193   2.0000      -0.264836        -7.2066
 194   2.0000      -0.252252        -6.8641
 195   2.0000      -0.237654        -6.4669
 196   2.0000      -0.216597        -5.8939
 197   2.0000      -0.200102        -5.4451
 198   0.0000      -0.073264        -1.9936
 199   0.0000      -0.057270        -1.5584
 200   0.0000      -0.015338        -0.4174
 201   0.0000      -0.005126        -0.1395
 202   0.0000       0.019313         0.5255

MULLIKEN ATOMIC CHARGES
-----------------------
   0 C :   -0.029486
   1 C :   -0.064125
   2 C :    0.053668
   3 C :    0.027705
   4 C :   -0.062349
   5 S :    0.084579
   6 C :   -0.046141
   7 C :    0.036779
   8 C :    0.042591
   9 C :   -0.017732
  10 S :    0.077961
  11 C :   -0.056602
  12 C :    0.127629
  13 N :   -0.010604
  14 C :   -0.260463
  15 C :    0.166921
  16 C :    0.115887
  17 N :   -0.471625
  18 S :    0.402368
  19 C :   -0.289749
  20 C :    0.120432
  21 O :   -0.213697
  22 C :    0.168060
  23 C :   -0.094082
  24 C :   -0.098694
  25 C :    0.529305
  26 F :   -0.159965
  27 F :   -0.170318
  28 F :   -0.165467
  29 C :    0.070654
  30 N :    0.000585
  31 C :   -0.238588
  32 C :    0.159123
  33 C :    0.121970
  34 N :   -0.467067
  35 S :    0.366501
  36 C :   -0.171469
  37 C :   -0.074608
  38 C :   -0.024360
  39 C :    0.024255
  40 C :    0.032741
  41 C :   -0.036176
  42 S :    0.037527
  43 C :   -0.068201
  44 C :    0.030540
  45 C :    0.049864
  46 C :   -0.063879
  47 S :    0.072279
  48 C :   -0.030760
  49 H :    0.017714
  50 H :    0.021932
  51 H :   -0.012369
  52 H :   -0.010245
  53 H :   -0.018340
  54 H :   -0.014301
  55 H :   -0.012116
  56 H :    0.031790
  57 H :    0.037345
  58 H :   -0.008633
  59 H :    0.005064
  60 H :    0.094524
  61 H :    0.111645
  62 H :   -0.004917
  63 H :    0.029462
  64 H :    0.034103
  65 H :   -0.010487
  66 H :    0.003413
  67 H :    0.095621
  68 H :    0.111134
  69 H :   -0.006812
  70 H :   -0.021121
  71 H :   -0.018523
  72 H :   -0.014136
  73 H :   -0.013419
  74 H :    0.018252
  75 H :    0.019702
Sum of atomic charges:   -0.0000000

LOEWDIN ATOMIC CHARGES
----------------------
   0 C :   -0.076986
   1 C :   -0.138993
   2 C :   -0.030036
   3 C :   -0.025873
   4 C :   -0.171616
   5 S :    0.353345
   6 C :   -0.179631
   7 C :   -0.032390
   8 C :   -0.027738
   9 C :   -0.141194
  10 S :    0.404887
  11 C :   -0.072142
  12 C :   -0.035386
  13 N :   -0.051194
  14 C :   -0.086963
  15 C :   -0.050481
  16 C :    0.003579
  17 N :   -0.367484
  18 S :    0.751533
  19 C :   -0.267855
  20 C :    0.012585
  21 O :    0.014253
  22 C :    0.023595
  23 C :   -0.027696
  24 C :   -0.141032
  25 C :    0.173194
  26 F :   -0.056224
  27 F :   -0.068918
  28 F :   -0.068905
  29 C :   -0.060121
  30 N :   -0.053422
  31 C :   -0.092879
  32 C :   -0.050623
  33 C :    0.003274
  34 N :   -0.369685
  35 S :    0.750408
  36 C :   -0.232105
  37 C :   -0.073550
  38 C :   -0.155219
  39 C :   -0.035695
  40 C :   -0.038373
  41 C :   -0.180665
  42 S :    0.348605
  43 C :   -0.180347
  44 C :   -0.026849
  45 C :   -0.034736
  46 C :   -0.138887
  47 S :    0.345777
  48 C :   -0.080759
  49 H :    0.027919
  50 H :    0.026219
  51 H :    0.032998
  52 H :    0.032713
  53 H :    0.030194
  54 H :    0.033201
  55 H :    0.036616
  56 H :    0.043471
  57 H :    0.046788
  58 H :   -0.005002
  59 H :    0.020009
  60 H :    0.026721
  61 H :    0.007853
  62 H :    0.038075
  63 H :    0.042594
  64 H :    0.044743
  65 H :   -0.005303
  66 H :    0.019340
  67 H :    0.030067
  68 H :    0.004614
  69 H :    0.028039
  70 H :    0.028577
  71 H :    0.029783
  72 H :    0.031646
  73 H :    0.032584
  74 H :    0.027880
  75 H :    0.025282

  Mayer bond orders larger than 0.100000
B(  0-C ,  1-C ) :   1.8665 B(  0-C , 49-H ) :   0.9503 B(  0-C , 50-H ) :   0.9418
B(  1-C ,  2-C ) :   1.0772 B(  1-C ,  5-S ) :   1.0082 B(  2-C ,  3-C ) :   1.6665
B(  2-C , 51-H ) :   0.9922 B(  3-C ,  4-C ) :   1.1457 B(  3-C , 52-H ) :   0.9928
B(  4-C ,  5-S ) :   1.0455 B(  4-C ,  6-C ) :   1.5710 B(  6-C ,  7-C ) :   1.1587
B(  6-C , 10-S ) :   1.0332 B(  7-C ,  8-C ) :   1.6239 B(  7-C , 53-H ) :   0.9905
B(  8-C ,  9-C ) :   1.1185 B(  8-C , 54-H ) :   0.9988 B(  9-C , 10-S ) :   1.0521
B(  9-C , 11-C ) :   1.5953 B( 11-C , 12-C ) :   1.1497 B( 11-C , 55-H ) :   0.9527
B( 12-C , 13-N ) :   1.1256 B( 12-C , 19-C ) :   1.5633 B( 13-N , 14-C ) :   1.9878
B( 14-C , 15-C ) :   1.0493 B( 14-C , 18-S ) :   0.8637 B( 15-C , 16-C ) :   1.0409
B( 15-C , 56-H ) :   0.9304 B( 15-C , 57-H ) :   0.9041 B( 16-C , 17-N ) :   1.0284
B( 16-C , 58-H ) :   0.9385 B( 16-C , 59-H ) :   0.9383 B( 17-N , 18-S ) :   0.6427
B( 17-N , 60-H ) :   0.9483 B( 18-S , 19-C ) :   0.7030 B( 18-S , 61-H ) :   0.9056
B( 19-C , 20-C ) :   1.1963 B( 20-C , 21-O ) :   1.1543 B( 20-C , 22-C ) :   0.1153
B( 20-C , 24-C ) :   1.4541 B( 21-O , 22-C ) :   1.1205 B( 22-C , 23-C ) :   1.4596
B( 22-C , 29-C ) :   1.0720 B( 23-C , 24-C ) :   1.1870 B( 23-C , 62-H ) :   1.0269
B( 24-C , 25-C ) :   0.9624 B( 25-C , 26-F ) :   1.1587 B( 25-C , 27-F ) :   1.1715
B( 25-C , 28-F ) :   1.1684 B( 29-C , 30-N ) :   1.2763 B( 29-C , 36-C ) :   1.4942
B( 30-N , 31-C ) :   1.9178 B( 31-C , 32-C ) :   1.0634 B( 31-C , 35-S ) :   0.8860
B( 32-C , 33-C ) :   1.0409 B( 32-C , 63-H ) :   0.9292 B( 32-C , 64-H ) :   0.9033
B( 33-C , 34-N ) :   1.0291 B( 33-C , 65-H ) :   0.9380 B( 33-C , 66-H ) :   0.9375
B( 34-N , 35-S ) :   0.6342 B( 34-N , 67-H ) :   0.9451 B( 35-S , 36-C ) :   0.7166
B( 35-S , 68-H ) :   0.8941 B( 36-C , 37-C ) :   1.2650 B( 37-C , 38-C ) :   1.5397
B( 37-C , 69-H ) :   0.9591 B( 38-C , 39-C ) :   1.1492 B( 38-C , 42-S ) :   1.0220
B( 39-C , 40-C ) :   1.5873 B( 39-C , 70-H ) :   0.9967 B( 40-C , 41-C ) :   1.1793
B( 40-C , 71-H ) :   0.9915 B( 41-C , 42-S ) :   1.0280 B( 41-C , 43-C ) :   1.5485
B( 43-C , 44-C ) :   1.1596 B( 43-C , 47-S ) :   1.0408 B( 44-C , 45-C ) :   1.6547
B( 44-C , 72-H ) :   0.9908 B( 45-C , 46-C ) :   1.0831 B( 45-C , 73-H ) :   0.9924
B( 46-C , 47-S ) :   1.0084 B( 46-C , 48-C ) :   1.8618 B( 48-C , 74-H ) :   0.9501
B( 48-C , 75-H ) :   0.9415

-----------------------------------------------------------------------------
         ABSORPTION SPECTRUM VIA TRANSITION ELECTRIC DIPOLE MOMENTS
-----------------------------------------------------------------------------
State   Energy  Wavelength   fosc         T2         TX        TY        TZ
        (cm-1)    (nm)                  (au**2)     (au)      (au)      (au)
-----------------------------------------------------------------------------
   0   13595.6    735.5   0.943628551  22.84960   4.39348   1.88325   0.01640
   1   17264.8    579.2   0.186304130   3.55251   0.25532   1.51758   1.08824
   2   17648.6    566.6   0.264317954   4.93050  -1.59169  -0.81616   1.31564
   3   19004.8    526.2   0.232896832   4.03438  -1.18996   1.46616   0.68466
   4   21128.7    473.3   0.374573235   5.83632  -0.30794  -2.19754  -0.95515
   5   22317.9    448.1   0.175483114   2.58855  -1.39886  -0.59433   0.52776
   6   24568.4    407.0   0.075091530   1.00621   0.75093   0.61985  -0.24103
   7   25041.1    399.3   0.043042511   0.56587  -0.25704  -0.67401  -0.21335
   8   25997.5    384.7   0.149926976   1.89856   1.20499  -0.66680  -0.04396
   9   27431.7    364.5   0.214497600   2.57421  -0.11541   1.50848   0.53423
  10   27500.4    363.6   0.132446539   1.58554  -0.89397   0.83077   0.31014
  11   28443.5    351.6   0.009676474   0.11200  -0.22609   0.24551   0.02457
  12   29454.1    339.5   0.233376265   2.60847   1.31447  -0.93723   0.04735
  13   29666.1    337.1   0.015569011   0.17277  -0.34127  -0.23719   0.00703
  14   30593.1    326.9   0.017139720   0.18444  -0.26467   0.30137   0.15352
  15   30762.2    325.1   0.021439574   0.22944   0.34735  -0.15343   0.29197
  16   32039.3    312.1   0.035967556   0.36958   0.51841  -0.31710  -0.01650
  17   32090.7    311.6   0.022026235   0.22596  -0.37176   0.29612   0.00812
  18   32557.5    307.1   0.118530023   1.19854   1.00355  -0.43700  -0.02168
  19   33052.2    302.6   0.054179018   0.53964  -0.51949   0.50221  -0.13251
  20   33398.4    299.4   0.038158415   0.37613  -0.21081   0.53351  -0.21694
  21   33741.1    296.4   0.041892184   0.40874  -0.48146   0.39275  -0.15061
  22   34304.9    291.5   0.027649350   0.26534  -0.25065  -0.42127   0.15826
  23   34533.8    289.6   0.068785938   0.65574   0.40631  -0.68865  -0.12813
  24   34983.2    285.9   0.019312126   0.18174   0.25975  -0.32389   0.09674
  25   35660.1    280.4   0.008140027   0.07515  -0.17945   0.01247  -0.20686
  26   35869.7    278.8   0.127355412   1.16887  -0.72136   0.75258  -0.28658
  27   36559.0    273.5   0.089992823   0.81038   0.04365  -0.86735   0.23702
  28   36860.5    271.3   0.117029675   1.04523  -0.08148   1.01641   0.07412
  29   36965.4    270.5   0.011162560   0.09941   0.28904   0.12537  -0.01240
  30   37733.8    265.0   0.009555098   0.08336  -0.12323  -0.25651  -0.04879
  31   38151.7    262.1   0.015328092   0.13227   0.31403  -0.17323   0.06033
  32   38228.4    261.6   0.001699309   0.01463  -0.11709   0.01928  -0.02347
  33   38504.0    259.7   0.029331831   0.25079  -0.28121  -0.38624   0.15012
  34   39055.9    256.0   0.001408994   0.01188   0.00347   0.09969   0.04390
  35   39267.5    254.7   0.123390690   1.03449   0.93657  -0.22255  -0.32831
  36   39362.8    254.0   0.048626525   0.40669   0.47507  -0.15300   0.39698
  37   39683.7    252.0   0.111823367   0.92768  -0.87181   0.40305  -0.07193
  38   39841.6    251.0   0.118858383   0.98213  -0.23488   0.93765   0.21857
  39   39894.5    250.7   0.170591683   1.40773   0.34528  -1.12934   0.11449

FINAL SINGLE POINT ENERGY     -4329.416305299829

DIPOLE MOMENT
-------------
                                X             Y             Z
Electronic contribution:     32.08999       7.76373     -15.00107
Nuclear contribution   :    -32.47562      -8.22862      15.94724
                        -----------------------------------------
Total Dipole Moment    :     -0.38563      -0.46489       0.94618
                        -----------------------------------------
Magnitude (a.u.)       :      1.12253
Magnitude (Debye)      :      2.85325

Rotational constants in cm-1:     0.002273     0.000928     0.000752
Rotational constants in MHz :    68.131306    27.812872    22.540920

                             ****ORCA TERMINATED NORMALLY****
TOTAL RUN TIME: 0 days 0 hours 5 minutes 19 seconds 320 msec
