                         Program Version 4.2.0 -  RELEASE  -
|  1> # ORCA input file
|  2> # SCF done       -135.934486816929          0.000637899528
|  3> ! CAM-B3LYP def2-SVP def2/J RIJCOSX Grid4 TightSCF
|  4> %maxcore 5000
|  5> %tddft
|  6>     Mode sTDDFT
|  7>     Ethresh 5.0
|  8>     maxcore 5000
|  9> end
| 10>
| 11> %pal
| 12>   nprocs 6
| 13>   end
| 14> * xyz 0 1
| 15>    C        7.45157        -8.31290         6.78806
| 16>    C        8.14136        -8.63041         5.68411
| 17>    C        9.46942        -9.16837         5.60385
| 18>    C        9.90777        -9.38876         4.34516
| 19>    C        8.97229        -9.04865         3.32786
| 20>    S        7.49693        -8.42945         4.04638
| 21>    C        9.13717        -9.16628         1.96969
| 22>    C       10.27346        -9.64619         1.27014
| 23>    C       10.12917        -9.64525        -0.07909
| 24>    C        8.87165        -9.16684        -0.53850
| 25>    S        7.87704        -8.71065         0.83401
| 26>    C        8.49300        -9.08018        -1.85100
| 27>    C        7.27284        -8.62597        -2.38051
| 28>    S        5.95305        -8.04426        -1.36224
| 29>    C        4.98692        -7.74313        -2.76104
| 30>    C        5.67465        -8.08556        -3.94450
| 31>    C        6.95766        -8.57992        -3.73308
| 32>    N        4.84303        -7.82117        -4.98612
| 33>    C        3.65483        -7.31963        -4.50234
| 34>    C        3.72770        -7.26465        -3.10958
| 35>    C        2.60606        -6.95879        -5.39548
| 36>    C        1.42748        -6.44078        -4.99515
| 37>    N        0.36307        -6.07227        -5.78147
| 38>    C        0.23479        -5.98508        -7.12605
| 39>    S        1.54677        -6.18009        -8.24316
| 40>    C        0.49831        -5.72665        -9.55453
| 41>    N        1.04824        -5.71841       -10.82677
| 42>    O        0.33282        -5.39983       -11.76443
| 43>    O        2.23028        -6.03283       -10.91546
| 44>    C       -0.77939        -5.44076        -9.14325
| 45>    C       -0.95929        -5.60405        -7.76373
| 46>    C       -2.22763        -5.37661        -7.10337
| 47>    C       -2.67728        -6.03479        -6.02132
| 48>    C       -3.92622        -5.80077        -5.33356
| 49>    C       -4.55755        -4.63624        -5.13261
| 50>    C       -4.05949        -3.30117        -5.58636
| 51>    C       -5.85899        -4.62438        -4.36890
| 52>    N       -5.82086        -5.53745        -3.24645
| 53>    C       -6.92047        -5.74225        -2.45211
| 54>    C       -8.17769        -5.34072        -2.71244
| 55>    C       -9.30990        -5.64232        -1.89158
| 56>    S      -10.85827        -4.93818        -2.36016
| 57>    C      -11.63325        -5.67425        -1.00200
| 58>    C      -10.71510        -6.42028        -0.25034
| 59>    C       -9.40362        -6.40277        -0.75160
| 60>    N      -11.39381        -6.96341         0.79273
| 61>    C      -12.71716        -6.57979         0.72272
| 62>    C      -12.88673        -5.77288        -0.39415
| 63>    C      -13.65854        -7.01548         1.71416
| 64>    C      -14.95113        -6.69569         1.74897
| 65>    H        7.88290        -8.45214         7.76365
| 66>    H        6.45560        -7.91318         6.73732
| 67>    H       10.03556        -9.36570         6.49697
| 68>    H       10.87669        -9.78789         4.10214
| 69>    H       11.15863        -9.97597         1.78381
| 70>    H       10.88354        -9.97387        -0.77261
| 71>    H        9.22211        -9.40466        -2.58356
| 72>    H        7.64086        -8.89494        -4.50052
| 73>    H        5.05121        -7.95284        -5.96150
| 74>    H        2.96264        -6.92287        -2.44360
| 75>    H        2.80461        -7.13407        -6.44146
| 76>    H        1.23968        -6.29035        -3.94288
| 77>    H       -0.45819        -5.74524        -5.28496
| 78>    H       -1.55416        -5.14689        -9.82783
| 79>    H       -2.86818        -4.65883        -7.59426
| 80>    H       -2.11694        -6.88508        -5.64733
| 81>    H       -4.36844        -6.68722        -4.89549
| 82>    H       -2.98985        -3.32395        -5.78014
| 83>    H       -4.26604        -2.54381        -4.83120
| 84>    H       -4.56736        -2.99639        -6.50172
| 85>    H       -6.66695        -4.95232        -5.03423
| 86>    H       -6.09580        -3.60005        -4.04305
| 87>    H       -4.93255        -5.56275        -2.76778
| 88>    H       -6.70920        -6.33096        -1.57080
| 89>    H       -8.39161        -4.74042        -3.58377
| 90>    H       -8.57301        -6.92002        -0.30759
| 91>    H      -11.00812        -7.55301         1.51057
| 92>    H      -13.80032        -5.31957        -0.71845
| 93>    H      -13.24779        -7.65708         2.48560
| 94>    H      -15.39770        -6.06173         1.00411
| 95>    H      -15.59988        -7.05982         2.52568
| 96> *
| 97>
| 98>                          ****END OF INPUT****

CARTESIAN COORDINATES (ANGSTROEM)
---------------------------------
  C      7.451570   -8.312900    6.788060
  C      8.141360   -8.630410    5.684110
  C      9.469420   -9.168370    5.603850
  C      9.907770   -9.388760    4.345160
  C      8.972290   -9.048650    3.327860
  S      7.496930   -8.429450    4.046380
  C      9.137170   -9.166280    1.969690
  C     10.273460   -9.646190    1.270140
  C     10.129170   -9.645250   -0.079090
  C      8.871650   -9.166840   -0.538500
  S      7.877040   -8.710650    0.834010
  C      8.493000   -9.080180   -1.851000
  C      7.272840   -8.625970   -2.380510
  S      5.953050   -8.044260   -1.362240
  C      4.986920   -7.743130   -2.761040
  C      5.674650   -8.085560   -3.944500
  C      6.957660   -8.579920   -3.733080
  N      4.843030   -7.821170   -4.986120
  C      3.654830   -7.319630   -4.502340
  C      3.727700   -7.264650   -3.109580
  C      2.606060   -6.958790   -5.395480
  C      1.427480   -6.440780   -4.995150
  N      0.363070   -6.072270   -5.781470
  C      0.234790   -5.985080   -7.126050
  S      1.546770   -6.180090   -8.243160
  C      0.498310   -5.726650   -9.554530
  N      1.048240   -5.718410  -10.826770
  O      0.332820   -5.399830  -11.764430
  O      2.230280   -6.032830  -10.915460
  C     -0.779390   -5.440760   -9.143250
  C     -0.959290   -5.604050   -7.763730
  C     -2.227630   -5.376610   -7.103370
  C     -2.677280   -6.034790   -6.021320
  C     -3.926220   -5.800770   -5.333560
  C     -4.557550   -4.636240   -5.132610
  C     -4.059490   -3.301170   -5.586360
  C     -5.858990   -4.624380   -4.368900
  N     -5.820860   -5.537450   -3.246450
  C     -6.920470   -5.742250   -2.452110
  C     -8.177690   -5.340720   -2.712440
  C     -9.309900   -5.642320   -1.891580
  S    -10.858270   -4.938180   -2.360160
  C    -11.633250   -5.674250   -1.002000
  C    -10.715100   -6.420280   -0.250340
  C     -9.403620   -6.402770   -0.751600
  N    -11.393810   -6.963410    0.792730
  C    -12.717160   -6.579790    0.722720
  C    -12.886730   -5.772880   -0.394150
  C    -13.658540   -7.015480    1.714160
  C    -14.951130   -6.695690    1.748970
  H      7.882900   -8.452140    7.763650
  H      6.455600   -7.913180    6.737320
  H     10.035560   -9.365700    6.496970
  H     10.876690   -9.787890    4.102140
  H     11.158630   -9.975970    1.783810
  H     10.883540   -9.973870   -0.772610
  H      9.222110   -9.404660   -2.583560
  H      7.640860   -8.894940   -4.500520
  H      5.051210   -7.952840   -5.961500
  H      2.962640   -6.922870   -2.443600
  H      2.804610   -7.134070   -6.441460
  H      1.239680   -6.290350   -3.942880
  H     -0.458190   -5.745240   -5.284960
  H     -1.554160   -5.146890   -9.827830
  H     -2.868180   -4.658830   -7.594260
  H     -2.116940   -6.885080   -5.647330
  H     -4.368440   -6.687220   -4.895490
  H     -2.989850   -3.323950   -5.780140
  H     -4.266040   -2.543810   -4.831200
  H     -4.567360   -2.996390   -6.501720
  H     -6.666950   -4.952320   -5.034230
  H     -6.095800   -3.600050   -4.043050
  H     -4.932550   -5.562750   -2.767780
  H     -6.709200   -6.330960   -1.570800
  H     -8.391610   -4.740420   -3.583770
  H     -8.573010   -6.920020   -0.307590
  H    -11.008120   -7.553010    1.510570
  H    -13.800320   -5.319570   -0.718450
  H    -13.247790   -7.657080    2.485600
  H    -15.397700   -6.061730    1.004110
  H    -15.599880   -7.059820    2.525680

 Total Charge           Charge          ....    0
 Multiplicity           Mult            ....    1
 Number of Electrons    NEL             ....  390
 Basis Dimension        Dim             ....  875

ORBITAL ENERGIES
----------------

  NO   OCC          E(Eh)            E(eV)
   0   2.0000     -88.982231     -2421.3296
   1   2.0000     -88.941270     -2420.2150
   2   2.0000     -88.933760     -2420.0106
   3   2.0000     -88.928756     -2419.8745
   4   2.0000     -88.926708     -2419.8187
   5   2.0000     -19.225244      -523.1455
   6   2.0000     -19.225099      -523.1415
   7   2.0000     -14.637390      -398.3036
   8   2.0000     -14.481550      -394.0630
   9   2.0000     -14.459063      -393.4511
  10   2.0000     -14.443931      -393.0393
  11   2.0000     -14.425383      -392.5346
  12   2.0000     -10.367467      -282.1131
  13   2.0000     -10.331280      -281.1284
  14   2.0000     -10.328915      -281.0641
  15   2.0000     -10.307939      -280.4933
  16   2.0000     -10.307390      -280.4784
  17   2.0000     -10.303774      -280.3799
  18   2.0000     -10.300609      -280.2938
  19   2.0000     -10.299157      -280.2543
  20   2.0000     -10.298734      -280.2428
  21   2.0000     -10.297786      -280.2170
  22   2.0000     -10.295800      -280.1629
  23   2.0000     -10.294986      -280.1408
  24   2.0000     -10.294150      -280.1181
  25   2.0000     -10.293506      -280.1005
  26   2.0000     -10.293398      -280.0976
  27   2.0000     -10.289136      -279.9816
  28   2.0000     -10.287784      -279.9448
  29   2.0000     -10.284446      -279.8540
  30   2.0000     -10.283040      -279.8157
  31   2.0000     -10.282343      -279.7968
  32   2.0000     -10.281129      -279.7637
  33   2.0000     -10.280354      -279.7427
  34   2.0000     -10.277429      -279.6631
  35   2.0000     -10.276507      -279.6380
  36   2.0000     -10.276192      -279.6294
  37   2.0000     -10.275699      -279.6160
  38   2.0000     -10.275226      -279.6031
  39   2.0000     -10.273970      -279.5689
  40   2.0000     -10.272944      -279.5410
  41   2.0000     -10.270433      -279.4727
  42   2.0000     -10.266549      -279.3670
  43   2.0000     -10.260851      -279.2120
  44   2.0000     -10.260418      -279.2002
  45   2.0000     -10.258686      -279.1530
  46   2.0000     -10.252519      -278.9852
  47   2.0000     -10.251283      -278.9516
  48   2.0000     -10.249010      -278.8897
  49   2.0000     -10.244741      -278.7736
  50   2.0000      -8.077043      -219.7875
  51   2.0000      -8.036130      -218.6742
  52   2.0000      -8.029897      -218.5046
  53   2.0000      -8.025452      -218.3836
  54   2.0000      -8.021991      -218.2895
  55   2.0000      -6.046735      -164.5400
  56   2.0000      -6.042252      -164.4180
  57   2.0000      -6.038617      -164.3191
  58   2.0000      -6.005831      -163.4270
  59   2.0000      -6.001736      -163.3155
  60   2.0000      -5.999757      -163.2617
  61   2.0000      -5.997431      -163.1984
  62   2.0000      -5.995650      -163.1499
  63   2.0000      -5.995286      -163.1400
  64   2.0000      -5.991635      -163.0407
  65   2.0000      -5.991405      -163.0344
  66   2.0000      -5.990593      -163.0123
  67   2.0000      -5.987740      -162.9347
  68   2.0000      -5.985937      -162.8856
  69   2.0000      -5.983284      -162.8134
  70   2.0000      -1.303672       -35.4747
  71   2.0000      -1.122411       -30.5423
  72   2.0000      -1.085361       -29.5342
  73   2.0000      -1.076978       -29.3061
  74   2.0000      -1.060778       -28.8652
  75   2.0000      -1.024958       -27.8905
  76   2.0000      -0.997815       -27.1519
  77   2.0000      -0.983034       -26.7497
  78   2.0000      -0.964167       -26.2363
  79   2.0000      -0.952946       -25.9310
  80   2.0000      -0.943946       -25.6861
  81   2.0000      -0.929753       -25.2999
  82   2.0000      -0.907557       -24.6959
  83   2.0000      -0.889265       -24.1981
  84   2.0000      -0.883002       -24.0277
  85   2.0000      -0.876053       -23.8386
  86   2.0000      -0.869230       -23.6529
  87   2.0000      -0.862194       -23.4615
  88   2.0000      -0.859660       -23.3925
  89   2.0000      -0.846461       -23.0334
  90   2.0000      -0.842298       -22.9201
  91   2.0000      -0.835519       -22.7356
  92   2.0000      -0.824961       -22.4483
  93   2.0000      -0.814159       -22.1544
  94   2.0000      -0.811750       -22.0888
  95   2.0000      -0.801428       -21.8080
  96   2.0000      -0.798504       -21.7284
  97   2.0000      -0.791288       -21.5320
  98   2.0000      -0.784227       -21.3399
  99   2.0000      -0.775742       -21.1090
 100   2.0000      -0.751033       -20.4367
 101   2.0000      -0.749261       -20.3884
 102   2.0000      -0.723808       -19.6958
 103   2.0000      -0.710341       -19.3294
 104   2.0000      -0.696055       -18.9406
 105   2.0000      -0.694810       -18.9067
 106   2.0000      -0.687829       -18.7168
 107   2.0000      -0.681866       -18.5545
 108   2.0000      -0.671237       -18.2653
 109   2.0000      -0.667509       -18.1639
 110   2.0000      -0.651381       -17.7250
 111   2.0000      -0.643840       -17.5198
 112   2.0000      -0.641332       -17.4515
 113   2.0000      -0.634101       -17.2548
 114   2.0000      -0.627870       -17.0852
 115   2.0000      -0.622801       -16.9473
 116   2.0000      -0.620271       -16.8784
 117   2.0000      -0.618342       -16.8260
 118   2.0000      -0.616754       -16.7827
 119   2.0000      -0.609235       -16.5781
 120   2.0000      -0.601955       -16.3800
 121   2.0000      -0.597451       -16.2575
 122   2.0000      -0.592407       -16.1202
 123   2.0000      -0.589109       -16.0305
 124   2.0000      -0.588228       -16.0065
 125   2.0000      -0.583785       -15.8856
 126   2.0000      -0.579827       -15.7779
 127   2.0000      -0.576572       -15.6893
 128   2.0000      -0.573072       -15.5941
 129   2.0000      -0.562508       -15.3066
 130   2.0000      -0.552248       -15.0274
 131   2.0000      -0.545970       -14.8566
 132   2.0000      -0.537050       -14.6139
 133   2.0000      -0.531711       -14.4686
 134   2.0000      -0.530148       -14.4261
 135   2.0000      -0.529012       -14.3951
 136   2.0000      -0.522496       -14.2178
 137   2.0000      -0.520006       -14.1501
 138   2.0000      -0.518913       -14.1204
 139   2.0000      -0.514649       -14.0043
 140   2.0000      -0.507341       -13.8055
 141   2.0000      -0.506190       -13.7741
 142   2.0000      -0.504864       -13.7381
 143   2.0000      -0.504497       -13.7281
 144   2.0000      -0.504202       -13.7200
 145   2.0000      -0.494887       -13.4666
 146   2.0000      -0.492679       -13.4065
 147   2.0000      -0.490437       -13.3455
 148   2.0000      -0.487358       -13.2617
 149   2.0000      -0.485802       -13.2193
 150   2.0000      -0.476866       -12.9762
 151   2.0000      -0.473230       -12.8772
 152   2.0000      -0.471668       -12.8347
 153   2.0000      -0.467095       -12.7103
 154   2.0000      -0.462826       -12.5941
 155   2.0000      -0.460291       -12.5252
 156   2.0000      -0.455877       -12.4050
 157   2.0000      -0.455740       -12.4013
 158   2.0000      -0.452400       -12.3104
 159   2.0000      -0.448774       -12.2118
 160   2.0000      -0.445642       -12.1265
 161   2.0000      -0.442157       -12.0317
 162   2.0000      -0.435313       -11.8455
 163   2.0000      -0.433320       -11.7912
 164   2.0000      -0.430986       -11.7277
 165   2.0000      -0.429811       -11.6958
 166   2.0000      -0.421860       -11.4794
 167   2.0000      -0.421505       -11.4697
 168   2.0000      -0.415187       -11.2978
 169   2.0000      -0.413710       -11.2576
 170   2.0000      -0.404507       -11.0072
 171   2.0000      -0.400385       -10.8950
 172   2.0000      -0.393078       -10.6962
 173   2.0000      -0.391279       -10.6473
 174   2.0000      -0.382167       -10.3993
 175   2.0000      -0.378469       -10.2987
 176   2.0000      -0.374452       -10.1894
 177   2.0000      -0.369420       -10.0524
 178   2.0000      -0.366947        -9.9851
 179   2.0000      -0.358582        -9.7575
 180   2.0000      -0.354224        -9.6389
 181   2.0000      -0.350414        -9.5352
 182   2.0000      -0.348270        -9.4769
 183   2.0000      -0.335755        -9.1364
 184   2.0000      -0.328740        -8.9455
 185   2.0000      -0.324163        -8.8209
 186   2.0000      -0.314127        -8.5478
 187   2.0000      -0.302631        -8.2350
 188   2.0000      -0.283480        -7.7139
 189   2.0000      -0.282793        -7.6952
 190   2.0000      -0.275258        -7.4901
 191   2.0000      -0.268757        -7.3132
 192   2.0000      -0.243544        -6.6272
 193   2.0000      -0.210862        -5.7379
 194   2.0000      -0.198669        -5.4061
 195   0.0000      -0.062304        -1.6954
 196   0.0000      -0.046287        -1.2595
 197   0.0000      -0.023642        -0.6433
 198   0.0000       0.004678         0.1273
 199   0.0000       0.007322         0.1992

MULLIKEN ATOMIC CHARGES
-----------------------
   0 C :   -0.034038
   1 C :   -0.061252
   2 C :    0.046318
   3 C :    0.031809
   4 C :   -0.074172
   5 S :    0.074549
   6 C :   -0.034040
   7 C :    0.025812
   8 C :    0.035150
   9 C :   -0.035749
  10 S :    0.060433
  11 C :   -0.008476
  12 C :   -0.063430
  13 S :    0.100020
  14 C :   -0.016595
  15 C :    0.132744
  16 C :   -0.088464
  17 N :   -0.035530
  18 C :    0.091775
  19 C :   -0.130783
  20 C :   -0.014128
  21 C :    0.027347
  22 N :   -0.013397
  23 C :   -0.101558
  24 S :    0.134550
  25 C :   -0.009741
  26 N :    0.281807
  27 O :   -0.264028
  28 O :   -0.282555
  29 C :    0.018883
  30 C :    0.092388
  31 C :   -0.026817
  32 C :   -0.040767
  33 C :    0.012348
  34 C :   -0.254124
  35 C :    0.093696
  36 C :    0.232834
  37 N :   -0.185089
  38 C :    0.049261
  39 C :   -0.009576
  40 C :   -0.083359
  41 S :    0.088536
  42 C :   -0.039467
  43 C :    0.083512
  44 C :   -0.064103
  45 N :   -0.033843
  46 C :    0.083435
  47 C :   -0.122461
  48 C :    0.004937
  49 C :   -0.033705
  50 H :    0.015863
  51 H :    0.016874
  52 H :   -0.015681
  53 H :   -0.015112
  54 H :   -0.019595
  55 H :   -0.017303
  56 H :   -0.019380
  57 H :   -0.033144
  58 H :    0.122844
  59 H :   -0.034957
  60 H :   -0.010895
  61 H :    0.010521
  62 H :    0.136499
  63 H :    0.005507
  64 H :    0.003014
  65 H :    0.002830
  66 H :   -0.007953
  67 H :    0.020578
  68 H :    0.018296
  69 H :    0.037126
  70 H :    0.035951
  71 H :    0.000889
  72 H :    0.116352
  73 H :   -0.004936
  74 H :   -0.029420
  75 H :   -0.048943
  76 H :    0.113176
  77 H :   -0.036671
  78 H :   -0.031365
  79 H :    0.011474
  80 H :    0.016664
Sum of atomic charges:   -0.0000000

LOEWDIN ATOMIC CHARGES
----------------------
   0 C :   -0.085361
   1 C :   -0.138457
   2 C :   -0.036972
   3 C :   -0.026216
   4 C :   -0.182702
   5 S :    0.345807
   6 C :   -0.178036
   7 C :   -0.041658
   8 C :   -0.032114
   9 C :   -0.160626
  10 S :    0.359499
  11 C :   -0.071575
  12 C :   -0.163635
  13 S :    0.397403
  14 C :   -0.196739
  15 C :   -0.034801
  16 C :   -0.077590
  17 N :    0.076167
  18 C :    0.000692
  19 C :   -0.095600
  20 C :   -0.095108
  21 C :    0.014847
  22 N :    0.044219
  23 C :   -0.094044
  24 S :    0.468520
  25 C :   -0.225585
  26 N :    0.275331
  27 O :   -0.229290
  28 O :   -0.249713
  29 C :    0.003764
  30 C :   -0.111852
  31 C :   -0.018094
  32 C :   -0.050300
  33 C :   -0.057718
  34 C :   -0.028255
  35 C :   -0.052135
  36 C :    0.042568
  37 N :   -0.027625
  38 C :    0.028109
  39 C :   -0.136666
  40 C :   -0.145401
  41 S :    0.381161
  42 C :   -0.212709
  43 C :   -0.033416
  44 C :   -0.105727
  45 N :    0.074563
  46 C :   -0.020394
  47 C :   -0.082165
  48 C :   -0.035167
  49 C :   -0.058322
  50 H :    0.026793
  51 H :    0.024327
  52 H :    0.031684
  53 H :    0.031045
  54 H :    0.029349
  55 H :    0.031466
  56 H :    0.037825
  57 H :    0.027534
  58 H :    0.090272
  59 H :    0.021517
  60 H :    0.012067
  61 H :    0.031285
  62 H :    0.093157
  63 H :    0.045406
  64 H :    0.033880
  65 H :    0.025448
  66 H :    0.027209
  67 H :    0.030711
  68 H :    0.030449
  69 H :    0.039180
  70 H :    0.037103
  71 H :    0.013346
  72 H :    0.071188
  73 H :    0.022599
  74 H :    0.019512
  75 H :    0.019201
  76 H :    0.085507
  77 H :    0.022867
  78 H :    0.024052
  79 H :    0.020654
  80 H :    0.022487

  Mayer bond orders larger than 0.100000
B(  0-C ,  1-C ) :   1.8629 B(  0-C , 50-H ) :   0.9507 B(  0-C , 51-H ) :   0.9411
B(  1-C ,  2-C ) :   1.0803 B(  1-C ,  5-S ) :   1.0089 B(  2-C ,  3-C ) :   1.6583
B(  2-C , 52-H ) :   0.9933 B(  3-C ,  4-C ) :   1.1557 B(  3-C , 53-H ) :   0.9905
B(  4-C ,  5-S ) :   1.0381 B(  4-C ,  6-C ) :   1.5625 B(  6-C ,  7-C ) :   1.1681
B(  6-C , 10-S ) :   1.0330 B(  7-C ,  8-C ) :   1.6103 B(  7-C , 54-H ) :   0.9906
B(  8-C ,  9-C ) :   1.1346 B(  8-C , 55-H ) :   0.9988 B(  9-C , 10-S ) :   1.0254
B(  9-C , 11-C ) :   1.5750 B( 11-C , 12-C ) :   1.1986 B( 11-C , 56-H ) :   0.9657
B( 12-C , 13-S ) :   1.0754 B( 12-C , 16-C ) :   1.4267 B( 13-S , 14-C ) :   1.0459
B( 14-C , 15-C ) :   1.3557 B( 14-C , 19-C ) :   1.3110 B( 15-C , 16-C ) :   1.2131
B( 15-C , 17-N ) :   1.1771 B( 16-C , 57-H ) :   1.0251 B( 17-N , 18-C ) :   1.1873
B( 17-N , 58-H ) :   0.9343 B( 18-C , 19-C ) :   1.4413 B( 18-C , 20-C ) :   1.1215
B( 19-C , 59-H ) :   1.0112 B( 20-C , 21-C ) :   1.7065 B( 20-C , 60-H ) :   0.9321
B( 21-C , 22-N ) :   1.1231 B( 21-C , 61-H ) :   0.9616 B( 22-N , 23-C ) :   1.2404
B( 22-N , 62-H ) :   0.8972 B( 23-C , 24-S ) :   1.1396 B( 23-C , 30-C ) :   1.3480
B( 24-S , 25-C ) :   1.0638 B( 25-C , 26-N ) :   0.9994 B( 25-C , 29-C ) :   1.4484
B( 26-N , 27-O ) :   1.5194 B( 26-N , 28-O ) :   1.4924 B( 27-O , 28-O ) :   0.2476
B( 29-C , 30-C ) :   1.2721 B( 29-C , 63-H ) :   1.0075 B( 30-C , 31-C ) :   1.0587
B( 31-C , 32-C ) :   1.7418 B( 31-C , 64-H ) :   0.9683 B( 32-C , 33-C ) :   1.0788
B( 32-C , 65-H ) :   0.9580 B( 33-C , 34-C ) :   1.8527 B( 33-C , 66-H ) :   0.9448
B( 34-C , 35-C ) :   1.0892 B( 34-C , 36-C ) :   1.0116 B( 35-C , 67-H ) :   0.9449
B( 35-C , 68-H ) :   0.9460 B( 35-C , 69-H ) :   0.9457 B( 36-C , 37-N ) :   1.0156
B( 36-C , 70-H ) :   0.9192 B( 36-C , 71-H ) :   0.9374 B( 37-N , 38-C ) :   1.1852
B( 37-N , 72-H ) :   0.9322 B( 38-C , 39-C ) :   1.7091 B( 38-C , 73-H ) :   0.9603
B( 39-C , 40-C ) :   1.1020 B( 39-C , 74-H ) :   0.9514 B( 40-C , 41-S ) :   1.1032
B( 40-C , 44-C ) :   1.5382 B( 41-S , 42-C ) :   1.0231 B( 42-C , 43-C ) :   1.4013
B( 42-C , 47-C ) :   1.3004 B( 43-C , 44-C ) :   1.1921 B( 43-C , 45-N ) :   1.1970
B( 44-C , 75-H ) :   1.0033 B( 45-N , 46-C ) :   1.1650 B( 45-N , 76-H ) :   0.9364
B( 46-C , 47-C ) :   1.4676 B( 46-C , 48-C ) :   1.0874 B( 47-C , 77-H ) :   1.0157
B( 48-C , 49-C ) :   1.9415 B( 48-C , 78-H ) :   0.9536 B( 49-C , 79-H ) :   0.9549
B( 49-C , 80-H ) :   0.9487

-----------------------------------------------------------------------------
         ABSORPTION SPECTRUM VIA TRANSITION ELECTRIC DIPOLE MOMENTS
-----------------------------------------------------------------------------
State   Energy  Wavelength   fosc         T2         TX        TY        TZ
        (cm-1)    (nm)                  (au**2)     (au)      (au)      (au)
-----------------------------------------------------------------------------
   0   16628.6    601.4   1.897566555  37.56796   2.84487  -0.93086   5.34866
   1   21490.3    465.3   0.036598055   0.56065  -0.47093   0.37788   0.44282
   2   25081.7    398.7   0.010640545   0.13966   0.33946  -0.03642  -0.15200
   3   25579.9    390.9   0.094509097   1.21633   0.96121  -0.53437   0.08280
   4   26570.6    376.4   0.435799619   5.39960  -2.13984   0.51334   0.74642
   5   27978.6    357.4   0.053401869   0.62836   0.55798   0.14941  -0.54286
   6   28892.3    346.1   0.016743600   0.19078   0.36383   0.09423  -0.22256
   7   29147.1    343.1   0.221368105   2.50032  -0.32227  -0.11187   1.54400
   8   30948.0    323.1   0.520874630   5.54086   1.96258  -0.53090  -1.18630
   9   31769.0    314.8   1.404753488  14.55701   3.17425   0.52211  -2.05147
  10   31864.9    313.8   0.030605538   0.31620   0.44000   0.34801  -0.03867
  11   32086.1    311.7   0.000290817   0.00298  -0.01162  -0.04916  -0.02079
  12   33705.4    296.7   0.031792798   0.31053   0.45750  -0.15089  -0.28010
  13   34030.3    293.9   0.005153970   0.04986   0.18060  -0.11053   0.07088
  14   35174.9    284.3   0.116738677   1.09259   0.98001  -0.35003  -0.09826
  15   35817.4    279.2   0.111380848   1.02375   0.88931  -0.35607   0.32571
  16   37451.9    267.0   0.000294972   0.00259   0.00456   0.05066  -0.00227
  17   37535.3    266.4   0.014224667   0.12476   0.28472  -0.11295   0.17588
  18   37913.9    263.8   0.002419775   0.02101  -0.13398   0.05339  -0.01449
  19   38477.2    259.9   0.001195524   0.01023   0.05014  -0.00593  -0.08764
  20   39781.7    251.4   0.141060104   1.16734  -0.59942   0.13520   0.88868
  21   39828.2    251.1   0.022426094   0.18537  -0.02216   0.09945   0.41832
  22   39838.5    251.0   0.105857584   0.87477  -0.62439   0.08134   0.69159

FINAL SINGLE POINT ENERGY     -3878.633931607490

DIPOLE MOMENT
-------------
                                X             Y             Z
Electronic contribution:     50.77070      -9.07401     -14.80912
Nuclear contribution   :    -50.03669       8.65489      16.67397
                        -----------------------------------------
Total Dipole Moment    :      0.73401      -0.41912       1.86486
                        -----------------------------------------
Magnitude (a.u.)       :      2.04747
Magnitude (Debye)      :      5.20425

Rotational constants in cm-1:     0.001127     0.000378     0.000286
Rotational constants in MHz :    33.789785    11.328149     8.580717

                             ****ORCA TERMINATED NORMALLY****
TOTAL RUN TIME: 0 days 0 hours 4 minutes 57 seconds 869 msec
