                         Program Version 4.2.0 -  RELEASE  -
|  1> # ORCA input file
|  2> # SCF done       -180.037636275232          0.000790800792
|  3> ! CAM-B3LYP def2-SVP def2/J RIJCOSX Grid4 TightSCF
|  4> %maxcore 5000
|  5> %tddft
|  6>     Mode sTDDFT
|  7>     Ethresh 5.0
|  8>     maxcore 5000
|  9> end
| 10>
| 11> %pal
| 12>   nprocs 6
| 13>   end
| 14> * xyz 0 1
| 15>    C        5.41018       -13.41967        -4.81887
| 16>    C        5.89318       -12.17371        -4.90849
| 17>    C        6.88974       -11.66637        -5.80932
| 18>    C        7.19677       -10.36329        -5.62583
| 19>    C        6.47108        -9.73801        -4.57208
| 20>    S        5.35852       -10.86668        -3.84778
| 21>    C        6.58194        -8.44399        -4.11697
| 22>    C        7.38673        -7.39480        -4.61900
| 23>    C        7.23721        -6.21881        -3.95128
| 24>    C        6.31296        -6.27354        -2.87768
| 25>    S        5.64716        -7.88462        -2.74342
| 26>    C        5.93077        -5.23523        -2.06695
| 27>    C        5.02894        -5.33235        -0.99946
| 28>    O        4.54469        -6.52410        -0.55314
| 29>    C        3.67573        -6.28506         0.46540
| 30>    C        3.60986        -4.90488         0.68859
| 31>    C        4.47170        -4.30021        -0.23547
| 32>    O        4.73495        -2.99262        -0.39212
| 33>    S        2.65845        -3.97834         1.84682
| 34>    C        3.04331        -7.35608         1.13180
| 35>    S        1.70398        -7.07047         2.20764
| 36>    C        1.55619        -8.77244         2.59080
| 37>    C        2.50433        -9.50403         1.87608
| 38>    C        3.32166        -8.72110         1.05705
| 39>    C        4.36753        -9.29711         0.15415
| 40>    C        4.60515       -10.78065         0.44740
| 41>    N        5.38828       -11.35336        -0.68121
| 42>    O        6.47599       -10.88269        -0.88038
| 43>    O        4.86613       -12.22845        -1.32892
| 44>    C        3.27414       -11.49705         0.60109
| 45>    N        3.45948       -12.96804         0.76445
| 46>    O        2.55024       -13.66492         0.40128
| 47>    O        4.47104       -13.33465         1.30515
| 48>    C        2.59409       -10.99726         1.87828
| 49>    C        0.51312        -9.14494         3.45746
| 50>    C        0.42595       -10.19944         4.33635
| 51>    C       -0.73539       -10.54710         5.06923
| 52>    C       -0.55808       -11.56333         5.96136
| 53>    C        0.76291       -12.05189         6.01036
| 54>    S        1.76443       -11.20932         4.85714
| 55>    C        1.29567       -13.02176         6.84627
| 56>    C        0.62945       -13.80877         7.80514
| 57>    C        1.45930       -14.64775         8.49470
| 58>    C        2.81705       -14.54928         8.12376
| 59>    S        3.00673       -13.37984         6.83870
| 60>    C        3.88395       -15.22757         8.68748
| 61>    C        5.20059       -15.00453         8.30786
| 62>    C        6.30574       -15.62093         8.86572
| 63>    C        7.68283       -15.37445         8.53224
| 64>    C        8.17258       -14.45551         7.63059
| 65>    C        9.54181       -14.26533         7.36245
| 66>    N       10.64042       -14.05623         7.09764
| 67>    C        7.40358       -13.55901         6.86344
| 68>    N        6.86655       -12.78215         6.20757
| 69>    C        8.50520       -16.26223         9.35401
| 70>    C        7.65252       -17.02418        10.18857
| 71>    C        6.24690       -16.65092         9.91738
| 72>    O        5.26464       -17.11424        10.46600
| 73>    C        8.12549       -17.94466        11.08980
| 74>    C        9.51110       -18.12391        11.17341
| 75>    C       10.35482       -17.36107        10.33458
| 76>    C        9.87464       -16.42904         9.42119
| 77>    S       12.03095       -17.73703        10.60180
| 78>    C       11.57892       -18.89787        11.82166
| 79>    C       10.24402       -19.00121        12.01977
| 80>   Br       12.91370       -19.86249        12.72134
| 81>    H        5.75931       -14.19507        -5.47821
| 82>    H        4.67837       -13.68300        -4.07706
| 83>    H        7.33927       -12.30793        -6.54639
| 84>    H        7.92916        -9.82338        -6.19941
| 85>    H        8.04260        -7.53455        -5.45944
| 86>    H        7.75883        -5.30896        -4.18947
| 87>    H        6.31945        -4.24683        -2.25843
| 88>    H        4.24729        -2.49006         0.27606
| 89>    H        2.79490        -4.81439         2.87182
| 90>    H        5.30258        -8.74339         0.25046
| 91>    H        4.03897        -9.17827        -0.88362
| 92>    H        5.21519       -10.90506         1.34906
| 93>    H        2.63334       -11.34959        -0.27330
| 94>    H        3.18445       -11.33140         2.73823
| 95>    H        1.59595       -11.43124         1.96790
| 96>    H       -0.32612        -8.45915         3.47960
| 97>    H       -1.66995       -10.04051         4.90485
| 98>    H       -1.33398       -11.95700         6.59241
| 99>    H       -0.43236       -13.74391         7.96156
|100>    H        1.13800       -15.32521         9.26560
|101>    H        3.67517       -15.93951         9.47269
|102>    H        5.36474       -14.27861         7.52067
|103>    H        7.44934       -18.50891        11.71287
|104>    H       10.56074       -15.87301         8.80467
|105>    H        9.79202       -19.66645        12.73271
|106> *
|107>
|108>                          ****END OF INPUT****

CARTESIAN COORDINATES (ANGSTROEM)
---------------------------------
  C      5.410180  -13.419670   -4.818870
  C      5.893180  -12.173710   -4.908490
  C      6.889740  -11.666370   -5.809320
  C      7.196770  -10.363290   -5.625830
  C      6.471080   -9.738010   -4.572080
  S      5.358520  -10.866680   -3.847780
  C      6.581940   -8.443990   -4.116970
  C      7.386730   -7.394800   -4.619000
  C      7.237210   -6.218810   -3.951280
  C      6.312960   -6.273540   -2.877680
  S      5.647160   -7.884620   -2.743420
  C      5.930770   -5.235230   -2.066950
  C      5.028940   -5.332350   -0.999460
  O      4.544690   -6.524100   -0.553140
  C      3.675730   -6.285060    0.465400
  C      3.609860   -4.904880    0.688590
  C      4.471700   -4.300210   -0.235470
  O      4.734950   -2.992620   -0.392120
  S      2.658450   -3.978340    1.846820
  C      3.043310   -7.356080    1.131800
  S      1.703980   -7.070470    2.207640
  C      1.556190   -8.772440    2.590800
  C      2.504330   -9.504030    1.876080
  C      3.321660   -8.721100    1.057050
  C      4.367530   -9.297110    0.154150
  C      4.605150  -10.780650    0.447400
  N      5.388280  -11.353360   -0.681210
  O      6.475990  -10.882690   -0.880380
  O      4.866130  -12.228450   -1.328920
  C      3.274140  -11.497050    0.601090
  N      3.459480  -12.968040    0.764450
  O      2.550240  -13.664920    0.401280
  O      4.471040  -13.334650    1.305150
  C      2.594090  -10.997260    1.878280
  C      0.513120   -9.144940    3.457460
  C      0.425950  -10.199440    4.336350
  C     -0.735390  -10.547100    5.069230
  C     -0.558080  -11.563330    5.961360
  C      0.762910  -12.051890    6.010360
  S      1.764430  -11.209320    4.857140
  C      1.295670  -13.021760    6.846270
  C      0.629450  -13.808770    7.805140
  C      1.459300  -14.647750    8.494700
  C      2.817050  -14.549280    8.123760
  S      3.006730  -13.379840    6.838700
  C      3.883950  -15.227570    8.687480
  C      5.200590  -15.004530    8.307860
  C      6.305740  -15.620930    8.865720
  C      7.682830  -15.374450    8.532240
  C      8.172580  -14.455510    7.630590
  C      9.541810  -14.265330    7.362450
  N     10.640420  -14.056230    7.097640
  C      7.403580  -13.559010    6.863440
  N      6.866550  -12.782150    6.207570
  C      8.505200  -16.262230    9.354010
  C      7.652520  -17.024180   10.188570
  C      6.246900  -16.650920    9.917380
  O      5.264640  -17.114240   10.466000
  C      8.125490  -17.944660   11.089800
  C      9.511100  -18.123910   11.173410
  C     10.354820  -17.361070   10.334580
  C      9.874640  -16.429040    9.421190
  S     12.030950  -17.737030   10.601800
  C     11.578920  -18.897870   11.821660
  C     10.244020  -19.001210   12.019770
  Br    12.913700  -19.862490   12.721340
  H      5.759310  -14.195070   -5.478210
  H      4.678370  -13.683000   -4.077060
  H      7.339270  -12.307930   -6.546390
  H      7.929160   -9.823380   -6.199410
  H      8.042600   -7.534550   -5.459440
  H      7.758830   -5.308960   -4.189470
  H      6.319450   -4.246830   -2.258430
  H      4.247290   -2.490060    0.276060
  H      2.794900   -4.814390    2.871820
  H      5.302580   -8.743390    0.250460
  H      4.038970   -9.178270   -0.883620
  H      5.215190  -10.905060    1.349060
  H      2.633340  -11.349590   -0.273300
  H      3.184450  -11.331400    2.738230
  H      1.595950  -11.431240    1.967900
  H     -0.326120   -8.459150    3.479600
  H     -1.669950  -10.040510    4.904850
  H     -1.333980  -11.957000    6.592410
  H     -0.432360  -13.743910    7.961560
  H      1.138000  -15.325210    9.265600
  H      3.675170  -15.939510    9.472690
  H      5.364740  -14.278610    7.520670
  H      7.449340  -18.508910   11.712870
  H     10.560740  -15.873010    8.804670
  H      9.792020  -19.666450   12.732710

 Total Charge           Charge          ....    0
 Multiplicity           Mult            ....    1
 Number of Electrons    NEL             ....  538
 Basis Dimension        Dim             .... 1095

ORBITAL ENERGIES
----------------

  NO   OCC          E(Eh)            E(eV)
   0   2.0000    -482.874865    -13139.6931
   1   2.0000     -88.973384     -2421.0889
   2   2.0000     -88.965841     -2420.8836
   3   2.0000     -88.962185     -2420.7841
   4   2.0000     -88.957254     -2420.6499
   5   2.0000     -88.957061     -2420.6447
   6   2.0000     -88.939831     -2420.1758
   7   2.0000     -88.932578     -2419.9785
   8   2.0000     -62.552561     -1702.1417
   9   2.0000     -56.386498     -1534.3546
  10   2.0000     -56.383808     -1534.2814
  11   2.0000     -56.383772     -1534.2804
  12   2.0000     -19.304979      -525.3152
  13   2.0000     -19.264826      -524.2226
  14   2.0000     -19.251004      -523.8464
  15   2.0000     -19.249163      -523.7963
  16   2.0000     -19.243566      -523.6440
  17   2.0000     -19.243484      -523.6418
  18   2.0000     -19.196811      -522.3718
  19   2.0000     -14.645862      -398.5342
  20   2.0000     -14.643435      -398.4681
  21   2.0000     -14.397525      -391.7766
  22   2.0000     -14.394845      -391.7037
  23   2.0000     -10.354410      -281.7578
  24   2.0000     -10.347081      -281.5584
  25   2.0000     -10.345786      -281.5232
  26   2.0000     -10.345251      -281.5086
  27   2.0000     -10.342252      -281.4270
  28   2.0000     -10.342057      -281.4217
  29   2.0000     -10.338132      -281.3149
  30   2.0000     -10.335286      -281.2374
  31   2.0000     -10.328360      -281.0490
  32   2.0000     -10.327069      -281.0138
  33   2.0000     -10.324058      -280.9319
  34   2.0000     -10.320694      -280.8404
  35   2.0000     -10.320467      -280.8342
  36   2.0000     -10.318561      -280.7823
  37   2.0000     -10.318462      -280.7796
  38   2.0000     -10.316948      -280.7384
  39   2.0000     -10.313324      -280.6398
  40   2.0000     -10.310195      -280.5547
  41   2.0000     -10.306872      -280.4643
  42   2.0000     -10.306506      -280.4543
  43   2.0000     -10.306314      -280.4491
  44   2.0000     -10.305998      -280.4405
  45   2.0000     -10.304155      -280.3903
  46   2.0000     -10.303736      -280.3789
  47   2.0000     -10.302913      -280.3565
  48   2.0000     -10.301444      -280.3165
  49   2.0000     -10.300727      -280.2970
  50   2.0000     -10.300405      -280.2883
  51   2.0000     -10.300182      -280.2822
  52   2.0000     -10.299234      -280.2564
  53   2.0000     -10.297659      -280.2136
  54   2.0000     -10.294549      -280.1289
  55   2.0000     -10.292069      -280.0614
  56   2.0000     -10.290658      -280.0230
  57   2.0000     -10.290648      -280.0228
  58   2.0000     -10.288700      -279.9698
  59   2.0000     -10.284889      -279.8661
  60   2.0000     -10.284753      -279.8624
  61   2.0000     -10.284585      -279.8578
  62   2.0000     -10.284085      -279.8442
  63   2.0000     -10.281867      -279.7838
  64   2.0000     -10.280704      -279.7522
  65   2.0000     -10.279242      -279.7124
  66   2.0000     -10.274521      -279.5839
  67   2.0000     -10.273198      -279.5479
  68   2.0000     -10.271067      -279.4899
  69   2.0000     -10.265914      -279.3497
  70   2.0000      -8.781969      -238.9695
  71   2.0000      -8.068568      -219.5569
  72   2.0000      -8.061852      -219.3741
  73   2.0000      -8.058129      -219.2728
  74   2.0000      -8.053046      -219.1345
  75   2.0000      -8.052094      -219.1086
  76   2.0000      -8.035685      -218.6621
  77   2.0000      -8.029197      -218.4856
  78   2.0000      -6.618203      -180.0905
  79   2.0000      -6.603735      -179.6968
  80   2.0000      -6.603550      -179.6917
  81   2.0000      -6.038096      -164.3049
  82   2.0000      -6.033806      -164.1882
  83   2.0000      -6.031570      -164.1274
  84   2.0000      -6.030326      -164.0935
  85   2.0000      -6.027840      -164.0259
  86   2.0000      -6.027420      -164.0144
  87   2.0000      -6.023549      -163.9091
  88   2.0000      -6.022860      -163.8903
  89   2.0000      -6.022639      -163.8843
  90   2.0000      -6.022411      -163.8781
  91   2.0000      -6.019353      -163.7949
  92   2.0000      -6.018603      -163.7745
  93   2.0000      -6.018383      -163.7685
  94   2.0000      -6.014242      -163.6558
  95   2.0000      -6.012228      -163.6010
  96   2.0000      -6.005524      -163.4186
  97   2.0000      -6.001284      -163.3032
  98   2.0000      -5.998978      -163.2405
  99   2.0000      -5.996589      -163.1755
 100   2.0000      -5.995012      -163.1326
 101   2.0000      -5.989806      -162.9909
 102   2.0000      -2.734106       -74.3988
 103   2.0000      -2.729973       -74.2863
 104   2.0000      -2.729925       -74.2850
 105   2.0000      -2.718386       -73.9710
 106   2.0000      -2.718373       -73.9707
 107   2.0000      -1.332606       -36.2621
 108   2.0000      -1.324454       -36.0402
 109   2.0000      -1.220716       -33.2174
 110   2.0000      -1.159797       -31.5597
 111   2.0000      -1.153172       -31.3794
 112   2.0000      -1.148019       -31.2392
 113   2.0000      -1.109943       -30.2031
 114   2.0000      -1.017120       -27.6773
 115   2.0000      -1.010534       -27.4980
 116   2.0000      -1.006552       -27.3897
 117   2.0000      -0.995874       -27.0991
 118   2.0000      -0.989107       -26.9150
 119   2.0000      -0.988566       -26.9003
 120   2.0000      -0.977107       -26.5884
 121   2.0000      -0.975249       -26.5379
 122   2.0000      -0.971436       -26.4341
 123   2.0000      -0.966226       -26.2924
 124   2.0000      -0.936601       -25.4862
 125   2.0000      -0.928051       -25.2536
 126   2.0000      -0.921258       -25.0687
 127   2.0000      -0.907321       -24.6895
 128   2.0000      -0.899849       -24.4861
 129   2.0000      -0.894268       -24.3343
 130   2.0000      -0.891509       -24.2592
 131   2.0000      -0.878771       -23.9126
 132   2.0000      -0.874795       -23.8044
 133   2.0000      -0.870103       -23.6767
 134   2.0000      -0.866541       -23.5798
 135   2.0000      -0.861440       -23.4410
 136   2.0000      -0.852017       -23.1846
 137   2.0000      -0.847328       -23.0570
 138   2.0000      -0.840921       -22.8826
 139   2.0000      -0.836411       -22.7599
 140   2.0000      -0.831653       -22.6304
 141   2.0000      -0.819177       -22.2909
 142   2.0000      -0.813935       -22.1483
 143   2.0000      -0.812219       -22.1016
 144   2.0000      -0.800671       -21.7874
 145   2.0000      -0.787437       -21.4272
 146   2.0000      -0.777799       -21.1650
 147   2.0000      -0.770470       -20.9656
 148   2.0000      -0.750819       -20.4308
 149   2.0000      -0.741472       -20.1765
 150   2.0000      -0.733990       -19.9729
 151   2.0000      -0.717163       -19.5150
 152   2.0000      -0.714395       -19.4397
 153   2.0000      -0.707268       -19.2457
 154   2.0000      -0.699061       -19.0224
 155   2.0000      -0.687510       -18.7081
 156   2.0000      -0.681146       -18.5349
 157   2.0000      -0.674386       -18.3510
 158   2.0000      -0.671713       -18.2782
 159   2.0000      -0.669833       -18.2271
 160   2.0000      -0.667245       -18.1567
 161   2.0000      -0.660222       -17.9656
 162   2.0000      -0.654047       -17.7975
 163   2.0000      -0.644098       -17.5268
 164   2.0000      -0.642639       -17.4871
 165   2.0000      -0.642002       -17.4698
 166   2.0000      -0.639971       -17.4145
 167   2.0000      -0.634808       -17.2740
 168   2.0000      -0.631616       -17.1872
 169   2.0000      -0.629819       -17.1383
 170   2.0000      -0.621138       -16.9020
 171   2.0000      -0.617191       -16.7946
 172   2.0000      -0.616586       -16.7782
 173   2.0000      -0.607065       -16.5191
 174   2.0000      -0.605022       -16.4635
 175   2.0000      -0.602968       -16.4076
 176   2.0000      -0.597723       -16.2649
 177   2.0000      -0.593489       -16.1497
 178   2.0000      -0.589098       -16.0302
 179   2.0000      -0.584344       -15.9008
 180   2.0000      -0.583174       -15.8690
 181   2.0000      -0.582461       -15.8496
 182   2.0000      -0.577744       -15.7212
 183   2.0000      -0.577557       -15.7161
 184   2.0000      -0.566352       -15.4112
 185   2.0000      -0.557569       -15.1722
 186   2.0000      -0.547776       -14.9057
 187   2.0000      -0.545212       -14.8360
 188   2.0000      -0.541195       -14.7267
 189   2.0000      -0.532793       -14.4980
 190   2.0000      -0.532449       -14.4887
 191   2.0000      -0.529068       -14.3967
 192   2.0000      -0.527840       -14.3633
 193   2.0000      -0.522198       -14.2097
 194   2.0000      -0.521609       -14.1937
 195   2.0000      -0.519308       -14.1311
 196   2.0000      -0.516964       -14.0673
 197   2.0000      -0.513608       -13.9760
 198   2.0000      -0.512233       -13.9386
 199   2.0000      -0.510386       -13.8883
 200   2.0000      -0.508596       -13.8396
 201   2.0000      -0.505304       -13.7500
 202   2.0000      -0.503779       -13.7085
 203   2.0000      -0.497100       -13.5268
 204   2.0000      -0.493952       -13.4411
 205   2.0000      -0.493638       -13.4326
 206   2.0000      -0.491951       -13.3867
 207   2.0000      -0.490285       -13.3413
 208   2.0000      -0.488211       -13.2849
 209   2.0000      -0.486132       -13.2283
 210   2.0000      -0.483270       -13.1505
 211   2.0000      -0.480813       -13.0836
 212   2.0000      -0.478429       -13.0187
 213   2.0000      -0.477554       -12.9949
 214   2.0000      -0.475437       -12.9373
 215   2.0000      -0.474205       -12.9038
 216   2.0000      -0.470644       -12.8069
 217   2.0000      -0.464783       -12.6474
 218   2.0000      -0.462278       -12.5792
 219   2.0000      -0.457584       -12.4515
 220   2.0000      -0.456154       -12.4126
 221   2.0000      -0.455115       -12.3843
 222   2.0000      -0.452458       -12.3120
 223   2.0000      -0.447534       -12.1780
 224   2.0000      -0.445728       -12.1289
 225   2.0000      -0.443562       -12.0699
 226   2.0000      -0.439662       -11.9638
 227   2.0000      -0.437108       -11.8943
 228   2.0000      -0.433186       -11.7876
 229   2.0000      -0.432711       -11.7747
 230   2.0000      -0.431567       -11.7435
 231   2.0000      -0.426100       -11.5948
 232   2.0000      -0.425038       -11.5659
 233   2.0000      -0.423929       -11.5357
 234   2.0000      -0.419364       -11.4115
 235   2.0000      -0.414492       -11.2789
 236   2.0000      -0.410535       -11.1712
 237   2.0000      -0.408647       -11.1198
 238   2.0000      -0.405674       -11.0390
 239   2.0000      -0.404103       -10.9962
 240   2.0000      -0.399995       -10.8844
 241   2.0000      -0.393957       -10.7201
 242   2.0000      -0.389302       -10.5935
 243   2.0000      -0.389208       -10.5909
 244   2.0000      -0.385120       -10.4797
 245   2.0000      -0.380178       -10.3452
 246   2.0000      -0.378556       -10.3010
 247   2.0000      -0.376311       -10.2399
 248   2.0000      -0.374640       -10.1945
 249   2.0000      -0.374064       -10.1788
 250   2.0000      -0.370094       -10.0708
 251   2.0000      -0.369085       -10.0433
 252   2.0000      -0.364444        -9.9170
 253   2.0000      -0.356749        -9.7076
 254   2.0000      -0.350617        -9.5408
 255   2.0000      -0.344658        -9.3786
 256   2.0000      -0.336145        -9.1470
 257   2.0000      -0.331951        -9.0328
 258   2.0000      -0.330784        -9.0011
 259   2.0000      -0.329043        -8.9537
 260   2.0000      -0.318356        -8.6629
 261   2.0000      -0.317315        -8.6346
 262   2.0000      -0.309048        -8.4096
 263   2.0000      -0.300560        -8.1787
 264   2.0000      -0.293999        -8.0001
 265   2.0000      -0.279083        -7.5942
 266   2.0000      -0.267935        -7.2909
 267   2.0000      -0.228738        -6.2243
 268   2.0000      -0.203404        -5.5349
 269   0.0000      -0.110942        -3.0189
 270   0.0000      -0.069886        -1.9017
 271   0.0000      -0.054139        -1.4732
 272   0.0000      -0.039113        -1.0643
 273   0.0000      -0.021055        -0.5729

MULLIKEN ATOMIC CHARGES
-----------------------
   0 C :   -0.016738
   1 C :   -0.064408
   2 C :    0.056611
   3 C :    0.029128
   4 C :   -0.052597
   5 S :    0.083560
   6 C :   -0.044043
   7 C :    0.029806
   8 C :    0.025640
   9 C :    0.002443
  10 S :    0.070862
  11 C :   -0.065866
  12 C :    0.108540
  13 O :   -0.237809
  14 C :    0.124686
  15 C :   -0.131181
  16 C :    0.079083
  17 O :   -0.171498
  18 S :    0.023827
  19 C :   -0.151947
  20 S :    0.119534
  21 C :   -0.137692
  22 C :   -0.059609
  23 C :   -0.099808
  24 C :    0.209121
  25 C :    0.020710
  26 N :    0.238166
  27 O :   -0.208498
  28 O :   -0.235908
  29 C :    0.020183
  30 N :    0.226800
  31 O :   -0.224821
  32 O :   -0.228584
  33 C :    0.179744
  34 C :   -0.009103
  35 C :   -0.043100
  36 C :    0.043669
  37 C :    0.027238
  38 C :   -0.034404
  39 S :    0.102143
  40 C :   -0.050470
  41 C :    0.040380
  42 C :    0.026047
  43 C :    0.003696
  44 S :    0.109061
  45 C :   -0.021450
  46 C :   -0.041356
  47 C :   -0.088311
  48 C :    0.328689
  49 C :   -0.364594
  50 C :   -0.190096
  51 N :    0.136342
  52 C :   -0.190246
  53 N :    0.130596
  54 C :    0.011336
  55 C :   -0.008354
  56 C :    0.132937
  57 O :   -0.165889
  58 C :   -0.076173
  59 C :    0.117013
  60 C :   -0.093756
  61 C :   -0.024366
  62 S :    0.178412
  63 C :   -0.124645
  64 C :    0.037764
  65 Br:    0.012439
  66 H :    0.020319
  67 H :    0.034629
  68 H :   -0.010164
  69 H :   -0.012678
  70 H :   -0.013778
  71 H :   -0.014282
  72 H :   -0.000864
  73 H :    0.188640
  74 H :    0.083292
  75 H :    0.052297
  76 H :    0.043401
  77 H :    0.066607
  78 H :    0.037587
  79 H :    0.059652
  80 H :    0.042552
  81 H :    0.006930
  82 H :   -0.002252
  83 H :   -0.006681
  84 H :   -0.005272
  85 H :   -0.000314
  86 H :    0.016180
  87 H :    0.017605
  88 H :   -0.015661
  89 H :   -0.010377
  90 H :   -0.006257
Sum of atomic charges:   -0.0000000

LOEWDIN ATOMIC CHARGES
----------------------
   0 C :   -0.058407
   1 C :   -0.140404
   2 C :   -0.023603
   3 C :   -0.029340
   4 C :   -0.168148
   5 S :    0.377037
   6 C :   -0.190846
   7 C :   -0.025708
   8 C :   -0.042003
   9 C :   -0.138502
  10 S :    0.389507
  11 C :   -0.085962
  12 C :    0.006985
  13 O :    0.004499
  14 C :   -0.006768
  15 C :   -0.238247
  16 C :   -0.004797
  17 O :   -0.042417
  18 S :    0.223426
  19 C :   -0.171719
  20 S :    0.442416
  21 C :   -0.189269
  22 C :   -0.047409
  23 C :   -0.061825
  24 C :   -0.020982
  25 C :    0.005678
  26 N :    0.275142
  27 O :   -0.175950
  28 O :   -0.201199
  29 C :    0.004607
  30 N :    0.275301
  31 O :   -0.189142
  32 O :   -0.198025
  33 C :   -0.026445
  34 C :   -0.054942
  35 C :   -0.163180
  36 C :   -0.013814
  37 C :   -0.040714
  38 C :   -0.150057
  39 S :    0.419831
  40 C :   -0.193434
  41 C :   -0.009620
  42 C :   -0.042069
  43 C :   -0.104194
  44 S :    0.413511
  45 C :   -0.071929
  46 C :    0.048388
  47 C :   -0.108502
  48 C :    0.072774
  49 C :   -0.156759
  50 C :   -0.018573
  51 N :   -0.069805
  52 C :   -0.020534
  53 N :   -0.069166
  54 C :   -0.017561
  55 C :   -0.048448
  56 C :    0.081337
  57 O :   -0.159950
  58 C :    0.016671
  59 C :   -0.036365
  60 C :   -0.145819
  61 C :   -0.013739
  62 S :    0.426551
  63 C :   -0.275141
  64 C :   -0.071320
  65 Br:    0.128384
  66 H :    0.029329
  67 H :    0.031617
  68 H :    0.034064
  69 H :    0.031819
  70 H :    0.031644
  71 H :    0.032574
  72 H :    0.045484
  73 H :    0.091000
  74 H :   -0.024146
  75 H :    0.044570
  76 H :    0.034084
  77 H :    0.051759
  78 H :    0.042249
  79 H :    0.032481
  80 H :    0.042284
  81 H :    0.038614
  82 H :    0.037112
  83 H :    0.034958
  84 H :    0.035002
  85 H :    0.038641
  86 H :    0.038476
  87 H :    0.031417
  88 H :    0.038478
  89 H :    0.039835
  90 H :    0.037360

  Mayer bond orders larger than 0.100000
B(  0-C ,  1-C ) :   1.8660 B(  0-C , 66-H ) :   0.9502 B(  0-C , 67-H ) :   0.9385
B(  1-C ,  2-C ) :   1.0793 B(  1-C ,  5-S ) :   1.0187 B(  2-C ,  3-C ) :   1.6601
B(  2-C , 68-H ) :   0.9925 B(  3-C ,  4-C ) :   1.1526 B(  3-C , 69-H ) :   0.9923
B(  4-C ,  5-S ) :   1.0608 B(  4-C ,  6-C ) :   1.5346 B(  6-C ,  7-C ) :   1.1851
B(  6-C , 10-S ) :   1.0207 B(  7-C ,  8-C ) :   1.5915 B(  7-C , 70-H ) :   0.9940
B(  8-C ,  9-C ) :   1.1470 B(  8-C , 71-H ) :   1.0001 B(  9-C , 10-S ) :   1.0572
B(  9-C , 11-C ) :   1.5263 B( 11-C , 12-C ) :   1.2013 B( 11-C , 72-H ) :   0.9664
B( 12-C , 13-O ) :   1.0881 B( 12-C , 14-C ) :   0.1125 B( 12-C , 16-C ) :   1.3559
B( 13-O , 14-C ) :   1.1427 B( 14-C , 15-C ) :   1.4171 B( 14-C , 19-C ) :   1.1674
B( 15-C , 16-C ) :   1.3068 B( 15-C , 18-S ) :   1.0066 B( 16-C , 17-O ) :   1.2828
B( 17-O , 73-H ) :   0.9425 B( 18-S , 74-H ) :   0.9326 B( 19-C , 20-S ) :   1.1263
B( 19-C , 21-C ) :   0.1029 B( 19-C , 23-C ) :   1.4547 B( 20-S , 21-C ) :   1.0726
B( 21-C , 22-C ) :   1.4598 B( 21-C , 34-C ) :   1.1587 B( 22-C , 23-C ) :   1.3516
B( 22-C , 33-C ) :   1.0506 B( 23-C , 24-C ) :   1.0516 B( 24-C , 25-C ) :   1.0389
B( 24-C , 75-H ) :   0.8973 B( 24-C , 76-H ) :   0.8944 B( 25-C , 26-N ) :   0.8365
B( 25-C , 29-C ) :   0.9833 B( 25-C , 77-H ) :   0.8952 B( 26-N , 27-O ) :   1.5696
B( 26-N , 28-O ) :   1.5461 B( 27-O , 28-O ) :   0.2753 B( 29-C , 30-N ) :   0.8399
B( 29-C , 33-C ) :   1.0400 B( 29-C , 78-H ) :   0.9073 B( 30-N , 31-O ) :   1.5803
B( 30-N , 32-O ) :   1.5594 B( 31-O , 32-O ) :   0.2725 B( 33-C , 79-H ) :   0.8770
B( 33-C , 80-H ) :   0.9108 B( 34-C , 35-C ) :   1.5875 B( 34-C , 81-H ) :   0.9469
B( 35-C , 36-C ) :   1.1555 B( 35-C , 39-S ) :   1.0298 B( 36-C , 37-C ) :   1.5715
B( 36-C , 82-H ) :   0.9993 B( 37-C , 38-C ) :   1.2043 B( 37-C , 83-H ) :   0.9938
B( 38-C , 39-S ) :   1.0831 B( 38-C , 40-C ) :   1.4521 B( 40-C , 41-C ) :   1.2259
B( 40-C , 44-S ) :   1.0491 B( 41-C , 42-C ) :   1.5308 B( 41-C , 84-H ) :   0.9947
B( 42-C , 43-C ) :   1.1878 B( 42-C , 85-H ) :   1.0023 B( 43-C , 44-S ) :   1.0892
B( 43-C , 45-C ) :   1.4037 B( 45-C , 46-C ) :   1.2699 B( 45-C , 86-H ) :   0.9795
B( 46-C , 47-C ) :   1.4703 B( 46-C , 87-H ) :   0.9424 B( 47-C , 48-C ) :   1.1201
B( 47-C , 56-C ) :   0.9698 B( 48-C , 49-C ) :   1.5781 B( 48-C , 54-C ) :   0.9886
B( 49-C , 50-C ) :   1.1525 B( 49-C , 52-C ) :   1.1562 B( 50-C , 51-N ) :   2.9601
B( 52-C , 53-N ) :   2.9563 B( 54-C , 55-C ) :   1.2795 B( 54-C , 61-C ) :   1.4237
B( 55-C , 56-C ) :   0.9346 B( 55-C , 58-C ) :   1.4328 B( 56-C , 57-O ) :   2.1865
B( 58-C , 59-C ) :   1.2409 B( 58-C , 88-H ) :   1.0156 B( 59-C , 60-C ) :   1.3179
B( 59-C , 64-C ) :   1.1595 B( 60-C , 61-C ) :   1.3208 B( 60-C , 62-S ) :   1.0818
B( 61-C , 89-H ) :   0.9787 B( 62-S , 63-C ) :   1.0855 B( 63-C , 64-C ) :   1.6202
B( 63-C , 65-Br) :   1.0124 B( 64-C , 90-H ) :   1.0001

-----------------------------------------------------------------------------
         ABSORPTION SPECTRUM VIA TRANSITION ELECTRIC DIPOLE MOMENTS
-----------------------------------------------------------------------------
State   Energy  Wavelength   fosc         T2         TX        TY        TZ
        (cm-1)    (nm)                  (au**2)     (au)      (au)      (au)
-----------------------------------------------------------------------------
   0    8245.2   1212.8   0.781671718  31.21050  -0.40911   2.61194  -4.92147
   1   13430.3    744.6   0.725177716  17.77600   3.21915  -2.56963   0.90004
   2   16258.8    615.1   0.632027451  12.79741   1.96201  -2.31647  -1.89260
   3   20622.3    484.9   0.152057765   2.42743   0.21728   1.54184   0.05428
   4   21431.9    466.6   0.115548082   1.77491   0.98017   0.11394  -0.89510
   5   21911.7    456.4   0.318916538   4.79156   1.26337   1.74496  -0.38804
   6   22287.9    448.7   0.167031857   2.46721  -1.17061  -0.86034   0.59725
   7   23594.0    423.8   0.511808767   7.14136   1.35889   2.27215  -0.36343
   8   24582.5    406.8   0.181733455   2.43379   1.35449  -0.02689   0.77358
   9   26182.5    381.9   0.054983978   0.69135   0.05731   0.65066  -0.51450
  10   26444.7    378.1   0.143289058   1.78382  -0.92795  -0.95531  -0.10052
  11   26722.8    374.2   0.000938618   0.01156   0.03392   0.10137  -0.01165
  12   27105.9    368.9   0.002211498   0.02686  -0.01969  -0.13549   0.09008
  13   28207.4    354.5   0.009330334   0.10890  -0.18478   0.13799   0.23603
  14   28348.6    352.8   0.055138209   0.64032   0.32062  -0.72519  -0.10779
  15   29031.5    344.5   0.062780273   0.71192   0.36126   0.70674  -0.28624
  16   29575.2    338.1   0.007319226   0.08147  -0.09666   0.09263   0.25209
  17   30484.6    328.0   0.184941207   1.99723   1.29654   0.54248  -0.14811
  18   30655.9    326.2   0.111610981   1.19858  -0.44429   0.99922  -0.05253
  19   31035.2    322.2   0.017997300   0.19091   0.26479   0.33626   0.08788
  20   31750.2    315.0   0.338484533   3.50968   0.30171  -1.34277   1.27107
  21   32259.3    310.0   0.026900021   0.27452   0.27465  -0.38396   0.22729
  22   32319.6    309.4   0.310381562   3.16159   0.92981  -1.25921   0.84346
  23   32457.1    308.1   0.017217015   0.17463  -0.15028   0.34778   0.17635
  24   32858.0    304.3   0.059679015   0.59794   0.67068   0.37516   0.08594
  25   32926.6    303.7   0.031595492   0.31590  -0.21268   0.43925  -0.27881
  26   32999.7    303.0   0.006515224   0.06500   0.21534  -0.13072   0.03925
  27   33629.5    297.4   0.055066890   0.53907  -0.38994   0.47358  -0.40340
  28   34025.2    293.9   0.031098579   0.30090  -0.05943  -0.15400   0.52311
  29   34625.6    288.8   0.034825923   0.33112   0.43035   0.01704  -0.38161
  30   34705.8    288.1   0.010493574   0.09954  -0.08553  -0.24515   0.17924
  31   35330.5    283.0   0.009190161   0.08563   0.20193   0.08523  -0.19390
  32   35421.3    282.3   0.017427845   0.16198   0.02586  -0.18594   0.35600
  33   35584.9    281.0   0.011418586   0.10564   0.14176   0.28630   0.05982
  34   35784.5    279.5   0.045763167   0.42101  -0.21131  -0.60383  -0.10843
  35   35915.7    278.4   0.062852103   0.57612  -0.02208   0.59448  -0.47140
  36   36493.8    274.0   0.117750194   1.06223  -0.42954   0.88025   0.32075
  37   36866.9    271.2   0.009864881   0.08809  -0.04957   0.10131   0.27454
  38   37352.4    267.7   0.024213420   0.21341   0.04891   0.45780  -0.03792
  39   37586.5    266.1   0.117514709   1.02928  -0.41986  -0.62318   0.68165
  40   38100.6    262.5   0.074112248   0.64037  -0.12691  -0.51733   0.59719
  41   38338.6    260.8   0.036307884   0.31177  -0.47575  -0.06619   0.28470
  42   38859.0    257.3   0.052702971   0.44650  -0.21979  -0.40754   0.48177
  43   39196.0    255.1   0.062050333   0.52117   0.64286   0.16325  -0.28504
  44   39675.9    252.0   0.037112392   0.30794  -0.06375   0.54307  -0.09460
  45   39974.3    250.2   0.021420128   0.17641  -0.21203   0.35556  -0.07091
  46   40098.6    249.4   0.086408852   0.70942  -0.57791  -0.26904   0.55051

FINAL SINGLE POINT ENERGY     -7908.619278689092

DIPOLE MOMENT
-------------
                                X             Y             Z
Electronic contribution:     92.38694     -89.21868     119.65337
Nuclear contribution   :    -95.68556      91.79534    -120.21929
                        -----------------------------------------
Total Dipole Moment    :     -3.29862       2.57667      -0.56592
                        -----------------------------------------
Magnitude (a.u.)       :      4.22379
Magnitude (Debye)      :     10.73602

Rotational constants in cm-1:     0.001157     0.000294     0.000265
Rotational constants in MHz :    34.681779     8.809713     7.933287

                             ****ORCA TERMINATED NORMALLY****
TOTAL RUN TIME: 0 days 0 hours 11 minutes 14 seconds 120 msec
