                         Program Version 4.2.0 -  RELEASE  -
|  1> # ORCA input file
|  2> # SCF done       -162.890914480467          0.000908585766
|  3> ! CAM-B3LYP def2-SVP def2/J RIJCOSX Grid4 TightSCF
|  4> %maxcore 5000
|  5> %tddft
|  6>     Mode sTDDFT
|  7>     Ethresh 5.0
|  8>     maxcore 5000
|  9> end
| 10>
| 11> %pal
| 12>   nprocs 6
| 13>   end
| 14> * xyz 0 1
| 15>    C       14.66193         4.34763        -9.14897
| 16>    C       14.77633         3.32136        -8.29710
| 17>    C       15.89732         2.99404        -7.46045
| 18>    C       15.72622         1.89299        -6.69978
| 19>    C       14.46251         1.25355        -6.86531
| 20>    S       13.49447         2.12567        -8.04259
| 21>    C       14.00932         0.12630        -6.23540
| 22>    C       14.68014        -0.66043        -5.25757
| 23>    C       13.96725        -1.71888        -4.81260
| 24>    C       12.66933        -1.85657        -5.40362
| 25>    S       12.42110        -0.54979        -6.56719
| 26>    C       11.78559        -2.85183        -5.15279
| 27>    C       10.49270        -3.06243        -5.79062
| 28>    C       10.28364        -4.33041        -6.34116
| 29>    C        9.14083        -4.64694        -7.05217
| 30>    C        8.97958        -6.00897        -7.68107
| 31>    N        9.52010        -6.07996        -9.03346
| 32>    C        8.18471        -3.65526        -7.23487
| 33>    C        8.34535        -2.42062        -6.63889
| 34>    C        9.47082        -2.10803        -5.88533
| 35>    C        9.48589        -0.79377        -5.13952
| 36>    N       10.00617        -0.92279        -3.79504
| 37>    C        9.61029        -0.16750        -2.72591
| 38>    C        8.41174         0.39245        -2.49617
| 39>    C        8.13288         1.19887        -1.31423
| 40>    C        9.12132         2.04640        -0.81019
| 41>    C        8.90902         2.85270         0.29545
| 42>    C        9.97751         3.81398         0.75602
| 43>    N        9.91173         5.10588         0.07907
| 44>    C        7.66238         2.83261         0.90839
| 45>    C        6.67114         1.99699         0.42905
| 46>    C        6.88422         1.17831        -0.66940
| 47>    C        5.81102         0.21411        -1.09317
| 48>    N        6.22846        -1.13857        -0.77824
| 49>    C        5.59117        -2.23317        -1.29277
| 50>    C        4.38598        -2.26933        -1.88107
| 51>    C        3.85600        -3.50005        -2.45442
| 52>    C        4.10142        -4.72725        -1.83954
| 53>    C        3.69749        -5.92586        -2.40102
| 54>    C        4.06546        -7.22648        -1.73973
| 55>    N        5.46270        -7.19281        -1.32110
| 56>    C        2.98297        -5.90377        -3.59047
| 57>    C        2.72572        -4.69838        -4.21396
| 58>    C        3.16998        -3.49678        -3.67997
| 59>    C        2.96008        -2.23681        -4.48383
| 60>    N        4.14642        -1.40801        -4.65433
| 61>    C        5.42369        -1.82111        -4.46065
| 62>    C        5.89986        -3.08876        -4.55654
| 63>    C        7.18773        -3.43717        -4.10945
| 64>    C        7.66173        -4.71688        -4.07531
| 65>    C        8.90960        -5.16580        -3.57921
| 66>    C        9.09352        -6.51038        -3.64414
| 67>    C        7.99329        -7.21676        -4.19339
| 68>    S        6.72506        -6.09346        -4.65284
| 69>    C        7.84780        -8.57361        -4.34527
| 70>    C        8.78247        -9.59502        -4.03302
| 71>    C        8.34613       -10.85166        -4.27889
| 72>    C        7.01644       -10.92647        -4.81048
| 73>    S        6.36611        -9.28744        -4.97365
| 74>    C        6.32580       -12.02568        -5.14551
| 75>    H       15.46666         5.05061        -9.27283
| 76>    H       13.77261         4.50292        -9.73180
| 77>    H       16.78272         3.60483        -7.47047
| 78>    H       16.46288         1.50542        -6.01832
| 79>    H       15.66986        -0.41126        -4.91877
| 80>    H       14.31277        -2.42345        -4.07606
| 81>    H       12.12633        -3.65008        -4.50322
| 82>    H       11.05371        -5.08021        -6.21780
| 83>    H        7.92116        -6.27511        -7.73228
| 84>    H        9.49415        -6.76309        -7.07956
| 85>    H        9.04834        -5.40724        -9.62917
| 86>    H       10.50620        -5.83877        -9.02449
| 87>    H        7.29014        -3.86804        -7.80125
| 88>    H        7.56238        -1.68321        -6.74055
| 89>    H        8.46354        -0.41965        -5.08071
| 90>    H       10.07349        -0.05327        -5.70722
| 91>    H       10.96665        -1.22929        -3.77137
| 92>    H       10.36147        -0.10893        -1.94626
| 93>    H        7.60577         0.27470        -3.20519
| 94>    H       10.07876         2.08498        -1.31141
| 95>    H       10.97035         3.39699         0.56651
| 96>    H        9.88000         4.00206         1.82839
| 97>    H        9.00502         5.53249         0.24327
| 98>    H       10.00433         4.97219        -0.92329
| 99>    H        7.47281         3.46322         1.76513
|100>    H        5.71067         1.97249         0.92395
|101>    H        5.60471         0.31305        -2.17116
|102>    H        4.88005         0.42990        -0.55719
|103>    H        7.22472        -1.23657        -0.65669
|104>    H        6.15778        -3.14871        -1.19464
|105>    H        3.81095        -1.36516        -2.01714
|106>    H        4.63581        -4.75585        -0.90314
|107>    H        3.83997        -8.05606        -2.43012
|108>    H        3.45812        -7.36648        -0.83695
|109>    H        6.04844        -7.01355        -2.13091
|110>    H        5.73220        -8.09434        -0.94118
|111>    H        2.65087        -6.82664        -4.04248
|112>    H        2.19533        -4.69313        -5.15667
|113>    H        2.19758        -1.61540        -3.99918
|114>    H        2.57569        -2.51396        -5.47421
|115>    H        3.98527        -0.42150        -4.53090
|116>    H        6.11725        -1.02753        -4.20948
|117>    H        5.26179        -3.88946        -4.89424
|118>    H        7.82473        -2.66070        -3.70825
|119>    H        9.62505        -4.46823        -3.17904
|120>    H        9.97585        -7.02185        -3.30184
|121>    H        9.75396        -9.35958        -3.63402
|122>    H        8.91697       -11.74666        -4.10396
|123>    H        6.75995       -13.00294        -5.02953
|124>    H        5.32768       -11.96850        -5.53884
|125> *
|126>
|127>                          ****END OF INPUT****

CARTESIAN COORDINATES (ANGSTROEM)
---------------------------------
  C     14.661930    4.347630   -9.148970
  C     14.776330    3.321360   -8.297100
  C     15.897320    2.994040   -7.460450
  C     15.726220    1.892990   -6.699780
  C     14.462510    1.253550   -6.865310
  S     13.494470    2.125670   -8.042590
  C     14.009320    0.126300   -6.235400
  C     14.680140   -0.660430   -5.257570
  C     13.967250   -1.718880   -4.812600
  C     12.669330   -1.856570   -5.403620
  S     12.421100   -0.549790   -6.567190
  C     11.785590   -2.851830   -5.152790
  C     10.492700   -3.062430   -5.790620
  C     10.283640   -4.330410   -6.341160
  C      9.140830   -4.646940   -7.052170
  C      8.979580   -6.008970   -7.681070
  N      9.520100   -6.079960   -9.033460
  C      8.184710   -3.655260   -7.234870
  C      8.345350   -2.420620   -6.638890
  C      9.470820   -2.108030   -5.885330
  C      9.485890   -0.793770   -5.139520
  N     10.006170   -0.922790   -3.795040
  C      9.610290   -0.167500   -2.725910
  C      8.411740    0.392450   -2.496170
  C      8.132880    1.198870   -1.314230
  C      9.121320    2.046400   -0.810190
  C      8.909020    2.852700    0.295450
  C      9.977510    3.813980    0.756020
  N      9.911730    5.105880    0.079070
  C      7.662380    2.832610    0.908390
  C      6.671140    1.996990    0.429050
  C      6.884220    1.178310   -0.669400
  C      5.811020    0.214110   -1.093170
  N      6.228460   -1.138570   -0.778240
  C      5.591170   -2.233170   -1.292770
  C      4.385980   -2.269330   -1.881070
  C      3.856000   -3.500050   -2.454420
  C      4.101420   -4.727250   -1.839540
  C      3.697490   -5.925860   -2.401020
  C      4.065460   -7.226480   -1.739730
  N      5.462700   -7.192810   -1.321100
  C      2.982970   -5.903770   -3.590470
  C      2.725720   -4.698380   -4.213960
  C      3.169980   -3.496780   -3.679970
  C      2.960080   -2.236810   -4.483830
  N      4.146420   -1.408010   -4.654330
  C      5.423690   -1.821110   -4.460650
  C      5.899860   -3.088760   -4.556540
  C      7.187730   -3.437170   -4.109450
  C      7.661730   -4.716880   -4.075310
  C      8.909600   -5.165800   -3.579210
  C      9.093520   -6.510380   -3.644140
  C      7.993290   -7.216760   -4.193390
  S      6.725060   -6.093460   -4.652840
  C      7.847800   -8.573610   -4.345270
  C      8.782470   -9.595020   -4.033020
  C      8.346130  -10.851660   -4.278890
  C      7.016440  -10.926470   -4.810480
  S      6.366110   -9.287440   -4.973650
  C      6.325800  -12.025680   -5.145510
  H     15.466660    5.050610   -9.272830
  H     13.772610    4.502920   -9.731800
  H     16.782720    3.604830   -7.470470
  H     16.462880    1.505420   -6.018320
  H     15.669860   -0.411260   -4.918770
  H     14.312770   -2.423450   -4.076060
  H     12.126330   -3.650080   -4.503220
  H     11.053710   -5.080210   -6.217800
  H      7.921160   -6.275110   -7.732280
  H      9.494150   -6.763090   -7.079560
  H      9.048340   -5.407240   -9.629170
  H     10.506200   -5.838770   -9.024490
  H      7.290140   -3.868040   -7.801250
  H      7.562380   -1.683210   -6.740550
  H      8.463540   -0.419650   -5.080710
  H     10.073490   -0.053270   -5.707220
  H     10.966650   -1.229290   -3.771370
  H     10.361470   -0.108930   -1.946260
  H      7.605770    0.274700   -3.205190
  H     10.078760    2.084980   -1.311410
  H     10.970350    3.396990    0.566510
  H      9.880000    4.002060    1.828390
  H      9.005020    5.532490    0.243270
  H     10.004330    4.972190   -0.923290
  H      7.472810    3.463220    1.765130
  H      5.710670    1.972490    0.923950
  H      5.604710    0.313050   -2.171160
  H      4.880050    0.429900   -0.557190
  H      7.224720   -1.236570   -0.656690
  H      6.157780   -3.148710   -1.194640
  H      3.810950   -1.365160   -2.017140
  H      4.635810   -4.755850   -0.903140
  H      3.839970   -8.056060   -2.430120
  H      3.458120   -7.366480   -0.836950
  H      6.048440   -7.013550   -2.130910
  H      5.732200   -8.094340   -0.941180
  H      2.650870   -6.826640   -4.042480
  H      2.195330   -4.693130   -5.156670
  H      2.197580   -1.615400   -3.999180
  H      2.575690   -2.513960   -5.474210
  H      3.985270   -0.421500   -4.530900
  H      6.117250   -1.027530   -4.209480
  H      5.261790   -3.889460   -4.894240
  H      7.824730   -2.660700   -3.708250
  H      9.625050   -4.468230   -3.179040
  H      9.975850   -7.021850   -3.301840
  H      9.753960   -9.359580   -3.634020
  H      8.916970  -11.746660   -4.103960
  H      6.759950  -13.002940   -5.029530
  H      5.327680  -11.968500   -5.538840

 Total Charge           Charge          ....    0
 Multiplicity           Mult            ....    1
 Number of Electrons    NEL             ....  456
 Basis Dimension        Dim             .... 1106

ORBITAL ENERGIES
----------------

  NO   OCC          E(Eh)            E(eV)
   0   2.0000     -88.946187     -2420.3488
   1   2.0000     -88.940463     -2420.1930
   2   2.0000     -88.920764     -2419.6570
   3   2.0000     -88.913509     -2419.4596
   4   2.0000     -14.425112      -392.5272
   5   2.0000     -14.417357      -392.3162
   6   2.0000     -14.405704      -391.9991
   7   2.0000     -14.373352      -391.1188
   8   2.0000     -14.365489      -390.9048
   9   2.0000     -14.353436      -390.5768
  10   2.0000     -10.313240      -280.6375
  11   2.0000     -10.312223      -280.6098
  12   2.0000     -10.310906      -280.5740
  13   2.0000     -10.309007      -280.5223
  14   2.0000     -10.304049      -280.3874
  15   2.0000     -10.302611      -280.3483
  16   2.0000     -10.299635      -280.2673
  17   2.0000     -10.299405      -280.2611
  18   2.0000     -10.294460      -280.1265
  19   2.0000     -10.292694      -280.0785
  20   2.0000     -10.292588      -280.0756
  21   2.0000     -10.288897      -279.9751
  22   2.0000     -10.288237      -279.9572
  23   2.0000     -10.287737      -279.9436
  24   2.0000     -10.282314      -279.7960
  25   2.0000     -10.282139      -279.7912
  26   2.0000     -10.281707      -279.7795
  27   2.0000     -10.280443      -279.7451
  28   2.0000     -10.277308      -279.6598
  29   2.0000     -10.273850      -279.5657
  30   2.0000     -10.272761      -279.5360
  31   2.0000     -10.270731      -279.4808
  32   2.0000     -10.269734      -279.4537
  33   2.0000     -10.269565      -279.4491
  34   2.0000     -10.269504      -279.4474
  35   2.0000     -10.266390      -279.3627
  36   2.0000     -10.264654      -279.3154
  37   2.0000     -10.263921      -279.2955
  38   2.0000     -10.262888      -279.2674
  39   2.0000     -10.260653      -279.2066
  40   2.0000     -10.260489      -279.2021
  41   2.0000     -10.259863      -279.1851
  42   2.0000     -10.258615      -279.1511
  43   2.0000     -10.258428      -279.1460
  44   2.0000     -10.258340      -279.1436
  45   2.0000     -10.256768      -279.1009
  46   2.0000     -10.256300      -279.0881
  47   2.0000     -10.255463      -279.0653
  48   2.0000     -10.254917      -279.0505
  49   2.0000     -10.254851      -279.0487
  50   2.0000     -10.251369      -278.9539
  51   2.0000     -10.250762      -278.9374
  52   2.0000     -10.246751      -278.8283
  53   2.0000     -10.244921      -278.7785
  54   2.0000     -10.243124      -278.7296
  55   2.0000     -10.241619      -278.6886
  56   2.0000     -10.238307      -278.5985
  57   2.0000     -10.233548      -278.4690
  58   2.0000     -10.231989      -278.4266
  59   2.0000     -10.227952      -278.3167
  60   2.0000      -8.041888      -218.8309
  61   2.0000      -8.037154      -218.7021
  62   2.0000      -8.015732      -218.1192
  63   2.0000      -8.009898      -217.9604
  64   2.0000      -6.011712      -163.5870
  65   2.0000      -6.007759      -163.4794
  66   2.0000      -6.006994      -163.4586
  67   2.0000      -6.003110      -163.3529
  68   2.0000      -6.002596      -163.3389
  69   2.0000      -5.997619      -163.2035
  70   2.0000      -5.985515      -162.8741
  71   2.0000      -5.981572      -162.7668
  72   2.0000      -5.979746      -162.7172
  73   2.0000      -5.976693      -162.6341
  74   2.0000      -5.975901      -162.6125
  75   2.0000      -5.970421      -162.4634
  76   2.0000      -1.021634       -27.8001
  77   2.0000      -1.018990       -27.7281
  78   2.0000      -1.007632       -27.4191
  79   2.0000      -0.994302       -27.0563
  80   2.0000      -0.971843       -26.4452
  81   2.0000      -0.966494       -26.2996
  82   2.0000      -0.962337       -26.1865
  83   2.0000      -0.957368       -26.0513
  84   2.0000      -0.943684       -25.6790
  85   2.0000      -0.942584       -25.6490
  86   2.0000      -0.937019       -25.4976
  87   2.0000      -0.934171       -25.4201
  88   2.0000      -0.918600       -24.9964
  89   2.0000      -0.891300       -24.2535
  90   2.0000      -0.877471       -23.8772
  91   2.0000      -0.870845       -23.6969
  92   2.0000      -0.863083       -23.4857
  93   2.0000      -0.858671       -23.3656
  94   2.0000      -0.848464       -23.0879
  95   2.0000      -0.847647       -23.0657
  96   2.0000      -0.845431       -23.0054
  97   2.0000      -0.839584       -22.8462
  98   2.0000      -0.833143       -22.6710
  99   2.0000      -0.827792       -22.5254
 100   2.0000      -0.819679       -22.3046
 101   2.0000      -0.816844       -22.2275
 102   2.0000      -0.806261       -21.9395
 103   2.0000      -0.800513       -21.7831
 104   2.0000      -0.791612       -21.5409
 105   2.0000      -0.786560       -21.4034
 106   2.0000      -0.777923       -21.1683
 107   2.0000      -0.771243       -20.9866
 108   2.0000      -0.764317       -20.7981
 109   2.0000      -0.755788       -20.5660
 110   2.0000      -0.742245       -20.1975
 111   2.0000      -0.722991       -19.6736
 112   2.0000      -0.718813       -19.5599
 113   2.0000      -0.714282       -19.4366
 114   2.0000      -0.708039       -19.2667
 115   2.0000      -0.695690       -18.9307
 116   2.0000      -0.689295       -18.7567
 117   2.0000      -0.687677       -18.7126
 118   2.0000      -0.676941       -18.4205
 119   2.0000      -0.674688       -18.3592
 120   2.0000      -0.660404       -17.9705
 121   2.0000      -0.660358       -17.9692
 122   2.0000      -0.657300       -17.8860
 123   2.0000      -0.641148       -17.4465
 124   2.0000      -0.634532       -17.2665
 125   2.0000      -0.629900       -17.1404
 126   2.0000      -0.628936       -17.1142
 127   2.0000      -0.626430       -17.0460
 128   2.0000      -0.622921       -16.9505
 129   2.0000      -0.612066       -16.6552
 130   2.0000      -0.606933       -16.5155
 131   2.0000      -0.604245       -16.4424
 132   2.0000      -0.601900       -16.3785
 133   2.0000      -0.597281       -16.2528
 134   2.0000      -0.594493       -16.1770
 135   2.0000      -0.588258       -16.0073
 136   2.0000      -0.578722       -15.7478
 137   2.0000      -0.577174       -15.7057
 138   2.0000      -0.572174       -15.5696
 139   2.0000      -0.567601       -15.4452
 140   2.0000      -0.566638       -15.4190
 141   2.0000      -0.561327       -15.2745
 142   2.0000      -0.559703       -15.2303
 143   2.0000      -0.550724       -14.9860
 144   2.0000      -0.550002       -14.9663
 145   2.0000      -0.547086       -14.8870
 146   2.0000      -0.539788       -14.6884
 147   2.0000      -0.537266       -14.6198
 148   2.0000      -0.532125       -14.4798
 149   2.0000      -0.528915       -14.3925
 150   2.0000      -0.526541       -14.3279
 151   2.0000      -0.524048       -14.2601
 152   2.0000      -0.515736       -14.0339
 153   2.0000      -0.514426       -13.9982
 154   2.0000      -0.513192       -13.9647
 155   2.0000      -0.509823       -13.8730
 156   2.0000      -0.503745       -13.7076
 157   2.0000      -0.501575       -13.6485
 158   2.0000      -0.500152       -13.6098
 159   2.0000      -0.498005       -13.5514
 160   2.0000      -0.496667       -13.5150
 161   2.0000      -0.495145       -13.4736
 162   2.0000      -0.492311       -13.3965
 163   2.0000      -0.490689       -13.3523
 164   2.0000      -0.489994       -13.3334
 165   2.0000      -0.489159       -13.3107
 166   2.0000      -0.486738       -13.2448
 167   2.0000      -0.483810       -13.1651
 168   2.0000      -0.481410       -13.0998
 169   2.0000      -0.477743       -13.0001
 170   2.0000      -0.476917       -12.9776
 171   2.0000      -0.471029       -12.8174
 172   2.0000      -0.469693       -12.7810
 173   2.0000      -0.466850       -12.7036
 174   2.0000      -0.464472       -12.6389
 175   2.0000      -0.463184       -12.6039
 176   2.0000      -0.461229       -12.5507
 177   2.0000      -0.457675       -12.4540
 178   2.0000      -0.456624       -12.4254
 179   2.0000      -0.453032       -12.3276
 180   2.0000      -0.451375       -12.2825
 181   2.0000      -0.448815       -12.2129
 182   2.0000      -0.442373       -12.0376
 183   2.0000      -0.440215       -11.9789
 184   2.0000      -0.436201       -11.8696
 185   2.0000      -0.434458       -11.8222
 186   2.0000      -0.432304       -11.7636
 187   2.0000      -0.430616       -11.7177
 188   2.0000      -0.429894       -11.6980
 189   2.0000      -0.426628       -11.6091
 190   2.0000      -0.424992       -11.5646
 191   2.0000      -0.422227       -11.4894
 192   2.0000      -0.421385       -11.4665
 193   2.0000      -0.416094       -11.3225
 194   2.0000      -0.408718       -11.1218
 195   2.0000      -0.405005       -11.0208
 196   2.0000      -0.404250       -11.0002
 197   2.0000      -0.401663       -10.9298
 198   2.0000      -0.397496       -10.8164
 199   2.0000      -0.395782       -10.7698
 200   2.0000      -0.394354       -10.7309
 201   2.0000      -0.390412       -10.6237
 202   2.0000      -0.389983       -10.6120
 203   2.0000      -0.388509       -10.5719
 204   2.0000      -0.385202       -10.4819
 205   2.0000      -0.374684       -10.1957
 206   2.0000      -0.371437       -10.1073
 207   2.0000      -0.363355        -9.8874
 208   2.0000      -0.342985        -9.3331
 209   2.0000      -0.340608        -9.2684
 210   2.0000      -0.331382        -9.0174
 211   2.0000      -0.327462        -8.9107
 212   2.0000      -0.319427        -8.6921
 213   2.0000      -0.315846        -8.5946
 214   2.0000      -0.314846        -8.5674
 215   2.0000      -0.307364        -8.3638
 216   2.0000      -0.306585        -8.3426
 217   2.0000      -0.296666        -8.0727
 218   2.0000      -0.294702        -8.0193
 219   2.0000      -0.289087        -7.8664
 220   2.0000      -0.286815        -7.8046
 221   2.0000      -0.279153        -7.5961
 222   2.0000      -0.271276        -7.3818
 223   2.0000      -0.254230        -6.9180
 224   2.0000      -0.249024        -6.7763
 225   2.0000      -0.233407        -6.3513
 226   2.0000      -0.229498        -6.2450
 227   2.0000      -0.186256        -5.0683
 228   0.0000      -0.060728        -1.6525
 229   0.0000      -0.033063        -0.8997
 230   0.0000       0.007645         0.2080
 231   0.0000       0.021679         0.5899
 232   0.0000       0.029009         0.7894

MULLIKEN ATOMIC CHARGES
-----------------------
   0 C :   -0.028122
   1 C :   -0.065109
   2 C :    0.054073
   3 C :    0.029252
   4 C :   -0.063276
   5 S :    0.077182
   6 C :   -0.067566
   7 C :    0.036914
   8 C :    0.035475
   9 C :   -0.036823
  10 S :    0.094689
  11 C :   -0.133779
  12 C :    0.058320
  13 C :   -0.029680
  14 C :   -0.036774
  15 C :    0.186031
  16 N :   -0.215336
  17 C :   -0.003463
  18 C :    0.018411
  19 C :   -0.076868
  20 C :    0.231258
  21 N :   -0.179182
  22 C :    0.084856
  23 C :   -0.110903
  24 C :    0.095063
  25 C :   -0.099954
  26 C :   -0.022832
  27 C :    0.179780
  28 N :   -0.217639
  29 C :   -0.024499
  30 C :   -0.004473
  31 C :   -0.102096
  32 C :    0.245603
  33 N :   -0.167916
  34 C :    0.041832
  35 C :   -0.057460
  36 C :    0.121237
  37 C :   -0.065701
  38 C :   -0.051583
  39 C :    0.221634
  40 N :   -0.245850
  41 C :   -0.020225
  42 C :   -0.014713
  43 C :   -0.162872
  44 C :    0.264443
  45 N :   -0.151271
  46 C :    0.065730
  47 C :   -0.002848
  48 C :    0.050766
  49 C :   -0.096062
  50 C :    0.103056
  51 C :   -0.016959
  52 C :   -0.057381
  53 S :    0.043640
  54 C :   -0.085892
  55 C :    0.036682
  56 C :    0.032051
  57 C :   -0.053076
  58 S :    0.053773
  59 C :   -0.047002
  60 H :    0.022112
  61 H :    0.023715
  62 H :   -0.009383
  63 H :   -0.010952
  64 H :   -0.013051
  65 H :   -0.012502
  66 H :    0.002305
  67 H :   -0.045455
  68 H :    0.008031
  69 H :    0.007837
  70 H :    0.082815
  71 H :    0.082255
  72 H :   -0.033329
  73 H :   -0.034045
  74 H :   -0.007840
  75 H :    0.032721
  76 H :    0.136697
  77 H :   -0.000508
  78 H :   -0.032777
  79 H :   -0.047621
  80 H :   -0.001473
  81 H :    0.001220
  82 H :    0.085400
  83 H :    0.085388
  84 H :   -0.036577
  85 H :   -0.032276
  86 H :   -0.021583
  87 H :   -0.002631
  88 H :    0.127851
  89 H :    0.016301
  90 H :   -0.038675
  91 H :   -0.035860
  92 H :   -0.020124
  93 H :    0.002341
  94 H :    0.102147
  95 H :    0.088531
  96 H :   -0.040091
  97 H :   -0.041835
  98 H :    0.015669
  99 H :    0.000069
 100 H :    0.115130
 101 H :   -0.037035
 102 H :   -0.005600
 103 H :   -0.025296
 104 H :   -0.032686
 105 H :   -0.033809
 106 H :   -0.024147
 107 H :   -0.024482
 108 H :    0.007714
 109 H :    0.008820
Sum of atomic charges:   -0.0000000

LOEWDIN ATOMIC CHARGES
----------------------
   0 C :   -0.073648
   1 C :   -0.139581
   2 C :   -0.027816
   3 C :   -0.027262
   4 C :   -0.174454
   5 S :    0.347839
   6 C :   -0.184808
   7 C :   -0.028923
   8 C :   -0.038308
   9 C :   -0.153024
  10 S :    0.379747
  11 C :   -0.062796
  12 C :   -0.039878
  13 C :   -0.011311
  14 C :   -0.033936
  15 C :    0.025425
  16 N :   -0.110124
  17 C :   -0.016669
  18 C :   -0.010738
  19 C :   -0.039563
  20 C :    0.037050
  21 N :   -0.026008
  22 C :    0.035728
  23 C :   -0.136429
  24 C :   -0.012942
  25 C :   -0.037602
  26 C :   -0.039222
  27 C :    0.025383
  28 N :   -0.111758
  29 C :   -0.043234
  30 C :   -0.016557
  31 C :   -0.047655
  32 C :    0.046689
  33 N :   -0.025908
  34 C :    0.037916
  35 C :   -0.125164
  36 C :   -0.006658
  37 C :   -0.014926
  38 C :   -0.027002
  39 C :    0.029184
  40 N :   -0.120936
  41 C :   -0.039429
  42 C :   -0.030928
  43 C :   -0.058477
  44 C :    0.047374
  45 N :   -0.007698
  46 C :    0.049738
  47 C :   -0.117233
  48 C :   -0.011140
  49 C :   -0.183960
  50 C :   -0.016664
  51 C :   -0.071564
  52 C :   -0.174642
  53 S :    0.368528
  54 C :   -0.210622
  55 C :   -0.027433
  56 C :   -0.054238
  57 C :   -0.136948
  58 S :    0.327384
  59 C :   -0.106053
  60 H :    0.029509
  61 H :    0.027250
  62 H :    0.034262
  63 H :    0.032429
  64 H :    0.032147
  65 H :    0.032856
  66 H :    0.032563
  67 H :    0.020791
  68 H :    0.023155
  69 H :    0.024751
  70 H :    0.049033
  71 H :    0.048502
  72 H :    0.024563
  73 H :    0.022998
  74 H :    0.025731
  75 H :    0.010001
  76 H :    0.066262
  77 H :    0.024784
  78 H :    0.013347
  79 H :    0.017425
  80 H :    0.021423
  81 H :    0.022644
  82 H :    0.050421
  83 H :    0.050310
  84 H :    0.021403
  85 H :    0.025373
  86 H :    0.005213
  87 H :    0.022160
  88 H :    0.073695
  89 H :    0.029194
  90 H :    0.008218
  91 H :    0.024119
  92 H :    0.002326
  93 H :    0.023192
  94 H :    0.044882
  95 H :    0.053187
  96 H :    0.021757
  97 H :    0.020015
  98 H :    0.030399
  99 H :    0.022644
 100 H :    0.073583
 101 H :    0.014958
 102 H :    0.021510
 103 H :    0.029891
 104 H :    0.026444
 105 H :    0.023224
 106 H :    0.027970
 107 H :    0.027782
 108 H :    0.023052
 109 H :    0.020542

  Mayer bond orders larger than 0.100000
B(  0-C ,  1-C ) :   1.8714 B(  0-C , 60-H ) :   0.9505 B(  0-C , 61-H ) :   0.9415
B(  1-C ,  2-C ) :   1.0769 B(  1-C ,  5-S ) :   1.0054 B(  2-C ,  3-C ) :   1.6736
B(  2-C , 62-H ) :   0.9924 B(  3-C ,  4-C ) :   1.1407 B(  3-C , 63-H ) :   0.9916
B(  4-C ,  5-S ) :   1.0410 B(  4-C ,  6-C ) :   1.5915 B(  6-C ,  7-C ) :   1.1458
B(  6-C , 10-S ) :   1.0269 B(  7-C ,  8-C ) :   1.6500 B(  7-C , 64-H ) :   0.9919
B(  8-C ,  9-C ) :   1.0863 B(  8-C , 65-H ) :   0.9994 B(  9-C , 10-S ) :   1.0325
B(  9-C , 11-C ) :   1.6977 B( 11-C , 12-C ) :   0.9861 B( 11-C , 66-H ) :   0.9601
B( 12-C , 13-C ) :   1.3525 B( 12-C , 19-C ) :   1.3930 B( 13-C , 14-C ) :   1.3989
B( 13-C , 67-H ) :   0.9958 B( 14-C , 15-C ) :   0.9992 B( 14-C , 17-C ) :   1.3642
B( 15-C , 16-N ) :   1.1037 B( 15-C , 68-H ) :   0.9364 B( 15-C , 69-H ) :   0.9410
B( 16-N , 70-H ) :   0.9781 B( 16-N , 71-H ) :   0.9779 B( 17-C , 18-C ) :   1.3878
B( 17-C , 72-H ) :   0.9967 B( 18-C , 19-C ) :   1.3941 B( 18-C , 73-H ) :   0.9823
B( 19-C , 20-C ) :   1.0362 B( 20-C , 21-N ) :   0.9935 B( 20-C , 74-H ) :   0.9220
B( 20-C , 75-H ) :   0.8938 B( 21-N , 22-C ) :   1.2039 B( 21-N , 76-H ) :   0.9130
B( 22-C , 23-C ) :   1.7193 B( 22-C , 77-H ) :   0.9610 B( 23-C , 24-C ) :   1.0474
B( 23-C , 78-H ) :   0.9479 B( 24-C , 25-C ) :   1.3621 B( 24-C , 31-C ) :   1.3588
B( 25-C , 26-C ) :   1.3694 B( 25-C , 79-H ) :   0.9931 B( 26-C , 27-C ) :   1.0058
B( 26-C , 29-C ) :   1.3797 B( 27-C , 28-N ) :   1.1048 B( 27-C , 80-H ) :   0.9422
B( 27-C , 81-H ) :   0.9411 B( 28-N , 82-H ) :   0.9773 B( 28-N , 83-H ) :   0.9781
B( 29-C , 30-C ) :   1.3703 B( 29-C , 84-H ) :   0.9951 B( 30-C , 31-C ) :   1.4129
B( 30-C , 85-H ) :   0.9890 B( 31-C , 32-C ) :   1.0445 B( 32-C , 33-N ) :   1.0308
B( 32-C , 86-H ) :   0.9102 B( 32-C , 87-H ) :   0.9164 B( 33-N , 34-C ) :   1.1955
B( 33-N , 88-H ) :   0.9370 B( 34-C , 35-C ) :   1.7375 B( 34-C , 89-H ) :   0.9496
B( 35-C , 36-C ) :   1.0431 B( 35-C , 90-H ) :   0.9446 B( 36-C , 37-C ) :   1.3598
B( 36-C , 43-C ) :   1.3547 B( 37-C , 38-C ) :   1.3718 B( 37-C , 91-H ) :   0.9963
B( 38-C , 39-C ) :   1.0366 B( 38-C , 41-C ) :   1.3775 B( 39-C , 40-N ) :   1.0725
B( 39-C , 92-H ) :   0.9319 B( 39-C , 93-H ) :   0.9213 B( 40-N , 94-H ) :   0.9694
B( 40-N , 95-H ) :   0.9685 B( 41-C , 42-C ) :   1.3736 B( 41-C , 96-H ) :   0.9952
B( 42-C , 43-C ) :   1.4009 B( 42-C , 97-H ) :   0.9873 B( 43-C , 44-C ) :   1.0392
B( 44-C , 45-N ) :   0.9826 B( 44-C , 98-H ) :   0.9229 B( 44-C , 99-H ) :   0.9303
B( 45-N , 46-C ) :   1.2436 B( 45-N ,100-H ) :   0.9404 B( 46-C , 47-C ) :   1.6335
B( 46-C ,101-H ) :   0.9515 B( 47-C , 48-C ) :   1.1532 B( 47-C ,102-H ) :   0.9465
B( 48-C , 49-C ) :   1.6202 B( 48-C ,103-H ) :   0.9662 B( 49-C , 50-C ) :   1.1500
B( 49-C , 53-S ) :   0.9952 B( 50-C , 51-C ) :   1.5800 B( 50-C ,104-H ) :   0.9925
B( 51-C , 52-C ) :   1.1672 B( 51-C ,105-H ) :   0.9932 B( 52-C , 53-S ) :   1.0451
B( 52-C , 54-C ) :   1.5431 B( 54-C , 55-C ) :   1.1684 B( 54-C , 58-S ) :   1.0212
B( 55-C , 56-C ) :   1.6439 B( 55-C ,106-H ) :   0.9908 B( 56-C , 57-C ) :   1.0860
B( 56-C ,107-H ) :   0.9929 B( 57-C , 58-S ) :   1.0086 B( 57-C , 59-C ) :   1.8575
B( 59-C ,108-H ) :   0.9500 B( 59-C ,109-H ) :   0.9407

-----------------------------------------------------------------------------
         ABSORPTION SPECTRUM VIA TRANSITION ELECTRIC DIPOLE MOMENTS
-----------------------------------------------------------------------------
State   Energy  Wavelength   fosc         T2         TX        TY        TZ
        (cm-1)    (nm)                  (au**2)     (au)      (au)      (au)
-----------------------------------------------------------------------------
   0   15910.2    628.5   0.000769900   0.01593  -0.02101  -0.12269   0.02092
   1   19458.3    513.9   1.331807673  22.53262   0.57563  -4.71134  -0.06758
   2   22693.9    440.6   1.169360184  16.96346   2.22084   3.08063  -1.59406
   3   25130.6    397.9   0.010600617   0.13887  -0.20009   0.13973   0.28162
   4   26687.5    374.7   0.016229294   0.20020   0.06496   0.39936  -0.19103
   5   27711.2    360.9   0.002477165   0.02943  -0.00983  -0.17024  -0.01872
   6   28620.5    349.4   0.001349533   0.01552  -0.03832   0.10217  -0.06014
   7   29170.9    342.8   0.010369121   0.11702   0.19219   0.26263   0.10540
   8   30399.0    329.0   0.004312589   0.04670   0.09610  -0.05024   0.18694
   9   30595.5    326.8   0.005045075   0.05429   0.16297   0.16630  -0.00831
  10   30689.1    325.8   0.009099196   0.09761  -0.28766   0.07144   0.09879
  11   31025.2    322.3   0.015052996   0.15973   0.39921   0.00138  -0.01885
  12   31655.5    315.9   0.006559483   0.06822   0.17859  -0.00004   0.19058
  13   32187.3    310.7   0.000184848   0.00189  -0.01996   0.02180  -0.03189
  14   32430.7    308.3   0.016408495   0.16657  -0.26701   0.29078  -0.10355
  15   32709.6    305.7   0.005424559   0.05460  -0.17388   0.05419  -0.14638
  16   33251.7    300.7   0.004672017   0.04626  -0.17080   0.12906  -0.02062
  17   33504.1    298.5   0.077537430   0.76188   0.79996   0.23216   0.26087
  18   33826.3    295.6   0.013598695   0.13235   0.30270   0.00530   0.20173
  19   33849.7    295.4   0.167725531   1.63125  -1.22807  -0.06618  -0.34454
  20   35186.6    284.2   0.120321666   1.12575   0.82121  -0.13519   0.65810
  21   35811.5    279.2   0.001621424   0.01491   0.02215  -0.09736  -0.07026
  22   36285.1    275.6   0.013828547   0.12547   0.13566   0.04406   0.32422
  23   36486.0    274.1   0.001201857   0.01084   0.08375   0.00571  -0.06162
  24   36577.4    273.4   0.001464017   0.01318  -0.04783  -0.08156  -0.06510
  25   36695.2    272.5   0.003985681   0.03576  -0.10335  -0.14156  -0.07097
  26   37083.4    269.7   0.023394149   0.20768  -0.07395  -0.03824  -0.44805
  27   37273.3    268.3   0.065233983   0.57617   0.74709   0.13403  -0.00794
  28   37401.2    267.4   0.000698086   0.00614   0.04517  -0.06403   0.00212
  29   37955.4    263.5   0.002249976   0.01952   0.13925  -0.00634  -0.00918
  30   38196.6    261.8   0.000735091   0.00634   0.02605   0.07515  -0.00313
  31   38267.0    261.3   0.019924371   0.17141  -0.39336  -0.12203  -0.04225
  32   38394.6    260.5   0.002071521   0.01776   0.05481   0.12145   0.00258
  33   39759.9    251.5   0.009573281   0.07927   0.22062   0.03856   0.17061
  34   39799.8    251.3   0.053072325   0.43900  -0.35846  -0.13018  -0.54181
  35   40041.6    249.7   0.098774755   0.81210   0.18681  -0.62782  -0.61891
  36   40265.1    248.4   0.024246758   0.19824   0.01200   0.41620  -0.15772

FINAL SINGLE POINT ENERGY     -3853.127885965689

DIPOLE MOMENT
-------------
                                X             Y             Z
Electronic contribution:     18.15347      -5.80397     -20.55781
Nuclear contribution   :    -16.27366       7.99277      20.41149
                        -----------------------------------------
Total Dipole Moment    :      1.87981       2.18879      -0.14633
                        -----------------------------------------
Magnitude (a.u.)       :      2.88893
Magnitude (Debye)      :      7.34308

Rotational constants in cm-1:     0.001465     0.000801     0.000591
Rotational constants in MHz :    43.924330    24.021496    17.718453

                             ****ORCA TERMINATED NORMALLY****
TOTAL RUN TIME: 0 days 0 hours 9 minutes 59 seconds 356 msec
