                         Program Version 4.2.0 -  RELEASE  -
|  1> # ORCA input file
|  2> # SCF done       -123.610603128222          0.000394249556
|  3> ! CAM-B3LYP def2-SVP def2/J RIJCOSX Grid4 TightSCF
|  4> %maxcore 5000
|  5> %tddft
|  6>     Mode sTDDFT
|  7>     Ethresh 5.0
|  8>     maxcore 5000
|  9> end
| 10>
| 11> %pal
| 12>   nprocs 6
| 13>   end
| 14> * xyz 0 1
| 15>    C       13.79853        -4.10612        -5.75266
| 16>    C       13.50360        -4.65653        -4.56773
| 17>    C       14.39060        -4.89573        -3.46443
| 18>    C       13.80494        -5.46653        -2.39001
| 19>    C       12.41343        -5.72729        -2.54797
| 20>    S       11.87825        -5.21389        -4.13626
| 21>    C       11.56133        -6.28890        -1.63030
| 22>    C       11.86309        -6.73916        -0.31952
| 23>    C       10.79585        -7.24148         0.35055
| 24>    C        9.57474        -7.22375        -0.37940
| 25>    S        9.85618        -6.53903        -1.97135
| 26>    C        8.36919        -7.66208         0.09138
| 27>    C        7.12801        -7.65685        -0.57760
| 28>    O        6.04556        -8.12024         0.12865
| 29>    C        4.98105        -8.01080        -0.68166
| 30>    C        3.61872        -8.28012        -0.57077
| 31>    C        2.96118        -7.95137        -1.73997
| 32>    S        4.02759        -7.31566        -2.98284
| 33>    C        5.37236        -7.48030        -1.92178
| 34>    C        6.74896        -7.25372        -1.85558
| 35>    C        1.56304        -8.05901        -1.96549
| 36>    S        0.83036        -7.57666        -3.50515
| 37>    C       -0.69178        -7.98180        -2.83975
| 38>    C       -0.56820        -8.44417        -1.54724
| 39>    N        0.71108        -8.47787        -1.09214
| 40>    C       -1.66788        -8.83792        -0.71365
| 41>    C       -1.50688        -9.33725         0.52785
| 42>    C       -2.58386        -9.68933         1.38906
| 43>    O       -3.87479        -9.45866         0.99476
| 44>    C       -4.66133        -9.85553         2.00799
| 45>    C       -6.03432        -9.86301         2.23917
| 46>    C       -6.32617       -10.37961         3.49206
| 47>    S       -4.86698       -10.86573         4.37257
| 48>    C       -3.87882       -10.35592         3.06082
| 49>    C       -2.54356       -10.24490         2.65878
| 50>    C       -7.55942       -10.55358         4.14806
| 51>    C       -8.80678       -10.18901         3.71925
| 52>    C      -10.00890       -10.38200         4.45437
| 53>    C      -11.12837        -9.91680         3.84444
| 54>    C      -10.89080        -9.32371         2.57859
| 55>    S       -9.17830        -9.39123         2.19896
| 56>    C      -11.80287        -8.75819         1.72280
| 57>    C      -13.20883        -8.63828         1.91070
| 58>    C      -13.85778        -8.02867         0.89491
| 59>    C      -13.01108        -7.61423        -0.18755
| 60>    S      -11.33696        -8.05643         0.18395
| 61>    C      -13.37064        -6.99074        -1.31750
| 62>    H       14.80002        -3.78185        -5.97372
| 63>    H       13.05344        -3.97346        -6.51535
| 64>    H       15.42983        -4.62587        -3.52912
| 65>    H       14.31957        -5.71358        -1.47829
| 66>    H       12.85698        -6.67610         0.08575
| 67>    H       10.83324        -7.62705         1.35420
| 68>    H        8.34209        -8.05406         1.09906
| 69>    H        3.11432        -8.67978         0.28726
| 70>    H        7.38416        -6.85559        -2.61773
| 71>    H       -1.58843        -7.86545        -3.41385
| 72>    H       -2.65804        -8.70624        -1.12491
| 73>    H       -0.51151        -9.47986         0.92025
| 74>    H       -6.77201        -9.51812         1.54149
| 75>    H       -1.66371       -10.52319         3.20051
| 76>    H       -7.50887       -11.02047         5.12359
| 77>    H       -9.99538       -10.85946         5.41855
| 78>    H      -12.11634        -9.97828         4.26430
| 79>    H      -13.68710        -9.01137         2.79911
| 80>    H      -14.91783        -7.84917         0.86040
| 81>    H      -14.40023        -6.73967        -1.50206
| 82>    H      -12.65103        -6.72208        -2.06880
| 83> *
| 84>
| 85>                          ****END OF INPUT****

CARTESIAN COORDINATES (ANGSTROEM)
---------------------------------
  C     13.798530   -4.106120   -5.752660
  C     13.503600   -4.656530   -4.567730
  C     14.390600   -4.895730   -3.464430
  C     13.804940   -5.466530   -2.390010
  C     12.413430   -5.727290   -2.547970
  S     11.878250   -5.213890   -4.136260
  C     11.561330   -6.288900   -1.630300
  C     11.863090   -6.739160   -0.319520
  C     10.795850   -7.241480    0.350550
  C      9.574740   -7.223750   -0.379400
  S      9.856180   -6.539030   -1.971350
  C      8.369190   -7.662080    0.091380
  C      7.128010   -7.656850   -0.577600
  O      6.045560   -8.120240    0.128650
  C      4.981050   -8.010800   -0.681660
  C      3.618720   -8.280120   -0.570770
  C      2.961180   -7.951370   -1.739970
  S      4.027590   -7.315660   -2.982840
  C      5.372360   -7.480300   -1.921780
  C      6.748960   -7.253720   -1.855580
  C      1.563040   -8.059010   -1.965490
  S      0.830360   -7.576660   -3.505150
  C     -0.691780   -7.981800   -2.839750
  C     -0.568200   -8.444170   -1.547240
  N      0.711080   -8.477870   -1.092140
  C     -1.667880   -8.837920   -0.713650
  C     -1.506880   -9.337250    0.527850
  C     -2.583860   -9.689330    1.389060
  O     -3.874790   -9.458660    0.994760
  C     -4.661330   -9.855530    2.007990
  C     -6.034320   -9.863010    2.239170
  C     -6.326170  -10.379610    3.492060
  S     -4.866980  -10.865730    4.372570
  C     -3.878820  -10.355920    3.060820
  C     -2.543560  -10.244900    2.658780
  C     -7.559420  -10.553580    4.148060
  C     -8.806780  -10.189010    3.719250
  C    -10.008900  -10.382000    4.454370
  C    -11.128370   -9.916800    3.844440
  C    -10.890800   -9.323710    2.578590
  S     -9.178300   -9.391230    2.198960
  C    -11.802870   -8.758190    1.722800
  C    -13.208830   -8.638280    1.910700
  C    -13.857780   -8.028670    0.894910
  C    -13.011080   -7.614230   -0.187550
  S    -11.336960   -8.056430    0.183950
  C    -13.370640   -6.990740   -1.317500
  H     14.800020   -3.781850   -5.973720
  H     13.053440   -3.973460   -6.515350
  H     15.429830   -4.625870   -3.529120
  H     14.319570   -5.713580   -1.478290
  H     12.856980   -6.676100    0.085750
  H     10.833240   -7.627050    1.354200
  H      8.342090   -8.054060    1.099060
  H      3.114320   -8.679780    0.287260
  H      7.384160   -6.855590   -2.617730
  H     -1.588430   -7.865450   -3.413850
  H     -2.658040   -8.706240   -1.124910
  H     -0.511510   -9.479860    0.920250
  H     -6.772010   -9.518120    1.541490
  H     -1.663710  -10.523190    3.200510
  H     -7.508870  -11.020470    5.123590
  H     -9.995380  -10.859460    5.418550
  H    -12.116340   -9.978280    4.264300
  H    -13.687100   -9.011370    2.799110
  H    -14.917830   -7.849170    0.860400
  H    -14.400230   -6.739670   -1.502060
  H    -12.651030   -6.722080   -2.068800

 Total Charge           Charge          ....    0
 Multiplicity           Mult            ....    1
 Number of Electrons    NEL             ....  378
 Basis Dimension        Dim             ....  791

ORBITAL ENERGIES
----------------

  NO   OCC          E(Eh)            E(eV)
   0   2.0000     -88.956964     -2420.6420
   1   2.0000     -88.954311     -2420.5698
   2   2.0000     -88.946366     -2420.3537
   3   2.0000     -88.943766     -2420.2829
   4   2.0000     -88.937949     -2420.1246
   5   2.0000     -88.937540     -2420.1135
   6   2.0000     -88.931527     -2419.9499
   7   2.0000     -19.284456      -524.7567
   8   2.0000     -19.278634      -524.5983
   9   2.0000     -14.396157      -391.7394
  10   2.0000     -10.333767      -281.1961
  11   2.0000     -10.332827      -281.1705
  12   2.0000     -10.323010      -280.9034
  13   2.0000     -10.322524      -280.8902
  14   2.0000     -10.317238      -280.7463
  15   2.0000     -10.310029      -280.5502
  16   2.0000     -10.307469      -280.4805
  17   2.0000     -10.307240      -280.4743
  18   2.0000     -10.306127      -280.4440
  19   2.0000     -10.302561      -280.3469
  20   2.0000     -10.302375      -280.3419
  21   2.0000     -10.301364      -280.3144
  22   2.0000     -10.300268      -280.2845
  23   2.0000     -10.299026      -280.2507
  24   2.0000     -10.297289      -280.2035
  25   2.0000     -10.297099      -280.1983
  26   2.0000     -10.292043      -280.0607
  27   2.0000     -10.289298      -279.9860
  28   2.0000     -10.287484      -279.9367
  29   2.0000     -10.285378      -279.8794
  30   2.0000     -10.284811      -279.8639
  31   2.0000     -10.283546      -279.8295
  32   2.0000     -10.283105      -279.8175
  33   2.0000     -10.282737      -279.8075
  34   2.0000     -10.280016      -279.7335
  35   2.0000     -10.279711      -279.7251
  36   2.0000     -10.278595      -279.6948
  37   2.0000     -10.278339      -279.6878
  38   2.0000     -10.277685      -279.6700
  39   2.0000     -10.277368      -279.6614
  40   2.0000     -10.275678      -279.6154
  41   2.0000     -10.270560      -279.4762
  42   2.0000     -10.270038      -279.4619
  43   2.0000     -10.269924      -279.4588
  44   2.0000     -10.267560      -279.3945
  45   2.0000     -10.264580      -279.3134
  46   2.0000     -10.263331      -279.2794
  47   2.0000      -8.052033      -219.1070
  48   2.0000      -8.050613      -219.0683
  49   2.0000      -8.041534      -218.8213
  50   2.0000      -8.039690      -218.7711
  51   2.0000      -8.034579      -218.6320
  52   2.0000      -8.033395      -218.5998
  53   2.0000      -8.028189      -218.4581
  54   2.0000      -6.021607      -163.8563
  55   2.0000      -6.019791      -163.8068
  56   2.0000      -6.017645      -163.7485
  57   2.0000      -6.015619      -163.6933
  58   2.0000      -6.013475      -163.6350
  59   2.0000      -6.012883      -163.6189
  60   2.0000      -6.011130      -163.5712
  61   2.0000      -6.009512      -163.5271
  62   2.0000      -6.007227      -163.4650
  63   2.0000      -6.005434      -163.4162
  64   2.0000      -6.004434      -163.3889
  65   2.0000      -6.003217      -163.3558
  66   2.0000      -6.002869      -163.3464
  67   2.0000      -6.000527      -163.2827
  68   2.0000      -6.000476      -163.2812
  69   2.0000      -5.999139      -163.2449
  70   2.0000      -5.998045      -163.2151
  71   2.0000      -5.995119      -163.1355
  72   2.0000      -5.994242      -163.1116
  73   2.0000      -5.994099      -163.1077
  74   2.0000      -5.988702      -162.9609
  75   2.0000      -1.201082       -32.6831
  76   2.0000      -1.195539       -32.5323
  77   2.0000      -1.055429       -28.7197
  78   2.0000      -0.991246       -26.9732
  79   2.0000      -0.985510       -26.8171
  80   2.0000      -0.976598       -26.5746
  81   2.0000      -0.970508       -26.4089
  82   2.0000      -0.968446       -26.3528
  83   2.0000      -0.959506       -26.1095
  84   2.0000      -0.904350       -24.6086
  85   2.0000      -0.901094       -24.5200
  86   2.0000      -0.889891       -24.2152
  87   2.0000      -0.884844       -24.0778
  88   2.0000      -0.880960       -23.9721
  89   2.0000      -0.871494       -23.7146
  90   2.0000      -0.862063       -23.4579
  91   2.0000      -0.849851       -23.1256
  92   2.0000      -0.843869       -22.9628
  93   2.0000      -0.838124       -22.8065
  94   2.0000      -0.835450       -22.7337
  95   2.0000      -0.826320       -22.4853
  96   2.0000      -0.818968       -22.2853
  97   2.0000      -0.818258       -22.2659
  98   2.0000      -0.810629       -22.0583
  99   2.0000      -0.804914       -21.9028
 100   2.0000      -0.791014       -21.5246
 101   2.0000      -0.773987       -21.0613
 102   2.0000      -0.757548       -20.6139
 103   2.0000      -0.736132       -20.0312
 104   2.0000      -0.721565       -19.6348
 105   2.0000      -0.702378       -19.1127
 106   2.0000      -0.688186       -18.7265
 107   2.0000      -0.683068       -18.5872
 108   2.0000      -0.679063       -18.4782
 109   2.0000      -0.673372       -18.3234
 110   2.0000      -0.669216       -18.2103
 111   2.0000      -0.653495       -17.7825
 112   2.0000      -0.651712       -17.7340
 113   2.0000      -0.639731       -17.4080
 114   2.0000      -0.629722       -17.1356
 115   2.0000      -0.623952       -16.9786
 116   2.0000      -0.621833       -16.9209
 117   2.0000      -0.614521       -16.7220
 118   2.0000      -0.611203       -16.6317
 119   2.0000      -0.601017       -16.3545
 120   2.0000      -0.597666       -16.2633
 121   2.0000      -0.594641       -16.1810
 122   2.0000      -0.593980       -16.1630
 123   2.0000      -0.588406       -16.0113
 124   2.0000      -0.578043       -15.7294
 125   2.0000      -0.573031       -15.5930
 126   2.0000      -0.568490       -15.4694
 127   2.0000      -0.553649       -15.0656
 128   2.0000      -0.551323       -15.0023
 129   2.0000      -0.547424       -14.8962
 130   2.0000      -0.546864       -14.8809
 131   2.0000      -0.539771       -14.6879
 132   2.0000      -0.536316       -14.5939
 133   2.0000      -0.525186       -14.2910
 134   2.0000      -0.514833       -14.0093
 135   2.0000      -0.510544       -13.8926
 136   2.0000      -0.508245       -13.8300
 137   2.0000      -0.506547       -13.7838
 138   2.0000      -0.505322       -13.7505
 139   2.0000      -0.493320       -13.4239
 140   2.0000      -0.493074       -13.4172
 141   2.0000      -0.490466       -13.3463
 142   2.0000      -0.488378       -13.2894
 143   2.0000      -0.487866       -13.2755
 144   2.0000      -0.487416       -13.2633
 145   2.0000      -0.483243       -13.1497
 146   2.0000      -0.478381       -13.0174
 147   2.0000      -0.474475       -12.9111
 148   2.0000      -0.472722       -12.8634
 149   2.0000      -0.471483       -12.8297
 150   2.0000      -0.461826       -12.5669
 151   2.0000      -0.461086       -12.5468
 152   2.0000      -0.459076       -12.4921
 153   2.0000      -0.453908       -12.3515
 154   2.0000      -0.450314       -12.2537
 155   2.0000      -0.449770       -12.2389
 156   2.0000      -0.446679       -12.1548
 157   2.0000      -0.444065       -12.0836
 158   2.0000      -0.440165       -11.9775
 159   2.0000      -0.436607       -11.8807
 160   2.0000      -0.430713       -11.7203
 161   2.0000      -0.426899       -11.6165
 162   2.0000      -0.421189       -11.4611
 163   2.0000      -0.419667       -11.4197
 164   2.0000      -0.412262       -11.2182
 165   2.0000      -0.411162       -11.1883
 166   2.0000      -0.405667       -11.0388
 167   2.0000      -0.397594       -10.8191
 168   2.0000      -0.396048       -10.7770
 169   2.0000      -0.393055       -10.6956
 170   2.0000      -0.389018       -10.5857
 171   2.0000      -0.386856       -10.5269
 172   2.0000      -0.372674       -10.1410
 173   2.0000      -0.358884        -9.7657
 174   2.0000      -0.352642        -9.5959
 175   2.0000      -0.341355        -9.2887
 176   2.0000      -0.337996        -9.1973
 177   2.0000      -0.336913        -9.1679
 178   2.0000      -0.331037        -9.0080
 179   2.0000      -0.326213        -8.8767
 180   2.0000      -0.318968        -8.6795
 181   2.0000      -0.312953        -8.5159
 182   2.0000      -0.306379        -8.3370
 183   2.0000      -0.298580        -8.1248
 184   2.0000      -0.294064        -8.0019
 185   2.0000      -0.266192        -7.2435
 186   2.0000      -0.246297        -6.7021
 187   2.0000      -0.213034        -5.7969
 188   2.0000      -0.202996        -5.5238
 189   0.0000      -0.068203        -1.8559
 190   0.0000      -0.062431        -1.6988
 191   0.0000      -0.020859        -0.5676
 192   0.0000      -0.012069        -0.3284
 193   0.0000       0.016930         0.4607

MULLIKEN ATOMIC CHARGES
-----------------------
   0 C :   -0.027513
   1 C :   -0.065138
   2 C :    0.054671
   3 C :    0.028591
   4 C :   -0.064356
   5 S :    0.080122
   6 C :   -0.040568
   7 C :    0.028527
   8 C :    0.039178
   9 C :   -0.026760
  10 S :    0.055789
  11 C :   -0.021630
  12 C :    0.164680
  13 O :   -0.203370
  14 C :    0.218410
  15 C :   -0.073403
  16 C :   -0.040103
  17 S :    0.140482
  18 C :   -0.021007
  19 C :   -0.129180
  20 C :   -0.116663
  21 S :    0.102848
  22 C :   -0.107692
  23 C :    0.083970
  24 N :   -0.059386
  25 C :    0.000066
  26 C :   -0.015995
  27 C :    0.194026
  28 O :   -0.204911
  29 C :    0.193433
  30 C :   -0.055626
  31 C :   -0.121040
  32 S :    0.118309
  33 C :   -0.020716
  34 C :   -0.114732
  35 C :    0.040751
  36 C :   -0.034673
  37 C :    0.039458
  38 C :    0.022240
  39 C :   -0.034818
  40 S :    0.052088
  41 C :   -0.066256
  42 C :    0.028054
  43 C :    0.051018
  44 C :   -0.064458
  45 S :    0.076496
  46 C :   -0.030567
  47 H :    0.020049
  48 H :    0.022800
  49 H :   -0.010721
  50 H :   -0.011377
  51 H :   -0.014737
  52 H :   -0.013239
  53 H :   -0.005305
  54 H :   -0.000828
  55 H :    0.006378
  56 H :    0.016794
  57 H :   -0.011075
  58 H :    0.002474
  59 H :    0.003463
  60 H :   -0.014790
  61 H :   -0.020569
  62 H :   -0.016147
  63 H :   -0.017236
  64 H :   -0.013416
  65 H :   -0.012784
  66 H :    0.017517
  67 H :    0.020102
Sum of atomic charges:    0.0000000

LOEWDIN ATOMIC CHARGES
----------------------
   0 C :   -0.074519
   1 C :   -0.139325
   2 C :   -0.029278
   3 C :   -0.026635
   4 C :   -0.174184
   5 S :    0.350569
   6 C :   -0.181034
   7 C :   -0.034869
   8 C :   -0.032025
   9 C :   -0.140529
  10 S :    0.373834
  11 C :   -0.075856
  12 C :    0.041549
  13 O :    0.000252
  14 C :    0.002061
  15 C :   -0.039568
  16 C :   -0.197453
  17 S :    0.416669
  18 C :   -0.200691
  19 C :   -0.083824
  20 C :   -0.135121
  21 S :    0.402075
  22 C :   -0.205363
  23 C :   -0.039479
  24 N :   -0.103166
  25 C :   -0.026981
  26 C :   -0.027688
  27 C :    0.043031
  28 O :    0.000907
  29 C :    0.006642
  30 C :   -0.079596
  31 C :   -0.158766
  32 S :    0.407239
  33 C :   -0.211374
  34 C :   -0.073371
  35 C :   -0.078054
  36 C :   -0.148521
  37 C :   -0.031002
  38 C :   -0.040472
  39 C :   -0.179321
  40 S :    0.375167
  41 C :   -0.178767
  42 C :   -0.026466
  43 C :   -0.033624
  44 C :   -0.138988
  45 S :    0.347558
  46 C :   -0.080580
  47 H :    0.028897
  48 H :    0.026805
  49 H :    0.033824
  50 H :    0.032488
  51 H :    0.031368
  52 H :    0.033653
  53 H :    0.042615
  54 H :    0.041914
  55 H :    0.023393
  56 H :    0.025445
  57 H :    0.031293
  58 H :    0.038647
  59 H :    0.023770
  60 H :    0.032546
  61 H :    0.032046
  62 H :    0.032307
  63 H :    0.030190
  64 H :    0.031742
  65 H :    0.032710
  66 H :    0.027657
  67 H :    0.025627

  Mayer bond orders larger than 0.100000
B(  0-C ,  1-C ) :   1.8679 B(  0-C , 47-H ) :   0.9505 B(  0-C , 48-H ) :   0.9415
B(  1-C ,  2-C ) :   1.0772 B(  1-C ,  5-S ) :   1.0075 B(  2-C ,  3-C ) :   1.6667
B(  2-C , 49-H ) :   0.9929 B(  3-C ,  4-C ) :   1.1482 B(  3-C , 50-H ) :   0.9914
B(  4-C ,  5-S ) :   1.0447 B(  4-C ,  6-C ) :   1.5666 B(  6-C ,  7-C ) :   1.1662
B(  6-C , 10-S ) :   1.0282 B(  7-C ,  8-C ) :   1.6132 B(  7-C , 51-H ) :   0.9921
B(  8-C ,  9-C ) :   1.1347 B(  8-C , 52-H ) :   0.9980 B(  9-C , 10-S ) :   1.0378
B(  9-C , 11-C ) :   1.5862 B( 11-C , 12-C ) :   1.1557 B( 11-C , 53-H ) :   0.9618
B( 12-C , 13-O ) :   1.0903 B( 12-C , 19-C ) :   1.4566 B( 13-O , 14-C ) :   1.1455
B( 14-C , 15-C ) :   1.2196 B( 14-C , 18-C ) :   1.3758 B( 15-C , 16-C ) :   1.4865
B( 15-C , 54-H ) :   1.0289 B( 16-C , 17-S ) :   1.0937 B( 16-C , 20-C ) :   1.0870
B( 17-S , 18-C ) :   1.0635 B( 18-C , 19-C ) :   1.2562 B( 19-C , 55-H ) :   0.9980
B( 20-C , 21-S ) :   1.1103 B( 20-C , 24-N ) :   1.7701 B( 21-S , 22-C ) :   1.1373
B( 22-C , 23-C ) :   1.5028 B( 22-C , 56-H ) :   0.9649 B( 23-C , 24-N ) :   1.3376
B( 23-C , 25-C ) :   1.0855 B( 25-C , 26-C ) :   1.6883 B( 25-C , 57-H ) :   0.9766
B( 26-C , 27-C ) :   1.1237 B( 26-C , 58-H ) :   0.9638 B( 27-C , 28-O ) :   1.1133
B( 27-C , 34-C ) :   1.4570 B( 28-O , 29-C ) :   1.1423 B( 29-C , 30-C ) :   1.2761
B( 29-C , 33-C ) :   1.3847 B( 30-C , 31-C ) :   1.4412 B( 30-C , 59-H ) :   0.9878
B( 31-C , 32-S ) :   1.0848 B( 31-C , 35-C ) :   1.1787 B( 32-S , 33-C ) :   1.0498
B( 33-C , 34-C ) :   1.2233 B( 34-C , 60-H ) :   1.0233 B( 35-C , 36-C ) :   1.6168
B( 35-C , 61-H ) :   0.9495 B( 36-C , 37-C ) :   1.1377 B( 36-C , 40-S ) :   1.0331
B( 37-C , 38-C ) :   1.6085 B( 37-C , 62-H ) :   0.9976 B( 38-C , 39-C ) :   1.1680
B( 38-C , 63-H ) :   0.9922 B( 39-C , 40-S ) :   1.0305 B( 39-C , 41-C ) :   1.5625
B( 41-C , 42-C ) :   1.1519 B( 41-C , 45-S ) :   1.0403 B( 42-C , 43-C ) :   1.6625
B( 42-C , 64-H ) :   0.9913 B( 43-C , 44-C ) :   1.0787 B( 43-C , 65-H ) :   0.9931
B( 44-C , 45-S ) :   1.0090 B( 44-C , 46-C ) :   1.8659 B( 46-C , 66-H ) :   0.9503
B( 46-C , 67-H ) :   0.9411

-----------------------------------------------------------------------------
         ABSORPTION SPECTRUM VIA TRANSITION ELECTRIC DIPOLE MOMENTS
-----------------------------------------------------------------------------
State   Energy  Wavelength   fosc         T2         TX        TY        TZ
        (cm-1)    (nm)                  (au**2)     (au)      (au)      (au)
-----------------------------------------------------------------------------
   0   17049.3    586.5   2.684623405  51.83844   7.18449   0.14640  -0.44738
   1   18292.8    546.7   0.522609323   9.40528   1.82658   1.86348  -1.61130
   2   22254.4    449.3   0.027230000   0.40282   0.32590   0.26920  -0.47343
   3   24973.6    400.4   0.077296606   1.01895  -0.21446   0.47117  -0.86658
   4   26328.5    379.8   0.016066565   0.20090   0.06241   0.19395  -0.39923
   5   26410.9    378.6   0.023648669   0.29478  -0.39531  -0.19282   0.31832
   6   28155.0    355.2   0.261482371   3.05748   1.61832   0.47127  -0.46520
   7   29234.3    342.1   0.973005172  10.95718   0.14580   1.30918  -3.03677
   8   30673.7    326.0   0.420676138   4.51499  -0.54016   0.69526  -1.93387
   9   31813.9    314.3   0.068642551   0.71032   0.52389  -0.15520   0.64169
  10   32779.7    305.1   0.064151544   0.64428  -0.41335  -0.26256   0.63600
  11   33662.3    297.1   0.025800174   0.25232  -0.26854   0.11529  -0.40855
  12   34227.4    292.2   0.016535283   0.15904   0.23962  -0.12998   0.29108
  13   34434.8    290.4   0.007008211   0.06700   0.25792  -0.00679  -0.02084
  14   34545.6    289.5   0.003467316   0.03304  -0.13749   0.04146  -0.11144
  15   34875.9    286.7   0.002843719   0.02684  -0.07537  -0.08303   0.11945
  16   34887.7    286.6   0.002077876   0.01961  -0.08626  -0.04413   0.10109
  17   35597.1    280.9   0.005826083   0.05388   0.13881   0.07545  -0.17006
  18   36183.4    276.4   0.043052162   0.39171  -0.36019  -0.21554   0.46423
  19   36296.1    275.5   0.013874358   0.12584   0.33936  -0.03563   0.09701
  20   37604.4    265.9   0.017111153   0.14980   0.32253  -0.02863   0.21203
  21   37762.1    264.8   0.199634362   1.74042  -0.17773  -0.50345   1.20639
  22   39197.9    255.1   0.037567984   0.31552  -0.42026   0.25063  -0.27585
  23   39463.9    253.4   0.096076000   0.80148   0.65716   0.29162  -0.53346

FINAL SINGLE POINT ENERGY     -4412.073181995388

DIPOLE MOMENT
-------------
                                X             Y             Z
Electronic contribution:      4.25625      -4.40253      -2.77996
Nuclear contribution   :     -3.35776       4.61599       3.24521
                        -----------------------------------------
Total Dipole Moment    :      0.89849       0.21346       0.46525
                        -----------------------------------------
Magnitude (a.u.)       :      1.03407
Magnitude (Debye)      :      2.62839

Rotational constants in cm-1:     0.004947     0.000279     0.000266
Rotational constants in MHz :   148.313606     8.366358     7.989137

                             ****ORCA TERMINATED NORMALLY****
TOTAL RUN TIME: 0 days 0 hours 4 minutes 19 seconds 503 msec
