                         Program Version 4.2.0 -  RELEASE  -
|  1> # ORCA input file
|  2> # SCF done       -189.748072647021          0.000823792508
|  3> ! CAM-B3LYP def2-SVP def2/J RIJCOSX Grid4 TightSCF
|  4> %maxcore 5000
|  5> %tddft
|  6>     Mode sTDDFT
|  7>     Ethresh 5.0
|  8>     maxcore 5000
|  9> end
| 10>
| 11> %pal
| 12>   nprocs 6
| 13>   end
| 14> * xyz 0 1
| 15>    C        9.63122       -10.80913         0.55889
| 16>    C        9.71650       -10.09573        -0.57262
| 17>    C       10.54600       -10.34644        -1.71318
| 18>    C       10.37386        -9.47040        -2.73097
| 19>    C        9.41312        -8.45743        -2.47516
| 20>    S        8.73274        -8.65089        -0.87360
| 21>    C        9.02037        -7.42781        -3.30609
| 22>    C        9.48189        -7.09435        -4.59513
| 23>    C        8.89470        -5.97366        -5.10916
| 24>    C        7.96668        -5.34140        -4.25105
| 25>    S        7.80013        -6.28233        -2.79064
| 26>    C        7.27420        -4.18331        -4.58598
| 27>    C        6.46862        -3.31838        -3.85948
| 28>    C        6.24037        -3.16040        -2.49757
| 29>    C        5.37658        -2.18442        -1.95382
| 30>    C        5.33908        -2.14352        -0.58717
| 31>    C        6.18196        -3.09107         0.02033
| 32>    S        7.03151        -4.01554        -1.19776
| 33>    C        6.39723        -3.36620         1.35865
| 34>    C        5.95053        -2.66439         2.49918
| 35>    C        6.38864        -3.18244         3.67786
| 36>    C        7.20213        -4.34496         3.54228
| 37>    S        7.36889        -4.74753         1.82865
| 38>    C        7.72357        -5.10404         4.54023
| 39>    C        8.45594        -6.33945         4.33006
| 40>    C        8.01075        -7.49340         4.99217
| 41>    C        8.52059        -8.74393         4.71639
| 42>    C        9.52043        -8.90351         3.76304
| 43>    C       10.02669        -7.77880         3.15391
| 44>    C        9.53067        -6.50371         3.45268
| 45>    N       10.30695        -5.54410         2.81063
| 46>    C       10.35064        -4.13724         3.11336
| 47>    C       11.28565        -6.12466         2.04890
| 48>    O       12.12659        -5.51773         1.42705
| 49>    C       11.16253        -7.63751         2.19069
| 50>    C       12.49315        -8.20170         2.73012
| 51>    C       12.46739        -9.72738         2.75833
| 52>    O       12.33325       -10.47977         1.81998
| 53>    N       12.60901       -10.12303         4.05919
| 54>    C       12.60405       -11.49823         4.47573
| 55>    C       12.74282        -9.03568         4.91358
| 56>    C       12.88263        -9.02668         6.28162
| 57>    C       13.00168        -7.79093         6.94273
| 58>    C       12.98604        -6.61268         6.18300
| 59>    C       12.84487        -6.63645         4.80619
| 60>    C       12.71525        -7.85126         4.16783
| 61>    C       13.13647        -7.79587         8.37423
| 62>    C       13.27857        -6.71626         9.18726
| 63>    C       13.40200        -6.81110        10.58485
| 64>    C       13.55152        -5.73758        11.42811
| 65>    C       13.68011        -5.76932        12.83569
| 66>    C       13.82016        -4.54169        13.41525
| 67>    C       13.81002        -3.47161        12.50009
| 68>    S       13.61243        -4.07092        10.86920
| 69>    C       13.93826        -2.11751        12.77704
| 70>    C       14.10738        -1.50614        14.03082
| 71>    C       14.21317        -0.14184        13.97082
| 72>    C       14.13283         0.38722        12.67257
| 73>    S       13.91220        -0.90831        11.51335
| 74>    C       14.21602         1.72461        12.31186
| 75>    C       14.12897         2.19992        11.01902
| 76>    C       14.22509         3.53607        10.65982
| 77>    C       14.13872         4.06847         9.36063
| 78>    C       14.27734         5.42706         9.29768
| 79>    C       14.48068         6.03699        10.55202
| 80>    S       14.48802         4.82534        11.81739
| 81>    C       14.66430         7.37869        10.82522
| 82>    C       14.68539         8.45085         9.89743
| 83>    C       14.89423         9.66823        10.45363
| 84>    C       15.05616         9.64747        11.87656
| 85>    S       14.92133         7.97763        12.45059
| 86>    C       15.27822        10.68587        12.69692
| 87>    H       10.25859       -11.66800         0.71160
| 88>    H        8.95679       -10.52709         1.34711
| 89>    H       11.23480       -11.17173        -1.71571
| 90>    H       10.90597        -9.51089        -3.66495
| 91>    H       10.23593        -7.66924        -5.10203
| 92>    H        9.12861        -5.56271        -6.07626
| 93>    H        7.39467        -3.90871        -5.62891
| 94>    H        5.95511        -2.57491        -4.46024
| 95>    H        4.79500        -1.53859        -2.58920
| 96>    H        4.71677        -1.47736        -0.01658
| 97>    H        5.33038        -1.78953         2.41374
| 98>    H        6.15861        -2.77671         4.64732
| 99>    H        7.44367        -4.86251         5.55745
|100>    H        7.20838        -7.39035         5.70819
|101>    H        8.12877        -9.60663         5.23378
|102>    H        9.90229        -9.88283         3.52093
|103>    H       10.24685        -3.98532         4.18868
|104>    H        9.56894        -3.58194         2.59513
|105>    H       11.31896        -3.76656         2.77443
|106>    H       10.95359        -8.10318         1.22292
|107>    H       13.29412        -7.84851         2.07270
|108>    H       12.48676       -12.11049         3.58209
|109>    H       11.77474       -11.68867         5.16090
|110>    H       13.54376       -11.75420         4.96945
|111>    H       12.90104        -9.94448         6.84940
|112>    H       13.08619        -5.66063         6.67856
|113>    H       12.84674        -5.71670         4.24192
|114>    H       13.12162        -8.77464         8.83894
|115>    H       13.30330        -5.71757         8.77306
|116>    H       13.37905        -7.79427        11.03694
|117>    H       13.66632        -6.69878        13.37719
|118>    H       13.93090        -4.38339        14.47299
|119>    H       14.14916        -2.07398        14.94267
|120>    H       14.34812         0.49331        14.82860
|121>    H       14.36115         2.43786        13.11360
|122>    H       13.97517         1.48800        10.21744
|123>    H       13.97892         3.43562         8.50527
|124>    H       14.24004         5.99545         8.38619
|125>    H       14.54456         8.28329         8.84436
|126>    H       14.94196        10.59392         9.90843
|127>    H       15.35456        11.68559        12.30728
|128>    H       15.38752        10.55519        13.75800
|129> *
|130>
|131>                          ****END OF INPUT****

CARTESIAN COORDINATES (ANGSTROEM)
---------------------------------
  C      9.631220  -10.809130    0.558890
  C      9.716500  -10.095730   -0.572620
  C     10.546000  -10.346440   -1.713180
  C     10.373860   -9.470400   -2.730970
  C      9.413120   -8.457430   -2.475160
  S      8.732740   -8.650890   -0.873600
  C      9.020370   -7.427810   -3.306090
  C      9.481890   -7.094350   -4.595130
  C      8.894700   -5.973660   -5.109160
  C      7.966680   -5.341400   -4.251050
  S      7.800130   -6.282330   -2.790640
  C      7.274200   -4.183310   -4.585980
  C      6.468620   -3.318380   -3.859480
  C      6.240370   -3.160400   -2.497570
  C      5.376580   -2.184420   -1.953820
  C      5.339080   -2.143520   -0.587170
  C      6.181960   -3.091070    0.020330
  S      7.031510   -4.015540   -1.197760
  C      6.397230   -3.366200    1.358650
  C      5.950530   -2.664390    2.499180
  C      6.388640   -3.182440    3.677860
  C      7.202130   -4.344960    3.542280
  S      7.368890   -4.747530    1.828650
  C      7.723570   -5.104040    4.540230
  C      8.455940   -6.339450    4.330060
  C      8.010750   -7.493400    4.992170
  C      8.520590   -8.743930    4.716390
  C      9.520430   -8.903510    3.763040
  C     10.026690   -7.778800    3.153910
  C      9.530670   -6.503710    3.452680
  N     10.306950   -5.544100    2.810630
  C     10.350640   -4.137240    3.113360
  C     11.285650   -6.124660    2.048900
  O     12.126590   -5.517730    1.427050
  C     11.162530   -7.637510    2.190690
  C     12.493150   -8.201700    2.730120
  C     12.467390   -9.727380    2.758330
  O     12.333250  -10.479770    1.819980
  N     12.609010  -10.123030    4.059190
  C     12.604050  -11.498230    4.475730
  C     12.742820   -9.035680    4.913580
  C     12.882630   -9.026680    6.281620
  C     13.001680   -7.790930    6.942730
  C     12.986040   -6.612680    6.183000
  C     12.844870   -6.636450    4.806190
  C     12.715250   -7.851260    4.167830
  C     13.136470   -7.795870    8.374230
  C     13.278570   -6.716260    9.187260
  C     13.402000   -6.811100   10.584850
  C     13.551520   -5.737580   11.428110
  C     13.680110   -5.769320   12.835690
  C     13.820160   -4.541690   13.415250
  C     13.810020   -3.471610   12.500090
  S     13.612430   -4.070920   10.869200
  C     13.938260   -2.117510   12.777040
  C     14.107380   -1.506140   14.030820
  C     14.213170   -0.141840   13.970820
  C     14.132830    0.387220   12.672570
  S     13.912200   -0.908310   11.513350
  C     14.216020    1.724610   12.311860
  C     14.128970    2.199920   11.019020
  C     14.225090    3.536070   10.659820
  C     14.138720    4.068470    9.360630
  C     14.277340    5.427060    9.297680
  C     14.480680    6.036990   10.552020
  S     14.488020    4.825340   11.817390
  C     14.664300    7.378690   10.825220
  C     14.685390    8.450850    9.897430
  C     14.894230    9.668230   10.453630
  C     15.056160    9.647470   11.876560
  S     14.921330    7.977630   12.450590
  C     15.278220   10.685870   12.696920
  H     10.258590  -11.668000    0.711600
  H      8.956790  -10.527090    1.347110
  H     11.234800  -11.171730   -1.715710
  H     10.905970   -9.510890   -3.664950
  H     10.235930   -7.669240   -5.102030
  H      9.128610   -5.562710   -6.076260
  H      7.394670   -3.908710   -5.628910
  H      5.955110   -2.574910   -4.460240
  H      4.795000   -1.538590   -2.589200
  H      4.716770   -1.477360   -0.016580
  H      5.330380   -1.789530    2.413740
  H      6.158610   -2.776710    4.647320
  H      7.443670   -4.862510    5.557450
  H      7.208380   -7.390350    5.708190
  H      8.128770   -9.606630    5.233780
  H      9.902290   -9.882830    3.520930
  H     10.246850   -3.985320    4.188680
  H      9.568940   -3.581940    2.595130
  H     11.318960   -3.766560    2.774430
  H     10.953590   -8.103180    1.222920
  H     13.294120   -7.848510    2.072700
  H     12.486760  -12.110490    3.582090
  H     11.774740  -11.688670    5.160900
  H     13.543760  -11.754200    4.969450
  H     12.901040   -9.944480    6.849400
  H     13.086190   -5.660630    6.678560
  H     12.846740   -5.716700    4.241920
  H     13.121620   -8.774640    8.838940
  H     13.303300   -5.717570    8.773060
  H     13.379050   -7.794270   11.036940
  H     13.666320   -6.698780   13.377190
  H     13.930900   -4.383390   14.472990
  H     14.149160   -2.073980   14.942670
  H     14.348120    0.493310   14.828600
  H     14.361150    2.437860   13.113600
  H     13.975170    1.488000   10.217440
  H     13.978920    3.435620    8.505270
  H     14.240040    5.995450    8.386190
  H     14.544560    8.283290    8.844360
  H     14.941960   10.593920    9.908430
  H     15.354560   11.685590   12.307280
  H     15.387520   10.555190   13.758000

 Total Charge           Charge          ....    0
 Multiplicity           Mult            ....    1
 Number of Electrons    NEL             ....  560
 Basis Dimension        Dim             .... 1250

ORBITAL ENERGIES
----------------

  NO   OCC          E(Eh)            E(eV)
   0   2.0000     -88.939026     -2420.1539
   1   2.0000     -88.938004     -2420.1261
   2   2.0000     -88.937954     -2420.1248
   3   2.0000     -88.933609     -2420.0065
   4   2.0000     -88.931289     -2419.9434
   5   2.0000     -88.930284     -2419.9160
   6   2.0000     -88.929664     -2419.8992
   7   2.0000     -88.929433     -2419.8929
   8   2.0000     -19.185797      -522.0721
   9   2.0000     -19.178354      -521.8696
  10   2.0000     -14.447087      -393.1252
  11   2.0000     -14.440176      -392.9372
  12   2.0000     -10.367515      -282.1144
  13   2.0000     -10.359365      -281.8926
  14   2.0000     -10.305523      -280.4275
  15   2.0000     -10.304516      -280.4001
  16   2.0000     -10.304338      -280.3953
  17   2.0000     -10.303997      -280.3860
  18   2.0000     -10.303863      -280.3824
  19   2.0000     -10.303436      -280.3707
  20   2.0000     -10.303231      -280.3652
  21   2.0000     -10.301300      -280.3126
  22   2.0000     -10.299979      -280.2767
  23   2.0000     -10.299536      -280.2646
  24   2.0000     -10.299464      -280.2627
  25   2.0000     -10.299021      -280.2506
  26   2.0000     -10.295801      -280.1630
  27   2.0000     -10.295173      -280.1459
  28   2.0000     -10.294612      -280.1306
  29   2.0000     -10.294245      -280.1206
  30   2.0000     -10.293155      -280.0910
  31   2.0000     -10.292622      -280.0765
  32   2.0000     -10.291741      -280.0525
  33   2.0000     -10.283915      -279.8395
  34   2.0000     -10.283790      -279.8362
  35   2.0000     -10.283599      -279.8309
  36   2.0000     -10.281173      -279.7650
  37   2.0000     -10.280181      -279.7380
  38   2.0000     -10.279672      -279.7241
  39   2.0000     -10.279374      -279.7160
  40   2.0000     -10.278570      -279.6941
  41   2.0000     -10.277580      -279.6672
  42   2.0000     -10.277169      -279.6560
  43   2.0000     -10.277151      -279.6555
  44   2.0000     -10.276739      -279.6443
  45   2.0000     -10.276517      -279.6382
  46   2.0000     -10.275014      -279.5974
  47   2.0000     -10.273657      -279.5604
  48   2.0000     -10.273530      -279.5570
  49   2.0000     -10.273075      -279.5446
  50   2.0000     -10.273014      -279.5429
  51   2.0000     -10.272851      -279.5385
  52   2.0000     -10.272307      -279.5237
  53   2.0000     -10.271842      -279.5110
  54   2.0000     -10.271777      -279.5093
  55   2.0000     -10.270960      -279.4870
  56   2.0000     -10.269826      -279.4562
  57   2.0000     -10.269330      -279.4427
  58   2.0000     -10.269159      -279.4380
  59   2.0000     -10.268718      -279.4260
  60   2.0000     -10.268634      -279.4237
  61   2.0000     -10.267679      -279.3978
  62   2.0000     -10.267079      -279.3814
  63   2.0000     -10.266985      -279.3789
  64   2.0000     -10.266004      -279.3522
  65   2.0000     -10.265384      -279.3353
  66   2.0000     -10.264901      -279.3221
  67   2.0000     -10.264401      -279.3086
  68   2.0000     -10.262608      -279.2598
  69   2.0000     -10.259865      -279.1851
  70   2.0000     -10.258712      -279.1537
  71   2.0000     -10.257840      -279.1300
  72   2.0000      -8.035236      -218.6499
  73   2.0000      -8.034245      -218.6229
  74   2.0000      -8.034215      -218.6221
  75   2.0000      -8.030320      -218.5161
  76   2.0000      -8.027581      -218.4416
  77   2.0000      -8.025951      -218.3972
  78   2.0000      -8.025894      -218.3957
  79   2.0000      -8.025658      -218.3893
  80   2.0000      -6.004879      -163.4011
  81   2.0000      -6.003922      -163.3750
  82   2.0000      -6.003904      -163.3745
  83   2.0000      -6.000930      -163.2936
  84   2.0000      -6.000125      -163.2717
  85   2.0000      -5.999995      -163.2682
  86   2.0000      -5.999982      -163.2678
  87   2.0000      -5.997249      -163.1934
  88   2.0000      -5.996312      -163.1679
  89   2.0000      -5.996211      -163.1652
  90   2.0000      -5.995714      -163.1517
  91   2.0000      -5.995582      -163.1481
  92   2.0000      -5.995412      -163.1434
  93   2.0000      -5.995229      -163.1385
  94   2.0000      -5.995119      -163.1355
  95   2.0000      -5.993064      -163.0796
  96   2.0000      -5.991767      -163.0443
  97   2.0000      -5.991521      -163.0376
  98   2.0000      -5.991422      -163.0349
  99   2.0000      -5.990892      -163.0204
 100   2.0000      -5.988608      -162.9583
 101   2.0000      -5.986969      -162.9137
 102   2.0000      -5.986640      -162.9047
 103   2.0000      -5.986373      -162.8975
 104   2.0000      -1.128500       -30.7080
 105   2.0000      -1.121057       -30.5055
 106   2.0000      -1.051770       -28.6201
 107   2.0000      -1.044155       -28.4129
 108   2.0000      -0.988753       -26.9053
 109   2.0000      -0.986466       -26.8431
 110   2.0000      -0.982314       -26.7301
 111   2.0000      -0.979394       -26.6507
 112   2.0000      -0.967472       -26.3262
 113   2.0000      -0.963142       -26.2084
 114   2.0000      -0.960436       -26.1348
 115   2.0000      -0.955571       -26.0024
 116   2.0000      -0.947786       -25.7906
 117   2.0000      -0.939122       -25.5548
 118   2.0000      -0.917189       -24.9580
 119   2.0000      -0.901191       -24.5226
 120   2.0000      -0.893070       -24.3017
 121   2.0000      -0.887886       -24.1606
 122   2.0000      -0.878477       -23.9046
 123   2.0000      -0.868270       -23.6268
 124   2.0000      -0.862883       -23.4802
 125   2.0000      -0.855516       -23.2798
 126   2.0000      -0.849662       -23.1205
 127   2.0000      -0.840245       -22.8642
 128   2.0000      -0.838293       -22.8111
 129   2.0000      -0.837201       -22.7814
 130   2.0000      -0.833684       -22.6857
 131   2.0000      -0.833319       -22.6758
 132   2.0000      -0.828772       -22.5520
 133   2.0000      -0.824514       -22.4362
 134   2.0000      -0.815668       -22.1954
 135   2.0000      -0.813639       -22.1402
 136   2.0000      -0.812477       -22.1086
 137   2.0000      -0.811914       -22.0933
 138   2.0000      -0.804960       -21.9041
 139   2.0000      -0.800643       -21.7866
 140   2.0000      -0.797785       -21.7088
 141   2.0000      -0.786057       -21.3897
 142   2.0000      -0.780288       -21.2327
 143   2.0000      -0.779090       -21.2001
 144   2.0000      -0.755914       -20.5695
 145   2.0000      -0.750357       -20.4182
 146   2.0000      -0.742796       -20.2125
 147   2.0000      -0.726635       -19.7727
 148   2.0000      -0.724138       -19.7048
 149   2.0000      -0.705564       -19.1994
 150   2.0000      -0.698087       -18.9959
 151   2.0000      -0.694691       -18.9035
 152   2.0000      -0.687245       -18.7009
 153   2.0000      -0.681629       -18.5481
 154   2.0000      -0.677210       -18.4278
 155   2.0000      -0.670860       -18.2550
 156   2.0000      -0.668401       -18.1881
 157   2.0000      -0.659699       -17.9513
 158   2.0000      -0.657803       -17.8997
 159   2.0000      -0.652743       -17.7620
 160   2.0000      -0.641629       -17.4596
 161   2.0000      -0.634769       -17.2729
 162   2.0000      -0.634040       -17.2531
 163   2.0000      -0.626729       -17.0542
 164   2.0000      -0.623735       -16.9727
 165   2.0000      -0.617555       -16.8045
 166   2.0000      -0.617121       -16.7927
 167   2.0000      -0.614262       -16.7149
 168   2.0000      -0.612767       -16.6742
 169   2.0000      -0.607606       -16.5338
 170   2.0000      -0.604254       -16.4426
 171   2.0000      -0.601447       -16.3662
 172   2.0000      -0.601126       -16.3575
 173   2.0000      -0.598297       -16.2805
 174   2.0000      -0.592204       -16.1147
 175   2.0000      -0.588122       -16.0036
 176   2.0000      -0.586480       -15.9589
 177   2.0000      -0.583590       -15.8803
 178   2.0000      -0.578483       -15.7413
 179   2.0000      -0.575537       -15.6612
 180   2.0000      -0.569437       -15.4952
 181   2.0000      -0.565242       -15.3810
 182   2.0000      -0.559682       -15.2297
 183   2.0000      -0.556829       -15.1521
 184   2.0000      -0.549745       -14.9593
 185   2.0000      -0.548620       -14.9287
 186   2.0000      -0.543671       -14.7940
 187   2.0000      -0.534905       -14.5555
 188   2.0000      -0.532326       -14.4853
 189   2.0000      -0.529129       -14.3983
 190   2.0000      -0.526753       -14.3337
 191   2.0000      -0.524148       -14.2628
 192   2.0000      -0.523291       -14.2395
 193   2.0000      -0.515916       -14.0388
 194   2.0000      -0.514555       -14.0017
 195   2.0000      -0.510945       -13.9035
 196   2.0000      -0.510067       -13.8796
 197   2.0000      -0.508544       -13.8382
 198   2.0000      -0.503390       -13.6979
 199   2.0000      -0.501202       -13.6384
 200   2.0000      -0.499536       -13.5931
 201   2.0000      -0.495309       -13.4780
 202   2.0000      -0.492113       -13.3911
 203   2.0000      -0.491614       -13.3775
 204   2.0000      -0.490901       -13.3581
 205   2.0000      -0.488323       -13.2879
 206   2.0000      -0.488133       -13.2828
 207   2.0000      -0.487524       -13.2662
 208   2.0000      -0.486916       -13.2497
 209   2.0000      -0.484031       -13.1711
 210   2.0000      -0.483145       -13.1470
 211   2.0000      -0.480277       -13.0690
 212   2.0000      -0.477951       -13.0057
 213   2.0000      -0.475913       -12.9503
 214   2.0000      -0.475495       -12.9389
 215   2.0000      -0.471443       -12.8286
 216   2.0000      -0.468070       -12.7368
 217   2.0000      -0.466066       -12.6823
 218   2.0000      -0.464995       -12.6531
 219   2.0000      -0.463651       -12.6166
 220   2.0000      -0.462624       -12.5886
 221   2.0000      -0.461053       -12.5459
 222   2.0000      -0.460145       -12.5212
 223   2.0000      -0.458382       -12.4732
 224   2.0000      -0.455998       -12.4083
 225   2.0000      -0.454764       -12.3748
 226   2.0000      -0.452700       -12.3186
 227   2.0000      -0.450832       -12.2678
 228   2.0000      -0.449583       -12.2338
 229   2.0000      -0.449367       -12.2279
 230   2.0000      -0.445279       -12.1166
 231   2.0000      -0.442925       -12.0526
 232   2.0000      -0.441207       -12.0059
 233   2.0000      -0.440110       -11.9760
 234   2.0000      -0.435683       -11.8555
 235   2.0000      -0.428965       -11.6727
 236   2.0000      -0.428887       -11.6706
 237   2.0000      -0.426639       -11.6094
 238   2.0000      -0.424390       -11.5482
 239   2.0000      -0.421361       -11.4658
 240   2.0000      -0.419413       -11.4128
 241   2.0000      -0.417629       -11.3643
 242   2.0000      -0.413321       -11.2470
 243   2.0000      -0.411419       -11.1953
 244   2.0000      -0.410749       -11.1771
 245   2.0000      -0.409149       -11.1335
 246   2.0000      -0.405255       -11.0275
 247   2.0000      -0.398458       -10.8426
 248   2.0000      -0.395252       -10.7553
 249   2.0000      -0.394214       -10.7271
 250   2.0000      -0.391777       -10.6608
 251   2.0000      -0.390197       -10.6178
 252   2.0000      -0.387657       -10.5487
 253   2.0000      -0.376824       -10.2539
 254   2.0000      -0.369662       -10.0590
 255   2.0000      -0.366870        -9.9830
 256   2.0000      -0.364261        -9.9120
 257   2.0000      -0.358155        -9.7459
 258   2.0000      -0.339463        -9.2372
 259   2.0000      -0.337508        -9.1841
 260   2.0000      -0.333514        -9.0754
 261   2.0000      -0.330989        -9.0067
 262   2.0000      -0.330193        -8.9850
 263   2.0000      -0.324925        -8.8416
 264   2.0000      -0.322457        -8.7745
 265   2.0000      -0.320898        -8.7321
 266   2.0000      -0.320018        -8.7081
 267   2.0000      -0.315440        -8.5835
 268   2.0000      -0.313225        -8.5233
 269   2.0000      -0.308012        -8.3814
 270   2.0000      -0.307235        -8.3603
 271   2.0000      -0.303362        -8.2549
 272   2.0000      -0.285930        -7.7806
 273   2.0000      -0.283990        -7.7278
 274   2.0000      -0.269090        -7.3223
 275   2.0000      -0.266226        -7.2444
 276   2.0000      -0.234369        -6.3775
 277   2.0000      -0.233829        -6.3628
 278   2.0000      -0.184467        -5.0196
 279   2.0000      -0.184343        -5.0162
 280   0.0000      -0.088392        -2.4053
 281   0.0000      -0.077056        -2.0968
 282   0.0000      -0.040501        -1.1021
 283   0.0000      -0.026591        -0.7236
 284   0.0000      -0.004763        -0.1296

MULLIKEN ATOMIC CHARGES
-----------------------
   0 C :   -0.000409
   1 C :   -0.093046
   2 C :    0.066687
   3 C :    0.027220
   4 C :   -0.060749
   5 S :    0.081090
   6 C :   -0.050804
   7 C :    0.026533
   8 C :    0.029549
   9 C :   -0.033670
  10 S :    0.094944
  11 C :   -0.024051
  12 C :   -0.005813
  13 C :   -0.034867
  14 C :    0.027577
  15 C :    0.024057
  16 C :   -0.039381
  17 S :    0.081835
  18 C :   -0.058570
  19 C :    0.033127
  20 C :    0.034681
  21 C :   -0.035368
  22 S :    0.072408
  23 C :   -0.079752
  24 C :   -0.009824
  25 C :   -0.011591
  26 C :    0.029710
  27 C :   -0.038289
  28 C :   -0.030439
  29 C :    0.136833
  30 N :   -0.230287
  31 C :    0.131113
  32 C :    0.109604
  33 O :   -0.200729
  34 C :    0.051693
  35 C :    0.044242
  36 C :    0.113147
  37 O :   -0.204405
  38 N :   -0.234938
  39 C :    0.122833
  40 C :    0.223480
  41 C :   -0.169328
  42 C :    0.143346
  43 C :   -0.012825
  44 C :   -0.022724
  45 C :   -0.050518
  46 C :   -0.014154
  47 C :    0.023245
  48 C :   -0.017470
  49 C :   -0.017364
  50 C :    0.032477
  51 C :    0.021287
  52 C :   -0.042732
  53 S :    0.065381
  54 C :   -0.046474
  55 C :    0.018558
  56 C :    0.028256
  57 C :   -0.025457
  58 S :    0.075402
  59 C :   -0.010980
  60 C :   -0.012241
  61 C :   -0.025511
  62 C :    0.029324
  63 C :    0.020551
  64 C :   -0.045445
  65 S :    0.073698
  66 C :   -0.065631
  67 C :    0.026993
  68 C :    0.047968
  69 C :   -0.062657
  70 S :    0.078776
  71 C :   -0.033364
  72 H :    0.027171
  73 H :    0.022097
  74 H :   -0.006775
  75 H :   -0.015031
  76 H :   -0.016630
  77 H :   -0.018445
  78 H :   -0.014257
  79 H :   -0.016525
  80 H :   -0.017257
  81 H :   -0.020728
  82 H :   -0.016602
  83 H :   -0.018041
  84 H :   -0.006051
  85 H :   -0.030005
  86 H :   -0.027380
  87 H :   -0.026932
  88 H :    0.029027
  89 H :    0.048572
  90 H :    0.045435
  91 H :    0.067486
  92 H :    0.054615
  93 H :    0.051930
  94 H :    0.030975
  95 H :    0.033756
  96 H :   -0.050321
  97 H :   -0.035766
  98 H :   -0.020420
  99 H :   -0.030741
 100 H :    0.000438
 101 H :   -0.021211
 102 H :   -0.016698
 103 H :   -0.014852
 104 H :   -0.017960
 105 H :   -0.014261
 106 H :   -0.008345
 107 H :   -0.009345
 108 H :   -0.013843
 109 H :   -0.017316
 110 H :   -0.011939
 111 H :   -0.013594
 112 H :    0.018654
 113 H :    0.021345
Sum of atomic charges:   -0.0000000

LOEWDIN ATOMIC CHARGES
----------------------
   0 C :   -0.056465
   1 C :   -0.147116
   2 C :   -0.020993
   3 C :   -0.032316
   4 C :   -0.170753
   5 S :    0.357673
   6 C :   -0.188402
   7 C :   -0.038238
   8 C :   -0.038221
   9 C :   -0.153404
  10 S :    0.394292
  11 C :   -0.079908
  12 C :   -0.064849
  13 C :   -0.165056
  14 C :   -0.031660
  15 C :   -0.049504
  16 C :   -0.178409
  17 S :    0.390033
  18 C :   -0.188409
  19 C :   -0.031429
  20 C :   -0.043768
  21 C :   -0.141015
  22 S :    0.378359
  23 C :   -0.067072
  24 C :   -0.060150
  25 C :   -0.006645
  26 C :   -0.039499
  27 C :   -0.025081
  28 C :   -0.032944
  29 C :    0.029816
  30 N :   -0.006995
  31 C :    0.025864
  32 C :    0.080359
  33 O :   -0.194990
  34 C :   -0.021953
  35 C :   -0.021666
  36 C :    0.078767
  37 O :   -0.195751
  38 N :   -0.011722
  39 C :    0.031081
  40 C :    0.033463
  41 C :   -0.055619
  42 C :   -0.015345
  43 C :   -0.027420
  44 C :   -0.012984
  45 C :   -0.036954
  46 C :   -0.018167
  47 C :   -0.027988
  48 C :   -0.055767
  49 C :   -0.146166
  50 C :   -0.038456
  51 C :   -0.034186
  52 C :   -0.180850
  53 S :    0.366210
  54 C :   -0.178997
  55 C :   -0.038873
  56 C :   -0.037460
  57 C :   -0.148604
  58 S :    0.373984
  59 C :   -0.061422
  60 C :   -0.064418
  61 C :   -0.146261
  62 C :   -0.037025
  63 C :   -0.036949
  64 C :   -0.179535
  65 S :    0.371265
  66 C :   -0.179776
  67 C :   -0.027499
  68 C :   -0.035544
  69 C :   -0.139333
  70 S :    0.352199
  71 C :   -0.079843
  72 H :    0.030295
  73 H :    0.023303
  74 H :    0.035870
  75 H :    0.031680
  76 H :    0.030001
  77 H :    0.030602
  78 H :    0.035329
  79 H :    0.035357
  80 H :    0.030495
  81 H :    0.028537
  82 H :    0.031114
  83 H :    0.030408
  84 H :    0.031419
  85 H :    0.027427
  86 H :    0.025280
  87 H :    0.025579
  88 H :    0.025863
  89 H :    0.018233
  90 H :    0.032419
  91 H :    0.055541
  92 H :    0.057342
  93 H :    0.038208
  94 H :    0.024950
  95 H :    0.027674
  96 H :    0.023864
  97 H :    0.024464
  98 H :    0.032398
  99 H :    0.024487
 100 H :    0.020597
 101 H :    0.030853
 102 H :    0.031847
 103 H :    0.031101
 104 H :    0.030040
 105 H :    0.032974
 106 H :    0.027910
 107 H :    0.027622
 108 H :    0.033217
 109 H :    0.030062
 110 H :    0.032116
 111 H :    0.032389
 112 H :    0.027924
 113 H :    0.025665

  Mayer bond orders larger than 0.100000
B(  0-C ,  1-C ) :   1.8620 B(  0-C , 72-H ) :   0.9404 B(  0-C , 73-H ) :   0.9324
B(  1-C ,  2-C ) :   1.0876 B(  1-C ,  5-S ) :   1.0001 B(  2-C ,  3-C ) :   1.6395
B(  2-C , 74-H ) :   0.9940 B(  3-C ,  4-C ) :   1.1698 B(  3-C , 75-H ) :   0.9922
B(  4-C ,  5-S ) :   1.0526 B(  4-C ,  6-C ) :   1.5061 B(  6-C ,  7-C ) :   1.1992
B(  6-C , 10-S ) :   1.0430 B(  7-C ,  8-C ) :   1.5601 B(  7-C , 76-H ) :   0.9926
B(  8-C ,  9-C ) :   1.1873 B(  8-C , 77-H ) :   0.9980 B(  9-C , 10-S ) :   1.0581
B(  9-C , 11-C ) :   1.4740 B( 11-C , 12-C ) :   1.3019 B( 11-C , 78-H ) :   0.9509
B( 12-C , 13-C ) :   1.4786 B( 12-C , 79-H ) :   0.9510 B( 13-C , 14-C ) :   1.1935
B( 13-C , 17-S ) :   1.0446 B( 14-C , 15-C ) :   1.5505 B( 14-C , 80-H ) :   0.9975
B( 15-C , 16-C ) :   1.2102 B( 15-C , 81-H ) :   0.9926 B( 16-C , 17-S ) :   1.0544
B( 16-C , 18-C ) :   1.4764 B( 18-C , 19-C ) :   1.1944 B( 18-C , 22-S ) :   1.0343
B( 19-C , 20-C ) :   1.5976 B( 19-C , 82-H ) :   0.9944 B( 20-C , 21-C ) :   1.1187
B( 20-C , 83-H ) :   0.9986 B( 21-C , 22-S ) :   1.0304 B( 21-C , 23-C ) :   1.6885
B( 23-C , 24-C ) :   1.0035 B( 23-C , 84-H ) :   0.9574 B( 24-C , 25-C ) :   1.3324
B( 24-C , 29-C ) :   1.3648 B( 25-C , 26-C ) :   1.4180 B( 25-C , 85-H ) :   0.9935
B( 26-C , 27-C ) :   1.3003 B( 26-C , 86-H ) :   0.9908 B( 27-C , 28-C ) :   1.4696
B( 27-C , 87-H ) :   0.9849 B( 28-C , 29-C ) :   1.3603 B( 28-C , 34-C ) :   0.9367
B( 29-C , 30-N ) :   1.0623 B( 30-N , 31-C ) :   0.9619 B( 30-N , 32-C ) :   1.1412
B( 31-C , 88-H ) :   0.9659 B( 31-C , 89-H ) :   0.9598 B( 31-C , 90-H ) :   0.9535
B( 32-C , 33-O ) :   2.1537 B( 32-C , 34-C ) :   0.9248 B( 34-C , 35-C ) :   1.0408
B( 34-C , 91-H ) :   0.8623 B( 35-C , 36-C ) :   0.9272 B( 35-C , 45-C ) :   0.9413
B( 35-C , 92-H ) :   0.8715 B( 36-C , 37-O ) :   2.1316 B( 36-C , 38-N ) :   1.1411
B( 38-N , 39-C ) :   0.9692 B( 38-N , 40-C ) :   1.0289 B( 39-C , 93-H ) :   0.9585
B( 39-C , 94-H ) :   0.9702 B( 39-C , 95-H ) :   0.9727 B( 40-C , 41-C ) :   1.3534
B( 40-C , 45-C ) :   1.3659 B( 41-C , 42-C ) :   1.2506 B( 41-C , 96-H ) :   1.0171
B( 42-C , 43-C ) :   1.3618 B( 42-C , 46-C ) :   1.0739 B( 43-C , 44-C ) :   1.3499
B( 43-C , 97-H ) :   0.9882 B( 44-C , 45-C ) :   1.4417 B( 44-C , 98-H ) :   0.9911
B( 46-C , 47-C ) :   1.6459 B( 46-C , 99-H ) :   0.9884 B( 47-C , 48-C ) :   1.1548
B( 47-C ,100-H ) :   0.9640 B( 48-C , 49-C ) :   1.5470 B( 48-C ,101-H ) :   0.9861
B( 49-C , 50-C ) :   1.1519 B( 49-C , 53-S ) :   1.0303 B( 50-C , 51-C ) :   1.5661
B( 50-C ,102-H ) :   1.0002 B( 51-C , 52-C ) :   1.2126 B( 51-C ,103-H ) :   0.9944
B( 52-C , 53-S ) :   1.0479 B( 52-C , 54-C ) :   1.4609 B( 54-C , 55-C ) :   1.2269
B( 54-C , 58-S ) :   1.0515 B( 55-C , 56-C ) :   1.5334 B( 55-C ,104-H ) :   0.9948
B( 56-C , 57-C ) :   1.1953 B( 56-C ,105-H ) :   1.0003 B( 57-C , 58-S ) :   1.0428
B( 57-C , 59-C ) :   1.5001 B( 59-C , 60-C ) :   1.2292 B( 59-C ,106-H ) :   0.9713
B( 60-C , 61-C ) :   1.5077 B( 60-C ,107-H ) :   0.9712 B( 61-C , 62-C ) :   1.1844
B( 61-C , 65-S ) :   1.0429 B( 62-C , 63-C ) :   1.5528 B( 62-C ,108-H ) :   1.0000
B( 63-C , 64-C ) :   1.2049 B( 63-C ,109-H ) :   0.9943 B( 64-C , 65-S ) :   1.0445
B( 64-C , 66-C ) :   1.5113 B( 66-C , 67-C ) :   1.1706 B( 66-C , 70-S ) :   1.0478
B( 67-C , 68-C ) :   1.6422 B( 67-C ,110-H ) :   0.9926 B( 68-C , 69-C ) :   1.0864
B( 68-C ,111-H ) :   0.9940 B( 69-C , 70-S ) :   1.0096 B( 69-C , 71-C ) :   1.8517
B( 71-C ,112-H ) :   0.9511 B( 71-C ,113-H ) :   0.9423

-----------------------------------------------------------------------------
         ABSORPTION SPECTRUM VIA TRANSITION ELECTRIC DIPOLE MOMENTS
-----------------------------------------------------------------------------
State   Energy  Wavelength   fosc         T2         TX        TY        TZ
        (cm-1)    (nm)                  (au**2)     (au)      (au)      (au)
-----------------------------------------------------------------------------
   0    9926.3   1007.4   1.295523378  42.96696  -0.43879   5.97305   2.66404
   1   10008.4    999.2   0.772225626  25.40116  -1.32819  -4.85437   0.26855
   2   13391.5    746.7   0.002545438   0.06258  -0.03905  -0.23038  -0.08932
   3   15889.9    629.3   0.000453507   0.00940  -0.04013   0.05372   0.07000
   4   16947.1    590.1   0.001192352   0.02316   0.01788  -0.13958   0.05796
   5   17050.0    586.5   0.001269354   0.02451   0.00338   0.07774  -0.13584
   6   21325.7    468.9   0.569336161   8.78903   0.34876  -1.08541   2.73666
   7   23236.9    430.4   1.606474970  22.75996   1.78254  -3.02742   3.22758
   8   23385.9    427.6   0.000701167   0.00987  -0.03048   0.07615   0.05606
   9   24084.9    415.2   0.003146644   0.04301   0.03728  -0.17649   0.10234
  10   24444.3    409.1   0.009184048   0.12369   0.03229   0.26910  -0.22412
  11   25393.9    393.8   0.199097368   2.58114   0.03482  -0.63557   1.47512
  12   26091.8    383.3   0.001494919   0.01886  -0.08154  -0.05095   0.09806
  13   26783.1    373.4   0.002756408   0.03388   0.04038   0.08380  -0.15883
  14   26864.5    372.2   0.142822550   1.75022  -0.08558   0.62257  -1.16417
  15   28191.5    354.7   0.001581207   0.01846   0.01431   0.13042   0.03536
  16   28234.2    354.2   0.182616983   2.12932  -0.23203  -0.27449  -1.41426
  17   29210.9    342.3   0.018311702   0.20638   0.09852  -0.16263  -0.41258
  18   29230.9    342.1   0.017673214   0.19904  -0.04077  -0.12007  -0.42774
  19   30010.4    333.2   0.001200284   0.01317  -0.00296  -0.11398  -0.01294
  20   30142.8    331.8   0.008246868   0.09007   0.08233   0.00444   0.28857
  21   30332.0    329.7   0.032660782   0.35449   0.01739  -0.04467   0.59346
  22   30436.1    328.6   0.455780261   4.92994  -0.33688  -0.57548  -2.11785
  23   30748.5    325.2   0.026534043   0.28409  -0.26336   0.34710   0.30701
  24   30853.6    324.1   0.026563508   0.28344  -0.15741   0.22268   0.45724
  25   31024.0    322.3   0.156610976   1.66188   0.69815  -0.33096  -1.03196
  26   31343.2    319.0   0.000437942   0.00460   0.02282   0.06292   0.01098
  27   31383.9    318.6   0.023065783   0.24196   0.04298   0.48412   0.07575
  28   31969.5    312.8   0.045362062   0.46712   0.09978   0.48140   0.47479
  29   32071.8    311.8   0.059337424   0.60909   0.29348  -0.03777  -0.72217
  30   32642.8    306.3   0.164339780   1.65741  -0.22212  -0.26850  -1.23935
  31   32879.9    304.1   0.187707998   1.87944  -0.75786   0.80945   0.80616
  32   33160.9    301.6   0.000012320   0.00012  -0.00126   0.00925   0.00593
  33   34044.6    293.7   0.000655464   0.00634  -0.06536  -0.00462   0.04523
  34   34403.1    290.7   0.060708342   0.58093  -0.31858   0.16439   0.67262
  35   34624.2    288.8   0.001189113   0.01131   0.04278   0.00268  -0.09731
  36   34910.1    286.5   0.044396002   0.41867  -0.00276   0.52031  -0.38463
  37   35003.8    285.7   0.007190569   0.06763  -0.05871   0.15633   0.19936
  38   35112.4    284.8   0.005172751   0.04850  -0.05523  -0.14985   0.15164
  39   35546.2    281.3   0.045016657   0.41692   0.05478   0.21848  -0.60513
  40   35584.9    281.0   0.006620887   0.06125   0.00282  -0.22137  -0.11063
  41   35645.2    280.5   0.036253802   0.33483  -0.13358  -0.28310  -0.48667
  42   35713.0    280.0   0.064725569   0.59666   0.23570  -0.39663   0.61951
  43   35918.8    278.4   0.019712539   0.18067  -0.35574   0.09374  -0.21292
  44   35986.8    277.9   0.014157802   0.12952   0.12171  -0.24258   0.23635
  45   36261.2    275.8   0.041762294   0.37916  -0.06709  -0.44294  -0.42244
  46   36414.5    274.6   0.013386066   0.12102   0.00342   0.13134  -0.32211
  47   36484.3    274.1   0.005924594   0.05346  -0.06931  -0.05550  -0.21348
  48   36582.8    273.4   0.007272419   0.06545   0.08535   0.16519  -0.17571
  49   36876.7    271.2   0.005582062   0.04983   0.14270  -0.08109  -0.15131
  50   37015.4    270.2   0.002955666   0.02629  -0.00945   0.04750  -0.15473
  51   37479.8    266.8   0.023299609   0.20466  -0.02797  -0.44002   0.10126
  52   37618.5    265.8   0.025005350   0.21883   0.06038  -0.38337   0.26117
  53   38006.1    263.1   0.034849696   0.30187  -0.23912   0.09876  -0.48471
  54   38590.2    259.1   0.036196838   0.30879  -0.09425   0.53703   0.10726
  55   38701.6    258.4   0.032190226   0.27382  -0.07458   0.51421   0.06204
  56   38812.1    257.7   0.065195316   0.55300  -0.17642  -0.69312   0.20362
  57   39028.9    256.2   0.001201188   0.01013   0.00139  -0.09871  -0.01966
  58   39497.5    253.2   0.013646233   0.11374  -0.31013  -0.13185   0.01336
  59   40050.6    249.7   0.000148637   0.00122  -0.02346  -0.01220  -0.02286
  60   40067.4    249.6   0.000222683   0.00183   0.01253   0.01826  -0.03659
  61   40109.8    249.3   0.007365637   0.06046   0.14418   0.04722  -0.19349

FINAL SINGLE POINT ENERGY     -5752.759599298668

DIPOLE MOMENT
-------------
                                X             Y             Z
Electronic contribution:     -4.37157      15.24829      -3.37399
Nuclear contribution   :      4.10981     -15.14004       4.45384
                        -----------------------------------------
Total Dipole Moment    :     -0.26176       0.10825       1.07985
                        -----------------------------------------
Magnitude (a.u.)       :      1.11639
Magnitude (Debye)      :      2.83763

Rotational constants in cm-1:     0.000915     0.000270     0.000222
Rotational constants in MHz :    27.440708     8.096990     6.663895

                             ****ORCA TERMINATED NORMALLY****
TOTAL RUN TIME: 0 days 0 hours 12 minutes 17 seconds 696 msec
