                         Program Version 4.2.0 -  RELEASE  -
|  1> # ORCA input file
|  2> # SCF done       -158.652818709340          0.000364056852
|  3> ! CAM-B3LYP def2-SVP def2/J RIJCOSX Grid4 TightSCF
|  4> %maxcore 5000
|  5> %tddft
|  6>     Mode sTDDFT
|  7>     Ethresh 5.0
|  8>     maxcore 5000
|  9> end
| 10>
| 11> %pal
| 12>   nprocs 6
| 13>   end
| 14> * xyz 0 1
| 15>    C       -2.46996        -6.04363         8.33835
| 16>    C       -1.16098        -5.87253         8.10080
| 17>    C       -0.31326        -4.81316         8.56176
| 18>    C        0.97261        -4.90873         8.14895
| 19>    C        1.24232        -6.04022         7.33477
| 20>    S       -0.20663        -6.99183         7.11425
| 21>    C        2.44945        -6.38525         6.75651
| 22>    C        3.67954        -5.70081         6.83905
| 23>    C        4.68508        -6.28385         6.11950
| 24>    C        4.30126        -7.45488         5.43994
| 25>    S        2.61633        -7.80867         5.75074
| 26>    C        5.10083        -8.22654         4.60729
| 27>    C        4.69193        -9.38109         3.97513
| 28>    C        5.47118       -10.10762         3.08172
| 29>    C        5.11093       -11.29529         2.42584
| 30>    C        6.06361       -11.76656         1.56017
| 31>    C        7.21176       -10.95972         1.49531
| 32>    S        7.07050        -9.60271         2.58146
| 33>    C        8.32685       -11.12924         0.67814
| 34>    C        8.55790       -12.14915        -0.26044
| 35>    C        9.73161       -12.00732        -0.94927
| 36>    C       10.47692       -10.86867        -0.58081
| 37>    S        9.65143        -9.98850         0.68267
| 38>    C       11.67965       -10.45419        -1.11999
| 39>    C       12.35787        -9.31139        -0.70113
| 40>    O       11.85960        -8.54379         0.31297
| 41>    C       13.55259        -8.73146        -1.13100
| 42>    C       14.65261        -8.85786        -2.07833
| 43>    O       14.88474        -9.67305        -2.93535
| 44>    N       15.46622        -7.75630        -1.78446
| 45>    C       15.01091        -6.94175        -0.75480
| 46>    O       15.56416        -5.95045        -0.35157
| 47>    C       13.76114        -7.58671        -0.33561
| 48>    C       12.70093        -7.49540         0.55216
| 49>    C       12.43966        -6.56288         1.57735
| 50>    C       11.33383        -6.61409         2.36701
| 51>    C       11.04514        -5.73804         3.45069
| 52>    C        9.81937        -5.88803         4.16076
| 53>    N        8.80846        -6.70713         3.97015
| 54>    O        7.91101        -6.41978         4.91516
| 55>    N        8.30757        -5.42960         5.72819
| 56>    C        9.49692        -5.06157         5.29955
| 57>    C       10.39448        -4.06647         5.77573
| 58>    C       11.56558        -3.93569         5.03527
| 59>    C       11.87371        -4.72639         3.93006
| 60>    C       10.05892        -3.32332         6.94721
| 61>    C       10.83378        -2.38462         7.54046
| 62>    C       10.49194        -1.69976         8.73067
| 63>    S        9.00489        -1.96743         9.62715
| 64>    C        9.43019        -0.80237        10.86749
| 65>    C       10.65293        -0.25510        10.57267
| 66>    C       11.24466        -0.75152         9.38763
| 67>    C       12.54007        -0.09372         9.19873
| 68>    O       13.36857        -0.21718         8.33230
| 69>    N       12.64495         0.76538        10.29180
| 70>    C       11.56394         0.73566        11.16633
| 71>    O       11.46102         1.39859        12.16636
| 72>    C        8.59680        -0.51203        11.99581
| 73>    C        7.42441        -1.09355        12.24006
| 74>    H       -3.01477        -5.33887         8.94128
| 75>    H       -3.01310        -6.87938         7.93702
| 76>    H       -0.70458        -4.02589         9.18093
| 77>    H        1.74335        -4.20172         8.39900
| 78>    H        3.79505        -4.80145         7.41630
| 79>    H        5.69030        -5.90712         6.06165
| 80>    H        6.11155        -7.87614         4.44673
| 81>    H        3.69359        -9.75490         4.16867
| 82>    H        4.16292       -11.77265         2.60151
| 83>    H        5.95548       -12.65991         0.97233
| 84>    H        7.86392       -12.95570        -0.41477
| 85>    H       10.07861       -12.68242        -1.71084
| 86>    H       12.13313       -11.02897        -1.91188
| 87>    H       16.32229        -7.56957        -2.28620
| 88>    H       13.19557        -5.80079         1.69346
| 89>    H       10.59845        -7.38578         2.18174
| 90>    H       12.28587        -3.18951         5.33278
| 91>    H       12.81556        -4.54951         3.43495
| 92>    H        9.10170        -3.56919         7.39058
| 93>    H       11.79571        -2.10429         7.13357
| 94>    H       13.44620         1.36256        10.43822
| 95>    H        9.00481         0.23695        12.66213
| 96>    H        7.02011        -1.84188        11.57748
| 97>    H        6.84003        -0.84099        13.10650
| 98> *
| 99>
|100>                          ****END OF INPUT****

CARTESIAN COORDINATES (ANGSTROEM)
---------------------------------
  C     -2.469960   -6.043630    8.338350
  C     -1.160980   -5.872530    8.100800
  C     -0.313260   -4.813160    8.561760
  C      0.972610   -4.908730    8.148950
  C      1.242320   -6.040220    7.334770
  S     -0.206630   -6.991830    7.114250
  C      2.449450   -6.385250    6.756510
  C      3.679540   -5.700810    6.839050
  C      4.685080   -6.283850    6.119500
  C      4.301260   -7.454880    5.439940
  S      2.616330   -7.808670    5.750740
  C      5.100830   -8.226540    4.607290
  C      4.691930   -9.381090    3.975130
  C      5.471180  -10.107620    3.081720
  C      5.110930  -11.295290    2.425840
  C      6.063610  -11.766560    1.560170
  C      7.211760  -10.959720    1.495310
  S      7.070500   -9.602710    2.581460
  C      8.326850  -11.129240    0.678140
  C      8.557900  -12.149150   -0.260440
  C      9.731610  -12.007320   -0.949270
  C     10.476920  -10.868670   -0.580810
  S      9.651430   -9.988500    0.682670
  C     11.679650  -10.454190   -1.119990
  C     12.357870   -9.311390   -0.701130
  O     11.859600   -8.543790    0.312970
  C     13.552590   -8.731460   -1.131000
  C     14.652610   -8.857860   -2.078330
  O     14.884740   -9.673050   -2.935350
  N     15.466220   -7.756300   -1.784460
  C     15.010910   -6.941750   -0.754800
  O     15.564160   -5.950450   -0.351570
  C     13.761140   -7.586710   -0.335610
  C     12.700930   -7.495400    0.552160
  C     12.439660   -6.562880    1.577350
  C     11.333830   -6.614090    2.367010
  C     11.045140   -5.738040    3.450690
  C      9.819370   -5.888030    4.160760
  N      8.808460   -6.707130    3.970150
  O      7.911010   -6.419780    4.915160
  N      8.307570   -5.429600    5.728190
  C      9.496920   -5.061570    5.299550
  C     10.394480   -4.066470    5.775730
  C     11.565580   -3.935690    5.035270
  C     11.873710   -4.726390    3.930060
  C     10.058920   -3.323320    6.947210
  C     10.833780   -2.384620    7.540460
  C     10.491940   -1.699760    8.730670
  S      9.004890   -1.967430    9.627150
  C      9.430190   -0.802370   10.867490
  C     10.652930   -0.255100   10.572670
  C     11.244660   -0.751520    9.387630
  C     12.540070   -0.093720    9.198730
  O     13.368570   -0.217180    8.332300
  N     12.644950    0.765380   10.291800
  C     11.563940    0.735660   11.166330
  O     11.461020    1.398590   12.166360
  C      8.596800   -0.512030   11.995810
  C      7.424410   -1.093550   12.240060
  H     -3.014770   -5.338870    8.941280
  H     -3.013100   -6.879380    7.937020
  H     -0.704580   -4.025890    9.180930
  H      1.743350   -4.201720    8.399000
  H      3.795050   -4.801450    7.416300
  H      5.690300   -5.907120    6.061650
  H      6.111550   -7.876140    4.446730
  H      3.693590   -9.754900    4.168670
  H      4.162920  -11.772650    2.601510
  H      5.955480  -12.659910    0.972330
  H      7.863920  -12.955700   -0.414770
  H     10.078610  -12.682420   -1.710840
  H     12.133130  -11.028970   -1.911880
  H     16.322290   -7.569570   -2.286200
  H     13.195570   -5.800790    1.693460
  H     10.598450   -7.385780    2.181740
  H     12.285870   -3.189510    5.332780
  H     12.815560   -4.549510    3.434950
  H      9.101700   -3.569190    7.390580
  H     11.795710   -2.104290    7.133570
  H     13.446200    1.362560   10.438220
  H      9.004810    0.236950   12.662130
  H      7.020110   -1.841880   11.577480
  H      6.840030   -0.840990   13.106500

 Total Charge           Charge          ....    0
 Multiplicity           Mult            ....    1
 Number of Electrons    NEL             ....  444
 Basis Dimension        Dim             ....  966

ORBITAL ENERGIES
----------------

  NO   OCC          E(Eh)            E(eV)
   0   2.0000     -88.973395     -2421.0892
   1   2.0000     -88.949856     -2420.4486
   2   2.0000     -88.947619     -2420.3878
   3   2.0000     -88.947552     -2420.3860
   4   2.0000     -88.945073     -2420.3185
   5   2.0000     -19.359974      -526.8117
   6   2.0000     -19.295956      -525.0697
   7   2.0000     -19.208853      -522.6995
   8   2.0000     -19.208203      -522.6818
   9   2.0000     -19.199427      -522.4430
  10   2.0000     -19.194198      -522.3007
  11   2.0000     -14.484512      -394.1436
  12   2.0000     -14.483659      -394.1204
  13   2.0000     -14.452300      -393.2671
  14   2.0000     -14.439786      -392.9265
  15   2.0000     -10.395177      -282.8671
  16   2.0000     -10.395084      -282.8646
  17   2.0000     -10.388064      -282.6736
  18   2.0000     -10.383626      -282.5528
  19   2.0000     -10.350253      -281.6447
  20   2.0000     -10.345602      -281.5181
  21   2.0000     -10.329711      -281.0857
  22   2.0000     -10.327854      -281.0352
  23   2.0000     -10.327740      -281.0321
  24   2.0000     -10.326228      -280.9910
  25   2.0000     -10.320128      -280.8250
  26   2.0000     -10.316918      -280.7376
  27   2.0000     -10.314374      -280.6684
  28   2.0000     -10.314200      -280.6636
  29   2.0000     -10.313110      -280.6340
  30   2.0000     -10.311794      -280.5982
  31   2.0000     -10.306976      -280.4671
  32   2.0000     -10.305080      -280.4155
  33   2.0000     -10.303957      -280.3849
  34   2.0000     -10.301186      -280.3095
  35   2.0000     -10.297893      -280.2199
  36   2.0000     -10.296421      -280.1799
  37   2.0000     -10.295739      -280.1613
  38   2.0000     -10.294077      -280.1161
  39   2.0000     -10.293049      -280.0881
  40   2.0000     -10.292877      -280.0834
  41   2.0000     -10.291611      -280.0490
  42   2.0000     -10.291366      -280.0423
  43   2.0000     -10.291261      -280.0394
  44   2.0000     -10.290256      -280.0121
  45   2.0000     -10.289418      -279.9893
  46   2.0000     -10.289228      -279.9841
  47   2.0000     -10.288497      -279.9642
  48   2.0000     -10.286614      -279.9130
  49   2.0000     -10.284661      -279.8599
  50   2.0000     -10.282784      -279.8088
  51   2.0000     -10.282644      -279.8050
  52   2.0000     -10.282331      -279.7964
  53   2.0000     -10.281624      -279.7772
  54   2.0000     -10.279675      -279.7242
  55   2.0000     -10.277328      -279.6603
  56   2.0000     -10.276624      -279.6412
  57   2.0000     -10.273930      -279.5678
  58   2.0000     -10.272047      -279.5166
  59   2.0000      -8.068537      -219.5561
  60   2.0000      -8.046230      -218.9490
  61   2.0000      -8.044327      -218.8973
  62   2.0000      -8.043620      -218.8780
  63   2.0000      -8.040411      -218.7907
  64   2.0000      -6.037820      -164.2974
  65   2.0000      -6.033754      -164.1868
  66   2.0000      -6.030605      -164.1011
  67   2.0000      -6.015853      -163.6997
  68   2.0000      -6.014105      -163.6521
  69   2.0000      -6.013174      -163.6268
  70   2.0000      -6.011907      -163.5923
  71   2.0000      -6.010164      -163.5449
  72   2.0000      -6.010151      -163.5445
  73   2.0000      -6.009168      -163.5178
  74   2.0000      -6.007277      -163.4663
  75   2.0000      -6.005838      -163.4271
  76   2.0000      -6.004967      -163.4035
  77   2.0000      -6.004850      -163.4003
  78   2.0000      -6.001639      -163.3129
  79   2.0000      -1.308378       -35.6028
  80   2.0000      -1.211585       -32.9689
  81   2.0000      -1.153073       -31.3767
  82   2.0000      -1.140962       -31.0472
  83   2.0000      -1.131824       -30.7985
  84   2.0000      -1.119765       -30.4704
  85   2.0000      -1.042539       -28.3689
  86   2.0000      -1.028182       -27.9782
  87   2.0000      -1.014740       -27.6125
  88   2.0000      -1.002722       -27.2854
  89   2.0000      -0.999519       -27.1983
  90   2.0000      -0.996021       -27.1031
  91   2.0000      -0.995585       -27.0913
  92   2.0000      -0.977190       -26.5907
  93   2.0000      -0.973253       -26.4836
  94   2.0000      -0.928359       -25.2619
  95   2.0000      -0.928059       -25.2538
  96   2.0000      -0.912266       -24.8240
  97   2.0000      -0.909598       -24.7514
  98   2.0000      -0.906206       -24.6591
  99   2.0000      -0.898079       -24.4380
 100   2.0000      -0.883654       -24.0454
 101   2.0000      -0.877540       -23.8791
 102   2.0000      -0.866524       -23.5793
 103   2.0000      -0.854445       -23.2506
 104   2.0000      -0.850746       -23.1500
 105   2.0000      -0.846168       -23.0254
 106   2.0000      -0.840228       -22.8638
 107   2.0000      -0.826887       -22.5007
 108   2.0000      -0.822996       -22.3949
 109   2.0000      -0.819491       -22.2995
 110   2.0000      -0.810025       -22.0419
 111   2.0000      -0.794068       -21.6077
 112   2.0000      -0.781517       -21.2662
 113   2.0000      -0.767654       -20.8889
 114   2.0000      -0.754944       -20.5431
 115   2.0000      -0.750619       -20.4254
 116   2.0000      -0.749783       -20.4026
 117   2.0000      -0.746590       -20.3158
 118   2.0000      -0.744145       -20.2492
 119   2.0000      -0.734616       -19.9899
 120   2.0000      -0.721504       -19.6331
 121   2.0000      -0.709689       -19.3116
 122   2.0000      -0.699592       -19.0369
 123   2.0000      -0.686967       -18.6933
 124   2.0000      -0.685517       -18.6539
 125   2.0000      -0.679026       -18.4772
 126   2.0000      -0.675186       -18.3727
 127   2.0000      -0.658704       -17.9242
 128   2.0000      -0.649528       -17.6745
 129   2.0000      -0.641854       -17.4657
 130   2.0000      -0.637690       -17.3524
 131   2.0000      -0.632291       -17.2055
 132   2.0000      -0.626509       -17.0482
 133   2.0000      -0.625386       -17.0176
 134   2.0000      -0.622246       -16.9322
 135   2.0000      -0.614536       -16.7224
 136   2.0000      -0.609307       -16.5801
 137   2.0000      -0.607711       -16.5367
 138   2.0000      -0.603363       -16.4183
 139   2.0000      -0.596390       -16.2286
 140   2.0000      -0.588880       -16.0242
 141   2.0000      -0.584051       -15.8928
 142   2.0000      -0.583807       -15.8862
 143   2.0000      -0.581808       -15.8318
 144   2.0000      -0.576742       -15.6940
 145   2.0000      -0.575501       -15.6602
 146   2.0000      -0.570833       -15.5332
 147   2.0000      -0.570668       -15.5287
 148   2.0000      -0.565525       -15.3887
 149   2.0000      -0.560489       -15.2517
 150   2.0000      -0.557657       -15.1746
 151   2.0000      -0.548261       -14.9189
 152   2.0000      -0.541856       -14.7447
 153   2.0000      -0.535091       -14.5606
 154   2.0000      -0.532567       -14.4919
 155   2.0000      -0.530291       -14.4299
 156   2.0000      -0.529640       -14.4122
 157   2.0000      -0.522706       -14.2236
 158   2.0000      -0.520769       -14.1708
 159   2.0000      -0.517732       -14.0882
 160   2.0000      -0.513224       -13.9655
 161   2.0000      -0.509246       -13.8573
 162   2.0000      -0.503668       -13.7055
 163   2.0000      -0.502655       -13.6779
 164   2.0000      -0.501705       -13.6521
 165   2.0000      -0.498887       -13.5754
 166   2.0000      -0.495951       -13.4955
 167   2.0000      -0.495359       -13.4794
 168   2.0000      -0.493901       -13.4397
 169   2.0000      -0.491210       -13.3665
 170   2.0000      -0.490276       -13.3411
 171   2.0000      -0.489074       -13.3084
 172   2.0000      -0.485339       -13.2068
 173   2.0000      -0.481803       -13.1105
 174   2.0000      -0.480201       -13.0669
 175   2.0000      -0.479608       -13.0508
 176   2.0000      -0.475557       -12.9406
 177   2.0000      -0.472502       -12.8574
 178   2.0000      -0.468933       -12.7603
 179   2.0000      -0.467866       -12.7313
 180   2.0000      -0.467336       -12.7169
 181   2.0000      -0.462594       -12.5878
 182   2.0000      -0.460963       -12.5434
 183   2.0000      -0.458998       -12.4900
 184   2.0000      -0.456064       -12.4101
 185   2.0000      -0.450253       -12.2520
 186   2.0000      -0.445070       -12.1110
 187   2.0000      -0.441911       -12.0250
 188   2.0000      -0.435077       -11.8391
 189   2.0000      -0.434480       -11.8228
 190   2.0000      -0.429576       -11.6894
 191   2.0000      -0.429174       -11.6784
 192   2.0000      -0.420126       -11.4322
 193   2.0000      -0.415315       -11.3013
 194   2.0000      -0.412762       -11.2318
 195   2.0000      -0.410005       -11.1568
 196   2.0000      -0.403679       -10.9847
 197   2.0000      -0.399768       -10.8783
 198   2.0000      -0.399254       -10.8642
 199   2.0000      -0.389931       -10.6106
 200   2.0000      -0.382467       -10.4075
 201   2.0000      -0.372671       -10.1409
 202   2.0000      -0.367466        -9.9993
 203   2.0000      -0.364510        -9.9188
 204   2.0000      -0.361958        -9.8494
 205   2.0000      -0.360523        -9.8103
 206   2.0000      -0.356288        -9.6951
 207   2.0000      -0.351856        -9.5745
 208   2.0000      -0.346893        -9.4394
 209   2.0000      -0.342967        -9.3326
 210   2.0000      -0.341809        -9.3011
 211   2.0000      -0.338100        -9.2002
 212   2.0000      -0.335702        -9.1349
 213   2.0000      -0.331638        -9.0243
 214   2.0000      -0.331587        -9.0229
 215   2.0000      -0.323203        -8.7948
 216   2.0000      -0.321231        -8.7412
 217   2.0000      -0.306317        -8.3353
 218   2.0000      -0.284850        -7.7512
 219   2.0000      -0.259486        -7.0610
 220   2.0000      -0.236974        -6.4484
 221   2.0000      -0.194292        -5.2870
 222   0.0000      -0.104992        -2.8570
 223   0.0000      -0.089861        -2.4452
 224   0.0000      -0.048219        -1.3121
 225   0.0000      -0.043993        -1.1971
 226   0.0000      -0.032222        -0.8768

MULLIKEN ATOMIC CHARGES
-----------------------
   0 C :   -0.022941
   1 C :   -0.068709
   2 C :    0.056516
   3 C :    0.027167
   4 C :   -0.059695
   5 S :    0.090883
   6 C :   -0.046385
   7 C :    0.023488
   8 C :    0.038173
   9 C :   -0.020764
  10 S :    0.081901
  11 C :   -0.022223
  12 C :    0.014294
  13 C :   -0.044310
  14 C :    0.042819
  15 C :    0.008597
  16 C :   -0.029422
  17 S :    0.112769
  18 C :   -0.053499
  19 C :    0.032277
  20 C :    0.011103
  21 C :    0.005385
  22 S :    0.107843
  23 C :   -0.069702
  24 C :    0.116102
  25 O :   -0.247307
  26 C :   -0.039478
  27 C :    0.152289
  28 O :   -0.151797
  29 N :   -0.168945
  30 C :    0.159257
  31 O :   -0.150219
  32 C :   -0.026277
  33 C :    0.085244
  34 C :    0.000786
  35 C :   -0.032891
  36 C :    0.087050
  37 C :   -0.031283
  38 N :    0.068915
  39 O :   -0.133218
  40 N :    0.052136
  41 C :   -0.026670
  42 C :    0.066915
  43 C :   -0.021223
  44 C :   -0.027075
  45 C :   -0.018600
  46 C :    0.008389
  47 C :   -0.113933
  48 S :    0.129764
  49 C :   -0.136814
  50 C :    0.001492
  51 C :   -0.009979
  52 C :    0.167672
  53 O :   -0.154437
  54 N :   -0.158743
  55 C :    0.162688
  56 O :   -0.149980
  57 C :    0.000699
  58 C :   -0.009555
  59 H :    0.024734
  60 H :    0.026633
  61 H :   -0.007737
  62 H :   -0.008319
  63 H :   -0.012933
  64 H :   -0.012083
  65 H :    0.006943
  66 H :   -0.004064
  67 H :   -0.011074
  68 H :   -0.014759
  69 H :   -0.013921
  70 H :   -0.011608
  71 H :    0.001555
  72 H :    0.133665
  73 H :    0.011767
  74 H :    0.008055
  75 H :   -0.005461
  76 H :   -0.009621
  77 H :   -0.000266
  78 H :    0.011793
  79 H :    0.137065
  80 H :    0.021904
  81 H :    0.024771
  82 H :    0.036420
Sum of atomic charges:    0.0000000

LOEWDIN ATOMIC CHARGES
----------------------
   0 C :   -0.065442
   1 C :   -0.140702
   2 C :   -0.025879
   3 C :   -0.027250
   4 C :   -0.168385
   5 S :    0.362655
   6 C :   -0.183102
   7 C :   -0.026503
   8 C :   -0.032198
   9 C :   -0.127823
  10 S :    0.378976
  11 C :   -0.069394
  12 C :   -0.033209
  13 C :   -0.161556
  14 C :   -0.021491
  15 C :   -0.048395
  16 C :   -0.154224
  17 S :    0.409288
  18 C :   -0.204926
  19 C :   -0.020099
  20 C :   -0.054201
  21 C :   -0.120906
  22 S :    0.408877
  23 C :   -0.104857
  24 C :    0.079055
  25 O :   -0.006464
  26 C :   -0.116731
  27 C :    0.082907
  28 O :   -0.169417
  29 N :   -0.010481
  30 C :    0.082682
  31 O :   -0.167354
  32 C :   -0.080717
  33 C :    0.051125
  34 C :   -0.014612
  35 C :   -0.021002
  36 C :   -0.019034
  37 C :   -0.046894
  38 N :   -0.017832
  39 O :    0.062546
  40 N :   -0.037395
  41 C :   -0.043146
  42 C :   -0.045430
  43 C :    0.011171
  44 C :   -0.009903
  45 C :   -0.006023
  46 C :   -0.029912
  47 C :   -0.125025
  48 S :    0.443232
  49 C :   -0.128097
  50 C :   -0.096532
  51 C :   -0.100974
  52 C :    0.085499
  53 O :   -0.166763
  54 N :   -0.004239
  55 C :    0.085160
  56 O :   -0.162571
  57 C :   -0.035509
  58 C :   -0.026612
  59 H :    0.030711
  60 H :    0.028316
  61 H :    0.034953
  62 H :    0.033785
  63 H :    0.032146
  64 H :    0.034691
  65 H :    0.029034
  66 H :    0.029418
  67 H :    0.034523
  68 H :    0.031013
  69 H :    0.031518
  70 H :    0.033336
  71 H :    0.047385
  72 H :    0.091811
  73 H :    0.043081
  74 H :    0.035010
  75 H :    0.038185
  76 H :    0.035761
  77 H :    0.028730
  78 H :    0.040820
  79 H :    0.094375
  80 H :    0.045882
  81 H :    0.019674
  82 H :    0.031876

  Mayer bond orders larger than 0.100000
B(  0-C ,  1-C ) :   1.8542 B(  0-C , 59-H ) :   0.9512 B(  0-C , 60-H ) :   0.9420
B(  1-C ,  2-C ) :   1.0862 B(  1-C ,  5-S ) :   1.0080 B(  2-C ,  3-C ) :   1.6455
B(  2-C , 61-H ) :   0.9933 B(  3-C ,  4-C ) :   1.1687 B(  3-C , 62-H ) :   0.9923
B(  4-C ,  5-S ) :   1.0593 B(  4-C ,  6-C ) :   1.5051 B(  6-C ,  7-C ) :   1.2036
B(  6-C , 10-S ) :   1.0430 B(  7-C ,  8-C ) :   1.5454 B(  7-C , 63-H ) :   0.9957
B(  8-C ,  9-C ) :   1.1872 B(  8-C , 64-H ) :   0.9978 B(  9-C , 10-S ) :   1.0576
B(  9-C , 11-C ) :   1.4881 B( 11-C , 12-C ) :   1.2468 B( 11-C , 65-H ) :   0.9702
B( 12-C , 13-C ) :   1.4757 B( 12-C , 66-H ) :   0.9713 B( 13-C , 14-C ) :   1.2068
B( 13-C , 17-S ) :   1.0476 B( 14-C , 15-C ) :   1.5145 B( 14-C , 67-H ) :   1.0004
B( 15-C , 16-C ) :   1.2415 B( 15-C , 68-H ) :   0.9959 B( 16-C , 17-S ) :   1.0852
B( 16-C , 18-C ) :   1.4130 B( 18-C , 19-C ) :   1.2498 B( 18-C , 22-S ) :   1.0290
B( 19-C , 20-C ) :   1.5213 B( 19-C , 69-H ) :   0.9952 B( 20-C , 21-C ) :   1.1904
B( 20-C , 70-H ) :   1.0031 B( 21-C , 22-S ) :   1.0860 B( 21-C , 23-C ) :   1.4415
B( 23-C , 24-C ) :   1.2895 B( 23-C , 71-H ) :   0.9649 B( 24-C , 25-O ) :   1.1165
B( 24-C , 26-C ) :   1.3024 B( 25-O , 33-C ) :   1.1168 B( 26-C , 27-C ) :   0.9034
B( 26-C , 32-C ) :   1.3082 B( 27-C , 28-O ) :   2.2604 B( 27-C , 29-N ) :   1.0579
B( 29-N , 30-C ) :   1.0950 B( 29-N , 72-H ) :   0.9151 B( 30-C , 31-O ) :   2.2581
B( 30-C , 32-C ) :   0.8727 B( 32-C , 33-C ) :   1.3688 B( 33-C , 34-C ) :   1.2266
B( 34-C , 35-C ) :   1.5417 B( 34-C , 73-H ) :   0.9527 B( 35-C , 36-C ) :   1.1375
B( 35-C , 74-H ) :   1.0000 B( 36-C , 37-C ) :   1.1154 B( 36-C , 42-C ) :   0.1062
B( 36-C , 44-C ) :   1.4284 B( 37-C , 38-N ) :   1.6306 B( 37-C , 41-C ) :   1.1382
B( 38-N , 39-O ) :   1.0450 B( 38-N , 40-N ) :   0.1841 B( 39-O , 40-N ) :   1.0293
B( 40-N , 41-C ) :   1.6141 B( 41-C , 42-C ) :   1.1256 B( 42-C , 43-C ) :   1.4279
B( 42-C , 45-C ) :   1.1360 B( 43-C , 44-C ) :   1.2689 B( 43-C , 75-H ) :   0.9893
B( 44-C , 76-H ) :   0.9863 B( 45-C , 46-C ) :   1.6009 B( 45-C , 77-H ) :   0.9846
B( 46-C , 47-C ) :   1.1855 B( 46-C , 78-H ) :   0.9642 B( 47-C , 48-S ) :   1.1091
B( 47-C , 51-C ) :   1.5037 B( 48-S , 49-C ) :   1.1049 B( 49-C , 50-C ) :   1.5436
B( 49-C , 57-C ) :   1.1384 B( 50-C , 51-C ) :   1.2348 B( 50-C , 55-C ) :   0.8903
B( 51-C , 52-C ) :   0.8999 B( 52-C , 53-O ) :   2.2281 B( 52-C , 54-N ) :   1.0833
B( 54-N , 55-C ) :   1.0875 B( 54-N , 79-H ) :   0.9139 B( 55-C , 56-O ) :   2.2408
B( 57-C , 58-C ) :   1.8957 B( 57-C , 80-H ) :   0.9589 B( 58-C , 81-H ) :   0.9568
B( 58-C , 82-H ) :   0.9511

-----------------------------------------------------------------------------
         ABSORPTION SPECTRUM VIA TRANSITION ELECTRIC DIPOLE MOMENTS
-----------------------------------------------------------------------------
State   Energy  Wavelength   fosc         T2         TX        TY        TZ
        (cm-1)    (nm)                  (au**2)     (au)      (au)      (au)
-----------------------------------------------------------------------------
   0    6847.6   1460.4   0.391507779  18.82257  -4.17231  -0.63502   1.00554
   1   10957.7    912.6   0.917005356  27.55044  -3.38899   2.06501   3.43525
   2   15645.9    639.1   0.832344146  17.51368   1.68014  -2.44592  -2.95098
   3   17877.1    559.4   0.720702377  13.27197   1.19048  -2.19331  -2.65408
   4   19970.6    500.7   0.141026489   2.32479   0.00413   1.38954   0.62766
   5   21172.1    472.3   0.276161616   4.29412   0.52580  -0.28601  -1.98390
   6   21699.5    460.8   0.022532435   0.34185  -0.11402  -0.54628  -0.17444
   7   22669.8    441.1   0.009829194   0.14274  -0.27957  -0.03293   0.25198
   8   23769.0    420.7   0.109053300   1.51044  -0.07746   0.88543   0.84880
   9   25316.6    395.0   0.015393985   0.20018  -0.41192   0.01380   0.17411
  10   25934.4    385.6   0.027587253   0.35019  -0.41590  -0.38521  -0.16981
  11   27338.9    365.8   0.004805375   0.05787   0.20758   0.12022  -0.01804
  12   28749.4    347.8   0.147829090   1.69281   0.11690   0.84064   0.98613
  13   28882.4    346.2   0.099606365   1.13535  -0.94308  -0.42084   0.26239
  14   29347.8    340.7   0.182727450   2.04977   1.12649   0.85230   0.23320
  15   30003.8    333.3   0.007714340   0.08464  -0.24653  -0.10189   0.11613
  16   30312.4    329.9   0.137422182   1.49249  -0.90776  -0.77967  -0.24611
  17   31540.1    317.1   0.065281656   0.68140   0.43725  -0.30708  -0.62922
  18   31792.8    314.5   0.183750183   1.90272  -0.73113  -1.08665  -0.43284
  19   32120.9    311.3   0.140107324   1.43598   1.09394   0.35275  -0.33889
  20   32466.3    308.0   0.017219502   0.17461  -0.38894  -0.07826   0.13118
  21   32783.5    305.0   0.005650087   0.05674  -0.06786  -0.20283  -0.10485
  22   33108.5    302.0   0.019464878   0.19355  -0.06401   0.27000   0.34139
  23   33578.9    297.8   0.069729278   0.68364  -0.71512  -0.40723   0.08007
  24   33794.0    295.9   0.020185030   0.19664  -0.11451   0.15747   0.39840
  25   34420.4    290.5   0.000915562   0.00876   0.05121  -0.02720   0.07345
  26   34515.8    289.7   0.014352572   0.13689   0.02865   0.30089   0.21339
  27   34728.0    288.0   0.000116872   0.00111  -0.00474   0.02253   0.02404
  28   35425.2    282.3   0.009896984   0.09197  -0.03267  -0.28816  -0.08873
  29   35899.1    278.6   0.001466631   0.01345   0.09603  -0.05069   0.04073
  30   36083.2    277.1   0.092710090   0.84586  -0.78518  -0.11391   0.46516
  31   36450.6    274.3   0.010463000   0.09450   0.23182   0.20085  -0.02039
  32   36535.3    273.7   0.000250572   0.00226   0.04320  -0.00739   0.01836
  33   36772.9    271.9   0.006177930   0.05531  -0.10027  -0.17344  -0.12318
  34   36883.8    271.1   0.000562292   0.00502   0.04314   0.00421   0.05603
  35   37009.0    270.2   0.161049039   1.43260  -1.01080   0.10031   0.63311
  36   37167.6    269.1   0.074455487   0.65949   0.72285  -0.04294  -0.36761
  37   38016.2    263.0   0.194807341   1.68699  -1.18910  -0.44964   0.26616
  38   38068.1    262.7   0.021421295   0.18525   0.41280  -0.00557  -0.12174
  39   39101.0    255.7   0.008640774   0.07275   0.17114   0.16489   0.12757
  40   39381.1    253.9   0.007018925   0.05868  -0.01829  -0.17129  -0.17030
  41   39524.5    253.0   0.018468345   0.15383  -0.31940   0.05830   0.22003
  42   39914.1    250.5   0.014580068   0.12026  -0.30033   0.07206   0.15769
  43   40045.0    249.7   0.030400180   0.24992   0.37809   0.32302  -0.05127

FINAL SINGLE POINT ENERGY     -4348.767266500515

DIPOLE MOMENT
-------------
                                X             Y             Z
Electronic contribution:     21.11971      -3.33439     -13.83961
Nuclear contribution   :    -24.31079       3.03460      15.26791
                        -----------------------------------------
Total Dipole Moment    :     -3.19108      -0.29978       1.42830
                        -----------------------------------------
Magnitude (a.u.)       :      3.50898
Magnitude (Debye)      :      8.91911

Rotational constants in cm-1:     0.000936     0.000655     0.000391
Rotational constants in MHz :    28.051292    19.643045    11.715813

                             ****ORCA TERMINATED NORMALLY****
TOTAL RUN TIME: 0 days 0 hours 7 minutes 37 seconds 697 msec
