                         Program Version 4.2.0 -  RELEASE  -
|  1> # ORCA input file
|  2> # SCF done       -162.495205841728          0.000747832451
|  3> ! CAM-B3LYP def2-SVP def2/J RIJCOSX Grid4 TightSCF
|  4> %maxcore 5000
|  5> %tddft
|  6>     Mode sTDDFT
|  7>     Ethresh 5.0
|  8>     maxcore 5000
|  9> end
| 10>
| 11> %pal
| 12>   nprocs 6
| 13>   end
| 14> * xyz 0 1
| 15>    C       24.52327       -20.77609        -2.30220
| 16>    C       24.04823       -19.52050        -2.28140
| 17>    C       24.60087       -18.35899        -2.90879
| 18>    C       23.88936       -17.22263        -2.70524
| 19>    C       22.73031       -17.39263        -1.90938
| 20>    S       22.56874       -19.06580        -1.42099
| 21>    C       21.81903       -16.42081        -1.53332
| 22>    C       21.83269       -15.05046        -1.85156
| 23>    C       20.78422       -14.34932        -1.31674
| 24>    C       19.89752       -15.12632        -0.55583
| 25>    S       20.42978       -16.79453        -0.53508
| 26>    C       18.75835       -14.68373         0.10937
| 27>    C       17.92177       -15.48617         0.84992
| 28>    C       16.79358       -15.04383         1.53715
| 29>    C       15.92699       -15.82080         2.31532
| 30>    C       14.90626       -15.11045         2.90010
| 31>    C       14.92740       -13.74269         2.60183
| 32>    S       16.27384       -13.37184         1.55153
| 33>    C       14.05806       -12.75051         3.05371
| 34>    C       12.95826       -12.90235         3.91207
| 35>    C       12.33116       -11.72231         4.20240
| 36>    C       12.88753       -10.58583         3.57126
| 37>    S       14.24291       -11.07937         2.58347
| 38>    C       12.46037        -9.30063         3.84315
| 39>    C       12.84828        -8.03627         3.35169
| 40>    C       12.52526        -6.89437         4.13048
| 41>    F       11.87194        -7.14822         5.29997
| 42>    C       12.84946        -5.60459         3.79054
| 43>    O       12.58108        -4.47407         4.49495
| 44>    C       11.96895        -4.53787         5.76549
| 45>    C       13.50721        -5.37869         2.53832
| 46>    C       13.84680        -6.51271         1.77217
| 47>    C       13.52670        -7.80843         2.11859
| 48>    O       13.73863        -8.91648         1.37302
| 49>    C       14.32422        -8.85026         0.09071
| 50>    F       14.61304        -6.29014         0.67300
| 51>    C       13.79625        -4.04380         2.17634
| 52>    C       13.95321        -3.44944         0.94111
| 53>    C       14.26972        -2.08295         0.76549
| 54>    C       14.24347        -1.65541        -0.53293
| 55>    C       13.88661        -2.65857        -1.44815
| 56>    S       13.62165        -4.16999        -0.62166
| 57>    C       13.72985        -2.53324        -2.82801
| 58>    C       13.89769        -1.38430        -3.61099
| 59>    C       13.63642        -1.58108        -4.94547
| 60>    C       13.25225        -2.88833        -5.26777
| 61>    S       13.23806        -3.88069        -3.82520
| 62>    C       12.90417        -3.37037        -6.52746
| 63>    C       12.52182        -4.66404        -6.79702
| 64>    C       12.14095        -5.13414        -8.04988
| 65>    C       11.73493        -6.43811        -8.37228
| 66>    C       11.39381        -6.61409        -9.68737
| 67>    C       11.51777        -5.44873       -10.46575
| 68>    S       12.08785        -4.12059        -9.47690
| 69>    C       11.24497        -5.29055       -11.81360
| 70>    C       10.76412        -6.27189       -12.71459
| 71>    C       10.58184        -5.82699       -13.98253
| 72>    C       10.91132        -4.44770       -14.17604
| 73>    S       11.46270        -3.76241       -12.63908
| 74>    C       10.83805        -3.73172       -15.30941
| 75>    H       25.42641       -21.01133        -2.83686
| 76>    H       24.02351       -21.57826        -1.79141
| 77>    H       25.50670       -18.42275        -3.48499
| 78>    H       24.16077       -16.26067        -3.10281
| 79>    H       22.60367       -14.61161        -2.45881
| 80>    H       20.63170       -13.29285        -1.45254
| 81>    H       18.53054       -13.62761         0.03435
| 82>    H       18.14880       -16.54273         0.92112
| 83>    H       16.07102       -16.88041         2.43345
| 84>    H       14.15425       -15.54793         3.53168
| 85>    H       12.65421       -13.85796         4.30014
| 86>    H       11.47918       -11.63787         4.85425
| 87>    H       11.72539        -9.26118         4.63875
| 88>    H       11.91947        -3.50428         6.10598
| 89>    H       12.56019        -5.12412         6.47274
| 90>    H       10.95791        -4.94756         5.70856
| 91>    H       14.29581        -9.87392        -0.28055
| 92>    H       15.36176        -8.51296         0.13440
| 93>    H       13.75526        -8.19982        -0.57751
| 94>    H       13.81668        -3.35410         3.01028
| 95>    H       14.51035        -1.45406         1.60444
| 96>    H       14.46275        -0.64882        -0.84063
| 97>    H       14.20113        -0.44261        -3.19042
| 98>    H       13.71037        -0.81315        -5.69531
| 99>    H       12.93239        -2.65893        -7.34350
|100>    H       12.50288        -5.37837        -5.98322
|101>    H       11.70125        -7.21605        -7.62966
|102>    H       11.06029        -7.54753       -10.10357
|103>    H       10.56542        -7.27911       -12.39335
|104>    H       10.22222        -6.42702       -14.79940
|105>    H       10.49781        -4.18577       -16.22314
|106>    H       11.11386        -2.69386       -15.34140
|107> *
|108>
|109>                          ****END OF INPUT****

CARTESIAN COORDINATES (ANGSTROEM)
---------------------------------
  C     24.523270  -20.776090   -2.302200
  C     24.048230  -19.520500   -2.281400
  C     24.600870  -18.358990   -2.908790
  C     23.889360  -17.222630   -2.705240
  C     22.730310  -17.392630   -1.909380
  S     22.568740  -19.065800   -1.420990
  C     21.819030  -16.420810   -1.533320
  C     21.832690  -15.050460   -1.851560
  C     20.784220  -14.349320   -1.316740
  C     19.897520  -15.126320   -0.555830
  S     20.429780  -16.794530   -0.535080
  C     18.758350  -14.683730    0.109370
  C     17.921770  -15.486170    0.849920
  C     16.793580  -15.043830    1.537150
  C     15.926990  -15.820800    2.315320
  C     14.906260  -15.110450    2.900100
  C     14.927400  -13.742690    2.601830
  S     16.273840  -13.371840    1.551530
  C     14.058060  -12.750510    3.053710
  C     12.958260  -12.902350    3.912070
  C     12.331160  -11.722310    4.202400
  C     12.887530  -10.585830    3.571260
  S     14.242910  -11.079370    2.583470
  C     12.460370   -9.300630    3.843150
  C     12.848280   -8.036270    3.351690
  C     12.525260   -6.894370    4.130480
  F     11.871940   -7.148220    5.299970
  C     12.849460   -5.604590    3.790540
  O     12.581080   -4.474070    4.494950
  C     11.968950   -4.537870    5.765490
  C     13.507210   -5.378690    2.538320
  C     13.846800   -6.512710    1.772170
  C     13.526700   -7.808430    2.118590
  O     13.738630   -8.916480    1.373020
  C     14.324220   -8.850260    0.090710
  F     14.613040   -6.290140    0.673000
  C     13.796250   -4.043800    2.176340
  C     13.953210   -3.449440    0.941110
  C     14.269720   -2.082950    0.765490
  C     14.243470   -1.655410   -0.532930
  C     13.886610   -2.658570   -1.448150
  S     13.621650   -4.169990   -0.621660
  C     13.729850   -2.533240   -2.828010
  C     13.897690   -1.384300   -3.610990
  C     13.636420   -1.581080   -4.945470
  C     13.252250   -2.888330   -5.267770
  S     13.238060   -3.880690   -3.825200
  C     12.904170   -3.370370   -6.527460
  C     12.521820   -4.664040   -6.797020
  C     12.140950   -5.134140   -8.049880
  C     11.734930   -6.438110   -8.372280
  C     11.393810   -6.614090   -9.687370
  C     11.517770   -5.448730  -10.465750
  S     12.087850   -4.120590   -9.476900
  C     11.244970   -5.290550  -11.813600
  C     10.764120   -6.271890  -12.714590
  C     10.581840   -5.826990  -13.982530
  C     10.911320   -4.447700  -14.176040
  S     11.462700   -3.762410  -12.639080
  C     10.838050   -3.731720  -15.309410
  H     25.426410  -21.011330   -2.836860
  H     24.023510  -21.578260   -1.791410
  H     25.506700  -18.422750   -3.484990
  H     24.160770  -16.260670   -3.102810
  H     22.603670  -14.611610   -2.458810
  H     20.631700  -13.292850   -1.452540
  H     18.530540  -13.627610    0.034350
  H     18.148800  -16.542730    0.921120
  H     16.071020  -16.880410    2.433450
  H     14.154250  -15.547930    3.531680
  H     12.654210  -13.857960    4.300140
  H     11.479180  -11.637870    4.854250
  H     11.725390   -9.261180    4.638750
  H     11.919470   -3.504280    6.105980
  H     12.560190   -5.124120    6.472740
  H     10.957910   -4.947560    5.708560
  H     14.295810   -9.873920   -0.280550
  H     15.361760   -8.512960    0.134400
  H     13.755260   -8.199820   -0.577510
  H     13.816680   -3.354100    3.010280
  H     14.510350   -1.454060    1.604440
  H     14.462750   -0.648820   -0.840630
  H     14.201130   -0.442610   -3.190420
  H     13.710370   -0.813150   -5.695310
  H     12.932390   -2.658930   -7.343500
  H     12.502880   -5.378370   -5.983220
  H     11.701250   -7.216050   -7.629660
  H     11.060290   -7.547530  -10.103570
  H     10.565420   -7.279110  -12.393350
  H     10.222220   -6.427020  -14.799400
  H     10.497810   -4.185770  -16.223140
  H     11.113860   -2.693860  -15.341400

 Total Charge           Charge          ....    0
 Multiplicity           Mult            ....    1
 Number of Electrons    NEL             ....  482
 Basis Dimension        Dim             .... 1032

ORBITAL ENERGIES
----------------

  NO   OCC          E(Eh)            E(eV)
   0   2.0000     -88.937756     -2420.1194
   1   2.0000     -88.936979     -2420.0982
   2   2.0000     -88.936355     -2420.0812
   3   2.0000     -88.935549     -2420.0593
   4   2.0000     -88.934644     -2420.0347
   5   2.0000     -88.933064     -2419.9917
   6   2.0000     -88.932810     -2419.9848
   7   2.0000     -88.931263     -2419.9427
   8   2.0000     -24.780438      -674.3100
   9   2.0000     -24.779805      -674.2928
  10   2.0000     -19.249086      -523.7943
  11   2.0000     -19.246564      -523.7256
  12   2.0000     -10.350643      -281.6553
  13   2.0000     -10.349529      -281.6250
  14   2.0000     -10.338407      -281.3223
  15   2.0000     -10.336951      -281.2827
  16   2.0000     -10.316547      -280.7275
  17   2.0000     -10.313248      -280.6377
  18   2.0000     -10.302787      -280.3531
  19   2.0000     -10.302039      -280.3327
  20   2.0000     -10.301783      -280.3258
  21   2.0000     -10.301220      -280.3104
  22   2.0000     -10.300823      -280.2996
  23   2.0000     -10.300302      -280.2855
  24   2.0000     -10.299753      -280.2705
  25   2.0000     -10.299448      -280.2622
  26   2.0000     -10.298974      -280.2493
  27   2.0000     -10.298473      -280.2357
  28   2.0000     -10.297959      -280.2217
  29   2.0000     -10.297572      -280.2112
  30   2.0000     -10.297541      -280.2103
  31   2.0000     -10.296403      -280.1794
  32   2.0000     -10.296328      -280.1773
  33   2.0000     -10.294808      -280.1360
  34   2.0000     -10.286785      -279.9177
  35   2.0000     -10.286234      -279.9026
  36   2.0000     -10.282778      -279.8086
  37   2.0000     -10.281457      -279.7727
  38   2.0000     -10.278552      -279.6936
  39   2.0000     -10.277269      -279.6587
  40   2.0000     -10.277205      -279.6570
  41   2.0000     -10.277119      -279.6546
  42   2.0000     -10.276072      -279.6261
  43   2.0000     -10.276055      -279.6257
  44   2.0000     -10.275871      -279.6207
  45   2.0000     -10.275724      -279.6167
  46   2.0000     -10.274692      -279.5886
  47   2.0000     -10.274668      -279.5879
  48   2.0000     -10.274004      -279.5699
  49   2.0000     -10.273148      -279.5466
  50   2.0000     -10.273120      -279.5458
  51   2.0000     -10.272306      -279.5237
  52   2.0000     -10.272046      -279.5166
  53   2.0000     -10.271920      -279.5132
  54   2.0000     -10.271862      -279.5116
  55   2.0000     -10.271063      -279.4898
  56   2.0000     -10.270762      -279.4816
  57   2.0000     -10.270358      -279.4706
  58   2.0000     -10.263809      -279.2925
  59   2.0000     -10.262333      -279.2523
  60   2.0000      -8.034123      -218.6196
  61   2.0000      -8.033333      -218.5981
  62   2.0000      -8.032717      -218.5813
  63   2.0000      -8.031951      -218.5605
  64   2.0000      -8.030788      -218.5289
  65   2.0000      -8.029463      -218.4928
  66   2.0000      -8.028255      -218.4599
  67   2.0000      -8.027990      -218.4527
  68   2.0000      -6.003716      -163.3694
  69   2.0000      -6.002969      -163.3491
  70   2.0000      -6.002330      -163.3317
  71   2.0000      -6.001611      -163.3121
  72   2.0000      -6.000481      -163.2814
  73   2.0000      -5.999777      -163.2622
  74   2.0000      -5.999263      -163.2482
  75   2.0000      -5.999054      -163.2426
  76   2.0000      -5.998344      -163.2232
  77   2.0000      -5.998039      -163.2149
  78   2.0000      -5.997776      -163.2078
  79   2.0000      -5.997659      -163.2046
  80   2.0000      -5.996350      -163.1690
  81   2.0000      -5.995333      -163.1413
  82   2.0000      -5.995237      -163.1387
  83   2.0000      -5.994332      -163.1141
  84   2.0000      -5.993872      -163.1015
  85   2.0000      -5.993839      -163.1006
  86   2.0000      -5.993732      -163.0977
  87   2.0000      -5.992925      -163.0758
  88   2.0000      -5.991826      -163.0459
  89   2.0000      -5.990083      -162.9985
  90   2.0000      -5.989392      -162.9796
  91   2.0000      -5.988589      -162.9578
  92   2.0000      -1.293371       -35.1944
  93   2.0000      -1.290455       -35.1151
  94   2.0000      -1.153212       -31.3805
  95   2.0000      -1.148451       -31.2509
  96   2.0000      -0.986962       -26.8566
  97   2.0000      -0.985261       -26.8103
  98   2.0000      -0.985136       -26.8069
  99   2.0000      -0.983472       -26.7616
 100   2.0000      -0.966283       -26.2939
 101   2.0000      -0.964229       -26.2380
 102   2.0000      -0.962176       -26.1821
 103   2.0000      -0.960709       -26.1422
 104   2.0000      -0.954392       -25.9703
 105   2.0000      -0.900964       -24.5165
 106   2.0000      -0.895840       -24.3770
 107   2.0000      -0.891489       -24.2586
 108   2.0000      -0.871209       -23.7068
 109   2.0000      -0.865910       -23.5626
 110   2.0000      -0.857664       -23.3382
 111   2.0000      -0.850272       -23.1371
 112   2.0000      -0.842030       -22.9128
 113   2.0000      -0.836978       -22.7753
 114   2.0000      -0.835837       -22.7443
 115   2.0000      -0.835161       -22.7259
 116   2.0000      -0.830235       -22.5918
 117   2.0000      -0.827839       -22.5267
 118   2.0000      -0.818969       -22.2853
 119   2.0000      -0.811606       -22.0849
 120   2.0000      -0.810611       -22.0578
 121   2.0000      -0.810021       -22.0418
 122   2.0000      -0.806884       -21.9564
 123   2.0000      -0.801561       -21.8116
 124   2.0000      -0.793738       -21.5987
 125   2.0000      -0.783129       -21.3100
 126   2.0000      -0.766625       -20.8609
 127   2.0000      -0.763398       -20.7731
 128   2.0000      -0.745873       -20.2962
 129   2.0000      -0.737833       -20.0775
 130   2.0000      -0.718968       -19.5641
 131   2.0000      -0.709161       -19.2973
 132   2.0000      -0.692742       -18.8505
 133   2.0000      -0.689446       -18.7608
 134   2.0000      -0.683869       -18.6090
 135   2.0000      -0.672816       -18.3083
 136   2.0000      -0.668012       -18.1775
 137   2.0000      -0.665478       -18.1086
 138   2.0000      -0.663939       -18.0667
 139   2.0000      -0.645442       -17.5634
 140   2.0000      -0.633285       -17.2326
 141   2.0000      -0.630711       -17.1625
 142   2.0000      -0.629305       -17.1242
 143   2.0000      -0.628118       -17.0920
 144   2.0000      -0.619076       -16.8459
 145   2.0000      -0.618079       -16.8188
 146   2.0000      -0.615977       -16.7616
 147   2.0000      -0.613935       -16.7060
 148   2.0000      -0.609299       -16.5799
 149   2.0000      -0.608282       -16.5522
 150   2.0000      -0.599535       -16.3142
 151   2.0000      -0.598600       -16.2887
 152   2.0000      -0.597009       -16.2454
 153   2.0000      -0.591604       -16.0984
 154   2.0000      -0.590970       -16.0811
 155   2.0000      -0.589659       -16.0454
 156   2.0000      -0.585990       -15.9456
 157   2.0000      -0.584586       -15.9074
 158   2.0000      -0.575901       -15.6711
 159   2.0000      -0.571334       -15.5468
 160   2.0000      -0.559000       -15.2112
 161   2.0000      -0.553423       -15.0594
 162   2.0000      -0.552866       -15.0443
 163   2.0000      -0.547180       -14.8895
 164   2.0000      -0.545430       -14.8419
 165   2.0000      -0.543424       -14.7873
 166   2.0000      -0.532258       -14.4835
 167   2.0000      -0.529037       -14.3958
 168   2.0000      -0.523824       -14.2540
 169   2.0000      -0.516536       -14.0557
 170   2.0000      -0.514140       -13.9905
 171   2.0000      -0.511125       -13.9084
 172   2.0000      -0.509184       -13.8556
 173   2.0000      -0.507102       -13.7989
 174   2.0000      -0.502640       -13.6775
 175   2.0000      -0.498233       -13.5576
 176   2.0000      -0.494303       -13.4507
 177   2.0000      -0.490103       -13.3364
 178   2.0000      -0.489491       -13.3197
 179   2.0000      -0.488661       -13.2972
 180   2.0000      -0.488015       -13.2796
 181   2.0000      -0.486247       -13.2314
 182   2.0000      -0.485647       -13.2151
 183   2.0000      -0.484457       -13.1827
 184   2.0000      -0.484177       -13.1751
 185   2.0000      -0.482601       -13.1322
 186   2.0000      -0.478305       -13.0153
 187   2.0000      -0.477207       -12.9855
 188   2.0000      -0.473917       -12.8959
 189   2.0000      -0.472349       -12.8533
 190   2.0000      -0.470792       -12.8109
 191   2.0000      -0.468077       -12.7370
 192   2.0000      -0.462572       -12.5872
 193   2.0000      -0.460274       -12.5247
 194   2.0000      -0.457973       -12.4621
 195   2.0000      -0.457538       -12.4503
 196   2.0000      -0.456763       -12.4291
 197   2.0000      -0.450929       -12.2704
 198   2.0000      -0.450283       -12.2528
 199   2.0000      -0.448326       -12.1996
 200   2.0000      -0.447645       -12.1810
 201   2.0000      -0.445644       -12.1266
 202   2.0000      -0.443396       -12.0654
 203   2.0000      -0.433103       -11.7853
 204   2.0000      -0.429508       -11.6875
 205   2.0000      -0.424524       -11.5519
 206   2.0000      -0.423478       -11.5234
 207   2.0000      -0.422686       -11.5019
 208   2.0000      -0.417497       -11.3607
 209   2.0000      -0.415619       -11.3096
 210   2.0000      -0.411124       -11.1873
 211   2.0000      -0.409863       -11.1529
 212   2.0000      -0.403525       -10.9805
 213   2.0000      -0.401431       -10.9235
 214   2.0000      -0.399429       -10.8690
 215   2.0000      -0.395730       -10.7684
 216   2.0000      -0.392034       -10.6678
 217   2.0000      -0.388836       -10.5808
 218   2.0000      -0.385720       -10.4960
 219   2.0000      -0.381288       -10.3754
 220   2.0000      -0.378292       -10.2938
 221   2.0000      -0.374079       -10.1792
 222   2.0000      -0.360128        -9.7996
 223   2.0000      -0.352410        -9.5896
 224   2.0000      -0.335975        -9.1424
 225   2.0000      -0.329578        -8.9683
 226   2.0000      -0.328293        -8.9333
 227   2.0000      -0.327589        -8.9141
 228   2.0000      -0.323929        -8.8146
 229   2.0000      -0.320919        -8.7327
 230   2.0000      -0.316079        -8.6010
 231   2.0000      -0.312087        -8.4923
 232   2.0000      -0.310158        -8.4398
 233   2.0000      -0.309433        -8.4201
 234   2.0000      -0.292818        -7.9680
 235   2.0000      -0.282399        -7.6845
 236   2.0000      -0.270159        -7.3514
 237   2.0000      -0.244263        -6.6467
 238   2.0000      -0.229741        -6.2516
 239   2.0000      -0.189584        -5.1588
 240   2.0000      -0.172790        -4.7019
 241   0.0000      -0.096776        -2.6334
 242   0.0000      -0.079178        -2.1545
 243   0.0000      -0.041070        -1.1176
 244   0.0000      -0.025363        -0.6902
 245   0.0000       0.001538         0.0419

MULLIKEN ATOMIC CHARGES
-----------------------
   0 C :   -0.029802
   1 C :   -0.065756
   2 C :    0.048186
   3 C :    0.027750
   4 C :   -0.068656
   5 S :    0.077889
   6 C :   -0.041472
   7 C :    0.014612
   8 C :    0.027684
   9 C :   -0.025804
  10 S :    0.074414
  11 C :   -0.011481
  12 C :   -0.014075
  13 C :   -0.022691
  14 C :    0.023489
  15 C :    0.015759
  16 C :   -0.048026
  17 S :    0.074057
  18 C :   -0.045526
  19 C :    0.024972
  20 C :    0.020527
  21 C :    0.004986
  22 S :    0.108229
  23 C :   -0.069752
  24 C :   -0.027771
  25 C :    0.134499
  26 F :   -0.205933
  27 C :    0.158320
  28 O :   -0.315856
  29 C :    0.185893
  30 C :   -0.047099
  31 C :    0.120137
  32 C :    0.152321
  33 O :   -0.325996
  34 C :    0.187922
  35 F :   -0.195733
  36 C :   -0.045584
  37 C :   -0.007553
  38 C :    0.025313
  39 C :    0.025763
  40 C :   -0.054284
  41 S :    0.102971
  42 C :   -0.043583
  43 C :    0.013979
  44 C :    0.025868
  45 C :   -0.024784
  46 S :    0.077367
  47 C :   -0.012569
  48 C :   -0.011912
  49 C :   -0.026190
  50 C :    0.028712
  51 C :    0.014723
  52 C :   -0.041015
  53 S :    0.074656
  54 C :   -0.067522
  55 C :    0.027640
  56 C :    0.048403
  57 C :   -0.065937
  58 S :    0.078848
  59 C :   -0.029759
  60 H :    0.016870
  61 H :    0.018877
  62 H :   -0.014914
  63 H :   -0.014626
  64 H :   -0.017793
  65 H :   -0.014795
  66 H :   -0.009511
  67 H :   -0.007728
  68 H :   -0.014687
  69 H :   -0.017509
  70 H :   -0.020020
  71 H :   -0.015436
  72 H :   -0.003726
  73 H :    0.029687
  74 H :    0.027604
  75 H :    0.028025
  76 H :    0.032506
  77 H :    0.031236
  78 H :    0.031261
  79 H :    0.004580
  80 H :   -0.015285
  81 H :   -0.018286
  82 H :   -0.017775
  83 H :   -0.014386
  84 H :   -0.007025
  85 H :   -0.008527
  86 H :   -0.014272
  87 H :   -0.017870
  88 H :   -0.013846
  89 H :   -0.014260
  90 H :    0.017656
  91 H :    0.020206
Sum of atomic charges:   -0.0000000

LOEWDIN ATOMIC CHARGES
----------------------
   0 C :   -0.081780
   1 C :   -0.139364
   2 C :   -0.037969
   3 C :   -0.027475
   4 C :   -0.181895
   5 S :    0.352154
   6 C :   -0.178906
   7 C :   -0.040404
   8 C :   -0.038044
   9 C :   -0.149648
  10 S :    0.373040
  11 C :   -0.062813
  12 C :   -0.063989
  13 C :   -0.148418
  14 C :   -0.041213
  15 C :   -0.038760
  16 C :   -0.180207
  17 S :    0.375097
  18 C :   -0.186115
  19 C :   -0.040446
  20 C :   -0.035223
  21 C :   -0.143943
  22 S :    0.410569
  23 C :   -0.058102
  24 C :   -0.065984
  25 C :    0.049284
  26 F :   -0.072479
  27 C :    0.028162
  28 O :   -0.099213
  29 C :    0.076928
  30 C :   -0.066969
  31 C :    0.041061
  32 C :    0.023380
  33 O :   -0.097061
  34 C :    0.075378
  35 F :   -0.063383
  36 C :   -0.054278
  37 C :   -0.145852
  38 C :   -0.034833
  39 C :   -0.039804
  40 C :   -0.183548
  41 S :    0.389395
  42 C :   -0.178945
  43 C :   -0.039309
  44 C :   -0.039572
  45 C :   -0.149156
  46 S :    0.377761
  47 C :   -0.062184
  48 C :   -0.063483
  49 C :   -0.148463
  50 C :   -0.037938
  51 C :   -0.039263
  52 C :   -0.179271
  53 S :    0.373468
  54 C :   -0.180736
  55 C :   -0.027549
  56 C :   -0.036951
  57 C :   -0.139398
  58 S :    0.352915
  59 C :   -0.080599
  60 H :    0.027256
  61 H :    0.024826
  62 H :    0.031820
  63 H :    0.031479
  64 H :    0.029606
  65 H :    0.032706
  66 H :    0.027381
  67 H :    0.027714
  68 H :    0.032499
  69 H :    0.030183
  70 H :    0.028783
  71 H :    0.030925
  72 H :    0.035128
  73 H :    0.024180
  74 H :    0.016429
  75 H :    0.016607
  76 H :    0.021733
  77 H :    0.017811
  78 H :    0.018860
  79 H :    0.037235
  80 H :    0.031634
  81 H :    0.029823
  82 H :    0.030095
  83 H :    0.032694
  84 H :    0.027998
  85 H :    0.027640
  86 H :    0.032863
  87 H :    0.029699
  88 H :    0.031758
  89 H :    0.032132
  90 H :    0.027552
  91 H :    0.025294

  Mayer bond orders larger than 0.100000
B(  0-C ,  1-C ) :   1.8491 B(  0-C , 60-H ) :   0.9506 B(  0-C , 61-H ) :   0.9417
B(  1-C ,  2-C ) :   1.0900 B(  1-C ,  5-S ) :   1.0104 B(  2-C ,  3-C ) :   1.6355
B(  2-C , 62-H ) :   0.9935 B(  3-C ,  4-C ) :   1.1785 B(  3-C , 63-H ) :   0.9923
B(  4-C ,  5-S ) :   1.0486 B(  4-C ,  6-C ) :   1.4972 B(  6-C ,  7-C ) :   1.2144
B(  6-C , 10-S ) :   1.0474 B(  7-C ,  8-C ) :   1.5383 B(  7-C , 64-H ) :   0.9941
B(  8-C ,  9-C ) :   1.1984 B(  8-C , 65-H ) :   1.0002 B(  9-C , 10-S ) :   1.0455
B(  9-C , 11-C ) :   1.4830 B( 11-C , 12-C ) :   1.2516 B( 11-C , 66-H ) :   0.9725
B( 12-C , 13-C ) :   1.4705 B( 12-C , 67-H ) :   0.9723 B( 13-C , 14-C ) :   1.2140
B( 13-C , 17-S ) :   1.0487 B( 14-C , 15-C ) :   1.5090 B( 14-C , 68-H ) :   1.0006
B( 15-C , 16-C ) :   1.2477 B( 15-C , 69-H ) :   0.9951 B( 16-C , 17-S ) :   1.0531
B( 16-C , 18-C ) :   1.4311 B( 18-C , 19-C ) :   1.2194 B( 18-C , 22-S ) :   1.0477
B( 19-C , 20-C ) :   1.5494 B( 19-C , 70-H ) :   0.9951 B( 20-C , 21-C ) :   1.1690
B( 20-C , 71-H ) :   0.9997 B( 21-C , 22-S ) :   1.0487 B( 21-C , 23-C ) :   1.5271
B( 23-C , 24-C ) :   1.1886 B( 23-C , 72-H ) :   0.9521 B( 24-C , 25-C ) :   1.2466
B( 24-C , 30-C ) :   0.1137 B( 24-C , 32-C ) :   1.2737 B( 25-C , 26-F ) :   1.0912
B( 25-C , 27-C ) :   1.3365 B( 27-C , 28-O ) :   1.1897 B( 27-C , 30-C ) :   1.2568
B( 28-O , 29-C ) :   0.9377 B( 29-C , 73-H ) :   0.9788 B( 29-C , 74-H ) :   0.9755
B( 29-C , 75-H ) :   0.9757 B( 30-C , 31-C ) :   1.2658 B( 30-C , 36-C ) :   1.1827
B( 31-C , 32-C ) :   1.3027 B( 31-C , 35-F ) :   1.1010 B( 32-C , 33-O ) :   1.1632
B( 33-O , 34-C ) :   0.9198 B( 34-C , 76-H ) :   0.9723 B( 34-C , 77-H ) :   0.9771
B( 34-C , 78-H ) :   0.9770 B( 36-C , 37-C ) :   1.5390 B( 36-C , 79-H ) :   0.9448
B( 37-C , 38-C ) :   1.1692 B( 37-C , 41-S ) :   1.0468 B( 38-C , 39-C ) :   1.5542
B( 38-C , 80-H ) :   0.9986 B( 39-C , 40-C ) :   1.2208 B( 39-C , 81-H ) :   0.9939
B( 40-C , 41-S ) :   1.0615 B( 40-C , 42-C ) :   1.4315 B( 42-C , 43-C ) :   1.2475
B( 42-C , 46-S ) :   1.0554 B( 43-C , 44-C ) :   1.5107 B( 43-C , 82-H ) :   0.9946
B( 44-C , 45-C ) :   1.2131 B( 44-C , 83-H ) :   1.0011 B( 45-C , 46-S ) :   1.0489
B( 45-C , 47-C ) :   1.4717 B( 47-C , 48-C ) :   1.2503 B( 47-C , 84-H ) :   0.9729
B( 48-C , 49-C ) :   1.4833 B( 48-C , 85-H ) :   0.9728 B( 49-C , 50-C ) :   1.1978
B( 49-C , 53-S ) :   1.0466 B( 50-C , 51-C ) :   1.5384 B( 50-C , 86-H ) :   1.0006
B( 51-C , 52-C ) :   1.2155 B( 51-C , 87-H ) :   0.9940 B( 52-C , 53-S ) :   1.0462
B( 52-C , 54-C ) :   1.4971 B( 54-C , 55-C ) :   1.1786 B( 54-C , 58-S ) :   1.0490
B( 55-C , 56-C ) :   1.6362 B( 55-C , 88-H ) :   0.9920 B( 56-C , 57-C ) :   1.0915
B( 56-C , 89-H ) :   0.9926 B( 57-C , 58-S ) :   1.0102 B( 57-C , 59-C ) :   1.8486
B( 59-C , 90-H ) :   0.9507 B( 59-C , 91-H ) :   0.9414

-----------------------------------------------------------------------------
         ABSORPTION SPECTRUM VIA TRANSITION ELECTRIC DIPOLE MOMENTS
-----------------------------------------------------------------------------
State   Energy  Wavelength   fosc         T2         TX        TY        TZ
        (cm-1)    (nm)                  (au**2)     (au)      (au)      (au)
-----------------------------------------------------------------------------
   0    6234.9   1603.9   1.068514878  56.41925  -4.22928   4.89192  -3.82120
   1   10280.0    972.8   0.051401152   1.64610   0.21888  -0.41417  -1.19443
   2   10843.9    922.2   2.083112675  63.24181  -2.64360   3.19508   6.78562
   3   15205.9    657.6   0.195397346   4.23039   1.74063   1.05290   0.30330
   4   16039.9    623.4   0.000025575   0.00052   0.01186  -0.00689   0.01835
   5   18426.6    542.7   0.000489797   0.00875   0.07480   0.02776  -0.04884
   6   19446.8    514.2   0.432890952   7.32833  -2.05779  -1.75641   0.09422
   7   22245.5    449.5   0.001685471   0.02494   0.11379   0.02629  -0.10632
   8   23183.4    431.3   0.008547836   0.12138  -0.07185   0.15249   0.30490
   9   23650.3    422.8   0.011925568   0.16600  -0.28206   0.07405   0.28454
  10   23762.8    420.8   0.000902772   0.01251   0.09982   0.04921   0.01100
  11   25255.7    395.9   0.025029938   0.32627   0.07855  -0.04513  -0.56397
  12   26600.0    375.9   0.002304063   0.02852  -0.16782  -0.01474  -0.01168
  13   26692.2    374.6   0.116811412   1.44071  -0.26657  -1.07499   0.46266
  14   27113.3    368.8   0.016227272   0.19703  -0.05388   0.34726   0.27118
  15   28858.3    346.5   0.008943008   0.10202  -0.05737  -0.28865   0.12413
  16   29142.0    343.1   0.365649893   4.13068   0.21381   1.91814  -0.63695
  17   30222.6    330.9   0.008691241   0.09467   0.02405   0.24216   0.18830
  18   30499.7    327.9   0.200964701   2.16920   0.37903   1.27632  -0.62972
  19   31109.1    321.4   0.219093265   2.31855   0.28948   1.41772  -0.47415
  20   31212.6    320.4   0.013241351   0.13966  -0.06153   0.33710  -0.14913
  21   31355.4    318.9   0.008914946   0.09360   0.07220  -0.20903  -0.21141
  22   31571.1    316.7   0.002835178   0.02956   0.04691  -0.00639  -0.16530
  23   31714.3    315.3   0.001345842   0.01397  -0.02817   0.05759  -0.09930
  24   31877.4    313.7   0.001755294   0.01813  -0.05583   0.04514  -0.11390
  25   32076.8    311.8   0.038542505   0.39557   0.34775   0.49524  -0.17140
  26   32604.4    306.7   0.004024365   0.04063   0.08119  -0.14644  -0.11224
  27   32873.1    304.2   0.043657812   0.43722  -0.10293   0.50403   0.41542
  28   33492.7    298.6   0.001332040   0.01309  -0.01480   0.09983   0.05393
  29   33951.5    294.5   0.021128643   0.20487  -0.41494  -0.17937  -0.02291
  30   34107.2    293.2   0.011906103   0.11492  -0.16693  -0.29103  -0.04854
  31   34219.4    292.2   0.001130388   0.01088   0.03548   0.09776   0.00767
  32   34454.7    290.2   0.003194625   0.03052   0.13757   0.04294  -0.09876
  33   34705.8    288.1   0.025159566   0.23866   0.15586  -0.17429  -0.42894
  34   35170.3    284.3   0.010860747   0.10166   0.09323   0.18014  -0.24601
  35   35298.2    283.3   0.004644478   0.04332  -0.04987  -0.16448   0.11737
  36   35733.8    279.8   0.008062842   0.07428  -0.14239  -0.04017   0.22890
  37   35915.0    278.4   0.058657902   0.53768  -0.20467  -0.70350   0.02955
  38   36915.4    270.9   0.111389561   0.99337   0.32698  -0.52567  -0.78111
  39   37303.2    268.1   0.119705840   1.05644  -0.13552   0.77121  -0.66581
  40   37355.1    267.7   0.015066797   0.13278  -0.22815   0.22773   0.16991
  41   37603.4    265.9   0.037600393   0.32919   0.36198  -0.40806   0.17790
  42   38436.2    260.2   0.057312371   0.49089  -0.35247   0.47149   0.37994
  43   38734.0    258.2   0.000103455   0.00088   0.00939   0.02125  -0.01842
  44   38977.3    256.6   0.082612015   0.69776   0.28375  -0.53530   0.57506
  45   39333.5    254.2   0.010835753   0.09069   0.05966  -0.14537   0.25691
  46   39880.5    250.7   0.011022122   0.09099   0.04412  -0.29248   0.05915
  47   40014.0    249.9   0.044657888   0.36742  -0.37670   0.47439  -0.02179
  48   40110.4    249.3   0.008381647   0.06879   0.21196  -0.12134   0.09562

FINAL SINGLE POINT ENERGY     -5380.084509881895

DIPOLE MOMENT
-------------
                                X             Y             Z
Electronic contribution:     -6.33872       8.43052      17.60284
Nuclear contribution   :      6.18504      -8.21655     -17.70518
                        -----------------------------------------
Total Dipole Moment    :     -0.15368       0.21397      -0.10234
                        -----------------------------------------
Magnitude (a.u.)       :      0.28262
Magnitude (Debye)      :      0.71837

Rotational constants in cm-1:     0.000675     0.000345     0.000249
Rotational constants in MHz :    20.241346    10.352303     7.464488

                             ****ORCA TERMINATED NORMALLY****
TOTAL RUN TIME: 0 days 0 hours 18 minutes 14 seconds 798 msec
