                         Program Version 4.2.0 -  RELEASE  -
|  1> # ORCA input file
|  2> # SCF done       -183.571515918730          0.000369044215
|  3> ! CAM-B3LYP def2-SVP def2/J RIJCOSX Grid4 TightSCF
|  4> %maxcore 5000
|  5> %tddft
|  6>     Mode sTDDFT
|  7>     Ethresh 5.0
|  8>     maxcore 5000
|  9> end
| 10>
| 11> %pal
| 12>   nprocs 6
| 13>   end
| 14> * xyz 0 1
| 15>    C       17.66206         5.04905        12.76364
| 16>    C       17.47918         3.76463        12.43049
| 17>    C       16.85860         2.73078        13.20549
| 18>    C       16.82174         1.52230        12.59884
| 19>    C       17.38380         1.51207        11.29424
| 20>    S       18.00659         3.08788        10.88036
| 21>    C       17.42465         0.45179        10.40709
| 22>    C       17.03656        -0.88614        10.60974
| 23>    C       17.10345        -1.65443         9.47830
| 24>    C       17.52270        -0.95703         8.33233
| 25>    S       17.92342         0.69386         8.74641
| 26>    C       17.51778        -1.38797         7.01015
| 27>    C       17.81890        -0.54942         5.95916
| 28>    C       17.62460        -0.81293         4.61062
| 29>    C       17.83502         0.09999         3.56650
| 30>    C       17.47991        -0.37281         2.33211
| 31>    C       16.98248        -1.68587         2.35587
| 32>    S       16.97162        -2.30574         3.98635
| 33>    C       16.55273        -2.42786         1.25986
| 34>    C       16.49897        -2.00394        -0.07823
| 35>    C       16.04246        -2.95065        -0.95135
| 36>    C       15.71566        -4.17963        -0.34007
| 37>    S       15.99916        -4.08132         1.39624
| 38>    C       15.25236        -5.29916        -0.98165
| 39>    N       14.96477        -6.46305        -0.35665
| 40>    C       14.55545        -7.59834        -0.95091
| 41>    S       14.44119        -7.67191        -2.69146
| 42>    C       14.00364        -9.35131        -2.57681
| 43>    N       13.75537       -10.03247        -3.77012
| 44>    O       13.44821       -11.20988        -3.70133
| 45>    O       13.86787        -9.38767        -4.80152
| 46>    C       13.94942        -9.81322        -1.29465
| 47>    C       14.24123        -8.82640        -0.32300
| 48>    C       14.17733        -9.14040         1.05707
| 49>    C       14.20464        -8.32435         2.15775
| 50>    C       14.09685        -8.83742         3.45181
| 51>    C       14.06674        -8.08809         4.61004
| 52>    C       13.90438        -8.58400         5.91778
| 53>    C       13.88148        -7.61648         6.88390
| 54>    C       14.03520        -6.31140         6.38465
| 55>    S       14.20913        -6.33657         4.65038
| 56>    C       14.05009        -5.13155         7.12456
| 57>    C       13.86755        -5.00218         8.50932
| 58>    C       13.93183        -3.70660         8.95289
| 59>    C       14.17121        -2.76632         7.93836
| 60>    S       14.30833        -3.56358         6.39152
| 61>    C       14.32825        -1.39705         8.13239
| 62>    C       14.59795        -0.50305         7.12173
| 63>    C       14.90718         0.85370         7.15666
| 64>    C       15.28238         1.44756         5.86015
| 65>    O       15.24189         0.90603         4.76918
| 66>    C       15.73268         2.82054         6.14933
| 67>    C       16.25226         3.75201         5.30069
| 68>    C       16.66313         5.00084         5.82041
| 69>    C       16.53076         5.24408         7.21627
| 70>    C       16.95138         6.48277         7.73757
| 71>    C       17.47428         7.43747         6.91064
| 72>    C       17.60031         7.19723         5.52992
| 73>    C       17.20437         6.00340         4.99406
| 74>    F       18.11602         8.15230         4.73839
| 75>    F       17.87408         8.61753         7.41180
| 76>    C       15.98334         4.25494         8.06718
| 77>    C       15.57889         3.05894         7.54150
| 78>    C       15.01739         1.85431         8.17428
| 79>    C       14.65943         1.84114         9.51151
| 80>    C       14.20959         0.78127        10.31188
| 81>    N       13.88505         0.00510        11.09915
| 82>    C       14.70398         2.96342        10.36056
| 83>    N       14.69404         3.80207        11.14914
| 84>    H       17.32052         5.42200        13.71270
| 85>    H       18.14046         5.74447        12.09834
| 86>    H       16.45815         2.94224        14.18034
| 87>    H       16.37556         0.63997        13.02098
| 88>    H       16.70715        -1.24571        11.56714
| 89>    H       16.83498        -2.69518         9.43656
| 90>    H       17.19481        -2.40080         6.80915
| 91>    H       18.18155         0.44498         6.19416
| 92>    H       18.22752         1.08373         3.75217
| 93>    H       17.56268         0.19471         1.42349
| 94>    H       16.79339        -1.01299        -0.37094
| 95>    H       15.93525        -2.80348        -2.01055
| 96>    H       15.10182        -5.27369        -2.05053
| 97>    H       15.11387        -6.48983         0.64741
| 98>    H       13.68944       -10.83008        -1.06105
| 99>    H       14.04512       -10.19716         1.25338
|100>    H       14.25859        -7.24653         2.07877
|101>    H       14.01680        -9.91038         3.56912
|102>    H       13.80140        -9.63696         6.11153
|103>    H       13.76069        -7.81682         7.93281
|104>    H       13.68911        -5.84780         9.14844
|105>    H       13.81182        -3.40407         9.97798
|106>    H       14.24693        -1.06809         9.15315
|107>    H       14.62744        -0.90859         6.11243
|108>    H       16.35023         3.53980         4.24651
|109>    H       16.85718         6.68325         8.79334
|110>    H       17.30719         5.83549         3.93328
|111>    H       15.90952         4.47928         9.11777
|112> *
|113>
|114>                          ****END OF INPUT****

CARTESIAN COORDINATES (ANGSTROEM)
---------------------------------
  C     17.662060    5.049050   12.763640
  C     17.479180    3.764630   12.430490
  C     16.858600    2.730780   13.205490
  C     16.821740    1.522300   12.598840
  C     17.383800    1.512070   11.294240
  S     18.006590    3.087880   10.880360
  C     17.424650    0.451790   10.407090
  C     17.036560   -0.886140   10.609740
  C     17.103450   -1.654430    9.478300
  C     17.522700   -0.957030    8.332330
  S     17.923420    0.693860    8.746410
  C     17.517780   -1.387970    7.010150
  C     17.818900   -0.549420    5.959160
  C     17.624600   -0.812930    4.610620
  C     17.835020    0.099990    3.566500
  C     17.479910   -0.372810    2.332110
  C     16.982480   -1.685870    2.355870
  S     16.971620   -2.305740    3.986350
  C     16.552730   -2.427860    1.259860
  C     16.498970   -2.003940   -0.078230
  C     16.042460   -2.950650   -0.951350
  C     15.715660   -4.179630   -0.340070
  S     15.999160   -4.081320    1.396240
  C     15.252360   -5.299160   -0.981650
  N     14.964770   -6.463050   -0.356650
  C     14.555450   -7.598340   -0.950910
  S     14.441190   -7.671910   -2.691460
  C     14.003640   -9.351310   -2.576810
  N     13.755370  -10.032470   -3.770120
  O     13.448210  -11.209880   -3.701330
  O     13.867870   -9.387670   -4.801520
  C     13.949420   -9.813220   -1.294650
  C     14.241230   -8.826400   -0.323000
  C     14.177330   -9.140400    1.057070
  C     14.204640   -8.324350    2.157750
  C     14.096850   -8.837420    3.451810
  C     14.066740   -8.088090    4.610040
  C     13.904380   -8.584000    5.917780
  C     13.881480   -7.616480    6.883900
  C     14.035200   -6.311400    6.384650
  S     14.209130   -6.336570    4.650380
  C     14.050090   -5.131550    7.124560
  C     13.867550   -5.002180    8.509320
  C     13.931830   -3.706600    8.952890
  C     14.171210   -2.766320    7.938360
  S     14.308330   -3.563580    6.391520
  C     14.328250   -1.397050    8.132390
  C     14.597950   -0.503050    7.121730
  C     14.907180    0.853700    7.156660
  C     15.282380    1.447560    5.860150
  O     15.241890    0.906030    4.769180
  C     15.732680    2.820540    6.149330
  C     16.252260    3.752010    5.300690
  C     16.663130    5.000840    5.820410
  C     16.530760    5.244080    7.216270
  C     16.951380    6.482770    7.737570
  C     17.474280    7.437470    6.910640
  C     17.600310    7.197230    5.529920
  C     17.204370    6.003400    4.994060
  F     18.116020    8.152300    4.738390
  F     17.874080    8.617530    7.411800
  C     15.983340    4.254940    8.067180
  C     15.578890    3.058940    7.541500
  C     15.017390    1.854310    8.174280
  C     14.659430    1.841140    9.511510
  C     14.209590    0.781270   10.311880
  N     13.885050    0.005100   11.099150
  C     14.703980    2.963420   10.360560
  N     14.694040    3.802070   11.149140
  H     17.320520    5.422000   13.712700
  H     18.140460    5.744470   12.098340
  H     16.458150    2.942240   14.180340
  H     16.375560    0.639970   13.020980
  H     16.707150   -1.245710   11.567140
  H     16.834980   -2.695180    9.436560
  H     17.194810   -2.400800    6.809150
  H     18.181550    0.444980    6.194160
  H     18.227520    1.083730    3.752170
  H     17.562680    0.194710    1.423490
  H     16.793390   -1.012990   -0.370940
  H     15.935250   -2.803480   -2.010550
  H     15.101820   -5.273690   -2.050530
  H     15.113870   -6.489830    0.647410
  H     13.689440  -10.830080   -1.061050
  H     14.045120  -10.197160    1.253380
  H     14.258590   -7.246530    2.078770
  H     14.016800   -9.910380    3.569120
  H     13.801400   -9.636960    6.111530
  H     13.760690   -7.816820    7.932810
  H     13.689110   -5.847800    9.148440
  H     13.811820   -3.404070    9.977980
  H     14.246930   -1.068090    9.153150
  H     14.627440   -0.908590    6.112430
  H     16.350230    3.539800    4.246510
  H     16.857180    6.683250    8.793340
  H     17.307190    5.835490    3.933280
  H     15.909520    4.479280    9.117770

 Total Charge           Charge          ....    0
 Multiplicity           Mult            ....    1
 Number of Electrons    NEL             ....  528
 Basis Dimension        Dim             .... 1134

ORBITAL ENERGIES
----------------

  NO   OCC          E(Eh)            E(eV)
   0   2.0000     -88.985423     -2421.4165
   1   2.0000     -88.966699     -2420.9069
   2   2.0000     -88.960194     -2420.7300
   3   2.0000     -88.959290     -2420.7054
   4   2.0000     -88.949800     -2420.4471
   5   2.0000     -88.949189     -2420.4305
   6   2.0000     -88.945263     -2420.3237
   7   2.0000     -24.784569      -674.4224
   8   2.0000     -24.783875      -674.4035
   9   2.0000     -19.237069      -523.4673
  10   2.0000     -19.235946      -523.4367
  11   2.0000     -19.188942      -522.1576
  12   2.0000     -14.648173      -398.5971
  13   2.0000     -14.505385      -394.7116
  14   2.0000     -14.395519      -391.7220
  15   2.0000     -14.389340      -391.5538
  16   2.0000     -10.374830      -282.3135
  17   2.0000     -10.365375      -282.0562
  18   2.0000     -10.364937      -282.0443
  19   2.0000     -10.343738      -281.4674
  20   2.0000     -10.337697      -281.3030
  21   2.0000     -10.334238      -281.2089
  22   2.0000     -10.333643      -281.1927
  23   2.0000     -10.321091      -280.8512
  24   2.0000     -10.320323      -280.8303
  25   2.0000     -10.319994      -280.8213
  26   2.0000     -10.317956      -280.7659
  27   2.0000     -10.316839      -280.7355
  28   2.0000     -10.315806      -280.7074
  29   2.0000     -10.315138      -280.6892
  30   2.0000     -10.314561      -280.6735
  31   2.0000     -10.313496      -280.6445
  32   2.0000     -10.310359      -280.5591
  33   2.0000     -10.310345      -280.5587
  34   2.0000     -10.309105      -280.5250
  35   2.0000     -10.308053      -280.4964
  36   2.0000     -10.307723      -280.4874
  37   2.0000     -10.307414      -280.4790
  38   2.0000     -10.307341      -280.4770
  39   2.0000     -10.303136      -280.3626
  40   2.0000     -10.303087      -280.3613
  41   2.0000     -10.301734      -280.3244
  42   2.0000     -10.299065      -280.2518
  43   2.0000     -10.297742      -280.2158
  44   2.0000     -10.297218      -280.2015
  45   2.0000     -10.296581      -280.1842
  46   2.0000     -10.291668      -280.0505
  47   2.0000     -10.291281      -280.0400
  48   2.0000     -10.290992      -280.0321
  49   2.0000     -10.288484      -279.9639
  50   2.0000     -10.288466      -279.9634
  51   2.0000     -10.286682      -279.9148
  52   2.0000     -10.286280      -279.9039
  53   2.0000     -10.285954      -279.8950
  54   2.0000     -10.284932      -279.8672
  55   2.0000     -10.284347      -279.8513
  56   2.0000     -10.283885      -279.8387
  57   2.0000     -10.283741      -279.8348
  58   2.0000     -10.283144      -279.8186
  59   2.0000     -10.282813      -279.8096
  60   2.0000     -10.282283      -279.7951
  61   2.0000     -10.280335      -279.7421
  62   2.0000     -10.279908      -279.7305
  63   2.0000     -10.279406      -279.7169
  64   2.0000     -10.277323      -279.6602
  65   2.0000     -10.275642      -279.6144
  66   2.0000     -10.271094      -279.4907
  67   2.0000     -10.265445      -279.3369
  68   2.0000     -10.265313      -279.3334
  69   2.0000      -8.080772      -219.8890
  70   2.0000      -8.062638      -219.3955
  71   2.0000      -8.055685      -219.2063
  72   2.0000      -8.055417      -219.1990
  73   2.0000      -8.045737      -218.9356
  74   2.0000      -8.044263      -218.8955
  75   2.0000      -8.041300      -218.8149
  76   2.0000      -6.050618      -164.6457
  77   2.0000      -6.046206      -164.5256
  78   2.0000      -6.041861      -164.4074
  79   2.0000      -6.032200      -164.1445
  80   2.0000      -6.028229      -164.0364
  81   2.0000      -6.025153      -163.9528
  82   2.0000      -6.025134      -163.9522
  83   2.0000      -6.023919      -163.9192
  84   2.0000      -6.021237      -163.8462
  85   2.0000      -6.021141      -163.8436
  86   2.0000      -6.017231      -163.7372
  87   2.0000      -6.016358      -163.7134
  88   2.0000      -6.015279      -163.6841
  89   2.0000      -6.013869      -163.6457
  90   2.0000      -6.011343      -163.5770
  91   2.0000      -6.011056      -163.5691
  92   2.0000      -6.009888      -163.5374
  93   2.0000      -6.007147      -163.4628
  94   2.0000      -6.007036      -163.4598
  95   2.0000      -6.005613      -163.4210
  96   2.0000      -6.002076      -163.3248
  97   2.0000      -1.316484       -35.8233
  98   2.0000      -1.305905       -35.5355
  99   2.0000      -1.291259       -35.1369
 100   2.0000      -1.135682       -30.9035
 101   2.0000      -1.106757       -30.1164
 102   2.0000      -1.102250       -29.9938
 103   2.0000      -1.009956       -27.4823
 104   2.0000      -1.009051       -27.4577
 105   2.0000      -1.001032       -27.2395
 106   2.0000      -0.997438       -27.1417
 107   2.0000      -0.992906       -27.0184
 108   2.0000      -0.986360       -26.8402
 109   2.0000      -0.985590       -26.8193
 110   2.0000      -0.976913       -26.5832
 111   2.0000      -0.973950       -26.5025
 112   2.0000      -0.969750       -26.3882
 113   2.0000      -0.958492       -26.0819
 114   2.0000      -0.936333       -25.4789
 115   2.0000      -0.913548       -24.8589
 116   2.0000      -0.908789       -24.7294
 117   2.0000      -0.904406       -24.6101
 118   2.0000      -0.896482       -24.3945
 119   2.0000      -0.884091       -24.0574
 120   2.0000      -0.878696       -23.9105
 121   2.0000      -0.875976       -23.8365
 122   2.0000      -0.869873       -23.6705
 123   2.0000      -0.866617       -23.5819
 124   2.0000      -0.861256       -23.4360
 125   2.0000      -0.850361       -23.1395
 126   2.0000      -0.848138       -23.0790
 127   2.0000      -0.846079       -23.0230
 128   2.0000      -0.838648       -22.8208
 129   2.0000      -0.836064       -22.7505
 130   2.0000      -0.827449       -22.5160
 131   2.0000      -0.826366       -22.4866
 132   2.0000      -0.821620       -22.3574
 133   2.0000      -0.820205       -22.3189
 134   2.0000      -0.807314       -21.9681
 135   2.0000      -0.801013       -21.7967
 136   2.0000      -0.783345       -21.3159
 137   2.0000      -0.773056       -21.0359
 138   2.0000      -0.757112       -20.6021
 139   2.0000      -0.747649       -20.3446
 140   2.0000      -0.744094       -20.2478
 141   2.0000      -0.735195       -20.0057
 142   2.0000      -0.722356       -19.6563
 143   2.0000      -0.719202       -19.5705
 144   2.0000      -0.708220       -19.2716
 145   2.0000      -0.701683       -19.0938
 146   2.0000      -0.698019       -18.9940
 147   2.0000      -0.688754       -18.7419
 148   2.0000      -0.682954       -18.5841
 149   2.0000      -0.674254       -18.3474
 150   2.0000      -0.670194       -18.2369
 151   2.0000      -0.658052       -17.9065
 152   2.0000      -0.655373       -17.8336
 153   2.0000      -0.650441       -17.6994
 154   2.0000      -0.641929       -17.4678
 155   2.0000      -0.639967       -17.4144
 156   2.0000      -0.638215       -17.3667
 157   2.0000      -0.635085       -17.2815
 158   2.0000      -0.630671       -17.1614
 159   2.0000      -0.629344       -17.1253
 160   2.0000      -0.628445       -17.1009
 161   2.0000      -0.624101       -16.9826
 162   2.0000      -0.622745       -16.9458
 163   2.0000      -0.621299       -16.9064
 164   2.0000      -0.617467       -16.8021
 165   2.0000      -0.611638       -16.6435
 166   2.0000      -0.608631       -16.5617
 167   2.0000      -0.605742       -16.4831
 168   2.0000      -0.598977       -16.2990
 169   2.0000      -0.597259       -16.2522
 170   2.0000      -0.592531       -16.1236
 171   2.0000      -0.590167       -16.0593
 172   2.0000      -0.587468       -15.9858
 173   2.0000      -0.577564       -15.7163
 174   2.0000      -0.571033       -15.5386
 175   2.0000      -0.569203       -15.4888
 176   2.0000      -0.568829       -15.4786
 177   2.0000      -0.558011       -15.1843
 178   2.0000      -0.556637       -15.1469
 179   2.0000      -0.555488       -15.1156
 180   2.0000      -0.547535       -14.8992
 181   2.0000      -0.544541       -14.8177
 182   2.0000      -0.539018       -14.6674
 183   2.0000      -0.536868       -14.6089
 184   2.0000      -0.533284       -14.5114
 185   2.0000      -0.530581       -14.4378
 186   2.0000      -0.528203       -14.3731
 187   2.0000      -0.523512       -14.2455
 188   2.0000      -0.519990       -14.1496
 189   2.0000      -0.518739       -14.1156
 190   2.0000      -0.515185       -14.0189
 191   2.0000      -0.513957       -13.9855
 192   2.0000      -0.511325       -13.9139
 193   2.0000      -0.510441       -13.8898
 194   2.0000      -0.506949       -13.7948
 195   2.0000      -0.506121       -13.7722
 196   2.0000      -0.503732       -13.7073
 197   2.0000      -0.500907       -13.6304
 198   2.0000      -0.498045       -13.5525
 199   2.0000      -0.495640       -13.4870
 200   2.0000      -0.495025       -13.4703
 201   2.0000      -0.493332       -13.4242
 202   2.0000      -0.490580       -13.3493
 203   2.0000      -0.487803       -13.2738
 204   2.0000      -0.485205       -13.2031
 205   2.0000      -0.484045       -13.1715
 206   2.0000      -0.481583       -13.1045
 207   2.0000      -0.476427       -12.9642
 208   2.0000      -0.474738       -12.9183
 209   2.0000      -0.471910       -12.8413
 210   2.0000      -0.469765       -12.7830
 211   2.0000      -0.468840       -12.7578
 212   2.0000      -0.466920       -12.7055
 213   2.0000      -0.464242       -12.6327
 214   2.0000      -0.461903       -12.5690
 215   2.0000      -0.460061       -12.5189
 216   2.0000      -0.456991       -12.4354
 217   2.0000      -0.451124       -12.2757
 218   2.0000      -0.450313       -12.2537
 219   2.0000      -0.447706       -12.1827
 220   2.0000      -0.446751       -12.1567
 221   2.0000      -0.446301       -12.1445
 222   2.0000      -0.441609       -12.0168
 223   2.0000      -0.438362       -11.9284
 224   2.0000      -0.434425       -11.8213
 225   2.0000      -0.433332       -11.7916
 226   2.0000      -0.431339       -11.7373
 227   2.0000      -0.430368       -11.7109
 228   2.0000      -0.427971       -11.6457
 229   2.0000      -0.424029       -11.5384
 230   2.0000      -0.423492       -11.5238
 231   2.0000      -0.416188       -11.3250
 232   2.0000      -0.414072       -11.2675
 233   2.0000      -0.410505       -11.1704
 234   2.0000      -0.406668       -11.0660
 235   2.0000      -0.401828       -10.9343
 236   2.0000      -0.399000       -10.8573
 237   2.0000      -0.396570       -10.7912
 238   2.0000      -0.392381       -10.6772
 239   2.0000      -0.384708       -10.4684
 240   2.0000      -0.381478       -10.3805
 241   2.0000      -0.379181       -10.3180
 242   2.0000      -0.377374       -10.2689
 243   2.0000      -0.375615       -10.2210
 244   2.0000      -0.366950        -9.9852
 245   2.0000      -0.365235        -9.9385
 246   2.0000      -0.358614        -9.7584
 247   2.0000      -0.350216        -9.5298
 248   2.0000      -0.349333        -9.5058
 249   2.0000      -0.342133        -9.3099
 250   2.0000      -0.336478        -9.1560
 251   2.0000      -0.335768        -9.1367
 252   2.0000      -0.330336        -8.9889
 253   2.0000      -0.327591        -8.9142
 254   2.0000      -0.320566        -8.7231
 255   2.0000      -0.313648        -8.5348
 256   2.0000      -0.310068        -8.4374
 257   2.0000      -0.297696        -8.1007
 258   2.0000      -0.296585        -8.0705
 259   2.0000      -0.285314        -7.7638
 260   2.0000      -0.272471        -7.4143
 261   2.0000      -0.243848        -6.6354
 262   2.0000      -0.219546        -5.9742
 263   2.0000      -0.193512        -5.2657
 264   0.0000      -0.109554        -2.9811
 265   0.0000      -0.093827        -2.5532
 266   0.0000      -0.059713        -1.6249
 267   0.0000      -0.053279        -1.4498
 268   0.0000      -0.040488        -1.1017

MULLIKEN ATOMIC CHARGES
-----------------------
   0 C :   -0.001672
   1 C :   -0.054461
   2 C :    0.086534
   3 C :    0.038243
   4 C :   -0.074944
   5 S :    0.085653
   6 C :   -0.045145
   7 C :    0.040377
   8 C :    0.042396
   9 C :   -0.043189
  10 S :    0.070099
  11 C :    0.004819
  12 C :    0.000340
  13 C :   -0.025770
  14 C :    0.076075
  15 C :    0.004672
  16 C :   -0.025945
  17 S :    0.098044
  18 C :   -0.061262
  19 C :    0.035061
  20 C :    0.021992
  21 C :   -0.027264
  22 S :    0.055774
  23 C :   -0.010196
  24 N :    0.007786
  25 C :   -0.125983
  26 S :    0.139352
  27 C :    0.005530
  28 N :    0.276374
  29 O :   -0.254297
  30 O :   -0.266928
  31 C :    0.007426
  32 C :    0.136367
  33 C :   -0.023156
  34 C :   -0.024752
  35 C :   -0.000842
  36 C :   -0.036912
  37 C :    0.046841
  38 C :    0.012178
  39 C :   -0.023477
  40 S :    0.100502
  41 C :   -0.066148
  42 C :    0.031354
  43 C :    0.016905
  44 C :   -0.049082
  45 S :    0.116338
  46 C :    0.034304
  47 C :    0.022285
  48 C :   -0.148771
  49 C :    0.123028
  50 O :   -0.177341
  51 C :    0.026079
  52 C :   -0.116019
  53 C :    0.122925
  54 C :    0.122046
  55 C :   -0.119926
  56 C :    0.239211
  57 C :    0.236740
  58 C :   -0.115611
  59 F :   -0.180444
  60 F :   -0.180013
  61 C :   -0.095827
  62 C :    0.033968
  63 C :    0.385864
  64 C :   -0.402584
  65 C :   -0.164461
  66 N :    0.100495
  67 C :   -0.200133
  68 N :    0.129553
  69 H :    0.027487
  70 H :    0.023124
  71 H :   -0.004656
  72 H :    0.000191
  73 H :   -0.010016
  74 H :   -0.014225
  75 H :   -0.009216
  76 H :    0.000990
  77 H :   -0.017686
  78 H :   -0.018710
  79 H :   -0.010967
  80 H :   -0.010728
  81 H :    0.027749
  82 H :    0.148761
  83 H :    0.011078
  84 H :   -0.006566
  85 H :   -0.013119
  86 H :   -0.003748
  87 H :   -0.005529
  88 H :   -0.008789
  89 H :   -0.011570
  90 H :    0.005297
  91 H :   -0.036087
  92 H :    0.000699
  93 H :   -0.026205
  94 H :   -0.003501
  95 H :   -0.009900
  96 H :   -0.015128
Sum of atomic charges:   -0.0000000

LOEWDIN ATOMIC CHARGES
----------------------
   0 C :   -0.046635
   1 C :   -0.133903
   2 C :    0.001836
   3 C :   -0.026576
   4 C :   -0.150532
   5 S :    0.378429
   6 C :   -0.189764
   7 C :   -0.021296
   8 C :   -0.041692
   9 C :   -0.127808
  10 S :    0.410690
  11 C :   -0.063648
  12 C :   -0.042180
  13 C :   -0.153291
  14 C :   -0.010981
  15 C :   -0.043910
  16 C :   -0.161163
  17 S :    0.396105
  18 C :   -0.188700
  19 C :   -0.026965
  20 C :   -0.048032
  21 C :   -0.167836
  22 S :    0.353659
  23 C :   -0.045889
  24 N :    0.083469
  25 C :   -0.100609
  26 S :    0.441724
  27 C :   -0.210981
  28 N :    0.273828
  29 O :   -0.220200
  30 O :   -0.233387
  31 C :    0.011045
  32 C :   -0.110212
  33 C :    0.000438
  34 C :   -0.069767
  35 C :   -0.016363
  36 C :   -0.168568
  37 C :   -0.016039
  38 C :   -0.047807
  39 C :   -0.147955
  40 S :    0.396337
  41 C :   -0.202104
  42 C :   -0.019800
  43 C :   -0.052468
  44 C :   -0.117946
  45 S :    0.413812
  46 C :   -0.075794
  47 C :    0.038243
  48 C :   -0.121204
  49 C :    0.073615
  50 O :   -0.169071
  51 C :   -0.050040
  52 C :    0.011409
  53 C :   -0.014266
  54 C :   -0.008217
  55 C :   -0.033879
  56 C :    0.061201
  57 C :    0.060989
  58 C :   -0.037804
  59 F :   -0.057937
  60 F :   -0.057395
  61 C :    0.002989
  62 C :   -0.015153
  63 C :    0.055329
  64 C :   -0.174307
  65 C :   -0.006397
  66 N :   -0.099700
  67 C :   -0.018973
  68 N :   -0.090364
  69 H :    0.033374
  70 H :    0.027370
  71 H :    0.038131
  72 H :    0.037811
  73 H :    0.034153
  74 H :    0.032591
  75 H :    0.024376
  76 H :    0.027237
  77 H :    0.032727
  78 H :    0.029944
  79 H :    0.034388
  80 H :    0.033512
  81 H :    0.028617
  82 H :    0.089489
  83 H :    0.046205
  84 H :    0.037007
  85 H :    0.012512
  86 H :    0.038333
  87 H :    0.036548
  88 H :    0.033520
  89 H :    0.033048
  90 H :    0.039709
  91 H :    0.032706
  92 H :    0.028282
  93 H :    0.033072
  94 H :    0.043498
  95 H :    0.040786
  96 H :    0.031420

  Mayer bond orders larger than 0.100000
B(  0-C ,  1-C ) :   1.8676 B(  0-C , 69-H ) :   0.9485 B(  0-C , 70-H ) :   0.9402
B(  1-C ,  2-C ) :   1.0819 B(  1-C ,  5-S ) :   0.9956 B(  2-C ,  3-C ) :   1.6440
B(  2-C , 71-H ) :   0.9918 B(  3-C ,  4-C ) :   1.1720 B(  3-C , 72-H ) :   0.9922
B(  4-C ,  5-S ) :   1.0805 B(  4-C ,  6-C ) :   1.4682 B(  6-C ,  7-C ) :   1.2209
B(  6-C , 10-S ) :   1.0480 B(  7-C ,  8-C ) :   1.5245 B(  7-C , 73-H ) :   0.9983
B(  8-C ,  9-C ) :   1.1993 B(  8-C , 74-H ) :   0.9983 B(  9-C , 10-S ) :   1.0785
B(  9-C , 11-C ) :   1.4404 B( 11-C , 12-C ) :   1.2829 B( 11-C , 75-H ) :   0.9770
B( 12-C , 13-C ) :   1.4723 B( 12-C , 76-H ) :   0.9544 B( 13-C , 14-C ) :   1.2202
B( 13-C , 17-S ) :   1.0495 B( 14-C , 15-C ) :   1.5021 B( 14-C , 77-H ) :   0.9958
B( 15-C , 16-C ) :   1.2541 B( 15-C , 78-H ) :   0.9946 B( 16-C , 17-S ) :   1.0753
B( 16-C , 18-C ) :   1.4151 B( 18-C , 19-C ) :   1.2540 B( 18-C , 22-S ) :   1.0431
B( 19-C , 20-C ) :   1.5414 B( 19-C , 79-H ) :   0.9919 B( 20-C , 21-C ) :   1.1968
B( 20-C , 80-H ) :   0.9964 B( 21-C , 22-S ) :   1.0365 B( 21-C , 23-C ) :   1.5379
B( 23-C , 24-N ) :   1.1468 B( 23-C , 81-H ) :   0.9559 B( 24-N , 25-C ) :   1.3065
B( 24-N , 82-H ) :   0.9003 B( 25-C , 26-S ) :   1.1142 B( 25-C , 32-C ) :   1.2557
B( 26-S , 27-C ) :   1.0446 B( 27-C , 28-N ) :   0.9772 B( 27-C , 31-C ) :   1.5154
B( 28-N , 29-O ) :   1.5289 B( 28-N , 30-O ) :   1.5058 B( 29-O , 30-O ) :   0.2566
B( 31-C , 32-C ) :   1.1883 B( 31-C , 83-H ) :   1.0061 B( 32-C , 33-C ) :   1.1741
B( 33-C , 34-C ) :   1.5169 B( 33-C , 84-H ) :   0.9714 B( 34-C , 35-C ) :   1.2554
B( 34-C , 85-H ) :   0.9500 B( 35-C , 36-C ) :   1.4606 B( 35-C , 86-H ) :   0.9873
B( 36-C , 37-C ) :   1.2060 B( 36-C , 40-S ) :   1.0320 B( 37-C , 38-C ) :   1.5054
B( 37-C , 87-H ) :   1.0003 B( 38-C , 39-C ) :   1.2608 B( 38-C , 88-H ) :   0.9952
B( 39-C , 40-S ) :   1.0958 B( 39-C , 41-C ) :   1.3769 B( 41-C , 42-C ) :   1.2822
B( 41-C , 45-S ) :   1.0511 B( 42-C , 43-C ) :   1.4579 B( 42-C , 89-H ) :   0.9956
B( 43-C , 44-C ) :   1.2465 B( 43-C , 90-H ) :   1.0016 B( 44-C , 45-S ) :   1.0923
B( 44-C , 46-C ) :   1.3993 B( 46-C , 47-C ) :   1.3219 B( 46-C , 91-H ) :   0.9356
B( 47-C , 48-C ) :   1.4198 B( 47-C , 92-H ) :   0.9266 B( 48-C , 49-C ) :   0.9944
B( 48-C , 63-C ) :   1.1220 B( 49-C , 50-O ) :   2.1619 B( 49-C , 51-C ) :   0.9214
B( 51-C , 52-C ) :   1.4778 B( 51-C , 62-C ) :   1.2205 B( 52-C , 53-C ) :   1.1679
B( 52-C , 93-H ) :   1.0170 B( 53-C , 54-C ) :   1.2663 B( 53-C , 58-C ) :   1.1927
B( 54-C , 55-C ) :   1.1916 B( 54-C , 61-C ) :   1.2067 B( 55-C , 56-C ) :   1.4311
B( 55-C , 58-C ) :   0.1104 B( 55-C , 94-H ) :   1.0085 B( 56-C , 57-C ) :   1.2026
B( 56-C , 60-F ) :   1.1263 B( 57-C , 58-C ) :   1.4366 B( 57-C , 59-F ) :   1.1243
B( 58-C , 95-H ) :   1.0076 B( 61-C , 62-C ) :   1.4649 B( 61-C , 96-H ) :   0.9843
B( 62-C , 63-C ) :   0.9655 B( 63-C , 64-C ) :   1.4999 B( 64-C , 65-C ) :   1.1902
B( 64-C , 67-C ) :   1.1711 B( 65-C , 66-N ) :   2.8538 B( 67-C , 68-N ) :   2.8970

-----------------------------------------------------------------------------
         ABSORPTION SPECTRUM VIA TRANSITION ELECTRIC DIPOLE MOMENTS
-----------------------------------------------------------------------------
State   Energy  Wavelength   fosc         T2         TX        TY        TZ
        (cm-1)    (nm)                  (au**2)     (au)      (au)      (au)
-----------------------------------------------------------------------------
   0    5066.7   1973.7   0.045769349   2.97387  -1.41486  -0.98231   0.08435
   1    8498.6   1176.7   0.092595194   3.58688   0.34457  -0.31436   1.83557
   2   12128.3    824.5   2.838808613  77.05703  -1.16969  -6.04962  -6.25228
   3   12618.6    792.5   0.094244434   2.45877   0.72949  -0.81852  -1.12100
   4   15039.4    664.9   0.297736932   6.51746  -0.18528  -2.37477   0.91848
   5   16396.4    609.9   0.112413665   2.25708  -0.20558  -0.88230  -1.19848
   6   17357.3    576.1   0.043548079   0.82597   0.53998  -0.05007  -0.72930
   7   18714.0    534.4   0.006451482   0.11349   0.09291  -0.27696  -0.16779
   8   19181.5    521.3   0.279322203   4.79400   0.97268   1.78662  -0.80987
   9   20337.6    491.7   0.040848274   0.66123  -0.03655   0.01627  -0.81217
  10   21647.4    462.0   0.049791337   0.75722  -0.07179   0.02681  -0.86681
  11   22187.4    450.7   0.008205344   0.12175  -0.01354  -0.34350   0.05977
  12   23754.9    421.0   0.024422928   0.33847   0.24701   0.30103  -0.43224
  13   23862.3    419.1   0.252399458   3.48218   0.31464  -0.01519   1.83928
  14   24549.7    407.3   0.038477982   0.51599   0.10522  -0.17285  -0.68923
  15   25007.4    399.9   0.039306712   0.51746   0.50371  -0.06009  -0.51002
  16   25880.3    386.4   0.119464699   1.51966   0.13845   1.18846  -0.29673
  17   26063.7    383.7   0.180060078   2.27434  -0.01592  -0.42333   1.44737
  18   26952.6    371.0   0.157525580   1.92409  -0.50519  -0.96035   0.86406
  19   27126.5    368.6   0.016613559   0.20162   0.11489   0.19408  -0.38827
  20   27415.4    364.8   0.020403835   0.24501  -0.17924   0.41994   0.19115
  21   27604.4    362.3   0.054075347   0.64491  -0.04219   0.79295  -0.11982
  22   28143.9    355.3   0.008226254   0.09623   0.09695  -0.27052   0.11681
  23   28429.9    351.7   0.095215245   1.10257  -0.10338   1.04478   0.01780
  24   28556.7    350.2   0.064637047   0.74516  -0.22094   0.83264  -0.05535
  25   28727.8    348.1   0.006008697   0.06886   0.02809   0.22387  -0.13399
  26   29412.0    340.0   0.018654203   0.20880  -0.05117  -0.24876   0.37987
  27   29663.6    337.1   0.060497355   0.67141  -0.17902  -0.62248   0.50188
  28   30124.7    332.0   0.011724895   0.12813  -0.07374   0.33520   0.10167
  29   30226.3    330.8   0.008297816   0.09038  -0.01436  -0.29842   0.03339
  30   30546.0    327.4   0.024742257   0.26666   0.15796   0.49160  -0.00580
  31   30667.2    326.1   0.067892975   0.72883   0.04229  -0.84537   0.11132
  32   30864.0    324.0   0.069733456   0.74381   0.04270   0.01358   0.86128
  33   31198.7    320.5   0.019123454   0.20179   0.04217  -0.17217  -0.41276
  34   31717.8    315.3   0.021348832   0.22159  -0.06165  -0.16057  -0.43819
  35   32193.8    310.6   0.024661712   0.25219   0.13045   0.03699  -0.48353
  36   32412.0    308.5   0.004995708   0.05074   0.06201  -0.09998   0.19209
  37   32502.6    307.7   0.112337923   1.13785  -0.55448  -0.66633   0.62161
  38   32758.1    305.3   0.091990052   0.92448   0.45275   0.71984  -0.44869
  39   32955.6    303.4   0.107418133   1.07306   0.45175   0.62019  -0.69595
  40   33000.0    303.0   0.014115970   0.14082  -0.19733  -0.31915  -0.00504
  41   33320.7    300.1   0.031149749   0.30776   0.05542   0.33746  -0.43682
  42   33788.5    296.0   0.014716498   0.14339  -0.08982  -0.09171   0.35624
  43   33902.5    295.0   0.041709268   0.40502  -0.19590  -0.59511  -0.11175
  44   33982.2    294.3   0.113608674   1.10062   0.28731   0.54077  -0.85184
  45   34228.1    292.2   0.019656557   0.18906   0.11923  -0.00190  -0.41814
  46   34452.1    290.3   0.010938482   0.10452   0.05250   0.30443   0.09535
  47   34587.6    289.1   0.008257378   0.07860  -0.03756   0.25707   0.10536
  48   34791.9    287.4   0.072685663   0.68778  -0.30147  -0.22710   0.73846
  49   35288.7    283.4   0.151559340   1.41391  -0.00697   0.87839   0.80143
  50   35446.6    282.1   0.032978373   0.30629  -0.14448   0.28814   0.44988
  51   35779.3    279.5   0.064514228   0.59361  -0.52863  -0.26623  -0.49323
  52   35873.5    278.8   0.074443687   0.68317   0.16841   0.69116  -0.42084
  53   36018.5    277.6   0.072223797   0.66013  -0.24584  -0.63767   0.43940
  54   36090.7    277.1   0.013281218   0.12115  -0.00132  -0.12390   0.32526
  55   36249.6    275.9   0.017086430   0.15518   0.00741   0.17631  -0.35219
  56   36438.7    274.4   0.025373896   0.22925   0.22268  -0.41641  -0.07914
  57   36638.4    272.9   0.022199090   0.19947   0.05186   0.43668  -0.07801
  58   36915.4    270.9   0.011870369   0.10586  -0.13706   0.01451  -0.29473
  59   37302.6    268.1   0.027613807   0.24370  -0.06269  -0.15700  -0.46382
  60   37340.8    267.8   0.057970155   0.51109   0.17685   0.29997   0.62436
  61   37400.6    267.4   0.021624942   0.19035  -0.02817  -0.26846   0.34276
  62   37679.5    265.4   0.107065690   0.93545  -0.48254  -0.42030   0.72523
  63   37870.7    264.1   0.011689721   0.10162   0.05209   0.23043  -0.21403
  64   37988.5    263.2   0.018158313   0.15736  -0.13551  -0.29904   0.22265
  65   38161.2    262.0   0.008483495   0.07319  -0.06792  -0.21593   0.14815
  66   38331.2    260.9   0.098339150   0.84460   0.25303   0.32641  -0.82099
  67   38451.1    260.1   0.071196454   0.60957  -0.04453   0.41833   0.65772
  68   38663.1    258.6   0.045299266   0.38572   0.07445   0.44521   0.42658
  69   39123.8    255.6   0.056131176   0.47232  -0.12722  -0.60530  -0.29958
  70   39599.5    252.5   0.076034633   0.63212   0.06772   0.25703   0.74931
  71   39726.5    251.7   0.015047821   0.12470  -0.15396   0.11402   0.29664
  72   39881.1    250.7   0.090076105   0.74356   0.04550   0.80082   0.31651
  73   40256.1    248.4   0.072276471   0.59107   0.30202   0.60099  -0.37238

FINAL SINGLE POINT ENERGY     -5463.719798419680

DIPOLE MOMENT
-------------
                                X             Y             Z
Electronic contribution:      3.86591      24.30231     -16.78616
Nuclear contribution   :     -2.86889     -26.35306      17.72627
                        -----------------------------------------
Total Dipole Moment    :      0.99701      -2.05075       0.94011
                        -----------------------------------------
Magnitude (a.u.)       :      2.46646
Magnitude (Debye)      :      6.26924

Rotational constants in cm-1:     0.001762     0.000405     0.000344
Rotational constants in MHz :    52.819854    12.153014    10.309029

                             ****ORCA TERMINATED NORMALLY****
TOTAL RUN TIME: 0 days 0 hours 13 minutes 41 seconds 703 msec
