                         Program Version 4.2.0 -  RELEASE  -
|  1> # ORCA input file
|  2> # SCF done       -173.838445862899          0.000704657793
|  3> ! CAM-B3LYP def2-SVP def2/J RIJCOSX Grid4 TightSCF
|  4> %maxcore 5000
|  5> %tddft
|  6>     Mode sTDDFT
|  7>     Ethresh 5.0
|  8>     maxcore 5000
|  9> end
| 10>
| 11> %pal
| 12>   nprocs 6
| 13>   end
| 14> * xyz 0 1
| 15>    C        0.99555       -15.09525        -0.38966
| 16>    C        1.13959       -14.56472         0.82933
| 17>    C        0.74393       -15.12745         2.08999
| 18>    C        1.00949       -14.34904         3.16043
| 19>    C        1.63252       -13.10557         2.84822
| 20>    S        1.88945       -12.98448         1.11484
| 21>    C        1.96804       -12.09671         3.71231
| 22>    C        1.74490       -12.04643         5.11616
| 23>    C        2.11558       -10.88210         5.69650
| 24>    C        2.67251        -9.91996         4.79857
| 25>    S        2.71760       -10.60118         3.16853
| 26>    C        3.05637        -8.65655         5.10906
| 27>    C        3.54015        -7.66108         4.17346
| 28>    C        4.48529        -7.87438         3.15741
| 29>    N        5.33119        -8.94441         2.93257
| 30>    C        5.82681        -9.80839         3.97934
| 31>    C        7.14640        -9.28699         4.55902
| 32>    C        7.71314       -10.26285         5.58007
| 33>    C        6.04310        -8.68912         1.77334
| 34>    C        5.66808        -7.42843         1.25498
| 35>    C        4.68398        -6.89703         2.15396
| 36>    C        4.02437        -5.67769         2.19444
| 37>    C        3.18247        -5.42390         3.26085
| 38>    C        2.95335        -6.39271         4.22474
| 39>    C        6.25948        -6.92071         0.10701
| 40>    C        7.23293        -7.67271        -0.51941
| 41>    C        7.58973        -8.92134        -0.02566
| 42>    C        6.99726        -9.46808         1.10784
| 43>    C        7.39837       -10.81162         1.52915
| 44>    N        6.54756       -11.87439         1.53547
| 45>    C        5.20954       -11.81830         1.00411
| 46>    C        5.16682       -12.29251        -0.44595
| 47>    C        7.22358       -12.98427         1.98823
| 48>    C        8.53063       -12.58588         2.27389
| 49>    C        8.64076       -11.23391         1.97207
| 50>    C        6.70925       -14.29922         2.17841
| 51>    S        7.78730       -15.44208         2.98304
| 52>    C        5.50094       -14.89266         1.84647
| 53>    C        5.44552       -16.23286         2.22476
| 54>    C        4.49964       -17.33376         2.12992
| 55>    S        2.99453       -17.28955         1.49131
| 56>    C        6.61654       -16.68588         2.85540
| 57>    C        6.46321       -18.05239         3.16541
| 58>    S        7.33941       -19.32007         3.87848
| 59>    C        5.18007       -18.46930         2.72336
| 60>    C        4.93151       -19.81109         2.94889
| 61>    C        6.00171       -20.45368         3.56592
| 62>    C        6.21194       -21.77285         3.98631
| 63>    C        5.48161       -22.91983         3.78265
| 64>    C        5.86326       -24.21155         4.32110
| 65>    C        6.77013       -24.45802         5.32228
| 66>    C        7.07719       -25.74593         5.80664
| 67>    N        7.37071       -26.76641         6.24427
| 68>    C        7.48827       -23.48375         6.04592
| 69>    N        8.09614       -22.76025         6.69957
| 70>    C        5.04930       -25.22926         3.66456
| 71>    C        4.11374       -24.58010         2.82573
| 72>    C        4.31262       -23.11767         2.90294
| 73>    O        3.63474       -22.28929         2.32852
| 74>    C        3.19471       -25.26337         2.06830
| 75>    C        3.20515       -26.66061         2.13582
| 76>    C        4.14863       -27.30224         2.97176
| 77>    C        5.07396       -26.60898         3.74291
| 78>    S        3.99505       -29.03219         2.89811
| 79>    C        2.68263       -28.87038         1.76161
| 80>    C        2.37339       -27.58937         1.45176
| 81>   Br        1.84578       -30.40896         1.08932
| 82>    H        0.54308       -16.06289        -0.51163
| 83>    H        1.33603       -14.58874        -1.27439
| 84>    H        0.27186       -16.09230         2.13038
| 85>    H        0.77804       -14.61683         4.17615
| 86>    H        1.30172       -12.87142         5.64462
| 87>    H        2.00826       -10.65955         6.74382
| 88>    H        2.85219        -8.31464         6.11644
| 89>    H        5.96581       -10.81907         3.59342
| 90>    H        5.08551        -9.85011         4.77609
| 91>    H        6.96947        -8.31500         5.02575
| 92>    H        7.86672        -9.14457         3.75181
| 93>    H        7.00693       -10.42323         6.39191
| 94>    H        8.63823        -9.87746         6.00043
| 95>    H        7.92292       -11.22142         5.10994
| 96>    H        4.18186        -4.94293         1.42030
| 97>    H        2.67794        -4.47266         3.33732
| 98>    H        2.25202        -6.18865         5.02104
| 99>    H        5.96459        -5.95761        -0.27981
|100>    H        7.71705        -7.29878        -1.40871
|101>    H        8.33840        -9.50457        -0.54170
|102>    H        4.86369       -10.78454         1.05103
|103>    H        4.54661       -12.41349         1.63301
|104>    H        5.74962       -11.62191        -1.07316
|105>    H        4.13855       -12.29457        -0.79559
|106>    H        5.57438       -13.29607        -0.54241
|107>    H        9.30467       -13.22327         2.65464
|108>    H        9.51133       -10.61772         2.07806
|109>    H        4.69207       -14.40879         1.33478
|110>    H        4.02831       -20.32644         2.67630
|111>    H        7.13643       -21.89913         4.53826
|112>    H        2.49279       -24.73698         1.44065
|113>    H        5.77442       -27.14566         4.36032
|114>    H        1.59276       -27.30839         0.76858
|115> *
|116>
|117>                          ****END OF INPUT****

CARTESIAN COORDINATES (ANGSTROEM)
---------------------------------
  C      0.995550  -15.095250   -0.389660
  C      1.139590  -14.564720    0.829330
  C      0.743930  -15.127450    2.089990
  C      1.009490  -14.349040    3.160430
  C      1.632520  -13.105570    2.848220
  S      1.889450  -12.984480    1.114840
  C      1.968040  -12.096710    3.712310
  C      1.744900  -12.046430    5.116160
  C      2.115580  -10.882100    5.696500
  C      2.672510   -9.919960    4.798570
  S      2.717600  -10.601180    3.168530
  C      3.056370   -8.656550    5.109060
  C      3.540150   -7.661080    4.173460
  C      4.485290   -7.874380    3.157410
  N      5.331190   -8.944410    2.932570
  C      5.826810   -9.808390    3.979340
  C      7.146400   -9.286990    4.559020
  C      7.713140  -10.262850    5.580070
  C      6.043100   -8.689120    1.773340
  C      5.668080   -7.428430    1.254980
  C      4.683980   -6.897030    2.153960
  C      4.024370   -5.677690    2.194440
  C      3.182470   -5.423900    3.260850
  C      2.953350   -6.392710    4.224740
  C      6.259480   -6.920710    0.107010
  C      7.232930   -7.672710   -0.519410
  C      7.589730   -8.921340   -0.025660
  C      6.997260   -9.468080    1.107840
  C      7.398370  -10.811620    1.529150
  N      6.547560  -11.874390    1.535470
  C      5.209540  -11.818300    1.004110
  C      5.166820  -12.292510   -0.445950
  C      7.223580  -12.984270    1.988230
  C      8.530630  -12.585880    2.273890
  C      8.640760  -11.233910    1.972070
  C      6.709250  -14.299220    2.178410
  S      7.787300  -15.442080    2.983040
  C      5.500940  -14.892660    1.846470
  C      5.445520  -16.232860    2.224760
  C      4.499640  -17.333760    2.129920
  S      2.994530  -17.289550    1.491310
  C      6.616540  -16.685880    2.855400
  C      6.463210  -18.052390    3.165410
  S      7.339410  -19.320070    3.878480
  C      5.180070  -18.469300    2.723360
  C      4.931510  -19.811090    2.948890
  C      6.001710  -20.453680    3.565920
  C      6.211940  -21.772850    3.986310
  C      5.481610  -22.919830    3.782650
  C      5.863260  -24.211550    4.321100
  C      6.770130  -24.458020    5.322280
  C      7.077190  -25.745930    5.806640
  N      7.370710  -26.766410    6.244270
  C      7.488270  -23.483750    6.045920
  N      8.096140  -22.760250    6.699570
  C      5.049300  -25.229260    3.664560
  C      4.113740  -24.580100    2.825730
  C      4.312620  -23.117670    2.902940
  O      3.634740  -22.289290    2.328520
  C      3.194710  -25.263370    2.068300
  C      3.205150  -26.660610    2.135820
  C      4.148630  -27.302240    2.971760
  C      5.073960  -26.608980    3.742910
  S      3.995050  -29.032190    2.898110
  C      2.682630  -28.870380    1.761610
  C      2.373390  -27.589370    1.451760
  Br     1.845780  -30.408960    1.089320
  H      0.543080  -16.062890   -0.511630
  H      1.336030  -14.588740   -1.274390
  H      0.271860  -16.092300    2.130380
  H      0.778040  -14.616830    4.176150
  H      1.301720  -12.871420    5.644620
  H      2.008260  -10.659550    6.743820
  H      2.852190   -8.314640    6.116440
  H      5.965810  -10.819070    3.593420
  H      5.085510   -9.850110    4.776090
  H      6.969470   -8.315000    5.025750
  H      7.866720   -9.144570    3.751810
  H      7.006930  -10.423230    6.391910
  H      8.638230   -9.877460    6.000430
  H      7.922920  -11.221420    5.109940
  H      4.181860   -4.942930    1.420300
  H      2.677940   -4.472660    3.337320
  H      2.252020   -6.188650    5.021040
  H      5.964590   -5.957610   -0.279810
  H      7.717050   -7.298780   -1.408710
  H      8.338400   -9.504570   -0.541700
  H      4.863690  -10.784540    1.051030
  H      4.546610  -12.413490    1.633010
  H      5.749620  -11.621910   -1.073160
  H      4.138550  -12.294570   -0.795590
  H      5.574380  -13.296070   -0.542410
  H      9.304670  -13.223270    2.654640
  H      9.511330  -10.617720    2.078060
  H      4.692070  -14.408790    1.334780
  H      4.028310  -20.326440    2.676300
  H      7.136430  -21.899130    4.538260
  H      2.492790  -24.736980    1.440650
  H      5.774420  -27.145660    4.360320
  H      1.592760  -27.308390    0.768580

 Total Charge           Charge          ....    0
 Multiplicity           Mult            ....    1
 Number of Electrons    NEL             ....  530
 Basis Dimension        Dim             .... 1145

ORBITAL ENERGIES
----------------

  NO   OCC          E(Eh)            E(eV)
   0   2.0000    -482.881233    -13139.8664
   1   2.0000     -88.981844     -2421.3191
   2   2.0000     -88.977116     -2421.1904
   3   2.0000     -88.969968     -2420.9959
   4   2.0000     -88.944304     -2420.2976
   5   2.0000     -88.944178     -2420.2941
   6   2.0000     -88.914582     -2419.4888
   7   2.0000     -62.558930     -1702.3150
   8   2.0000     -56.392876     -1534.5282
   9   2.0000     -56.390169     -1534.4545
  10   2.0000     -56.390136     -1534.4536
  11   2.0000     -19.210177      -522.7355
  12   2.0000     -14.465319      -393.6214
  13   2.0000     -14.447515      -393.1369
  14   2.0000     -14.407542      -392.0491
  15   2.0000     -14.405482      -391.9931
  16   2.0000     -10.361375      -281.9473
  17   2.0000     -10.353472      -281.7323
  18   2.0000     -10.341352      -281.4025
  19   2.0000     -10.334872      -281.2262
  20   2.0000     -10.332831      -281.1706
  21   2.0000     -10.330902      -281.1181
  22   2.0000     -10.326123      -280.9881
  23   2.0000     -10.318859      -280.7904
  24   2.0000     -10.317268      -280.7471
  25   2.0000     -10.315888      -280.7096
  26   2.0000     -10.313711      -280.6503
  27   2.0000     -10.312424      -280.6153
  28   2.0000     -10.311172      -280.5813
  29   2.0000     -10.310607      -280.5659
  30   2.0000     -10.309264      -280.5293
  31   2.0000     -10.307993      -280.4948
  32   2.0000     -10.306183      -280.4455
  33   2.0000     -10.305132      -280.4169
  34   2.0000     -10.305106      -280.4162
  35   2.0000     -10.305047      -280.4146
  36   2.0000     -10.304659      -280.4040
  37   2.0000     -10.301025      -280.3051
  38   2.0000     -10.300196      -280.2826
  39   2.0000     -10.299130      -280.2536
  40   2.0000     -10.298364      -280.2327
  41   2.0000     -10.293966      -280.1131
  42   2.0000     -10.293163      -280.0912
  43   2.0000     -10.292872      -280.0833
  44   2.0000     -10.291625      -280.0494
  45   2.0000     -10.291346      -280.0418
  46   2.0000     -10.290583      -280.0210
  47   2.0000     -10.289209      -279.9836
  48   2.0000     -10.288396      -279.9615
  49   2.0000     -10.286840      -279.9191
  50   2.0000     -10.286816      -279.9185
  51   2.0000     -10.286034      -279.8972
  52   2.0000     -10.285973      -279.8956
  53   2.0000     -10.284488      -279.8552
  54   2.0000     -10.282109      -279.7904
  55   2.0000     -10.280964      -279.7593
  56   2.0000     -10.279666      -279.7239
  57   2.0000     -10.270386      -279.4714
  58   2.0000     -10.269306      -279.4420
  59   2.0000     -10.269164      -279.4382
  60   2.0000     -10.268787      -279.4279
  61   2.0000     -10.267829      -279.4018
  62   2.0000     -10.266253      -279.3590
  63   2.0000     -10.265290      -279.3327
  64   2.0000     -10.262087      -279.2456
  65   2.0000     -10.260811      -279.2109
  66   2.0000     -10.260703      -279.2079
  67   2.0000     -10.260413      -279.2000
  68   2.0000     -10.256203      -279.0855
  69   2.0000     -10.254687      -279.0442
  70   2.0000     -10.250128      -278.9202
  71   2.0000      -8.788343      -239.1430
  72   2.0000      -8.076647      -219.7767
  73   2.0000      -8.071547      -219.6380
  74   2.0000      -8.065875      -219.4836
  75   2.0000      -8.039831      -218.7749
  76   2.0000      -8.039506      -218.7661
  77   2.0000      -8.009818      -217.9582
  78   2.0000      -6.624616      -180.2650
  79   2.0000      -6.610094      -179.8698
  80   2.0000      -6.609892      -179.8643
  81   2.0000      -6.045741      -164.5130
  82   2.0000      -6.041664      -164.4020
  83   2.0000      -6.040968      -164.3831
  84   2.0000      -6.039165      -164.3340
  85   2.0000      -6.036722      -164.2676
  86   2.0000      -6.035574      -164.2363
  87   2.0000      -6.033680      -164.1848
  88   2.0000      -6.031299      -164.1200
  89   2.0000      -6.027119      -164.0063
  90   2.0000      -6.009697      -163.5322
  91   2.0000      -6.009397      -163.5240
  92   2.0000      -6.005761      -163.4251
  93   2.0000      -6.005356      -163.4140
  94   2.0000      -6.000504      -163.2820
  95   2.0000      -6.000245      -163.2750
  96   2.0000      -5.979414      -162.7081
  97   2.0000      -5.978008      -162.6699
  98   2.0000      -5.968659      -162.4155
  99   2.0000      -2.740496       -74.5727
 100   2.0000      -2.736391       -74.4610
 101   2.0000      -2.736298       -74.4585
 102   2.0000      -2.724729       -74.1437
 103   2.0000      -2.724707       -74.1430
 104   2.0000      -1.124920       -30.6106
 105   2.0000      -1.091039       -29.6887
 106   2.0000      -1.077708       -29.3259
 107   2.0000      -1.029988       -28.0274
 108   2.0000      -1.015947       -27.6453
 109   2.0000      -1.005991       -27.3744
 110   2.0000      -0.992855       -27.0170
 111   2.0000      -0.987535       -26.8722
 112   2.0000      -0.985651       -26.8209
 113   2.0000      -0.981254       -26.7013
 114   2.0000      -0.970168       -26.3996
 115   2.0000      -0.945775       -25.7359
 116   2.0000      -0.944467       -25.7002
 117   2.0000      -0.941197       -25.6113
 118   2.0000      -0.932986       -25.3878
 119   2.0000      -0.909742       -24.7553
 120   2.0000      -0.901640       -24.5349
 121   2.0000      -0.900222       -24.4963
 122   2.0000      -0.894855       -24.3502
 123   2.0000      -0.884075       -24.0569
 124   2.0000      -0.879175       -23.9236
 125   2.0000      -0.876933       -23.8625
 126   2.0000      -0.866293       -23.5730
 127   2.0000      -0.864284       -23.5184
 128   2.0000      -0.851813       -23.1790
 129   2.0000      -0.846329       -23.0298
 130   2.0000      -0.842914       -22.9369
 131   2.0000      -0.837738       -22.7960
 132   2.0000      -0.832722       -22.6595
 133   2.0000      -0.825388       -22.4599
 134   2.0000      -0.822946       -22.3935
 135   2.0000      -0.821804       -22.3624
 136   2.0000      -0.819874       -22.3099
 137   2.0000      -0.814295       -22.1581
 138   2.0000      -0.805325       -21.9140
 139   2.0000      -0.787235       -21.4218
 140   2.0000      -0.778489       -21.1838
 141   2.0000      -0.763289       -20.7701
 142   2.0000      -0.752961       -20.4891
 143   2.0000      -0.747098       -20.3296
 144   2.0000      -0.727263       -19.7898
 145   2.0000      -0.725662       -19.7463
 146   2.0000      -0.723250       -19.6806
 147   2.0000      -0.714871       -19.4526
 148   2.0000      -0.709977       -19.3194
 149   2.0000      -0.695294       -18.9199
 150   2.0000      -0.690005       -18.7760
 151   2.0000      -0.684577       -18.6283
 152   2.0000      -0.682036       -18.5591
 153   2.0000      -0.680912       -18.5286
 154   2.0000      -0.675670       -18.3859
 155   2.0000      -0.670152       -18.2358
 156   2.0000      -0.658246       -17.9118
 157   2.0000      -0.652192       -17.7471
 158   2.0000      -0.649008       -17.6604
 159   2.0000      -0.635980       -17.3059
 160   2.0000      -0.634029       -17.2528
 161   2.0000      -0.631504       -17.1841
 162   2.0000      -0.627869       -17.0852
 163   2.0000      -0.622151       -16.9296
 164   2.0000      -0.617217       -16.7953
 165   2.0000      -0.614402       -16.7187
 166   2.0000      -0.609513       -16.5857
 167   2.0000      -0.604166       -16.4402
 168   2.0000      -0.599139       -16.3034
 169   2.0000      -0.594708       -16.1828
 170   2.0000      -0.589144       -16.0314
 171   2.0000      -0.583892       -15.8885
 172   2.0000      -0.577221       -15.7070
 173   2.0000      -0.573142       -15.5960
 174   2.0000      -0.567868       -15.4525
 175   2.0000      -0.560258       -15.2454
 176   2.0000      -0.555638       -15.1197
 177   2.0000      -0.550271       -14.9736
 178   2.0000      -0.546047       -14.8587
 179   2.0000      -0.543821       -14.7981
 180   2.0000      -0.540465       -14.7068
 181   2.0000      -0.535798       -14.5798
 182   2.0000      -0.534733       -14.5508
 183   2.0000      -0.533557       -14.5188
 184   2.0000      -0.530540       -14.4367
 185   2.0000      -0.527288       -14.3482
 186   2.0000      -0.525398       -14.2968
 187   2.0000      -0.522284       -14.2121
 188   2.0000      -0.521062       -14.1788
 189   2.0000      -0.517464       -14.0809
 190   2.0000      -0.515942       -14.0395
 191   2.0000      -0.512718       -13.9518
 192   2.0000      -0.509250       -13.8574
 193   2.0000      -0.507643       -13.8137
 194   2.0000      -0.506215       -13.7748
 195   2.0000      -0.503369       -13.6974
 196   2.0000      -0.501914       -13.6578
 197   2.0000      -0.496877       -13.5207
 198   2.0000      -0.495771       -13.4906
 199   2.0000      -0.493890       -13.4394
 200   2.0000      -0.492362       -13.3979
 201   2.0000      -0.489143       -13.3103
 202   2.0000      -0.487458       -13.2644
 203   2.0000      -0.483796       -13.1648
 204   2.0000      -0.483446       -13.1552
 205   2.0000      -0.482675       -13.1343
 206   2.0000      -0.476411       -12.9638
 207   2.0000      -0.474230       -12.9045
 208   2.0000      -0.467768       -12.7286
 209   2.0000      -0.464734       -12.6461
 210   2.0000      -0.463629       -12.6160
 211   2.0000      -0.458741       -12.4830
 212   2.0000      -0.457778       -12.4568
 213   2.0000      -0.455629       -12.3983
 214   2.0000      -0.454547       -12.3688
 215   2.0000      -0.452115       -12.3027
 216   2.0000      -0.449740       -12.2380
 217   2.0000      -0.447377       -12.1737
 218   2.0000      -0.445682       -12.1276
 219   2.0000      -0.442317       -12.0361
 220   2.0000      -0.440820       -11.9953
 221   2.0000      -0.440313       -11.9815
 222   2.0000      -0.437562       -11.9067
 223   2.0000      -0.436386       -11.8747
 224   2.0000      -0.434519       -11.8239
 225   2.0000      -0.434120       -11.8130
 226   2.0000      -0.431416       -11.7394
 227   2.0000      -0.429842       -11.6966
 228   2.0000      -0.428888       -11.6706
 229   2.0000      -0.426504       -11.6058
 230   2.0000      -0.423597       -11.5267
 231   2.0000      -0.421965       -11.4823
 232   2.0000      -0.418649       -11.3920
 233   2.0000      -0.417318       -11.3558
 234   2.0000      -0.415001       -11.2928
 235   2.0000      -0.414764       -11.2863
 236   2.0000      -0.411549       -11.1988
 237   2.0000      -0.407939       -11.1006
 238   2.0000      -0.405181       -11.0255
 239   2.0000      -0.399547       -10.8722
 240   2.0000      -0.397378       -10.8132
 241   2.0000      -0.389573       -10.6008
 242   2.0000      -0.384596       -10.4654
 243   2.0000      -0.383419       -10.4334
 244   2.0000      -0.379891       -10.3374
 245   2.0000      -0.370688       -10.0869
 246   2.0000      -0.362361        -9.8603
 247   2.0000      -0.355849        -9.6831
 248   2.0000      -0.341010        -9.2794
 249   2.0000      -0.340163        -9.2563
 250   2.0000      -0.337564        -9.1856
 251   2.0000      -0.334110        -9.0916
 252   2.0000      -0.329816        -8.9748
 253   2.0000      -0.325138        -8.8475
 254   2.0000      -0.318615        -8.6700
 255   2.0000      -0.314263        -8.5515
 256   2.0000      -0.309500        -8.4219
 257   2.0000      -0.309180        -8.4132
 258   2.0000      -0.292375        -7.9559
 259   2.0000      -0.290622        -7.9082
 260   2.0000      -0.284504        -7.7417
 261   2.0000      -0.276862        -7.5338
 262   2.0000      -0.264765        -7.2046
 263   2.0000      -0.236030        -6.4227
 264   2.0000      -0.226040        -6.1509
 265   0.0000      -0.101049        -2.7497
 266   0.0000      -0.079551        -2.1647
 267   0.0000      -0.058525        -1.5925
 268   0.0000      -0.051886        -1.4119
 269   0.0000      -0.013659        -0.3717

MULLIKEN ATOMIC CHARGES
-----------------------
   0 C :   -0.021715
   1 C :   -0.054610
   2 C :    0.072778
   3 C :    0.024161
   4 C :   -0.066299
   5 S :    0.045081
   6 C :   -0.047411
   7 C :    0.030995
   8 C :    0.041571
   9 C :   -0.034414
  10 S :    0.075225
  11 C :   -0.081302
  12 C :    0.024397
  13 C :    0.079054
  14 N :   -0.193009
  15 C :    0.124815
  16 C :   -0.010855
  17 C :    0.012390
  18 C :    0.110395
  19 C :    0.068864
  20 C :    0.074104
  21 C :   -0.052661
  22 C :    0.032654
  23 C :   -0.026610
  24 C :   -0.047914
  25 C :    0.031415
  26 C :   -0.022182
  27 C :   -0.034334
  28 C :    0.000360
  29 N :   -0.172787
  30 C :    0.077473
  31 C :    0.025929
  32 C :    0.101481
  33 C :   -0.059951
  34 C :    0.002296
  35 C :   -0.046351
  36 S :    0.162252
  37 C :   -0.056776
  38 C :    0.075287
  39 C :    0.007169
  40 S :   -0.075757
  41 C :   -0.096924
  42 C :   -0.063549
  43 S :    0.190510
  44 C :    0.038285
  45 C :    0.020950
  46 C :   -0.129330
  47 C :    0.043041
  48 C :   -0.103632
  49 C :    0.303710
  50 C :   -0.359464
  51 C :   -0.186247
  52 N :    0.143504
  53 C :   -0.202760
  54 N :    0.152754
  55 C :    0.013211
  56 C :   -0.007065
  57 C :    0.149856
  58 O :   -0.161680
  59 C :   -0.076575
  60 C :    0.117612
  61 C :   -0.090625
  62 C :   -0.021412
  63 S :    0.182670
  64 C :   -0.123345
  65 C :    0.037115
  66 Br:    0.018442
  67 H :    0.021024
  68 H :    0.018334
  69 H :   -0.006456
  70 H :   -0.011649
  71 H :   -0.013511
  72 H :   -0.011552
  73 H :   -0.003292
  74 H :    0.022045
  75 H :    0.033726
  76 H :    0.006398
  77 H :    0.015486
  78 H :    0.004563
  79 H :    0.012875
  80 H :    0.015843
  81 H :   -0.032811
  82 H :   -0.022907
  83 H :   -0.030290
  84 H :   -0.033422
  85 H :   -0.022805
  86 H :   -0.028520
  87 H :    0.052870
  88 H :    0.032742
  89 H :    0.020173
  90 H :    0.019854
  91 H :    0.022776
  92 H :   -0.018070
  93 H :   -0.032522
  94 H :   -0.021770
  95 H :    0.020166
  96 H :    0.010047
  97 H :   -0.012523
  98 H :   -0.006379
  99 H :   -0.004703
Sum of atomic charges:   -0.0000000

LOEWDIN ATOMIC CHARGES
----------------------
   0 C :   -0.074143
   1 C :   -0.141004
   2 C :   -0.032917
   3 C :   -0.026031
   4 C :   -0.178614
   5 S :    0.357318
   6 C :   -0.180714
   7 C :   -0.032325
   8 C :   -0.031315
   9 C :   -0.146515
  10 S :    0.380070
  11 C :   -0.056277
  12 C :   -0.062278
  13 C :    0.025210
  14 N :    0.014041
  15 C :    0.030973
  16 C :   -0.042771
  17 C :   -0.054595
  18 C :    0.030413
  19 C :   -0.039315
  20 C :   -0.039548
  21 C :   -0.011501
  22 C :   -0.043240
  23 C :   -0.010690
  24 C :   -0.009823
  25 C :   -0.043691
  26 C :   -0.012162
  27 C :   -0.066829
  28 C :   -0.003661
  29 N :    0.079724
  30 C :    0.028890
  31 C :   -0.059754
  32 C :   -0.055643
  33 C :   -0.066925
  34 C :   -0.069354
  35 C :   -0.132312
  36 S :    0.469291
  37 C :   -0.052513
  38 C :   -0.061887
  39 C :   -0.130235
  40 S :    0.135141
  41 C :   -0.209869
  42 C :   -0.148532
  43 S :    0.480297
  44 C :   -0.100138
  45 C :    0.028480
  46 C :   -0.185523
  47 C :    0.043358
  48 C :   -0.112395
  49 C :    0.078095
  50 C :   -0.152394
  51 C :   -0.018302
  52 N :   -0.061879
  53 C :   -0.025848
  54 N :   -0.059527
  55 C :   -0.020680
  56 C :   -0.048647
  57 C :    0.085719
  58 O :   -0.149224
  59 C :    0.019023
  60 C :   -0.034214
  61 C :   -0.144948
  62 C :   -0.011033
  63 S :    0.429714
  64 C :   -0.272983
  65 C :   -0.071036
  66 Br:    0.132982
  67 H :    0.028804
  68 H :    0.025384
  69 H :    0.031536
  70 H :    0.032933
  71 H :    0.031887
  72 H :    0.033652
  73 H :    0.034071
  74 H :    0.022355
  75 H :    0.028884
  76 H :    0.021657
  77 H :    0.022005
  78 H :    0.020489
  79 H :    0.025691
  80 H :    0.023977
  81 H :    0.027260
  82 H :    0.026622
  83 H :    0.026696
  84 H :    0.027625
  85 H :    0.026693
  86 H :    0.029200
  87 H :    0.033221
  88 H :    0.010117
  89 H :    0.028973
  90 H :    0.025047
  91 H :    0.024692
  92 H :    0.018073
  93 H :    0.025253
  94 H :    0.032277
  95 H :    0.041099
  96 H :    0.042394
  97 H :    0.039679
  98 H :    0.040618
  99 H :    0.038146

  Mayer bond orders larger than 0.100000
B(  0-C ,  1-C ) :   1.8813 B(  0-C , 67-H ) :   0.9480 B(  0-C , 68-H ) :   0.9405
B(  1-C ,  2-C ) :   1.0656 B(  1-C ,  5-S ) :   1.0017 B(  2-C ,  3-C ) :   1.6670
B(  2-C , 69-H ) :   0.9896 B(  3-C ,  4-C ) :   1.1453 B(  3-C , 70-H ) :   0.9917
B(  4-C ,  5-S ) :   1.0310 B(  4-C ,  6-C ) :   1.5816 B(  6-C ,  7-C ) :   1.1493
B(  6-C , 10-S ) :   1.0268 B(  7-C ,  8-C ) :   1.6431 B(  7-C , 71-H ) :   0.9920
B(  8-C ,  9-C ) :   1.0972 B(  8-C , 72-H ) :   0.9990 B(  9-C , 10-S ) :   1.0344
B(  9-C , 11-C ) :   1.6904 B( 11-C , 12-C ) :   1.0072 B( 11-C , 73-H ) :   0.9563
B( 12-C , 13-C ) :   1.3030 B( 12-C , 23-C ) :   1.3805 B( 13-C , 14-N ) :   1.1218
B( 13-C , 20-C ) :   1.2883 B( 14-N , 15-C ) :   0.9499 B( 14-N , 18-C ) :   1.1316
B( 15-C , 16-C ) :   1.0904 B( 15-C , 74-H ) :   0.9297 B( 15-C , 75-H ) :   0.9316
B( 16-C , 17-C ) :   1.1044 B( 16-C , 76-H ) :   0.9406 B( 16-C , 77-H ) :   0.9345
B( 17-C , 78-H ) :   0.9701 B( 17-C , 79-H ) :   0.9665 B( 17-C , 80-H ) :   0.9685
B( 18-C , 19-C ) :   1.2931 B( 18-C , 27-C ) :   1.3464 B( 19-C , 20-C ) :   1.0571
B( 19-C , 24-C ) :   1.3377 B( 20-C , 21-C ) :   1.3469 B( 21-C , 22-C ) :   1.3710
B( 21-C , 81-H ) :   0.9983 B( 22-C , 23-C ) :   1.3649 B( 22-C , 82-H ) :   0.9850
B( 23-C , 83-H ) :   0.9901 B( 24-C , 25-C ) :   1.3832 B( 24-C , 84-H ) :   0.9974
B( 25-C , 26-C ) :   1.3233 B( 25-C , 85-H ) :   0.9880 B( 26-C , 27-C ) :   1.4304
B( 26-C , 86-H ) :   0.9958 B( 27-C , 28-C ) :   0.9038 B( 28-C , 29-N ) :   1.2506
B( 28-C , 32-C ) :   0.1129 B( 28-C , 34-C ) :   1.4782 B( 29-N , 30-C ) :   0.9432
B( 29-N , 32-C ) :   1.1732 B( 30-C , 31-C ) :   1.1155 B( 30-C , 87-H ) :   0.9342
B( 30-C , 88-H ) :   0.9360 B( 31-C , 89-H ) :   0.9583 B( 31-C , 90-H ) :   0.9634
B( 31-C , 91-H ) :   0.9637 B( 32-C , 33-C ) :   1.4255 B( 32-C , 35-C ) :   1.1127
B( 33-C , 34-C ) :   1.3071 B( 33-C , 92-H ) :   0.9936 B( 34-C , 93-H ) :   1.0147
B( 35-C , 36-S ) :   1.1245 B( 35-C , 37-C ) :   1.4256 B( 36-S , 41-C ) :   1.0830
B( 37-C , 38-C ) :   1.2823 B( 37-C , 94-H ) :   0.9997 B( 38-C , 39-C ) :   1.0161
B( 38-C , 41-C ) :   1.4417 B( 39-C , 40-S ) :   1.7682 B( 39-C , 44-C ) :   1.0162
B( 41-C , 42-C ) :   1.1911 B( 42-C , 43-S ) :   1.1770 B( 42-C , 44-C ) :   1.3575
B( 43-S , 46-C ) :   1.0480 B( 44-C , 45-C ) :   1.3366 B( 45-C , 46-C ) :   1.3684
B( 45-C , 95-H ) :   0.9765 B( 46-C , 47-C ) :   1.2701 B( 47-C , 48-C ) :   1.5401
B( 47-C , 96-H ) :   0.9135 B( 48-C , 49-C ) :   1.0976 B( 48-C , 57-C ) :   0.9567
B( 49-C , 50-C ) :   1.6072 B( 49-C , 55-C ) :   0.9946 B( 50-C , 51-C ) :   1.1488
B( 50-C , 53-C ) :   1.1423 B( 51-C , 52-N ) :   2.9682 B( 53-C , 54-N ) :   2.9858
B( 55-C , 56-C ) :   1.2791 B( 55-C , 62-C ) :   1.4151 B( 56-C , 57-C ) :   0.9488
B( 56-C , 59-C ) :   1.4273 B( 57-C , 58-O ) :   2.1631 B( 59-C , 60-C ) :   1.2438
B( 59-C , 97-H ) :   1.0166 B( 60-C , 61-C ) :   1.3114 B( 60-C , 65-C ) :   1.1600
B( 61-C , 62-C ) :   1.3276 B( 61-C , 63-S ) :   1.0827 B( 62-C , 98-H ) :   0.9798
B( 63-S , 64-C ) :   1.0867 B( 64-C , 65-C ) :   1.6190 B( 64-C , 66-Br) :   1.0160
B( 65-C , 99-H ) :   1.0009

-----------------------------------------------------------------------------
         ABSORPTION SPECTRUM VIA TRANSITION ELECTRIC DIPOLE MOMENTS
-----------------------------------------------------------------------------
State   Energy  Wavelength   fosc         T2         TX        TY        TZ
        (cm-1)    (nm)                  (au**2)     (au)      (au)      (au)
-----------------------------------------------------------------------------
   0   11346.0    881.4   0.207856060   6.03109  -0.27949  -2.38476   0.51565
   1   12626.5    792.0   0.096979773   2.52856  -0.47621   1.50579   0.18540
   2   16816.3    594.7   0.001641952   0.03214  -0.06295   0.16572   0.02678
   3   19141.4    522.4   1.294981852  22.27236  -0.27638  -4.60650   0.98798
   4   20865.8    479.3   0.271042927   4.27641  -0.47593  -1.92008  -0.60267
   5   22207.0    450.3   0.595725799   8.83145  -1.13698  -2.53097  -1.06439
   6   22686.3    440.8   0.072415724   1.05086   0.14249   0.97846   0.27051
   7   24637.5    405.9   0.064822650   0.86618  -0.25653  -0.72447  -0.52489
   8   24838.6    402.6   0.034051883   0.45132  -0.17296  -0.45686  -0.46118
   9   25304.3    395.2   0.119515070   1.55490  -0.45771  -1.15439   0.11308
  10   27400.5    365.0   0.049525842   0.59504   0.36376   0.54756   0.40360
  11   27799.3    359.7   0.195783995   2.31857   0.92447   1.01653   0.65619
  12   28473.5    351.2   0.061975579   0.71656   0.22368  -0.10791  -0.80925
  13   28564.5    350.1   0.051378978   0.59215   0.13982  -0.29310  -0.69763
  14   28993.9    344.9   0.002514827   0.02855   0.01849   0.11539   0.12206
  15   29266.1    341.7   0.105379795   1.18541  -0.09117  -1.03897  -0.31249
  16   29927.6    334.1   0.071280352   0.78410  -0.62236  -0.62891  -0.03529
  17   29973.2    333.6   0.039543895   0.43433   0.38722   0.51279   0.14644
  18   30260.3    330.5   0.102898441   1.11946  -0.21407  -1.02504  -0.15142
  19   30740.0    325.3   0.007581381   0.08119   0.06133   0.13745   0.24195
  20   30790.4    324.8   0.019509957   0.20860  -0.23049  -0.33627  -0.20591
  21   31092.4    321.6   0.341312129   3.61388   0.25427   1.88110   0.10335
  22   31864.5    313.8   0.310726030   3.21030  -1.51268  -0.23923  -0.92999
  23   32060.6    311.9   0.171455054   1.76058   0.19895   1.27112  -0.32440
  24   32386.7    308.8   0.032910934   0.33454  -0.05464   0.36524  -0.44515
  25   32746.8    305.4   0.056499790   0.56801   0.67152   0.20744   0.27211
  26   33087.1    302.2   0.041473171   0.41265  -0.51256   0.22733  -0.31346
  27   33213.6    301.1   0.214841589   2.12950  -0.36011  -1.27310  -0.61566
  28   33319.9    300.1   0.042176798   0.41672  -0.40061  -0.50330   0.05402
  29   33491.9    298.6   0.144094670   1.41639   0.87379   0.19570   0.78395
  30   33714.6    296.6   0.120132447   1.17305   0.47194   0.86987  -0.44005
  31   34050.7    293.7   0.007115776   0.06880  -0.17718   0.13624  -0.13727
  32   34519.1    289.7   0.024028635   0.22916  -0.20226  -0.24309  -0.35939
  33   34632.5    288.7   0.027132205   0.25792  -0.17364  -0.44636  -0.16890
  34   35190.8    284.2   0.158918141   1.48669   0.95864  -0.39375   0.64238
  35   35359.3    282.8   0.006627871   0.06171  -0.02896   0.23753  -0.06670
  36   35533.3    281.4   0.056254255   0.52119   0.42510  -0.02777   0.58284
  37   35631.9    280.6   0.039902601   0.36867  -0.16377  -0.22165  -0.54104
  38   35823.0    279.2   0.010384632   0.09543  -0.16157  -0.20384  -0.16668
  39   36188.2    276.3   0.114303956   1.03985  -0.11682  -1.01273   0.02398
  40   36527.1    273.8   0.054653993   0.49259   0.50949   0.37403  -0.30513
  41   36919.4    270.9   0.028567372   0.25474   0.10499  -0.12376   0.47791
  42   37303.9    268.1   0.107120148   0.94535   0.44969  -0.32622   0.79794
  43   37567.7    266.2   0.122092183   1.06991  -0.91736   0.44746   0.16775
  44   37880.5    264.0   0.025185246   0.21888   0.30106  -0.33786   0.11871
  45   38176.8    261.9   0.152126433   1.31184  -0.76802  -0.58188  -0.61920
  46   38300.1    261.1   0.020312948   0.17460  -0.22308  -0.25776  -0.24166
  47   38501.7    259.7   0.016948942   0.14492  -0.10236   0.25599  -0.26251
  48   39112.1    255.7   0.093122527   0.78383  -0.16370   0.72008  -0.48838
  49   39253.3    254.8   0.032999335   0.27676   0.20019  -0.48139   0.07033
  50   39628.0    252.3   0.016195984   0.13455   0.00420   0.26099  -0.25771
  51   39722.7    251.7   0.013336749   0.11053  -0.13097  -0.26517   0.15187
  52   39970.6    250.2   0.059830431   0.49278  -0.54590   0.42743   0.10991
  53   40013.4    249.9   0.004461807   0.03671   0.11194  -0.03126  -0.15232

FINAL SINGLE POINT ENERGY     -7369.181949399562

DIPOLE MOMENT
-------------
                                X             Y             Z
Electronic contribution:    -33.05227    -255.25691     -12.55185
Nuclear contribution   :     31.69833     257.89011      11.33248
                        -----------------------------------------
Total Dipole Moment    :     -1.35394       2.63320      -1.21937
                        -----------------------------------------
Magnitude (a.u.)       :      3.20215
Magnitude (Debye)      :      8.13923

Rotational constants in cm-1:     0.002189     0.000272     0.000259
Rotational constants in MHz :    65.626392     8.140592     7.771133

                             ****ORCA TERMINATED NORMALLY****
TOTAL RUN TIME: 0 days 0 hours 10 minutes 37 seconds 816 msec
