                         Program Version 4.2.0 -  RELEASE  -
|  1> # ORCA input file
|  2> # SCF done       -129.279165395472          0.000718308169
|  3> ! CAM-B3LYP def2-SVP def2/J RIJCOSX Grid4 TightSCF
|  4> %maxcore 5000
|  5> %tddft
|  6>     Mode sTDDFT
|  7>     Ethresh 5.0
|  8>     maxcore 5000
|  9> end
| 10>
| 11> %pal
| 12>   nprocs 6
| 13>   end
| 14> * xyz 0 1
| 15>    C       13.37936        -3.64205         1.82781
| 16>    C       12.73430        -4.24919         0.82191
| 17>    C       13.20414        -4.47090        -0.51549
| 18>    C       12.32752        -5.11854        -1.31486
| 19>    C       11.09901        -5.46154        -0.68514
| 20>    S       11.10228        -4.91890         0.98178
| 21>    C       10.03328        -6.13368        -1.23556
| 22>    C        9.90996        -6.62732        -2.55869
| 23>    C        8.74711        -7.28891        -2.78583
| 24>    C        7.87307        -7.35390        -1.66504
| 25>    S        8.59498        -6.51347        -0.30775
| 26>    C        6.69791        -8.05944        -1.65223
| 27>    C        5.76442        -8.21174        -0.61101
| 28>    S        4.64226        -9.55663        -0.67782
| 29>    C        3.94375        -9.14760         0.86066
| 30>    C        4.55128        -8.01111         1.37249
| 31>    C        5.55277        -7.47042         0.55035
| 32>    O        6.20246        -6.32765         0.82954
| 33>    S        4.10556        -7.19668         2.88747
| 34>    C        2.93969        -9.95834         1.42600
| 35>    S        2.22125        -9.67650         2.99181
| 36>    C        1.23585       -11.10465         2.86458
| 37>    C        1.43409       -11.72774         1.64315
| 38>    C        2.39782       -11.09627         0.83962
| 39>    O        2.78336       -11.52006        -0.37633
| 40>    S        0.68167       -13.24150         1.10197
| 41>    C        0.41382       -11.48108         3.94640
| 42>    S       -0.57116       -12.92181         3.96978
| 43>    C       -1.10030       -12.60521         5.59982
| 44>    C       -0.51252       -11.45175         6.08847
| 45>    C        0.32448       -10.81030         5.15980
| 46>    O        1.00436        -9.67225         5.39082
| 47>    S       -0.78197       -10.74191         7.69197
| 48>    C       -1.99935       -13.50738         6.20631
| 49>    S       -2.62129       -13.38685         7.83988
| 50>    C       -3.60546       -14.82275         7.72357
| 51>    C       -3.45646       -15.37306         6.45421
| 52>    C       -2.56462       -14.62789         5.63097
| 53>    O       -2.44677       -15.17724         4.40666
| 54>    C       -3.25376       -16.27365         4.43473
| 55>    N       -3.34337       -17.05666         3.26330
| 56>    O       -4.05326       -18.04562         3.32724
| 57>    O       -2.72248       -16.69532         2.28536
| 58>    C       -3.88974       -16.44960         5.63629
| 59>    C       -4.38136       -15.22444         8.85108
| 60>    C       -5.16520       -16.30418         8.90265
| 61>    H       14.37104        -3.24985         1.68694
| 62>    H       12.93325        -3.52862         2.79861
| 63>    H       14.18058        -4.13485        -0.81643
| 64>    H       12.51673        -5.36858        -2.34385
| 65>    H       10.67845        -6.48202        -3.29659
| 66>    H        8.47738        -7.74169        -3.72394
| 67>    H        6.48125        -8.63357        -2.54481
| 68>    H        5.91947        -6.01340         1.70403
| 69>    H        4.42221        -8.19725         3.70801
| 70>    H        2.27605       -12.31394        -0.60807
| 71>    H       -0.58620       -12.87393         1.27379
| 72>    H        0.82253        -9.37257         6.29509
| 73>    H       -0.45758       -11.82281         8.39972
| 74>    H       -4.56580       -17.24737         5.86242
| 75>    H       -4.29780       -14.57580         9.71336
| 76>    H       -5.27310       -16.97340         8.06873
| 77>    H       -5.72189       -16.54213         9.79093
| 78> *
| 79>
| 80>                          ****END OF INPUT****

CARTESIAN COORDINATES (ANGSTROEM)
---------------------------------
  C     13.379360   -3.642050    1.827810
  C     12.734300   -4.249190    0.821910
  C     13.204140   -4.470900   -0.515490
  C     12.327520   -5.118540   -1.314860
  C     11.099010   -5.461540   -0.685140
  S     11.102280   -4.918900    0.981780
  C     10.033280   -6.133680   -1.235560
  C      9.909960   -6.627320   -2.558690
  C      8.747110   -7.288910   -2.785830
  C      7.873070   -7.353900   -1.665040
  S      8.594980   -6.513470   -0.307750
  C      6.697910   -8.059440   -1.652230
  C      5.764420   -8.211740   -0.611010
  S      4.642260   -9.556630   -0.677820
  C      3.943750   -9.147600    0.860660
  C      4.551280   -8.011110    1.372490
  C      5.552770   -7.470420    0.550350
  O      6.202460   -6.327650    0.829540
  S      4.105560   -7.196680    2.887470
  C      2.939690   -9.958340    1.426000
  S      2.221250   -9.676500    2.991810
  C      1.235850  -11.104650    2.864580
  C      1.434090  -11.727740    1.643150
  C      2.397820  -11.096270    0.839620
  O      2.783360  -11.520060   -0.376330
  S      0.681670  -13.241500    1.101970
  C      0.413820  -11.481080    3.946400
  S     -0.571160  -12.921810    3.969780
  C     -1.100300  -12.605210    5.599820
  C     -0.512520  -11.451750    6.088470
  C      0.324480  -10.810300    5.159800
  O      1.004360   -9.672250    5.390820
  S     -0.781970  -10.741910    7.691970
  C     -1.999350  -13.507380    6.206310
  S     -2.621290  -13.386850    7.839880
  C     -3.605460  -14.822750    7.723570
  C     -3.456460  -15.373060    6.454210
  C     -2.564620  -14.627890    5.630970
  O     -2.446770  -15.177240    4.406660
  C     -3.253760  -16.273650    4.434730
  N     -3.343370  -17.056660    3.263300
  O     -4.053260  -18.045620    3.327240
  O     -2.722480  -16.695320    2.285360
  C     -3.889740  -16.449600    5.636290
  C     -4.381360  -15.224440    8.851080
  C     -5.165200  -16.304180    8.902650
  H     14.371040   -3.249850    1.686940
  H     12.933250   -3.528620    2.798610
  H     14.180580   -4.134850   -0.816430
  H     12.516730   -5.368580   -2.343850
  H     10.678450   -6.482020   -3.296590
  H      8.477380   -7.741690   -3.723940
  H      6.481250   -8.633570   -2.544810
  H      5.919470   -6.013400    1.704030
  H      4.422210   -8.197250    3.708010
  H      2.276050  -12.313940   -0.608070
  H     -0.586200  -12.873930    1.273790
  H      0.822530   -9.372570    6.295090
  H     -0.457580  -11.822810    8.399720
  H     -4.565800  -17.247370    5.862420
  H     -4.297800  -14.575800    9.713360
  H     -5.273100  -16.973400    8.068730
  H     -5.721890  -16.542130    9.790930

 Total Charge           Charge          ....    0
 Multiplicity           Mult            ....    1
 Number of Electrons    NEL             ....  396
 Basis Dimension        Dim             ....  765

ORBITAL ENERGIES
----------------

  NO   OCC          E(Eh)            E(eV)
   0   2.0000     -88.988851     -2421.5098
   1   2.0000     -88.970551     -2421.0118
   2   2.0000     -88.959884     -2420.7215
   3   2.0000     -88.954840     -2420.5843
   4   2.0000     -88.944824     -2420.3117
   5   2.0000     -88.940824     -2420.2028
   6   2.0000     -88.936259     -2420.0786
   7   2.0000     -88.917059     -2419.5562
   8   2.0000     -88.916838     -2419.5502
   9   2.0000     -19.322830      -525.8009
  10   2.0000     -19.266747      -524.2749
  11   2.0000     -19.254012      -523.9283
  12   2.0000     -19.252224      -523.8797
  13   2.0000     -19.249773      -523.8130
  14   2.0000     -19.238167      -523.4971
  15   2.0000     -14.663782      -399.0218
  16   2.0000     -10.397841      -282.9397
  17   2.0000     -10.360057      -281.9115
  18   2.0000     -10.351154      -281.6692
  19   2.0000     -10.337544      -281.2989
  20   2.0000     -10.335132      -281.2332
  21   2.0000     -10.330539      -281.1083
  22   2.0000     -10.329407      -281.0775
  23   2.0000     -10.325736      -280.9776
  24   2.0000     -10.324063      -280.9320
  25   2.0000     -10.318819      -280.7893
  26   2.0000     -10.314462      -280.6708
  27   2.0000     -10.311519      -280.5907
  28   2.0000     -10.309669      -280.5404
  29   2.0000     -10.305956      -280.4393
  30   2.0000     -10.302523      -280.3459
  31   2.0000     -10.302177      -280.3365
  32   2.0000     -10.294072      -280.1160
  33   2.0000     -10.289784      -279.9993
  34   2.0000     -10.287296      -279.9316
  35   2.0000     -10.286924      -279.9214
  36   2.0000     -10.284946      -279.8676
  37   2.0000     -10.284224      -279.8480
  38   2.0000     -10.283973      -279.8411
  39   2.0000     -10.277952      -279.6773
  40   2.0000     -10.270250      -279.4677
  41   2.0000     -10.267975      -279.4058
  42   2.0000     -10.264657      -279.3155
  43   2.0000     -10.263919      -279.2954
  44   2.0000     -10.263189      -279.2756
  45   2.0000     -10.248585      -278.8782
  46   2.0000      -8.082983      -219.9491
  47   2.0000      -8.064882      -219.4566
  48   2.0000      -8.054568      -219.1759
  49   2.0000      -8.048739      -219.0173
  50   2.0000      -8.039499      -218.7659
  51   2.0000      -8.035570      -218.6590
  52   2.0000      -8.030837      -218.5302
  53   2.0000      -8.013639      -218.0622
  54   2.0000      -8.012840      -218.0405
  55   2.0000      -6.052399      -164.6942
  56   2.0000      -6.048125      -164.5779
  57   2.0000      -6.045112      -164.4959
  58   2.0000      -6.034575      -164.2091
  59   2.0000      -6.030288      -164.0925
  60   2.0000      -6.026289      -163.9837
  61   2.0000      -6.024745      -163.9416
  62   2.0000      -6.020864      -163.8360
  63   2.0000      -6.018527      -163.7724
  64   2.0000      -6.014853      -163.6725
  65   2.0000      -6.014088      -163.6516
  66   2.0000      -6.010118      -163.5436
  67   2.0000      -6.009623      -163.5302
  68   2.0000      -6.005773      -163.4254
  69   2.0000      -6.005158      -163.4087
  70   2.0000      -6.001047      -163.2968
  71   2.0000      -6.000988      -163.2952
  72   2.0000      -5.999859      -163.2645
  73   2.0000      -5.997120      -163.1899
  74   2.0000      -5.997049      -163.1880
  75   2.0000      -5.991199      -163.0288
  76   2.0000      -5.983457      -162.8181
  77   2.0000      -5.982705      -162.7977
  78   2.0000      -5.979591      -162.7129
  79   2.0000      -5.978489      -162.6830
  80   2.0000      -5.974125      -162.5642
  81   2.0000      -5.973567      -162.5490
  82   2.0000      -1.333998       -36.2999
  83   2.0000      -1.243061       -33.8254
  84   2.0000      -1.165850       -31.7244
  85   2.0000      -1.153212       -31.3805
  86   2.0000      -1.150296       -31.3012
  87   2.0000      -1.138820       -30.9889
  88   2.0000      -1.017805       -27.6959
  89   2.0000      -0.999536       -27.1987
  90   2.0000      -0.985462       -26.8158
  91   2.0000      -0.970384       -26.4055
  92   2.0000      -0.966404       -26.2972
  93   2.0000      -0.947013       -25.7695
  94   2.0000      -0.946197       -25.7473
  95   2.0000      -0.911165       -24.7941
  96   2.0000      -0.904207       -24.6047
  97   2.0000      -0.898331       -24.4448
  98   2.0000      -0.891885       -24.2694
  99   2.0000      -0.879977       -23.9454
 100   2.0000      -0.868283       -23.6272
 101   2.0000      -0.861587       -23.4450
 102   2.0000      -0.844799       -22.9882
 103   2.0000      -0.829937       -22.5837
 104   2.0000      -0.822849       -22.3909
 105   2.0000      -0.810729       -22.0611
 106   2.0000      -0.808281       -21.9944
 107   2.0000      -0.800097       -21.7718
 108   2.0000      -0.797230       -21.6937
 109   2.0000      -0.790782       -21.5183
 110   2.0000      -0.782553       -21.2944
 111   2.0000      -0.772355       -21.0168
 112   2.0000      -0.747067       -20.3287
 113   2.0000      -0.732472       -19.9316
 114   2.0000      -0.728557       -19.8250
 115   2.0000      -0.709779       -19.3141
 116   2.0000      -0.699581       -19.0366
 117   2.0000      -0.687177       -18.6990
 118   2.0000      -0.681684       -18.5496
 119   2.0000      -0.673543       -18.3280
 120   2.0000      -0.661323       -17.9955
 121   2.0000      -0.650884       -17.7114
 122   2.0000      -0.648877       -17.6568
 123   2.0000      -0.643604       -17.5134
 124   2.0000      -0.638696       -17.3798
 125   2.0000      -0.633500       -17.2384
 126   2.0000      -0.618445       -16.8287
 127   2.0000      -0.615089       -16.7374
 128   2.0000      -0.602642       -16.3987
 129   2.0000      -0.600195       -16.3321
 130   2.0000      -0.598608       -16.2889
 131   2.0000      -0.594908       -16.1883
 132   2.0000      -0.589299       -16.0356
 133   2.0000      -0.583441       -15.8762
 134   2.0000      -0.579850       -15.7785
 135   2.0000      -0.578547       -15.7431
 136   2.0000      -0.575852       -15.6697
 137   2.0000      -0.563722       -15.3397
 138   2.0000      -0.558923       -15.2091
 139   2.0000      -0.553483       -15.0610
 140   2.0000      -0.542980       -14.7752
 141   2.0000      -0.533193       -14.5089
 142   2.0000      -0.527695       -14.3593
 143   2.0000      -0.526939       -14.3388
 144   2.0000      -0.524780       -14.2800
 145   2.0000      -0.516247       -14.0478
 146   2.0000      -0.511174       -13.9098
 147   2.0000      -0.507343       -13.8055
 148   2.0000      -0.497708       -13.5433
 149   2.0000      -0.494841       -13.4653
 150   2.0000      -0.492147       -13.3920
 151   2.0000      -0.490198       -13.3390
 152   2.0000      -0.485254       -13.2044
 153   2.0000      -0.482272       -13.1233
 154   2.0000      -0.478694       -13.0259
 155   2.0000      -0.472871       -12.8675
 156   2.0000      -0.470297       -12.7974
 157   2.0000      -0.469049       -12.7635
 158   2.0000      -0.463787       -12.6203
 159   2.0000      -0.461895       -12.5688
 160   2.0000      -0.456929       -12.4337
 161   2.0000      -0.456440       -12.4204
 162   2.0000      -0.453820       -12.3491
 163   2.0000      -0.451945       -12.2981
 164   2.0000      -0.447371       -12.1736
 165   2.0000      -0.440558       -11.9882
 166   2.0000      -0.440411       -11.9842
 167   2.0000      -0.439151       -11.9499
 168   2.0000      -0.432182       -11.7603
 169   2.0000      -0.426294       -11.6000
 170   2.0000      -0.421060       -11.4576
 171   2.0000      -0.417373       -11.3573
 172   2.0000      -0.408393       -11.1129
 173   2.0000      -0.406667       -11.0660
 174   2.0000      -0.405139       -11.0244
 175   2.0000      -0.398297       -10.8382
 176   2.0000      -0.395234       -10.7549
 177   2.0000      -0.390858       -10.6358
 178   2.0000      -0.390006       -10.6126
 179   2.0000      -0.383092       -10.4245
 180   2.0000      -0.379515       -10.3271
 181   2.0000      -0.379299       -10.3212
 182   2.0000      -0.367926       -10.0118
 183   2.0000      -0.366693        -9.9782
 184   2.0000      -0.355593        -9.6762
 185   2.0000      -0.344871        -9.3844
 186   2.0000      -0.338555        -9.2126
 187   2.0000      -0.330388        -8.9903
 188   2.0000      -0.323170        -8.7939
 189   2.0000      -0.315937        -8.5971
 190   2.0000      -0.312027        -8.4907
 191   2.0000      -0.303488        -8.2583
 192   2.0000      -0.293143        -7.9768
 193   2.0000      -0.291202        -7.9240
 194   2.0000      -0.281995        -7.6735
 195   2.0000      -0.265171        -7.2157
 196   2.0000      -0.233489        -6.3536
 197   2.0000      -0.189516        -5.1570
 198   0.0000      -0.084975        -2.3123
 199   0.0000      -0.055845        -1.5196
 200   0.0000      -0.038694        -1.0529
 201   0.0000      -0.008189        -0.2228
 202   0.0000       0.015521         0.4223

MULLIKEN ATOMIC CHARGES
-----------------------
   0 C :   -0.040726
   1 C :   -0.058146
   2 C :    0.042572
   3 C :    0.032378
   4 C :   -0.079011
   5 S :    0.064313
   6 C :   -0.043695
   7 C :    0.021976
   8 C :    0.033256
   9 C :   -0.028796
  10 S :    0.097718
  11 C :    0.011147
  12 C :   -0.177340
  13 S :    0.156434
  14 C :   -0.076218
  15 C :   -0.161791
  16 C :    0.163808
  17 O :   -0.174480
  18 S :    0.005873
  19 C :   -0.126664
  20 S :    0.148339
  21 C :   -0.078676
  22 C :   -0.130254
  23 C :    0.120201
  24 O :   -0.177029
  25 S :    0.018698
  26 C :   -0.135544
  27 S :    0.153853
  28 C :   -0.083553
  29 C :   -0.126194
  30 C :    0.123910
  31 O :   -0.177893
  32 S :    0.016897
  33 C :   -0.165603
  34 S :    0.154257
  35 C :   -0.156364
  36 C :    0.135178
  37 C :    0.152879
  38 O :   -0.188747
  39 C :    0.235607
  40 N :    0.277456
  41 O :   -0.248106
  42 O :   -0.229943
  43 C :   -0.096172
  44 C :    0.048963
  45 C :   -0.017463
  46 H :    0.010627
  47 H :    0.012794
  48 H :   -0.020759
  49 H :   -0.018326
  50 H :   -0.022189
  51 H :   -0.020692
  52 H :   -0.022176
  53 H :    0.177150
  54 H :    0.077215
  55 H :    0.182126
  56 H :    0.083233
  57 H :    0.183607
  58 H :    0.079618
  59 H :    0.017410
  60 H :   -0.008156
  61 H :    0.014262
  62 H :    0.036953
Sum of atomic charges:   -0.0000000

LOEWDIN ATOMIC CHARGES
----------------------
   0 C :   -0.096017
   1 C :   -0.137213
   2 C :   -0.044549
   3 C :   -0.025712
   4 C :   -0.190519
   5 S :    0.339645
   6 C :   -0.180133
   7 C :   -0.045260
   8 C :   -0.031377
   9 C :   -0.156123
  10 S :    0.390567
  11 C :   -0.074544
  12 C :   -0.225232
  13 S :    0.456940
  14 C :   -0.178230
  15 C :   -0.258417
  16 C :    0.001313
  17 O :   -0.044291
  18 S :    0.220243
  19 C :   -0.239046
  20 S :    0.467790
  21 C :   -0.188642
  22 C :   -0.251758
  23 C :    0.001643
  24 O :   -0.046421
  25 S :    0.226811
  26 C :   -0.228011
  27 S :    0.462885
  28 C :   -0.194756
  29 C :   -0.244742
  30 C :    0.000198
  31 O :   -0.046649
  32 S :    0.224205
  33 C :   -0.220071
  34 S :    0.474743
  35 C :   -0.171119
  36 C :   -0.074562
  37 C :    0.016590
  38 O :    0.001908
  39 C :    0.028597
  40 N :    0.273087
  41 O :   -0.209331
  42 O :   -0.191688
  43 C :   -0.007301
  44 C :   -0.043401
  45 C :   -0.029493
  46 H :    0.024526
  47 H :    0.022198
  48 H :    0.029448
  49 H :    0.029852
  50 H :    0.027055
  51 H :    0.029493
  52 H :    0.030592
  53 H :    0.071207
  54 H :   -0.024450
  55 H :    0.079067
  56 H :   -0.021386
  57 H :    0.080499
  58 H :   -0.023138
  59 H :    0.045609
  60 H :    0.032129
  61 H :    0.022841
  62 H :    0.031900

  Mayer bond orders larger than 0.100000
B(  0-C ,  1-C ) :   1.8592 B(  0-C , 46-H ) :   0.9498 B(  0-C , 47-H ) :   0.9413
B(  1-C ,  2-C ) :   1.0839 B(  1-C ,  5-S ) :   1.0104 B(  2-C ,  3-C ) :   1.6542
B(  2-C , 48-H ) :   0.9921 B(  3-C ,  4-C ) :   1.1591 B(  3-C , 49-H ) :   0.9908
B(  4-C ,  5-S ) :   1.0326 B(  4-C ,  6-C ) :   1.5561 B(  6-C ,  7-C ) :   1.1627
B(  6-C , 10-S ) :   1.0326 B(  7-C ,  8-C ) :   1.6123 B(  7-C , 50-H ) :   0.9926
B(  8-C ,  9-C ) :   1.1309 B(  8-C , 51-H ) :   0.9980 B(  9-C , 10-S ) :   1.0403
B(  9-C , 11-C ) :   1.6247 B( 11-C , 12-C ) :   1.1433 B( 11-C , 52-H ) :   0.9423
B( 12-C , 13-S ) :   1.0523 B( 12-C , 14-C ) :   0.1093 B( 12-C , 16-C ) :   1.4486
B( 13-S , 14-C ) :   1.1584 B( 14-C , 15-C ) :   1.5077 B( 14-C , 19-C ) :   1.1969
B( 15-C , 16-C ) :   1.2643 B( 15-C , 18-S ) :   1.0279 B( 16-C , 17-O ) :   1.2664
B( 17-O , 53-H ) :   0.9238 B( 18-S , 54-H ) :   0.9395 B( 19-C , 20-S ) :   1.0466
B( 19-C , 21-C ) :   0.1124 B( 19-C , 23-C ) :   1.4591 B( 20-S , 21-C ) :   1.1403
B( 21-C , 22-C ) :   1.5020 B( 21-C , 26-C ) :   1.1987 B( 22-C , 23-C ) :   1.2726
B( 22-C , 25-S ) :   1.0254 B( 23-C , 24-O ) :   1.2657 B( 24-O , 55-H ) :   0.9285
B( 25-S , 56-H ) :   0.9375 B( 26-C , 27-S ) :   1.0654 B( 26-C , 28-C ) :   0.1154
B( 26-C , 30-C ) :   1.4637 B( 27-S , 28-C ) :   1.1333 B( 28-C , 29-C ) :   1.5196
B( 28-C , 33-C ) :   1.1896 B( 29-C , 30-C ) :   1.2663 B( 29-C , 32-S ) :   1.0241
B( 30-C , 31-O ) :   1.2622 B( 31-O , 57-H ) :   0.9284 B( 32-S , 58-H ) :   0.9377
B( 33-C , 34-S ) :   1.1010 B( 33-C , 35-C ) :   0.1119 B( 33-C , 37-C ) :   1.4579
B( 34-S , 35-C ) :   1.1365 B( 35-C , 36-C ) :   1.3693 B( 35-C , 44-C ) :   1.1321
B( 36-C , 37-C ) :   1.2336 B( 36-C , 43-C ) :   1.0808 B( 37-C , 38-O ) :   1.1097
B( 38-O , 39-C ) :   1.1208 B( 39-C , 40-N ) :   0.9194 B( 39-C , 43-C ) :   1.5738
B( 40-N , 41-O ) :   1.5252 B( 40-N , 42-O ) :   1.5091 B( 41-O , 42-O ) :   0.2817
B( 43-C , 59-H ) :   1.0184 B( 44-C , 45-C ) :   1.9135 B( 44-C , 60-H ) :   0.9489
B( 45-C , 61-H ) :   0.9575 B( 45-C , 62-H ) :   0.9470

-----------------------------------------------------------------------------
         ABSORPTION SPECTRUM VIA TRANSITION ELECTRIC DIPOLE MOMENTS
-----------------------------------------------------------------------------
State   Energy  Wavelength   fosc         T2         TX        TY        TZ
        (cm-1)    (nm)                  (au**2)     (au)      (au)      (au)
-----------------------------------------------------------------------------
   0   13609.3    734.8   0.955820064  23.12154   3.73525   2.42931  -1.80773
   1   17015.1    587.7   1.001612862  19.37945  -3.79654  -2.18205   0.45209
   2   19797.2    505.1   0.256966744   4.27317  -1.50864  -0.93221   1.06216
   3   21463.7    465.9   0.202387019   3.10422   0.50288  -0.04888   1.68788
   4   24279.3    411.9   0.240342105   3.25888  -0.91084  -0.86736   1.29497
   5   27301.2    366.3   0.285994800   3.44868   0.68940   0.49782  -1.65093
   6   27527.5    363.3   0.008415060   0.10064  -0.03908   0.23828   0.20575
   7   29122.4    343.4   0.143114625   1.61783  -0.76415  -0.78800  -0.64262
   8   30147.0    331.7   0.111862964   1.22157  -0.58620  -0.87950  -0.32315
   9   31294.8    319.5   0.026850569   0.28246   0.29867  -0.13390  -0.41872
  10   31896.4    313.5   0.003718573   0.03838  -0.06672  -0.03407   0.18102
  11   32591.0    306.8   0.108021307   1.09116  -0.20084  -0.63153  -0.80746
  12   33248.0    300.8   0.003557552   0.03523  -0.09213   0.04161   0.15813
  13   33395.1    299.4   0.026718055   0.26339   0.06796  -0.31331  -0.40076
  14   33893.3    295.0   0.085260940   0.82815   0.09198  -0.24600  -0.87131
  15   34353.7    291.1   0.017203177   0.16486  -0.02540   0.26288   0.30840
  16   34740.8    287.8   0.131744932   1.24844   0.26730   0.84120   0.68511
  17   35161.5    284.4   0.078639109   0.73629  -0.02678   0.41111   0.75270
  18   35312.2    283.2   0.059787738   0.55739   0.20789   0.01055  -0.71698
  19   35600.9    280.9   0.012774322   0.11813  -0.08358  -0.10556   0.31623
  20   35912.6    278.5   0.071315331   0.65375   0.04731   0.52139   0.61617
  21   36742.9    272.2   0.292728869   2.62282   0.27604   1.13034   1.12648
  22   37785.7    264.7   0.031015033   0.27022   0.40526   0.27415  -0.17559
  23   38127.3    262.3   0.006693658   0.05780  -0.18187  -0.09269   0.12700
  24   38163.8    262.0   0.011104067   0.09579  -0.19151  -0.04323   0.23925
  25   38205.7    261.7   0.015686558   0.13517   0.25527   0.26458   0.00147
  26   38669.6    258.6   0.034205221   0.29120   0.25505   0.43354   0.19546
  27   39365.4    254.0   0.017381245   0.14536   0.33252   0.14617  -0.11587
  28   39470.8    253.4   0.063869631   0.53271  -0.40002  -0.34792  -0.50165
  29   39852.2    250.9   0.008603282   0.07107   0.24977  -0.06323   0.06844
  30   40208.9    248.7   0.024554783   0.20104  -0.30672   0.16516   0.28229
  31   40233.9    248.5   0.023744229   0.19429  -0.32512  -0.26064   0.14370

FINAL SINGLE POINT ENERGY     -5239.921554243832

DIPOLE MOMENT
-------------
                                X             Y             Z
Electronic contribution:    -24.54612     -12.47960       2.35217
Nuclear contribution   :     22.72834      11.64627       0.28029
                        -----------------------------------------
Total Dipole Moment    :     -1.81777      -0.83333       2.63247
                        -----------------------------------------
Magnitude (a.u.)       :      3.30585
Magnitude (Debye)      :      8.40279

Rotational constants in cm-1:     0.004420     0.000459     0.000425
Rotational constants in MHz :   132.515522    13.769338    12.751257

                             ****ORCA TERMINATED NORMALLY****
TOTAL RUN TIME: 0 days 0 hours 4 minutes 20 seconds 665 msec
