                         Program Version 4.2.0 -  RELEASE  -
|  1> # ORCA input file
|  2> # SCF done       -172.118030622913          0.000234717548
|  3> ! CAM-B3LYP def2-SVP def2/J RIJCOSX Grid4 TightSCF
|  4> %maxcore 5000
|  5> %tddft
|  6>     Mode sTDDFT
|  7>     Ethresh 5.0
|  8>     maxcore 5000
|  9> end
| 10>
| 11> %pal
| 12>   nprocs 6
| 13>   end
| 14> * xyz 0 1
| 15>    C       -2.25911        -5.52931        -6.96744
| 16>    C       -1.12036        -5.30123        -6.29421
| 17>    C       -0.78507        -4.16618        -5.48904
| 18>    C        0.44960        -4.22336        -4.93201
| 19>    C        1.17962        -5.39567        -5.25031
| 20>    S        0.23875        -6.43680        -6.29109
| 21>    C        2.45852        -5.72596        -4.83197
| 22>    C        3.31643        -4.98272        -4.00166
| 23>    C        4.52697        -5.58579        -3.78047
| 24>    C        4.67911        -6.82403        -4.42229
| 25>    S        3.23322        -7.21752        -5.32200
| 26>    C        5.80429        -7.64557        -4.38683
| 27>    C        5.92190        -8.84604        -5.04341
| 28>    C        7.06731        -9.64458        -5.03063
| 29>    C        7.25760       -10.85279        -5.70911
| 30>    C        8.51127       -11.39531        -5.54103
| 31>    C        9.34638       -10.62986        -4.72111
| 32>    S        8.51550        -9.21147        -4.15056
| 33>    C       10.68390       -10.87206        -4.38154
| 34>    C       11.51461       -11.89702        -4.85220
| 35>    C       12.79437       -11.81443        -4.36727
| 36>    C       13.01793       -10.71395        -3.51816
| 37>    S       11.55345        -9.80092        -3.31988
| 38>    C       14.23377       -10.47471        -2.87771
| 39>    C       14.65210        -9.41193        -2.10422
| 40>    C       14.16517        -8.12454        -1.84295
| 41>    C       14.91817        -7.39280        -0.89857
| 42>    C       16.07964        -8.03520        -0.36959
| 43>    O       16.89543        -7.65133         0.43317
| 44>    S       16.15696        -9.64965        -1.17421
| 45>    C       14.32648        -6.13354        -0.74393
| 46>    O       13.24716        -6.06066        -1.57891
| 47>    C       13.14107        -7.22850        -2.32512
| 48>    O       12.33208        -7.31095        -3.21771
| 49>    C       14.69545        -5.05902         0.05632
| 50>    S       16.15146        -5.12027         1.00468
| 51>    C       15.93288        -3.49492         1.59436
| 52>    C       14.72995        -2.93624         1.09241
| 53>    C       14.03360        -3.81328         0.21831
| 54>    C       12.82607        -3.41581        -0.36947
| 55>    C       12.33454        -2.16843        -0.08208
| 56>    F       11.17466        -1.76503        -0.62782
| 57>    C       13.02183        -1.29700         0.78059
| 58>    F       12.50580        -0.08135         1.03779
| 59>    C       14.20563        -1.66532         1.36444
| 60>    C       16.87413        -2.87292         2.41369
| 61>    C       18.06105        -3.45677         2.79291
| 62>    C       19.06000        -2.84220         3.55317
| 63>    C       20.27319        -3.42502         3.85643
| 64>    C       21.17258        -2.63513         4.57567
| 65>    S       20.48826        -1.06220         4.95127
| 66>    C       18.92642        -1.44833         4.09192
| 67>    C       22.46714        -2.96531         4.95385
| 68>    C       23.15847        -4.16939         4.72629
| 69>    C       24.44221        -4.16896         5.19451
| 70>    C       24.82515        -2.96366         5.81371
| 71>    S       23.48964        -1.82395         5.79630
| 72>    C       26.04997        -2.64542         6.36085
| 73>    S       27.38973        -3.77801         6.36617
| 74>    C       28.49767        -2.58724         7.19046
| 75>    C       27.69966        -1.34135         7.41660
| 76>    C       26.42098        -1.42279         6.96407
| 77>    C       28.26692        -0.18763         8.05165
| 78>    C       29.52204        -0.08725         8.49522
| 79>    H       -3.06218        -4.81419        -6.94425
| 80>    H       -2.40482        -6.42323        -7.54537
| 81>    H       -1.48082        -3.35632        -5.36156
| 82>    H        0.86394        -3.45812        -4.30015
| 83>    H        3.03349        -4.03141        -3.58893
| 84>    H        5.31043        -5.16597        -3.17469
| 85>    H        6.64380        -7.29044        -3.80253
| 86>    H        5.08362        -9.20477        -5.62803
| 87>    H        6.48323       -11.29527        -6.31069
| 88>    H        8.83416       -12.31600        -5.99211
| 89>    H       11.17423       -12.65504        -5.53412
| 90>    H       13.58178       -12.50410        -4.61537
| 91>    H       14.95588       -11.27744        -2.97442
| 92>    H       12.28869        -4.07035        -1.03466
| 93>    H       14.70728        -0.97564         2.02301
| 94>    H       16.65392        -1.86475         2.73532
| 95>    H       18.25762        -4.46549         2.45491
| 96>    H       20.52444        -4.42261         3.54131
| 97>    H       18.78374        -0.71016         3.30108
| 98>    H       18.11004        -1.36005         4.81069
| 99>    H       22.70159        -5.00280         4.22447
|100>    H       25.12881        -4.99306         5.11097
|101>    H       29.35856        -2.41462         6.54179
|102>    H       28.84604        -3.03156         8.12456
|103>    H       25.70521        -0.62111         7.04100
|104>    H       27.59146         0.65037         8.16158
|105>    H       30.23109        -0.89256         8.40810
|106>    H       29.87790         0.81379         8.96232
|107> *
|108>
|109>                          ****END OF INPUT****

CARTESIAN COORDINATES (ANGSTROEM)
---------------------------------
  C     -2.259110   -5.529310   -6.967440
  C     -1.120360   -5.301230   -6.294210
  C     -0.785070   -4.166180   -5.489040
  C      0.449600   -4.223360   -4.932010
  C      1.179620   -5.395670   -5.250310
  S      0.238750   -6.436800   -6.291090
  C      2.458520   -5.725960   -4.831970
  C      3.316430   -4.982720   -4.001660
  C      4.526970   -5.585790   -3.780470
  C      4.679110   -6.824030   -4.422290
  S      3.233220   -7.217520   -5.322000
  C      5.804290   -7.645570   -4.386830
  C      5.921900   -8.846040   -5.043410
  C      7.067310   -9.644580   -5.030630
  C      7.257600  -10.852790   -5.709110
  C      8.511270  -11.395310   -5.541030
  C      9.346380  -10.629860   -4.721110
  S      8.515500   -9.211470   -4.150560
  C     10.683900  -10.872060   -4.381540
  C     11.514610  -11.897020   -4.852200
  C     12.794370  -11.814430   -4.367270
  C     13.017930  -10.713950   -3.518160
  S     11.553450   -9.800920   -3.319880
  C     14.233770  -10.474710   -2.877710
  C     14.652100   -9.411930   -2.104220
  C     14.165170   -8.124540   -1.842950
  C     14.918170   -7.392800   -0.898570
  C     16.079640   -8.035200   -0.369590
  O     16.895430   -7.651330    0.433170
  S     16.156960   -9.649650   -1.174210
  C     14.326480   -6.133540   -0.743930
  O     13.247160   -6.060660   -1.578910
  C     13.141070   -7.228500   -2.325120
  O     12.332080   -7.310950   -3.217710
  C     14.695450   -5.059020    0.056320
  S     16.151460   -5.120270    1.004680
  C     15.932880   -3.494920    1.594360
  C     14.729950   -2.936240    1.092410
  C     14.033600   -3.813280    0.218310
  C     12.826070   -3.415810   -0.369470
  C     12.334540   -2.168430   -0.082080
  F     11.174660   -1.765030   -0.627820
  C     13.021830   -1.297000    0.780590
  F     12.505800   -0.081350    1.037790
  C     14.205630   -1.665320    1.364440
  C     16.874130   -2.872920    2.413690
  C     18.061050   -3.456770    2.792910
  C     19.060000   -2.842200    3.553170
  C     20.273190   -3.425020    3.856430
  C     21.172580   -2.635130    4.575670
  S     20.488260   -1.062200    4.951270
  C     18.926420   -1.448330    4.091920
  C     22.467140   -2.965310    4.953850
  C     23.158470   -4.169390    4.726290
  C     24.442210   -4.168960    5.194510
  C     24.825150   -2.963660    5.813710
  S     23.489640   -1.823950    5.796300
  C     26.049970   -2.645420    6.360850
  S     27.389730   -3.778010    6.366170
  C     28.497670   -2.587240    7.190460
  C     27.699660   -1.341350    7.416600
  C     26.420980   -1.422790    6.964070
  C     28.266920   -0.187630    8.051650
  C     29.522040   -0.087250    8.495220
  H     -3.062180   -4.814190   -6.944250
  H     -2.404820   -6.423230   -7.545370
  H     -1.480820   -3.356320   -5.361560
  H      0.863940   -3.458120   -4.300150
  H      3.033490   -4.031410   -3.588930
  H      5.310430   -5.165970   -3.174690
  H      6.643800   -7.290440   -3.802530
  H      5.083620   -9.204770   -5.628030
  H      6.483230  -11.295270   -6.310690
  H      8.834160  -12.316000   -5.992110
  H     11.174230  -12.655040   -5.534120
  H     13.581780  -12.504100   -4.615370
  H     14.955880  -11.277440   -2.974420
  H     12.288690   -4.070350   -1.034660
  H     14.707280   -0.975640    2.023010
  H     16.653920   -1.864750    2.735320
  H     18.257620   -4.465490    2.454910
  H     20.524440   -4.422610    3.541310
  H     18.783740   -0.710160    3.301080
  H     18.110040   -1.360050    4.810690
  H     22.701590   -5.002800    4.224470
  H     25.128810   -4.993060    5.110970
  H     29.358560   -2.414620    6.541790
  H     28.846040   -3.031560    8.124560
  H     25.705210   -0.621110    7.041000
  H     27.591460    0.650370    8.161580
  H     30.231090   -0.892560    8.408100
  H     29.877900    0.813790    8.962320

 Total Charge           Charge          ....    0
 Multiplicity           Mult            ....    1
 Number of Electrons    NEL             ....  514
 Basis Dimension        Dim             .... 1072

ORBITAL ENERGIES
----------------

  NO   OCC          E(Eh)            E(eV)
   0   2.0000     -88.957193     -2420.6483
   1   2.0000     -88.952881     -2420.5310
   2   2.0000     -88.949909     -2420.4501
   3   2.0000     -88.948446     -2420.4103
   4   2.0000     -88.940338     -2420.1896
   5   2.0000     -88.937216     -2420.1047
   6   2.0000     -88.926863     -2419.8230
   7   2.0000     -88.922409     -2419.7018
   8   2.0000     -88.922240     -2419.6972
   9   2.0000     -24.778367      -674.2536
  10   2.0000     -24.776866      -674.2128
  11   2.0000     -19.267254      -524.2886
  12   2.0000     -19.192277      -522.2484
  13   2.0000     -19.184524      -522.0375
  14   2.0000     -10.383900      -282.5603
  15   2.0000     -10.361158      -281.9414
  16   2.0000     -10.359083      -281.8850
  17   2.0000     -10.358142      -281.8594
  18   2.0000     -10.348300      -281.5916
  19   2.0000     -10.322386      -280.8864
  20   2.0000     -10.316090      -280.7151
  21   2.0000     -10.315834      -280.7081
  22   2.0000     -10.315523      -280.6996
  23   2.0000     -10.315176      -280.6902
  24   2.0000     -10.307544      -280.4825
  25   2.0000     -10.305832      -280.4359
  26   2.0000     -10.304512      -280.4000
  27   2.0000     -10.303920      -280.3839
  28   2.0000     -10.303674      -280.3772
  29   2.0000     -10.303622      -280.3758
  30   2.0000     -10.303159      -280.3632
  31   2.0000     -10.300255      -280.2842
  32   2.0000     -10.299866      -280.2736
  33   2.0000     -10.299521      -280.2642
  34   2.0000     -10.299022      -280.2506
  35   2.0000     -10.297364      -280.2055
  36   2.0000     -10.296598      -280.1847
  37   2.0000     -10.294276      -280.1215
  38   2.0000     -10.293999      -280.1139
  39   2.0000     -10.290253      -280.0120
  40   2.0000     -10.290169      -280.0097
  41   2.0000     -10.289547      -279.9928
  42   2.0000     -10.287569      -279.9390
  43   2.0000     -10.286960      -279.9224
  44   2.0000     -10.286074      -279.8983
  45   2.0000     -10.284296      -279.8499
  46   2.0000     -10.283726      -279.8344
  47   2.0000     -10.283557      -279.8298
  48   2.0000     -10.282927      -279.8127
  49   2.0000     -10.281734      -279.7802
  50   2.0000     -10.281695      -279.7791
  51   2.0000     -10.280742      -279.7532
  52   2.0000     -10.280253      -279.7399
  53   2.0000     -10.279068      -279.7077
  54   2.0000     -10.278772      -279.6996
  55   2.0000     -10.278170      -279.6832
  56   2.0000     -10.278041      -279.6797
  57   2.0000     -10.276249      -279.6310
  58   2.0000     -10.276209      -279.6299
  59   2.0000     -10.273219      -279.5485
  60   2.0000     -10.272319      -279.5240
  61   2.0000     -10.271096      -279.4907
  62   2.0000     -10.266077      -279.3541
  63   2.0000     -10.263123      -279.2738
  64   2.0000      -8.051021      -219.0794
  65   2.0000      -8.049214      -219.0302
  66   2.0000      -8.046518      -218.9569
  67   2.0000      -8.044757      -218.9090
  68   2.0000      -8.035883      -218.6675
  69   2.0000      -8.033278      -218.5966
  70   2.0000      -8.023192      -218.3222
  71   2.0000      -8.019770      -218.2290
  72   2.0000      -8.018679      -218.1994
  73   2.0000      -6.020287      -163.8203
  74   2.0000      -6.018816      -163.7803
  75   2.0000      -6.016264      -163.7109
  76   2.0000      -6.015951      -163.7023
  77   2.0000      -6.014871      -163.6730
  78   2.0000      -6.014275      -163.6567
  79   2.0000      -6.013351      -163.6316
  80   2.0000      -6.012336      -163.6040
  81   2.0000      -6.010308      -163.5488
  82   2.0000      -6.010235      -163.5468
  83   2.0000      -6.007243      -163.4654
  84   2.0000      -6.006070      -163.4335
  85   2.0000      -6.005350      -163.4139
  86   2.0000      -6.003089      -163.3524
  87   2.0000      -6.001075      -163.2976
  88   2.0000      -5.999054      -163.2426
  89   2.0000      -5.997444      -163.1988
  90   2.0000      -5.994123      -163.1084
  91   2.0000      -5.993552      -163.0928
  92   2.0000      -5.989431      -162.9807
  93   2.0000      -5.989217      -162.9749
  94   2.0000      -5.989103      -162.9718
  95   2.0000      -5.985380      -162.8705
  96   2.0000      -5.984871      -162.8566
  97   2.0000      -5.982927      -162.8037
  98   2.0000      -5.980763      -162.7448
  99   2.0000      -5.978369      -162.6797
 100   2.0000      -1.299021       -35.3482
 101   2.0000      -1.284128       -34.9429
 102   2.0000      -1.195341       -32.5269
 103   2.0000      -1.114373       -30.3236
 104   2.0000      -1.094412       -29.7805
 105   2.0000      -1.001809       -27.2606
 106   2.0000      -0.995392       -27.0860
 107   2.0000      -0.994547       -27.0630
 108   2.0000      -0.986772       -26.8514
 109   2.0000      -0.979099       -26.6426
 110   2.0000      -0.971932       -26.4476
 111   2.0000      -0.969676       -26.3862
 112   2.0000      -0.954231       -25.9660
 113   2.0000      -0.953920       -25.9575
 114   2.0000      -0.935601       -25.4590
 115   2.0000      -0.909602       -24.7515
 116   2.0000      -0.905531       -24.6408
 117   2.0000      -0.888825       -24.1862
 118   2.0000      -0.884717       -24.0744
 119   2.0000      -0.875586       -23.8259
 120   2.0000      -0.870781       -23.6952
 121   2.0000      -0.855545       -23.2806
 122   2.0000      -0.852328       -23.1930
 123   2.0000      -0.850883       -23.1537
 124   2.0000      -0.840916       -22.8825
 125   2.0000      -0.838942       -22.8288
 126   2.0000      -0.836960       -22.7748
 127   2.0000      -0.829890       -22.5825
 128   2.0000      -0.827187       -22.5089
 129   2.0000      -0.825741       -22.4696
 130   2.0000      -0.822444       -22.3798
 131   2.0000      -0.817355       -22.2414
 132   2.0000      -0.813895       -22.1472
 133   2.0000      -0.809750       -22.0344
 134   2.0000      -0.804572       -21.8935
 135   2.0000      -0.782906       -21.3040
 136   2.0000      -0.771510       -20.9938
 137   2.0000      -0.758417       -20.6376
 138   2.0000      -0.749198       -20.3867
 139   2.0000      -0.731476       -19.9045
 140   2.0000      -0.726746       -19.7758
 141   2.0000      -0.711983       -19.3740
 142   2.0000      -0.706146       -19.2152
 143   2.0000      -0.700856       -19.0713
 144   2.0000      -0.699900       -19.0452
 145   2.0000      -0.694166       -18.8892
 146   2.0000      -0.687171       -18.6989
 147   2.0000      -0.679471       -18.4893
 148   2.0000      -0.675497       -18.3812
 149   2.0000      -0.662715       -18.0334
 150   2.0000      -0.658456       -17.9175
 151   2.0000      -0.650436       -17.6993
 152   2.0000      -0.643502       -17.5106
 153   2.0000      -0.634291       -17.2599
 154   2.0000      -0.632082       -17.1998
 155   2.0000      -0.626942       -17.0600
 156   2.0000      -0.625398       -17.0179
 157   2.0000      -0.621086       -16.9006
 158   2.0000      -0.618565       -16.8320
 159   2.0000      -0.610012       -16.5993
 160   2.0000      -0.609214       -16.5775
 161   2.0000      -0.605946       -16.4886
 162   2.0000      -0.604487       -16.4489
 163   2.0000      -0.601462       -16.3666
 164   2.0000      -0.597315       -16.2538
 165   2.0000      -0.593633       -16.1536
 166   2.0000      -0.592132       -16.1127
 167   2.0000      -0.584544       -15.9063
 168   2.0000      -0.577129       -15.7045
 169   2.0000      -0.570359       -15.5203
 170   2.0000      -0.564915       -15.3721
 171   2.0000      -0.562762       -15.3135
 172   2.0000      -0.560369       -15.2484
 173   2.0000      -0.556573       -15.1451
 174   2.0000      -0.548060       -14.9135
 175   2.0000      -0.543807       -14.7977
 176   2.0000      -0.538164       -14.6442
 177   2.0000      -0.536585       -14.6012
 178   2.0000      -0.534965       -14.5571
 179   2.0000      -0.531966       -14.4755
 180   2.0000      -0.527071       -14.3423
 181   2.0000      -0.526487       -14.3264
 182   2.0000      -0.522778       -14.2255
 183   2.0000      -0.519557       -14.1379
 184   2.0000      -0.515771       -14.0348
 185   2.0000      -0.511498       -13.9186
 186   2.0000      -0.510899       -13.9023
 187   2.0000      -0.507224       -13.8023
 188   2.0000      -0.503782       -13.7086
 189   2.0000      -0.503152       -13.6915
 190   2.0000      -0.500642       -13.6232
 191   2.0000      -0.495096       -13.4722
 192   2.0000      -0.493577       -13.4309
 193   2.0000      -0.490838       -13.3564
 194   2.0000      -0.490698       -13.3526
 195   2.0000      -0.489252       -13.3132
 196   2.0000      -0.486472       -13.2376
 197   2.0000      -0.485605       -13.2140
 198   2.0000      -0.483232       -13.1494
 199   2.0000      -0.482448       -13.1281
 200   2.0000      -0.480143       -13.0654
 201   2.0000      -0.479199       -13.0397
 202   2.0000      -0.472978       -12.8704
 203   2.0000      -0.472530       -12.8582
 204   2.0000      -0.470962       -12.8155
 205   2.0000      -0.469538       -12.7768
 206   2.0000      -0.465140       -12.6571
 207   2.0000      -0.463866       -12.6224
 208   2.0000      -0.463000       -12.5989
 209   2.0000      -0.459771       -12.5110
 210   2.0000      -0.456460       -12.4209
 211   2.0000      -0.451224       -12.2784
 212   2.0000      -0.448162       -12.1951
 213   2.0000      -0.445378       -12.1193
 214   2.0000      -0.442059       -12.0290
 215   2.0000      -0.438712       -11.9380
 216   2.0000      -0.437793       -11.9130
 217   2.0000      -0.433593       -11.7987
 218   2.0000      -0.432820       -11.7776
 219   2.0000      -0.430275       -11.7084
 220   2.0000      -0.429290       -11.6816
 221   2.0000      -0.426018       -11.5925
 222   2.0000      -0.420597       -11.4450
 223   2.0000      -0.417963       -11.3733
 224   2.0000      -0.416378       -11.3302
 225   2.0000      -0.414711       -11.2849
 226   2.0000      -0.413215       -11.2442
 227   2.0000      -0.405949       -11.0464
 228   2.0000      -0.404998       -11.0206
 229   2.0000      -0.400341       -10.8938
 230   2.0000      -0.398367       -10.8401
 231   2.0000      -0.394802       -10.7431
 232   2.0000      -0.391773       -10.6607
 233   2.0000      -0.384576       -10.4648
 234   2.0000      -0.383614       -10.4387
 235   2.0000      -0.377258       -10.2657
 236   2.0000      -0.373863       -10.1733
 237   2.0000      -0.355045        -9.6613
 238   2.0000      -0.348480        -9.4826
 239   2.0000      -0.344300        -9.3689
 240   2.0000      -0.343211        -9.3393
 241   2.0000      -0.332542        -9.0489
 242   2.0000      -0.330973        -9.0062
 243   2.0000      -0.324476        -8.8294
 244   2.0000      -0.323216        -8.7951
 245   2.0000      -0.313984        -8.5439
 246   2.0000      -0.309654        -8.4261
 247   2.0000      -0.307181        -8.3588
 248   2.0000      -0.305168        -8.3040
 249   2.0000      -0.301582        -8.2065
 250   2.0000      -0.298731        -8.1289
 251   2.0000      -0.291189        -7.9236
 252   2.0000      -0.276472        -7.5232
 253   2.0000      -0.258213        -7.0263
 254   2.0000      -0.230010        -6.2589
 255   2.0000      -0.201874        -5.4933
 256   2.0000      -0.179526        -4.8851
 257   0.0000      -0.111910        -3.0452
 258   0.0000      -0.083026        -2.2592
 259   0.0000      -0.052791        -1.4365
 260   0.0000      -0.039922        -1.0863
 261   0.0000      -0.011562        -0.3146

MULLIKEN ATOMIC CHARGES
-----------------------
   0 C :   -0.017401
   1 C :   -0.073384
   2 C :    0.056894
   3 C :    0.027262
   4 C :   -0.059089
   5 S :    0.093784
   6 C :   -0.046739
   7 C :    0.024784
   8 C :    0.026678
   9 C :   -0.021649
  10 S :    0.088617
  11 C :   -0.014995
  12 C :    0.007955
  13 C :   -0.038916
  14 C :    0.034665
  15 C :    0.010044
  16 C :   -0.029534
  17 S :    0.112732
  18 C :   -0.063051
  19 C :    0.028117
  20 C :    0.016958
  21 C :   -0.025930
  22 S :    0.178610
  23 C :    0.000734
  24 C :   -0.123472
  25 C :   -0.016445
  26 C :   -0.032060
  27 C :    0.036878
  28 O :   -0.190043
  29 S :    0.014452
  30 C :    0.146563
  31 O :   -0.257388
  32 C :    0.200269
  33 O :   -0.169888
  34 C :   -0.164997
  35 S :    0.195446
  36 C :   -0.041457
  37 C :    0.117367
  38 C :    0.123474
  39 C :   -0.121681
  40 C :    0.234721
  41 F :   -0.181431
  42 C :    0.226004
  43 F :   -0.183704
  44 C :   -0.121405
  45 C :   -0.045208
  46 C :    0.000449
  47 C :   -0.064489
  48 C :   -0.003068
  49 C :   -0.039635
  50 S :   -0.011054
  51 C :    0.053022
  52 C :   -0.047892
  53 C :    0.021963
  54 C :    0.008104
  55 C :   -0.050338
  56 S :    0.077753
  57 C :   -0.052136
  58 S :   -0.011844
  59 C :    0.037412
  60 C :   -0.061347
  61 C :   -0.007722
  62 C :    0.009328
  63 C :   -0.024988
  64 H :    0.026499
  65 H :    0.027428
  66 H :   -0.005747
  67 H :   -0.006892
  68 H :   -0.010212
  69 H :   -0.004629
  70 H :    0.003304
  71 H :   -0.002605
  72 H :   -0.010852
  73 H :   -0.013744
  74 H :   -0.017359
  75 H :   -0.015086
  76 H :   -0.015893
  77 H :    0.014548
  78 H :   -0.015806
  79 H :   -0.018819
  80 H :   -0.000753
  81 H :   -0.012561
  82 H :    0.066543
  83 H :    0.065092
  84 H :   -0.013664
  85 H :   -0.004370
  86 H :    0.068614
  87 H :    0.066712
  88 H :   -0.002025
  89 H :   -0.010074
  90 H :    0.017740
  91 H :    0.027949
Sum of atomic charges:   -0.0000000

LOEWDIN ATOMIC CHARGES
----------------------
   0 C :   -0.062208
   1 C :   -0.141134
   2 C :   -0.024725
   3 C :   -0.027664
   4 C :   -0.166729
   5 S :    0.365978
   6 C :   -0.184228
   7 C :   -0.025945
   8 C :   -0.037982
   9 C :   -0.133783
  10 S :    0.385280
  11 C :   -0.068311
  12 C :   -0.035983
  13 C :   -0.160109
  14 C :   -0.026058
  15 C :   -0.046134
  16 C :   -0.156114
  17 S :    0.410716
  18 C :   -0.198036
  19 C :   -0.033802
  20 C :   -0.046849
  21 C :   -0.137757
  22 S :    0.477444
  23 C :   -0.098086
  24 C :   -0.117725
  25 C :   -0.139975
  26 C :   -0.145883
  27 C :   -0.065355
  28 O :   -0.189654
  29 S :    0.321651
  30 C :    0.068173
  31 O :   -0.047112
  32 C :    0.081791
  33 O :   -0.175151
  34 C :   -0.201000
  35 S :    0.526270
  36 C :   -0.155649
  37 C :   -0.047130
  38 C :   -0.028815
  39 C :   -0.032862
  40 C :    0.061743
  41 F :   -0.058417
  42 C :    0.058788
  43 F :   -0.061823
  44 C :   -0.039741
  45 C :   -0.060501
  46 C :   -0.017532
  47 C :   -0.049608
  48 C :   -0.022814
  49 C :   -0.181670
  50 S :    0.287822
  51 C :   -0.111981
  52 C :   -0.179943
  53 C :   -0.032843
  54 C :   -0.039331
  55 C :   -0.189842
  56 S :    0.371668
  57 C :   -0.170106
  58 S :    0.298651
  59 C :   -0.110896
  60 C :   -0.034208
  61 C :   -0.036228
  62 C :   -0.025279
  63 C :   -0.042239
  64 H :    0.031372
  65 H :    0.028702
  66 H :    0.035586
  67 H :    0.034431
  68 H :    0.033038
  69 H :    0.037052
  70 H :    0.031694
  71 H :    0.030254
  72 H :    0.034277
  73 H :    0.031790
  74 H :    0.029928
  75 H :    0.031470
  76 H :    0.033636
  77 H :    0.045004
  78 H :    0.037995
  79 H :    0.028353
  80 H :    0.028863
  81 H :    0.033063
  82 H :    0.032640
  83 H :    0.033252
  84 H :    0.032024
  85 H :    0.030518
  86 H :    0.035045
  87 H :    0.034611
  88 H :    0.030385
  89 H :    0.033078
  90 H :    0.021140
  91 H :    0.027776

  Mayer bond orders larger than 0.100000
B(  0-C ,  1-C ) :   1.8496 B(  0-C , 64-H ) :   0.9508 B(  0-C , 65-H ) :   0.9415
B(  1-C ,  2-C ) :   1.0902 B(  1-C ,  5-S ) :   1.0079 B(  2-C ,  3-C ) :   1.6371
B(  2-C , 66-H ) :   0.9932 B(  3-C ,  4-C ) :   1.1761 B(  3-C , 67-H ) :   0.9931
B(  4-C ,  5-S ) :   1.0649 B(  4-C ,  6-C ) :   1.4839 B(  6-C ,  7-C ) :   1.2228
B(  6-C , 10-S ) :   1.0469 B(  7-C ,  8-C ) :   1.5268 B(  7-C , 68-H ) :   0.9950
B(  8-C ,  9-C ) :   1.2102 B(  8-C , 69-H ) :   1.0012 B(  9-C , 10-S ) :   1.0634
B(  9-C , 11-C ) :   1.4512 B( 11-C , 12-C ) :   1.2847 B( 11-C , 70-H ) :   0.9723
B( 12-C , 13-C ) :   1.4382 B( 12-C , 71-H ) :   0.9727 B( 13-C , 14-C ) :   1.2378
B( 13-C , 17-S ) :   1.0540 B( 14-C , 15-C ) :   1.4775 B( 14-C , 72-H ) :   1.0010
B( 15-C , 16-C ) :   1.2779 B( 15-C , 73-H ) :   0.9967 B( 16-C , 17-S ) :   1.0937
B( 16-C , 18-C ) :   1.3570 B( 18-C , 19-C ) :   1.2623 B( 18-C , 22-S ) :   1.0923
B( 19-C , 20-C ) :   1.4961 B( 19-C , 74-H ) :   0.9939 B( 20-C , 21-C ) :   1.2225
B( 20-C , 75-H ) :   0.9999 B( 21-C , 22-S ) :   1.1186 B( 21-C , 23-C ) :   1.4061
B( 23-C , 24-C ) :   1.3657 B( 23-C , 76-H ) :   0.9388 B( 24-C , 25-C ) :   1.2964
B( 24-C , 29-S ) :   1.0494 B( 25-C , 26-C ) :   1.2069 B( 25-C , 32-C ) :   1.0194
B( 26-C , 27-C ) :   0.9740 B( 26-C , 30-C ) :   1.3095 B( 27-C , 28-O ) :   2.0873
B( 27-C , 29-S ) :   1.0256 B( 28-O , 29-S ) :   0.1154 B( 30-C , 31-O ) :   1.1376
B( 30-C , 34-C ) :   1.3232 B( 31-O , 32-C ) :   0.9934 B( 32-C , 33-O ) :   2.1486
B( 34-C , 35-S ) :   1.1329 B( 34-C , 36-C ) :   0.1015 B( 34-C , 38-C ) :   1.2367
B( 35-S , 36-C ) :   1.1198 B( 36-C , 37-C ) :   1.2449 B( 36-C , 45-C ) :   1.2581
B( 37-C , 38-C ) :   1.2336 B( 37-C , 44-C ) :   1.1935 B( 38-C , 39-C ) :   1.2161
B( 39-C , 40-C ) :   1.4364 B( 39-C , 44-C ) :   0.1148 B( 39-C , 77-H ) :   1.0002
B( 40-C , 41-F ) :   1.1212 B( 40-C , 42-C ) :   1.1874 B( 42-C , 43-F ) :   1.1238
B( 42-C , 44-C ) :   1.4718 B( 44-C , 78-H ) :   0.9985 B( 45-C , 46-C ) :   1.5064
B( 45-C , 79-H ) :   0.9649 B( 46-C , 47-C ) :   1.2437 B( 46-C , 80-H ) :   0.9802
B( 47-C , 48-C ) :   1.5119 B( 47-C , 51-C ) :   1.0401 B( 48-C , 49-C ) :   1.2258
B( 48-C , 81-H ) :   0.9960 B( 49-C , 50-S ) :   1.0343 B( 49-C , 52-C ) :   1.4591
B( 50-S , 51-C ) :   0.9800 B( 51-C , 82-H ) :   0.9178 B( 51-C , 83-H ) :   0.9195
B( 52-C , 53-C ) :   1.2152 B( 52-C , 56-S ) :   1.0538 B( 53-C , 54-C ) :   1.5716
B( 53-C , 84-H ) :   0.9926 B( 54-C , 55-C ) :   1.1792 B( 54-C , 85-H ) :   0.9930
B( 55-C , 56-S ) :   1.0327 B( 55-C , 57-C ) :   1.5609 B( 57-C , 58-S ) :   1.0494
B( 57-C , 61-C ) :   1.1331 B( 58-S , 59-C ) :   0.9860 B( 59-C , 60-C ) :   1.0389
B( 59-C , 86-H ) :   0.9192 B( 59-C , 87-H ) :   0.9197 B( 60-C , 61-C ) :   1.6495
B( 60-C , 62-C ) :   1.1367 B( 61-C , 88-H ) :   0.9906 B( 62-C , 63-C ) :   1.8968
B( 62-C , 89-H ) :   0.9681 B( 63-C , 90-H ) :   0.9503 B( 63-C , 91-H ) :   0.9502

-----------------------------------------------------------------------------
         ABSORPTION SPECTRUM VIA TRANSITION ELECTRIC DIPOLE MOMENTS
-----------------------------------------------------------------------------
State   Energy  Wavelength   fosc         T2         TX        TY        TZ
        (cm-1)    (nm)                  (au**2)     (au)      (au)      (au)
-----------------------------------------------------------------------------
   0    4409.4   2267.9   1.052155646  78.55475   7.95010   1.22471   3.72165
   1    9962.5   1003.8   0.011101068   0.36684  -0.49146   0.35027   0.05111
   2   10618.4    941.8   0.544028855  16.86703   1.89188   2.75817   2.38335
   3   14291.5    699.7   0.206231263   4.75065  -1.26385   1.73198   0.39190
   4   16015.9    624.4   0.409789677   8.42338  -2.25607   1.82451   0.06847
   5   17128.5    583.8   0.985470562  18.94091   3.54351  -2.50710   0.31450
   6   18189.4    549.8   0.200262920   3.62457   1.80688  -0.21416   0.56026
   7   20742.3    482.1   0.030145528   0.47846   0.22840  -0.65225   0.02931
   8   21254.6    470.5   0.010945225   0.16953  -0.19583  -0.36068  -0.03300
   9   22682.4    440.9   0.036658037   0.53205  -0.36414  -0.50137  -0.38482
  10   23045.5    433.9   0.014705455   0.21007   0.12991   0.18834   0.39714
  11   24530.5    407.7   0.018353317   0.24631   0.37623  -0.28561   0.15229
  12   25075.8    398.8   0.044438981   0.58343  -0.56234   0.51591   0.03215
  13   26182.0    381.9   0.046654660   0.58663   0.50578  -0.57092   0.06975
  14   26299.3    380.2   0.011080465   0.13870   0.26097   0.14289   0.22401
  15   27012.4    370.2   0.020568178   0.25067  -0.12771  -0.41298  -0.25261
  16   27550.4    363.0   0.111862047   1.33669   0.87485  -0.75581  -0.00919
  17   28245.6    354.0   0.002758791   0.03215   0.11566  -0.07681   0.11347
  18   28415.5    351.9   0.002191616   0.02539   0.03730   0.13592   0.07434
  19   28893.6    346.1   0.123667618   1.40906   0.99687   0.26411   0.58784
  20   29046.9    344.3   0.002831545   0.03209   0.05663  -0.09939   0.13787
  21   29635.1    337.4   0.117134345   1.30123   0.43228   0.84904   0.62729
  22   30264.9    330.4   0.075366261   0.81981  -0.73076   0.50284  -0.18155
  23   30400.7    328.9   0.081290748   0.88031  -0.81022   0.29239  -0.37197
  24   30861.6    324.0   0.082658756   0.88175   0.31848   0.72214   0.50876
  25   31118.7    321.4   0.034348196   0.36338   0.52054  -0.28236   0.11267
  26   31374.0    318.7   0.007104078   0.07454  -0.12170   0.23698   0.05979
  27   31422.6    318.2   0.009363004   0.09810   0.17423   0.07096   0.25041
  28   31699.4    315.5   0.002828913   0.02938  -0.15623   0.07033  -0.00517
  29   32079.5    311.7   0.021928484   0.22504  -0.09946   0.44406   0.13399
  30   32219.2    310.4   0.016689605   0.17053   0.11690  -0.38969  -0.07079
  31   32443.0    308.2   0.044527242   0.45184  -0.35090  -0.31986  -0.47581
  32   33186.0    301.3   0.063271552   0.62767  -0.58637  -0.36235  -0.39057
  33   33212.2    301.1   0.133701047   1.32530  -0.87794  -0.52073  -0.53231
  34   33546.7    298.1   0.008874342   0.08709  -0.14197   0.25485   0.04456
  35   33732.2    296.5   0.004676461   0.04564  -0.17518  -0.08791  -0.08499
  36   33813.4    295.7   0.033423748   0.32542  -0.43971  -0.16323  -0.32470
  37   34048.2    293.7   0.017075588   0.16510  -0.34240   0.00073  -0.21879
  38   34349.7    291.1   0.005779691   0.05539  -0.21825   0.06603  -0.05829
  39   34586.9    289.1   0.015961696   0.15193   0.28194   0.18983   0.19080
  40   34710.5    288.1   0.015858218   0.15041  -0.19186   0.33593  -0.02738
  41   35033.9    285.4   0.117568201   1.10478  -0.61858   0.84915   0.03300
  42   35353.3    282.9   0.060757722   0.56578  -0.16394   0.68761   0.25709
  43   35466.5    282.0   0.028158325   0.26138  -0.36909  -0.22779  -0.27066
  44   35599.2    280.9   0.009793295   0.09057   0.19929   0.13732   0.17887
  45   35827.1    279.1   0.012710132   0.11679  -0.32874   0.01179  -0.09264
  46   35885.6    278.7   0.041221086   0.37816  -0.43926  -0.27067  -0.33458
  47   36662.7    272.8   0.038303275   0.34394  -0.45209  -0.19198  -0.32047
  48   36719.9    272.3   0.237003326   2.12485   1.28297  -0.23916   0.64933
  49   37415.1    267.3   0.026236651   0.23085  -0.33969   0.33974  -0.00658
  50   37964.3    263.4   0.078415806   0.67999  -0.55455  -0.49448  -0.35770
  51   38405.9    260.4   0.056669294   0.48576  -0.48657  -0.23886  -0.43813
  52   38546.1    259.4   0.006321121   0.05399   0.03048   0.20910   0.09663
  53   39545.2    252.9   0.124430873   1.03588   0.30586  -0.95178  -0.19090
  54   39740.5    251.6   0.000791783   0.00656  -0.04890  -0.03655  -0.05322
  55   39775.8    251.4   0.022864410   0.18924   0.33776   0.13200   0.24029
  56   40004.7    250.0   0.042875669   0.35284   0.52472  -0.02011   0.27767
  57   40243.8    248.5   0.032307371   0.26429   0.16641  -0.47641  -0.09811
  58   40303.6    248.1   0.005756362   0.04702  -0.15205  -0.12909  -0.08507

FINAL SINGLE POINT ENERGY     -5927.079487437460

DIPOLE MOMENT
-------------
                                X             Y             Z
Electronic contribution:    -23.03105      -6.92910     -14.89767
Nuclear contribution   :     21.17080       7.19643      14.59162
                        -----------------------------------------
Total Dipole Moment    :     -1.86025       0.26733      -0.30604
                        -----------------------------------------
Magnitude (a.u.)       :      1.90412
Magnitude (Debye)      :      4.83988

Rotational constants in cm-1:     0.001806     0.000192     0.000174
Rotational constants in MHz :    54.146541     5.750684     5.211814

                             ****ORCA TERMINATED NORMALLY****
TOTAL RUN TIME: 0 days 0 hours 10 minutes 4 seconds 375 msec
