                         Program Version 4.2.0 -  RELEASE  -
|  1> # ORCA input file
|  2> # SCF done       -158.548480845486          0.000554880365
|  3> ! CAM-B3LYP def2-SVP def2/J RIJCOSX Grid4 TightSCF
|  4> %maxcore 5000
|  5> %tddft
|  6>     Mode sTDDFT
|  7>     Ethresh 5.0
|  8>     maxcore 5000
|  9> end
| 10>
| 11> %pal
| 12>   nprocs 6
| 13>   end
| 14> * xyz 0 1
| 15>    C       26.27131        -9.31740         8.00583
| 16>    C       25.34000        -9.03621         7.08100
| 17>    C       25.39308        -8.04442         6.05014
| 18>    C       24.28926        -7.99681         5.26414
| 19>    C       23.28899        -8.94042         5.60431
| 20>    S       23.79566        -9.89753         6.97848
| 21>    C       22.06534        -9.13233         4.98670
| 22>    C       21.51109        -8.41562         3.91038
| 23>    C       20.26055        -8.84301         3.55063
| 24>    C       19.77487        -9.91110         4.32046
| 25>    S       20.95799       -10.37958         5.51811
| 26>    C       18.51712       -10.49790         4.23202
| 27>    C       18.05941       -11.51538         5.03615
| 28>    C       16.74080       -11.96982         5.02772
| 29>    C       16.17932       -12.99880         5.79045
| 30>    C       14.82842       -13.17382         5.58618
| 31>    C       14.28131       -12.27349         4.66716
| 32>    S       15.51359       -11.21153         4.04281
| 33>    C       12.95942       -12.14018         4.23210
| 34>    C       11.86012       -12.96901         4.48353
| 35>    C       10.70931       -12.55862         3.85510
| 36>    C       10.85998       -11.38430         3.09942
| 37>    S       12.50217       -10.80263         3.20946
| 38>    C        9.90261       -10.74240         2.32634
| 39>    C       10.15442        -9.56628         1.63521
| 40>    O       11.36202        -8.93468         1.76388
| 41>    C        9.37650        -8.81867         0.74377
| 42>    C        8.07481        -8.75732         0.08388
| 43>    O        7.11090        -9.47924         0.14673
| 44>    N        8.16138        -7.60594        -0.70079
| 45>    C        9.37387        -6.92247        -0.61341
| 46>    O        9.64124        -5.90934        -1.20989
| 47>    C       10.15242        -7.72643         0.32866
| 48>    C       11.38497        -7.80744         0.98495
| 49>    C       12.48725        -6.95853         0.97173
| 50>    C       13.58350        -7.12585         1.79889
| 51>    C       14.67539        -6.27716         1.81887
| 52>    C       15.73297        -6.38073         2.71774
| 53>    C       16.87738        -5.57331         2.78253
| 54>    C       17.73765        -5.89738         3.80584
| 55>    C       17.29623        -6.96619         4.59123
| 56>    S       15.77206        -7.57460         3.99656
| 57>    C       17.91773        -7.54768         5.70138
| 58>    C       19.16716        -7.25829         6.25920
| 59>    C       19.50523        -8.08049         7.30948
| 60>    C       18.53519        -9.04218         7.61454
| 61>    S       17.14546        -8.84310         6.57209
| 62>    C       18.61597       -10.06936         8.55219
| 63>    C       17.64802       -11.03195         8.71742
| 64>    C       17.71551       -12.09221         9.61577
| 65>    C       16.75246       -13.09724         9.79611
| 66>    C       17.07507       -14.01955        10.75631
| 67>    C       18.31426       -13.77878        11.37751
| 68>    S       19.06319       -12.34761        10.70044
| 69>    C       18.91856       -14.51013        12.38601
| 70>    C       18.41636       -15.67116        13.02446
| 71>    C       19.22487       -16.17172        13.99070
| 72>    C       20.43633       -15.43420        14.18480
| 73>    S       20.47205       -14.06958        13.05704
| 74>    C       21.42258       -15.68217        15.06109
| 75>    H       27.19726        -8.77100         8.03453
| 76>    H       26.12491       -10.08906         8.73879
| 77>    H       26.25496        -7.41092         5.93939
| 78>    H       24.16138        -7.31556         4.44158
| 79>    H       22.03294        -7.60626         3.43243
| 80>    H       19.67504        -8.40817         2.75946
| 81>    H       17.84008       -10.07865         3.49757
| 82>    H       18.73882       -11.97507         5.74287
| 83>    H       16.77138       -13.58753         6.46960
| 84>    H       14.23249       -13.91545         6.08770
| 85>    H       11.93089       -13.85104         5.09486
| 86>    H        9.76652       -13.07244         3.91658
| 87>    H        8.91735       -11.17092         2.23436
| 88>    H        7.40157        -7.29042        -1.28579
| 89>    H       12.43243        -6.11808         0.29578
| 90>    H       13.57344        -7.96240         2.48700
| 91>    H       14.71884        -5.46394         1.10594
| 92>    H       17.04681        -4.77510         2.08141
| 93>    H       18.66083        -5.38272         4.00401
| 94>    H       19.80258        -6.48082         5.87453
| 95>    H       20.43516        -8.02415         7.84750
| 96>    H       19.51303       -10.11656         9.15606
| 97>    H       16.75982       -10.98059         8.09909
| 98>    H       15.84474       -13.11482         9.21824
| 99>    H       16.45217       -14.85348        11.02499
|100>    H       17.46875       -16.09826        12.74786
|101>    H       19.01016       -17.04360        14.58237
|102>    H       21.36251       -16.52135        15.73110
|103>    H       22.29438       -15.05723        15.12256
|104> *
|105>
|106>                          ****END OF INPUT****

CARTESIAN COORDINATES (ANGSTROEM)
---------------------------------
  C     26.271310   -9.317400    8.005830
  C     25.340000   -9.036210    7.081000
  C     25.393080   -8.044420    6.050140
  C     24.289260   -7.996810    5.264140
  C     23.288990   -8.940420    5.604310
  S     23.795660   -9.897530    6.978480
  C     22.065340   -9.132330    4.986700
  C     21.511090   -8.415620    3.910380
  C     20.260550   -8.843010    3.550630
  C     19.774870   -9.911100    4.320460
  S     20.957990  -10.379580    5.518110
  C     18.517120  -10.497900    4.232020
  C     18.059410  -11.515380    5.036150
  C     16.740800  -11.969820    5.027720
  C     16.179320  -12.998800    5.790450
  C     14.828420  -13.173820    5.586180
  C     14.281310  -12.273490    4.667160
  S     15.513590  -11.211530    4.042810
  C     12.959420  -12.140180    4.232100
  C     11.860120  -12.969010    4.483530
  C     10.709310  -12.558620    3.855100
  C     10.859980  -11.384300    3.099420
  S     12.502170  -10.802630    3.209460
  C      9.902610  -10.742400    2.326340
  C     10.154420   -9.566280    1.635210
  O     11.362020   -8.934680    1.763880
  C      9.376500   -8.818670    0.743770
  C      8.074810   -8.757320    0.083880
  O      7.110900   -9.479240    0.146730
  N      8.161380   -7.605940   -0.700790
  C      9.373870   -6.922470   -0.613410
  O      9.641240   -5.909340   -1.209890
  C     10.152420   -7.726430    0.328660
  C     11.384970   -7.807440    0.984950
  C     12.487250   -6.958530    0.971730
  C     13.583500   -7.125850    1.798890
  C     14.675390   -6.277160    1.818870
  C     15.732970   -6.380730    2.717740
  C     16.877380   -5.573310    2.782530
  C     17.737650   -5.897380    3.805840
  C     17.296230   -6.966190    4.591230
  S     15.772060   -7.574600    3.996560
  C     17.917730   -7.547680    5.701380
  C     19.167160   -7.258290    6.259200
  C     19.505230   -8.080490    7.309480
  C     18.535190   -9.042180    7.614540
  S     17.145460   -8.843100    6.572090
  C     18.615970  -10.069360    8.552190
  C     17.648020  -11.031950    8.717420
  C     17.715510  -12.092210    9.615770
  C     16.752460  -13.097240    9.796110
  C     17.075070  -14.019550   10.756310
  C     18.314260  -13.778780   11.377510
  S     19.063190  -12.347610   10.700440
  C     18.918560  -14.510130   12.386010
  C     18.416360  -15.671160   13.024460
  C     19.224870  -16.171720   13.990700
  C     20.436330  -15.434200   14.184800
  S     20.472050  -14.069580   13.057040
  C     21.422580  -15.682170   15.061090
  H     27.197260   -8.771000    8.034530
  H     26.124910  -10.089060    8.738790
  H     26.254960   -7.410920    5.939390
  H     24.161380   -7.315560    4.441580
  H     22.032940   -7.606260    3.432430
  H     19.675040   -8.408170    2.759460
  H     17.840080  -10.078650    3.497570
  H     18.738820  -11.975070    5.742870
  H     16.771380  -13.587530    6.469600
  H     14.232490  -13.915450    6.087700
  H     11.930890  -13.851040    5.094860
  H      9.766520  -13.072440    3.916580
  H      8.917350  -11.170920    2.234360
  H      7.401570   -7.290420   -1.285790
  H     12.432430   -6.118080    0.295780
  H     13.573440   -7.962400    2.487000
  H     14.718840   -5.463940    1.105940
  H     17.046810   -4.775100    2.081410
  H     18.660830   -5.382720    4.004010
  H     19.802580   -6.480820    5.874530
  H     20.435160   -8.024150    7.847500
  H     19.513030  -10.116560    9.156060
  H     16.759820  -10.980590    8.099090
  H     15.844740  -13.114820    9.218240
  H     16.452170  -14.853480   11.024990
  H     17.468750  -16.098260   12.747860
  H     19.010160  -17.043600   14.582370
  H     21.362510  -16.521350   15.731100
  H     22.294380  -15.057230   15.122560

 Total Charge           Charge          ....    0
 Multiplicity           Mult            ....    1
 Number of Electrons    NEL             ....  476
 Basis Dimension        Dim             .... 1017

ORBITAL ENERGIES
----------------

  NO   OCC          E(Eh)            E(eV)
   0   2.0000     -88.946486     -2420.3569
   1   2.0000     -88.946205     -2420.3493
   2   2.0000     -88.944830     -2420.3119
   3   2.0000     -88.944276     -2420.2968
   4   2.0000     -88.944201     -2420.2948
   5   2.0000     -88.943522     -2420.2763
   6   2.0000     -88.940833     -2420.2031
   7   2.0000     -88.940179     -2420.1853
   8   2.0000     -19.285733      -524.7915
   9   2.0000     -19.196208      -522.3554
  10   2.0000     -19.195729      -522.3423
  11   2.0000     -14.436981      -392.8502
  12   2.0000     -10.384459      -282.5755
  13   2.0000     -10.384032      -282.5639
  14   2.0000     -10.342838      -281.4429
  15   2.0000     -10.341281      -281.4006
  16   2.0000     -10.310608      -280.5659
  17   2.0000     -10.310062      -280.5510
  18   2.0000     -10.308732      -280.5149
  19   2.0000     -10.308508      -280.5088
  20   2.0000     -10.307954      -280.4937
  21   2.0000     -10.307608      -280.4843
  22   2.0000     -10.306996      -280.4676
  23   2.0000     -10.306834      -280.4632
  24   2.0000     -10.305943      -280.4390
  25   2.0000     -10.304888      -280.4103
  26   2.0000     -10.304453      -280.3984
  27   2.0000     -10.304149      -280.3901
  28   2.0000     -10.301962      -280.3306
  29   2.0000     -10.300502      -280.2909
  30   2.0000     -10.300114      -280.2803
  31   2.0000     -10.300014      -280.2776
  32   2.0000     -10.289421      -279.9894
  33   2.0000     -10.289043      -279.9791
  34   2.0000     -10.285621      -279.8860
  35   2.0000     -10.284166      -279.8464
  36   2.0000     -10.284096      -279.8445
  37   2.0000     -10.283325      -279.8235
  38   2.0000     -10.282035      -279.7884
  39   2.0000     -10.281806      -279.7822
  40   2.0000     -10.280824      -279.7554
  41   2.0000     -10.280699      -279.7520
  42   2.0000     -10.280354      -279.7426
  43   2.0000     -10.280254      -279.7399
  44   2.0000     -10.279595      -279.7220
  45   2.0000     -10.278356      -279.6883
  46   2.0000     -10.277773      -279.6724
  47   2.0000     -10.277734      -279.6714
  48   2.0000     -10.277714      -279.6708
  49   2.0000     -10.277335      -279.6605
  50   2.0000     -10.277231      -279.6577
  51   2.0000     -10.276834      -279.6469
  52   2.0000     -10.276774      -279.6452
  53   2.0000     -10.276750      -279.6446
  54   2.0000     -10.275142      -279.6008
  55   2.0000     -10.274434      -279.5816
  56   2.0000     -10.273519      -279.5567
  57   2.0000     -10.273093      -279.5451
  58   2.0000     -10.271115      -279.4912
  59   2.0000     -10.270721      -279.4805
  60   2.0000      -8.041913      -218.8316
  61   2.0000      -8.041899      -218.8312
  62   2.0000      -8.040966      -218.8058
  63   2.0000      -8.040624      -218.7965
  64   2.0000      -8.039370      -218.7624
  65   2.0000      -8.038775      -218.7462
  66   2.0000      -8.037481      -218.7110
  67   2.0000      -8.036810      -218.6927
  68   2.0000      -6.011520      -163.5818
  69   2.0000      -6.011362      -163.5775
  70   2.0000      -6.010393      -163.5511
  71   2.0000      -6.010254      -163.5473
  72   2.0000      -6.008949      -163.5118
  73   2.0000      -6.008452      -163.4983
  74   2.0000      -6.007503      -163.4725
  75   2.0000      -6.007410      -163.4699
  76   2.0000      -6.007243      -163.4654
  77   2.0000      -6.006572      -163.4471
  78   2.0000      -6.006431      -163.4433
  79   2.0000      -6.006294      -163.4396
  80   2.0000      -6.004887      -163.4013
  81   2.0000      -6.004056      -163.3787
  82   2.0000      -6.003411      -163.3611
  83   2.0000      -6.003334      -163.3590
  84   2.0000      -6.003192      -163.3552
  85   2.0000      -6.002658      -163.3406
  86   2.0000      -6.002427      -163.3343
  87   2.0000      -6.001674      -163.3139
  88   2.0000      -6.000803      -163.2902
  89   2.0000      -6.000225      -163.2744
  90   2.0000      -5.998140      -163.2177
  91   2.0000      -5.997492      -163.2001
  92   2.0000      -1.202141       -32.7119
  93   2.0000      -1.138919       -30.9916
  94   2.0000      -1.118373       -30.4325
  95   2.0000      -1.026287       -27.9267
  96   2.0000      -0.995205       -27.0809
  97   2.0000      -0.992853       -27.0169
  98   2.0000      -0.991744       -26.9867
  99   2.0000      -0.990813       -26.9614
 100   2.0000      -0.972715       -26.4689
 101   2.0000      -0.971011       -26.4225
 102   2.0000      -0.969011       -26.3681
 103   2.0000      -0.967329       -26.3224
 104   2.0000      -0.916630       -24.9428
 105   2.0000      -0.907025       -24.6814
 106   2.0000      -0.904260       -24.6062
 107   2.0000      -0.901169       -24.5221
 108   2.0000      -0.889392       -24.2016
 109   2.0000      -0.874305       -23.7910
 110   2.0000      -0.871182       -23.7061
 111   2.0000      -0.859738       -23.3947
 112   2.0000      -0.849848       -23.1255
 113   2.0000      -0.843912       -22.9640
 114   2.0000      -0.843866       -22.9628
 115   2.0000      -0.840097       -22.8602
 116   2.0000      -0.835875       -22.7453
 117   2.0000      -0.833250       -22.6739
 118   2.0000      -0.821164       -22.3450
 119   2.0000      -0.817745       -22.2520
 120   2.0000      -0.816970       -22.2309
 121   2.0000      -0.815092       -22.1798
 122   2.0000      -0.809347       -22.0234
 123   2.0000      -0.798069       -21.7166
 124   2.0000      -0.784651       -21.3514
 125   2.0000      -0.771268       -20.9873
 126   2.0000      -0.758523       -20.6405
 127   2.0000      -0.749828       -20.4039
 128   2.0000      -0.745540       -20.2872
 129   2.0000      -0.736855       -20.0508
 130   2.0000      -0.723452       -19.6861
 131   2.0000      -0.708450       -19.2779
 132   2.0000      -0.697597       -18.9826
 133   2.0000      -0.687620       -18.7111
 134   2.0000      -0.682147       -18.5622
 135   2.0000      -0.679606       -18.4930
 136   2.0000      -0.672481       -18.2991
 137   2.0000      -0.671066       -18.2606
 138   2.0000      -0.660974       -17.9860
 139   2.0000      -0.641150       -17.4466
 140   2.0000      -0.638357       -17.3706
 141   2.0000      -0.634563       -17.2673
 142   2.0000      -0.628372       -17.0989
 143   2.0000      -0.624259       -16.9870
 144   2.0000      -0.622802       -16.9473
 145   2.0000      -0.620708       -16.8903
 146   2.0000      -0.617599       -16.8057
 147   2.0000      -0.611204       -16.6317
 148   2.0000      -0.608236       -16.5509
 149   2.0000      -0.604974       -16.4622
 150   2.0000      -0.603347       -16.4179
 151   2.0000      -0.597295       -16.2532
 152   2.0000      -0.597104       -16.2480
 153   2.0000      -0.591269       -16.0892
 154   2.0000      -0.590765       -16.0755
 155   2.0000      -0.579586       -15.7713
 156   2.0000      -0.574331       -15.6283
 157   2.0000      -0.567966       -15.4551
 158   2.0000      -0.565261       -15.3815
 159   2.0000      -0.558903       -15.2085
 160   2.0000      -0.554472       -15.0879
 161   2.0000      -0.549165       -14.9435
 162   2.0000      -0.544547       -14.8179
 163   2.0000      -0.535102       -14.5609
 164   2.0000      -0.528032       -14.3685
 165   2.0000      -0.526796       -14.3348
 166   2.0000      -0.523486       -14.2448
 167   2.0000      -0.517312       -14.0768
 168   2.0000      -0.516113       -14.0441
 169   2.0000      -0.513346       -13.9689
 170   2.0000      -0.511459       -13.9175
 171   2.0000      -0.510304       -13.8861
 172   2.0000      -0.504480       -13.7276
 173   2.0000      -0.500741       -13.6259
 174   2.0000      -0.497878       -13.5480
 175   2.0000      -0.496576       -13.5125
 176   2.0000      -0.495249       -13.4764
 177   2.0000      -0.494800       -13.4642
 178   2.0000      -0.492832       -13.4106
 179   2.0000      -0.492335       -13.3971
 180   2.0000      -0.491472       -13.3736
 181   2.0000      -0.489850       -13.3295
 182   2.0000      -0.486541       -13.2394
 183   2.0000      -0.484709       -13.1896
 184   2.0000      -0.481136       -13.0924
 185   2.0000      -0.480214       -13.0673
 186   2.0000      -0.473637       -12.8883
 187   2.0000      -0.473157       -12.8752
 188   2.0000      -0.466618       -12.6973
 189   2.0000      -0.465331       -12.6623
 190   2.0000      -0.465144       -12.6572
 191   2.0000      -0.462765       -12.5925
 192   2.0000      -0.462020       -12.5722
 193   2.0000      -0.460027       -12.5180
 194   2.0000      -0.456512       -12.4223
 195   2.0000      -0.454939       -12.3795
 196   2.0000      -0.453399       -12.3376
 197   2.0000      -0.450829       -12.2677
 198   2.0000      -0.447697       -12.1825
 199   2.0000      -0.444348       -12.0913
 200   2.0000      -0.433444       -11.7946
 201   2.0000      -0.430708       -11.7201
 202   2.0000      -0.430389       -11.7115
 203   2.0000      -0.429715       -11.6931
 204   2.0000      -0.424990       -11.5646
 205   2.0000      -0.422906       -11.5078
 206   2.0000      -0.419056       -11.4031
 207   2.0000      -0.416982       -11.3467
 208   2.0000      -0.413047       -11.2396
 209   2.0000      -0.408941       -11.1278
 210   2.0000      -0.399453       -10.8697
 211   2.0000      -0.398210       -10.8358
 212   2.0000      -0.396958       -10.8018
 213   2.0000      -0.391536       -10.6542
 214   2.0000      -0.387202       -10.5363
 215   2.0000      -0.383247       -10.4287
 216   2.0000      -0.373540       -10.1645
 217   2.0000      -0.365651        -9.9499
 218   2.0000      -0.355933        -9.6854
 219   2.0000      -0.354920        -9.6579
 220   2.0000      -0.346365        -9.4251
 221   2.0000      -0.342676        -9.3247
 222   2.0000      -0.336324        -9.1518
 223   2.0000      -0.335707        -9.1350
 224   2.0000      -0.330772        -9.0008
 225   2.0000      -0.330177        -8.9846
 226   2.0000      -0.329514        -8.9665
 227   2.0000      -0.324901        -8.8410
 228   2.0000      -0.323857        -8.8126
 229   2.0000      -0.317176        -8.6308
 230   2.0000      -0.313915        -8.5420
 231   2.0000      -0.304781        -8.2935
 232   2.0000      -0.296724        -8.0743
 233   2.0000      -0.277321        -7.5463
 234   2.0000      -0.246187        -6.6991
 235   2.0000      -0.230062        -6.2603
 236   2.0000      -0.198696        -5.4068
 237   2.0000      -0.176047        -4.7905
 238   0.0000      -0.105500        -2.8708
 239   0.0000      -0.093312        -2.5391
 240   0.0000      -0.051356        -1.3975
 241   0.0000      -0.043455        -1.1825
 242   0.0000      -0.014212        -0.3867

MULLIKEN ATOMIC CHARGES
-----------------------
   0 C :   -0.028004
   1 C :   -0.065987
   2 C :    0.049355
   3 C :    0.024869
   4 C :   -0.067315
   5 S :    0.078953
   6 C :   -0.044508
   7 C :    0.003734
   8 C :    0.042659
   9 C :   -0.033425
  10 S :    0.086249
  11 C :    0.002710
  12 C :    0.001575
  13 C :   -0.040942
  14 C :    0.026456
  15 C :    0.003019
  16 C :   -0.034827
  17 S :    0.094362
  18 C :   -0.041926
  19 C :    0.020205
  20 C :    0.016712
  21 C :   -0.012822
  22 S :    0.110678
  23 C :   -0.051467
  24 C :    0.110701
  25 O :   -0.263491
  26 C :   -0.030827
  27 C :    0.155087
  28 O :   -0.149696
  29 N :   -0.170544
  30 C :    0.155840
  31 O :   -0.148002
  32 C :   -0.032115
  33 C :    0.123658
  34 C :   -0.060890
  35 C :    0.021126
  36 C :   -0.002884
  37 C :   -0.024466
  38 C :    0.019293
  39 C :    0.015738
  40 C :   -0.048698
  41 S :    0.095205
  42 C :   -0.050838
  43 C :    0.031886
  44 C :    0.048467
  45 C :   -0.041699
  46 S :    0.088873
  47 C :    0.005096
  48 C :   -0.026777
  49 C :   -0.031226
  50 C :    0.026266
  51 C :    0.015599
  52 C :   -0.042559
  53 S :    0.084510
  54 C :   -0.066427
  55 C :    0.028716
  56 C :    0.050497
  57 C :   -0.067393
  58 S :    0.085029
  59 C :   -0.027346
  60 H :    0.020275
  61 H :    0.023154
  62 H :   -0.011316
  63 H :   -0.012725
  64 H :   -0.019891
  65 H :   -0.008419
  66 H :   -0.001443
  67 H :    0.001714
  68 H :   -0.011401
  69 H :   -0.019021
  70 H :   -0.018181
  71 H :   -0.013445
  72 H :    0.002534
  73 H :    0.133295
  74 H :    0.004650
  75 H :    0.011147
  76 H :   -0.012559
  77 H :   -0.016170
  78 H :   -0.020098
  79 H :   -0.020248
  80 H :   -0.013211
  81 H :   -0.006143
  82 H :    0.005083
  83 H :   -0.015945
  84 H :   -0.016875
  85 H :   -0.012737
  86 H :   -0.012101
  87 H :    0.021409
  88 H :    0.022649
Sum of atomic charges:   -0.0000000

LOEWDIN ATOMIC CHARGES
----------------------
   0 C :   -0.075845
   1 C :   -0.140410
   2 C :   -0.035454
   3 C :   -0.029527
   4 C :   -0.182214
   5 S :    0.353759
   6 C :   -0.180728
   7 C :   -0.046482
   8 C :   -0.032510
   9 C :   -0.145700
  10 S :    0.405413
  11 C :   -0.063368
  12 C :   -0.051515
  13 C :   -0.161287
  14 C :   -0.041212
  15 C :   -0.051531
  16 C :   -0.171539
  17 S :    0.405880
  18 C :   -0.193412
  19 C :   -0.037046
  20 C :   -0.047364
  21 C :   -0.142456
  22 S :    0.420330
  23 C :   -0.081810
  24 C :    0.060149
  25 O :   -0.022121
  26 C :   -0.091687
  27 C :    0.083898
  28 O :   -0.166170
  29 N :   -0.013118
  30 C :    0.084256
  31 O :   -0.164917
  32 C :   -0.087047
  33 C :    0.062335
  34 C :   -0.050889
  35 C :   -0.020436
  36 C :   -0.053539
  37 C :   -0.150997
  38 C :   -0.048571
  39 C :   -0.043297
  40 C :   -0.187273
  41 S :    0.403459
  42 C :   -0.177723
  43 C :   -0.040538
  44 C :   -0.037948
  45 C :   -0.154867
  46 S :    0.424587
  47 C :   -0.052950
  48 C :   -0.067656
  49 C :   -0.149126
  50 C :   -0.042909
  51 C :   -0.037211
  52 C :   -0.181379
  53 S :    0.380171
  54 C :   -0.177091
  55 C :   -0.028114
  56 C :   -0.033239
  57 C :   -0.140278
  58 S :    0.358668
  59 C :   -0.074338
  60 H :    0.028798
  61 H :    0.026419
  62 H :    0.033135
  63 H :    0.032059
  64 H :    0.028668
  65 H :    0.034729
  66 H :    0.024456
  67 H :    0.030020
  68 H :    0.032542
  69 H :    0.029231
  70 H :    0.029786
  71 H :    0.032584
  72 H :    0.048018
  73 H :    0.091329
  74 H :    0.043048
  75 H :    0.022155
  76 H :    0.033743
  77 H :    0.031674
  78 H :    0.029607
  79 H :    0.028808
  80 H :    0.032376
  81 H :    0.029194
  82 H :    0.028713
  83 H :    0.031964
  84 H :    0.030184
  85 H :    0.032191
  86 H :    0.033106
  87 H :    0.028967
  88 H :    0.026429

  Mayer bond orders larger than 0.100000
B(  0-C ,  1-C ) :   1.8465 B(  0-C , 60-H ) :   0.9503 B(  0-C , 61-H ) :   0.9424
B(  1-C ,  2-C ) :   1.0915 B(  1-C ,  5-S ) :   1.0075 B(  2-C ,  3-C ) :   1.6287
B(  2-C , 62-H ) :   0.9933 B(  3-C ,  4-C ) :   1.1816 B(  3-C , 63-H ) :   0.9938
B(  4-C ,  5-S ) :   1.0506 B(  4-C ,  6-C ) :   1.4783 B(  6-C ,  7-C ) :   1.2195
B(  6-C , 10-S ) :   1.0549 B(  7-C ,  8-C ) :   1.5114 B(  7-C , 64-H ) :   0.9964
B(  8-C ,  9-C ) :   1.2109 B(  8-C , 65-H ) :   1.0010 B(  9-C , 10-S ) :   1.0703
B(  9-C , 11-C ) :   1.4358 B( 11-C , 12-C ) :   1.2981 B( 11-C , 66-H ) :   0.9725
B( 12-C , 13-C ) :   1.3970 B( 12-C , 67-H ) :   0.9759 B( 13-C , 14-C ) :   1.2654
B( 13-C , 17-S ) :   1.0706 B( 14-C , 15-C ) :   1.4330 B( 14-C , 68-H ) :   1.0011
B( 15-C , 16-C ) :   1.3123 B( 15-C , 69-H ) :   0.9973 B( 16-C , 17-S ) :   1.0847
B( 16-C , 18-C ) :   1.3301 B( 18-C , 19-C ) :   1.3042 B( 18-C , 22-S ) :   1.0589
B( 19-C , 20-C ) :   1.4617 B( 19-C , 70-H ) :   0.9968 B( 20-C , 21-C ) :   1.2479
B( 20-C , 71-H ) :   1.0014 B( 21-C , 22-S ) :   1.0867 B( 21-C , 23-C ) :   1.3705
B( 23-C , 24-C ) :   1.3612 B( 23-C , 72-H ) :   0.9659 B( 24-C , 25-O ) :   1.0930
B( 24-C , 26-C ) :   1.2527 B( 25-O , 33-C ) :   1.1010 B( 26-C , 27-C ) :   0.8921
B( 26-C , 32-C ) :   1.3796 B( 27-C , 28-O ) :   2.2607 B( 27-C , 29-N ) :   1.0725
B( 29-N , 30-C ) :   1.0776 B( 29-N , 73-H ) :   0.9156 B( 30-C , 31-O ) :   2.2620
B( 30-C , 32-C ) :   0.8848 B( 32-C , 33-C ) :   1.2618 B( 33-C , 34-C ) :   1.3288
B( 34-C , 35-C ) :   1.3958 B( 34-C , 74-H ) :   0.9677 B( 35-C , 36-C ) :   1.3129
B( 35-C , 75-H ) :   0.9802 B( 36-C , 37-C ) :   1.3758 B( 36-C , 76-H ) :   0.9851
B( 37-C , 38-C ) :   1.2608 B( 37-C , 41-S ) :   1.0625 B( 38-C , 39-C ) :   1.4435
B( 38-C , 77-H ) :   1.0009 B( 39-C , 40-C ) :   1.3048 B( 39-C , 78-H ) :   0.9977
B( 40-C , 41-S ) :   1.0780 B( 40-C , 42-C ) :   1.3325 B( 42-C , 43-C ) :   1.2696
B( 42-C , 46-S ) :   1.0905 B( 43-C , 44-C ) :   1.4826 B( 43-C , 79-H ) :   0.9946
B( 44-C , 45-C ) :   1.2177 B( 44-C , 80-H ) :   1.0020 B( 45-C , 46-S ) :   1.0628
B( 45-C , 47-C ) :   1.4418 B( 47-C , 48-C ) :   1.2756 B( 47-C , 81-H ) :   0.9755
B( 48-C , 49-C ) :   1.4552 B( 48-C , 82-H ) :   0.9708 B( 49-C , 50-C ) :   1.2083
B( 49-C , 53-S ) :   1.0550 B( 50-C , 51-C ) :   1.5239 B( 50-C , 83-H ) :   0.9989
B( 51-C , 52-C ) :   1.2223 B( 51-C , 84-H ) :   0.9948 B( 52-C , 53-S ) :   1.0478
B( 52-C , 54-C ) :   1.4849 B( 54-C , 55-C ) :   1.1799 B( 54-C , 58-S ) :   1.0555
B( 55-C , 56-C ) :   1.6333 B( 55-C , 85-H ) :   0.9923 B( 56-C , 57-C ) :   1.0910
B( 56-C , 86-H ) :   0.9938 B( 57-C , 58-S ) :   1.0100 B( 57-C , 59-C ) :   1.8473
B( 59-C , 87-H ) :   0.9513 B( 59-C , 88-H ) :   0.9414

-----------------------------------------------------------------------------
         ABSORPTION SPECTRUM VIA TRANSITION ELECTRIC DIPOLE MOMENTS
-----------------------------------------------------------------------------
State   Energy  Wavelength   fosc         T2         TX        TY        TZ
        (cm-1)    (nm)                  (au**2)     (au)      (au)      (au)
-----------------------------------------------------------------------------
   0    2008.1   4979.8   0.026407431   4.32924  -0.76280  -0.64048   1.82679
   1    4564.3   2190.9   0.033403283   2.40930  -1.05357   0.51026  -1.01927
   2    9556.9   1046.4   1.901529826  65.50307   6.28245  -2.09617   4.65188
   3   10209.7    979.5   0.135952971   4.38379   0.19517   1.72539  -1.16992
   4   12643.2    790.9   0.000007937   0.00021  -0.00814  -0.00021   0.01185
   5   14956.7    668.6   0.002196175   0.04834  -0.08535   0.20135  -0.02264
   6   15484.9    645.8   0.178199549   3.78856  -0.22612  -1.68266   0.95189
   7   15832.0    631.6   1.273422834  26.47971  -3.36050  -3.74783   1.06795
   8   17631.1    567.2   0.083622470   1.56142   1.01786  -0.40732   0.59956
   9   19759.5    506.1   0.073540630   1.22526  -0.73270  -0.82794  -0.05394
  10   20199.2    495.1   0.002598795   0.04236   0.18127   0.09729  -0.00566
  11   21537.0    464.3   0.087444720   1.33667  -0.79653   0.58724  -0.59780
  12   22087.7    452.7   0.032832462   0.48936   0.63483   0.29191   0.03376
  13   23733.0    421.4   0.006039209   0.08377  -0.25931  -0.03335  -0.12417
  14   24921.9    401.3   0.006099421   0.08057   0.09753  -0.04758  -0.26229
  15   25231.6    396.3   0.019743002   0.25760   0.50145   0.07809  -0.00689
  16   25709.5    389.0   0.015255105   0.19534  -0.20182  -0.31167   0.23974
  17   26783.6    373.4   0.035551608   0.43698  -0.02317  -0.58406   0.30873
  18   27453.0    364.3   0.002517697   0.03019  -0.10986  -0.04402  -0.12722
  19   27510.8    363.5   0.120550153   1.44258  -0.92242  -0.76206   0.10489
  20   27858.6    359.0   0.239715413   2.83278   1.56551   0.59869   0.15336
  21   28330.7    353.0   0.070038475   0.81387   0.18214  -0.66433   0.58255
  22   29184.6    342.6   0.057017879   0.64318   0.28719  -0.33946   0.66743
  23   29349.0    340.7   0.164955291   1.85032  -0.69532   0.65827  -0.96619
  24   29531.5    338.6   0.016385337   0.18266  -0.38351  -0.18812   0.01401
  25   29866.2    334.8   0.209824018   2.31287   1.09764  -0.21091   1.03130
  26   30076.9    332.5   0.113846286   1.24612   0.93416   0.14001   0.59487
  27   30467.5    328.2   0.034427729   0.37200   0.19172  -0.25484   0.51991
  28   30641.7    326.4   0.076269050   0.81943   0.43063  -0.45664   0.65227
  29   30771.8    325.0   0.024424959   0.26131  -0.15357   0.26076  -0.41198
  30   31222.2    320.3   0.025241277   0.26615   0.38332   0.32111  -0.12689
  31   31732.3    315.1   0.043401228   0.45027   0.55908   0.06374   0.36557
  32   31795.1    314.5   0.035651302   0.36914  -0.37498   0.09988  -0.46750
  33   32002.1    312.5   0.004678044   0.04812   0.15652  -0.01260   0.15318
  34   32247.7    310.1   0.110503859   1.12812   0.64172  -0.28280   0.79771
  35   32419.3    308.5   0.000945487   0.00960  -0.02491   0.06526   0.06872
  36   32854.6    304.4   0.049021817   0.49121   0.28155   0.60461  -0.21537
  37   33032.7    302.7   0.035698669   0.35578  -0.52460  -0.26077  -0.11217
  38   33441.5    299.0   0.048270580   0.47520  -0.55407   0.16219  -0.37669
  39   33581.8    297.8   0.005555764   0.05446  -0.08750  -0.14929   0.15659
  40   33810.1    295.8   0.021962023   0.21385   0.39903  -0.06231   0.22525
  41   33956.2    294.5   0.024917869   0.24158   0.19586  -0.35296   0.28043
  42   34063.9    293.6   0.022909089   0.22141  -0.22290   0.33033  -0.25021
  43   34686.5    288.3   0.044088805   0.41845   0.44665   0.46649   0.03669
  44   34794.4    287.4   0.032615173   0.30859   0.01082  -0.29966   0.46763
  45   35100.4    284.9   0.018225207   0.17094  -0.15691   0.26676  -0.27415
  46   35188.0    284.2   0.050196879   0.46963  -0.15603   0.50752  -0.43325
  47   35383.5    282.6   0.012771985   0.11883   0.23825   0.24823  -0.02115
  48   35493.1    281.7   0.067582332   0.62685   0.58461   0.14002   0.51525
  49   35693.9    280.2   0.039241155   0.36193   0.53545  -0.10652   0.25274
  50   35903.6    278.5   0.019523378   0.17902  -0.00415   0.21511  -0.36432
  51   36441.8    274.4   0.025936213   0.23431   0.28004   0.22618  -0.32362
  52   36894.9    271.0   0.010901324   0.09727  -0.22454   0.11456  -0.18365
  53   37122.8    269.4   0.003838956   0.03404  -0.12966   0.07437   0.10817
  54   37151.2    269.2   0.004763134   0.04221  -0.07802  -0.18941   0.01565
  55   37427.7    267.2   0.012391344   0.10899   0.21578   0.22336  -0.11200
  56   37827.4    264.4   0.000934356   0.00813   0.04681  -0.05225  -0.05666
  57   38101.0    262.5   0.007894732   0.06821   0.10029   0.03494   0.23861
  58   38304.3    261.1   0.000028361   0.00024  -0.01033  -0.00808  -0.00848
  59   38487.8    259.8   0.002341277   0.02003  -0.05072  -0.02007  -0.13058
  60   38705.8    258.4   0.011917377   0.10136   0.30200   0.09499   0.03368
  61   38896.1    257.1   0.035539557   0.30080   0.40854   0.27172   0.24509
  62   38987.2    256.5   0.015321416   0.12938   0.32924   0.05977   0.13193
  63   39421.1    253.7   0.007967021   0.06653   0.05968   0.08490  -0.23615
  64   39607.0    252.5   0.058659060   0.48757   0.02122  -0.44893   0.53440
  65   40124.9    249.2   0.004857863   0.03986  -0.07128   0.11166  -0.14936
  66   40208.0    248.7   0.003088744   0.02529  -0.00615  -0.01526   0.15817

FINAL SINGLE POINT ENERGY     -5308.690046769673

DIPOLE MOMENT
-------------
                                X             Y             Z
Electronic contribution:    -25.87298       5.60771     -17.59310
Nuclear contribution   :     28.53488      -6.41998      19.42980
                        -----------------------------------------
Total Dipole Moment    :      2.66190      -0.81227       1.83671
                        -----------------------------------------
Magnitude (a.u.)       :      3.33452
Magnitude (Debye)      :      8.47567

Rotational constants in cm-1:     0.001555     0.000544     0.000425
Rotational constants in MHz :    46.603474    16.305110    12.750629

                             ****ORCA TERMINATED NORMALLY****
TOTAL RUN TIME: 0 days 0 hours 11 minutes 17 seconds 794 msec
