                         Program Version 4.2.0 -  RELEASE  -
|  1> # ORCA input file
|  2> # SCF done       -133.025185448430          0.000645179027
|  3> ! CAM-B3LYP def2-SVP def2/J RIJCOSX Grid4 TightSCF
|  4> %maxcore 5000
|  5> %tddft
|  6>     Mode sTDDFT
|  7>     Ethresh 5.0
|  8>     maxcore 5000
|  9> end
| 10>
| 11> %pal
| 12>   nprocs 6
| 13>   end
| 14> * xyz 0 1
| 15>    C       17.90767       -11.37267         1.77821
| 16>    C       17.28526       -10.24388         1.41305
| 17>    C       17.87058        -9.06340         0.84376
| 18>    C       16.98862        -8.07801         0.56969
| 19>    C       15.63779        -8.38905         0.89448
| 20>    S       15.53813       -10.00352         1.57613
| 21>    C       14.53471        -7.59290         0.71577
| 22>    C       14.49033        -6.28393         0.16837
| 23>    C       13.24349        -5.75495         0.09869
| 24>    C       12.21341        -6.60544         0.58520
| 25>    S       12.91828        -8.11718         1.15222
| 26>    C       10.87471        -6.33672         0.60463
| 27>    C        9.88015        -7.21830         1.08182
| 28>    C        8.55528        -6.94700         1.00418
| 29>    C        7.49530        -7.80833         1.43886
| 30>    C        6.17338        -7.54869         1.15380
| 31>    S        5.10797        -8.74445         1.74828
| 32>    C        6.44261        -9.64238         2.43854
| 33>    C        7.62951        -9.01166         2.18384
| 34>    C        6.22969       -10.85753         3.15755
| 35>    C        5.04406       -11.49432         3.23799
| 36>    C        4.82591       -12.71023         3.95211
| 37>    C        3.66366       -13.38780         3.89183
| 38>    C        3.36961       -14.62321         4.57031
| 39>    C        2.29391       -15.40948         4.22945
| 40>    S        2.18477       -16.83380         5.16628
| 41>    C        3.59462       -16.37862         6.09514
| 42>    C        4.10400       -15.19055         5.64429
| 43>    C        4.01858       -17.22770         7.16365
| 44>    C        4.89825       -16.89404         8.13031
| 45>    C        5.24640       -17.77933         9.19463
| 46>    C        5.99610       -17.42110        10.25408
| 47>    C        6.33302       -18.28199        11.36056
| 48>    C        6.22552       -19.65415        11.37003
| 49>    S        6.69899       -20.34741        12.85799
| 50>    C        7.05028       -18.77185        13.53389
| 51>    C        6.81346       -17.79287        12.60020
| 52>    C        7.49016       -18.67991        14.88087
| 53>    C        7.71342       -17.52254        15.55834
| 54>    C        8.12299       -17.48685        16.90454
| 55>    C        8.32018       -16.34469        17.63132
| 56>    C        8.71747       -16.26278        18.99232
| 57>    C        8.82593       -14.99793        19.47224
| 58>    C        8.52220       -13.99051        18.52080
| 59>    S        8.09427       -14.72311        16.98518
| 60>    C        8.53614       -12.63029        18.70728
| 61>    C        8.85926       -11.92730        19.90221
| 62>    C        8.78568       -10.58263        19.79684
| 63>    C        8.39505       -10.10885        18.49962
| 64>    S        8.13140       -11.49648        17.43105
| 65>    C        8.23862        -8.83836        18.10435
| 66>    H       18.97190       -11.47533         1.65916
| 67>    H       17.37191       -12.20417         2.19765
| 68>    H       18.92951        -9.01019         0.66233
| 69>    H       17.25544        -7.12919         0.13853
| 70>    H       15.38136        -5.77819        -0.15809
| 71>    H       13.01665        -4.77763        -0.29042
| 72>    H       10.55534        -5.38058         0.20955
| 73>    H       10.22200        -8.15370         1.50373
| 74>    H        8.24139        -6.01549         0.54918
| 75>    H        5.77677        -6.71527         0.60758
| 76>    H        8.57301        -9.39706         2.52543
| 77>    H        7.10394       -11.27292         3.64254
| 78>    H        4.19063       -11.07525         2.71844
| 79>    H        5.65078       -13.08998         4.53927
| 80>    H        2.87081       -13.00794         3.25925
| 81>    H        1.57124       -15.22701         3.45833
| 82>    H        4.97572       -14.73027         6.07145
| 83>    H        3.54780       -18.20219         7.19818
| 84>    H        5.34747       -15.91051         8.13846
| 85>    H        4.84331       -18.78165         9.13756
| 86>    H        6.35897       -16.40386        10.32710
| 87>    H        5.91268       -20.29790        10.57275
| 88>    H        6.96544       -16.74660        12.79426
| 89>    H        7.63331       -19.62067        15.39667
| 90>    H        7.56336       -16.57150        15.06600
| 91>    H        8.28603       -18.42978        17.41050
| 92>    H        8.90685       -17.15141        19.56869
| 93>    H        9.11326       -14.75566        20.47973
| 94>    H        9.13640       -12.45006        20.80066
| 95>    H        8.99433        -9.89004        20.59296
| 96>    H        8.40949        -8.02645        18.78904
| 97>    H        7.93919        -8.58953        17.10293
| 98> *
| 99>
|100>                          ****END OF INPUT****

CARTESIAN COORDINATES (ANGSTROEM)
---------------------------------
  C     17.907670  -11.372670    1.778210
  C     17.285260  -10.243880    1.413050
  C     17.870580   -9.063400    0.843760
  C     16.988620   -8.078010    0.569690
  C     15.637790   -8.389050    0.894480
  S     15.538130  -10.003520    1.576130
  C     14.534710   -7.592900    0.715770
  C     14.490330   -6.283930    0.168370
  C     13.243490   -5.754950    0.098690
  C     12.213410   -6.605440    0.585200
  S     12.918280   -8.117180    1.152220
  C     10.874710   -6.336720    0.604630
  C      9.880150   -7.218300    1.081820
  C      8.555280   -6.947000    1.004180
  C      7.495300   -7.808330    1.438860
  C      6.173380   -7.548690    1.153800
  S      5.107970   -8.744450    1.748280
  C      6.442610   -9.642380    2.438540
  C      7.629510   -9.011660    2.183840
  C      6.229690  -10.857530    3.157550
  C      5.044060  -11.494320    3.237990
  C      4.825910  -12.710230    3.952110
  C      3.663660  -13.387800    3.891830
  C      3.369610  -14.623210    4.570310
  C      2.293910  -15.409480    4.229450
  S      2.184770  -16.833800    5.166280
  C      3.594620  -16.378620    6.095140
  C      4.104000  -15.190550    5.644290
  C      4.018580  -17.227700    7.163650
  C      4.898250  -16.894040    8.130310
  C      5.246400  -17.779330    9.194630
  C      5.996100  -17.421100   10.254080
  C      6.333020  -18.281990   11.360560
  C      6.225520  -19.654150   11.370030
  S      6.698990  -20.347410   12.857990
  C      7.050280  -18.771850   13.533890
  C      6.813460  -17.792870   12.600200
  C      7.490160  -18.679910   14.880870
  C      7.713420  -17.522540   15.558340
  C      8.122990  -17.486850   16.904540
  C      8.320180  -16.344690   17.631320
  C      8.717470  -16.262780   18.992320
  C      8.825930  -14.997930   19.472240
  C      8.522200  -13.990510   18.520800
  S      8.094270  -14.723110   16.985180
  C      8.536140  -12.630290   18.707280
  C      8.859260  -11.927300   19.902210
  C      8.785680  -10.582630   19.796840
  C      8.395050  -10.108850   18.499620
  S      8.131400  -11.496480   17.431050
  C      8.238620   -8.838360   18.104350
  H     18.971900  -11.475330    1.659160
  H     17.371910  -12.204170    2.197650
  H     18.929510   -9.010190    0.662330
  H     17.255440   -7.129190    0.138530
  H     15.381360   -5.778190   -0.158090
  H     13.016650   -4.777630   -0.290420
  H     10.555340   -5.380580    0.209550
  H     10.222000   -8.153700    1.503730
  H      8.241390   -6.015490    0.549180
  H      5.776770   -6.715270    0.607580
  H      8.573010   -9.397060    2.525430
  H      7.103940  -11.272920    3.642540
  H      4.190630  -11.075250    2.718440
  H      5.650780  -13.089980    4.539270
  H      2.870810  -13.007940    3.259250
  H      1.571240  -15.227010    3.458330
  H      4.975720  -14.730270    6.071450
  H      3.547800  -18.202190    7.198180
  H      5.347470  -15.910510    8.138460
  H      4.843310  -18.781650    9.137560
  H      6.358970  -16.403860   10.327100
  H      5.912680  -20.297900   10.572750
  H      6.965440  -16.746600   12.794260
  H      7.633310  -19.620670   15.396670
  H      7.563360  -16.571500   15.066000
  H      8.286030  -18.429780   17.410500
  H      8.906850  -17.151410   19.568690
  H      9.113260  -14.755660   20.479730
  H      9.136400  -12.450060   20.800660
  H      8.994330   -9.890040   20.592960
  H      8.409490   -8.026450   18.789040
  H      7.939190   -8.589530   17.102930

 Total Charge           Charge          ....    0
 Multiplicity           Mult            ....    1
 Number of Electrons    NEL             ....  408
 Basis Dimension        Dim             ....  902

ORBITAL ENERGIES
----------------

  NO   OCC          E(Eh)            E(eV)
   0   2.0000     -88.947942     -2420.3966
   1   2.0000     -88.946276     -2420.3512
   2   2.0000     -88.944541     -2420.3040
   3   2.0000     -88.935023     -2420.0450
   4   2.0000     -88.932525     -2419.9770
   5   2.0000     -88.931141     -2419.9394
   6   2.0000     -88.928633     -2419.8711
   7   2.0000     -10.302357      -280.3414
   8   2.0000     -10.301918      -280.3294
   9   2.0000     -10.300141      -280.2811
  10   2.0000     -10.299919      -280.2750
  11   2.0000     -10.299031      -280.2509
  12   2.0000     -10.298362      -280.2327
  13   2.0000     -10.297780      -280.2168
  14   2.0000     -10.295472      -280.1540
  15   2.0000     -10.291726      -280.0521
  16   2.0000     -10.291655      -280.0502
  17   2.0000     -10.290953      -280.0311
  18   2.0000     -10.284053      -279.8433
  19   2.0000     -10.283696      -279.8336
  20   2.0000     -10.283670      -279.8329
  21   2.0000     -10.283309      -279.8231
  22   2.0000     -10.281223      -279.7663
  23   2.0000     -10.281163      -279.7647
  24   2.0000     -10.278847      -279.7016
  25   2.0000     -10.277800      -279.6732
  26   2.0000     -10.277785      -279.6727
  27   2.0000     -10.276056      -279.6257
  28   2.0000     -10.275504      -279.6107
  29   2.0000     -10.275436      -279.6088
  30   2.0000     -10.273414      -279.5538
  31   2.0000     -10.271807      -279.5101
  32   2.0000     -10.271246      -279.4948
  33   2.0000     -10.271051      -279.4895
  34   2.0000     -10.270987      -279.4878
  35   2.0000     -10.270243      -279.4675
  36   2.0000     -10.270130      -279.4645
  37   2.0000     -10.269255      -279.4406
  38   2.0000     -10.268782      -279.4278
  39   2.0000     -10.268614      -279.4232
  40   2.0000     -10.268506      -279.4203
  41   2.0000     -10.268357      -279.4162
  42   2.0000     -10.267268      -279.3866
  43   2.0000     -10.265874      -279.3486
  44   2.0000     -10.265529      -279.3392
  45   2.0000     -10.265202      -279.3303
  46   2.0000     -10.263047      -279.2717
  47   2.0000     -10.262941      -279.2688
  48   2.0000     -10.262899      -279.2677
  49   2.0000     -10.262605      -279.2597
  50   2.0000     -10.260498      -279.2024
  51   2.0000      -8.043849      -218.8843
  52   2.0000      -8.042417      -218.8453
  53   2.0000      -8.040605      -218.7960
  54   2.0000      -8.031244      -218.5413
  55   2.0000      -8.028666      -218.4711
  56   2.0000      -8.027918      -218.4508
  57   2.0000      -8.025391      -218.3820
  58   2.0000      -6.013032      -163.6229
  59   2.0000      -6.011574      -163.5832
  60   2.0000      -6.009770      -163.5342
  61   2.0000      -6.008782      -163.5073
  62   2.0000      -6.007414      -163.4701
  63   2.0000      -6.006343      -163.4409
  64   2.0000      -6.005645      -163.4219
  65   2.0000      -6.004797      -163.3988
  66   2.0000      -6.002904      -163.3473
  67   2.0000      -6.001005      -163.2957
  68   2.0000      -5.998431      -163.2256
  69   2.0000      -5.997758      -163.2073
  70   2.0000      -5.997134      -163.1903
  71   2.0000      -5.995225      -163.1384
  72   2.0000      -5.994575      -163.1207
  73   2.0000      -5.993865      -163.1013
  74   2.0000      -5.991979      -163.0500
  75   2.0000      -5.991355      -163.0331
  76   2.0000      -5.989406      -162.9800
  77   2.0000      -5.988379      -162.9521
  78   2.0000      -5.985847      -162.8832
  79   2.0000      -0.984734       -26.7960
  80   2.0000      -0.982220       -26.7276
  81   2.0000      -0.974674       -26.5222
  82   2.0000      -0.974151       -26.5080
  83   2.0000      -0.973431       -26.4884
  84   2.0000      -0.961869       -26.1738
  85   2.0000      -0.959377       -26.1060
  86   2.0000      -0.908880       -24.7319
  87   2.0000      -0.905019       -24.6268
  88   2.0000      -0.899093       -24.4656
  89   2.0000      -0.895109       -24.3571
  90   2.0000      -0.874432       -23.7945
  91   2.0000      -0.869853       -23.6699
  92   2.0000      -0.863588       -23.4994
  93   2.0000      -0.855414       -23.2770
  94   2.0000      -0.840243       -22.8642
  95   2.0000      -0.838633       -22.8204
  96   2.0000      -0.837145       -22.7799
  97   2.0000      -0.835150       -22.7256
  98   2.0000      -0.820994       -22.3404
  99   2.0000      -0.817712       -22.2511
 100   2.0000      -0.812504       -22.1094
 101   2.0000      -0.811597       -22.0847
 102   2.0000      -0.801946       -21.8221
 103   2.0000      -0.799040       -21.7430
 104   2.0000      -0.786341       -21.3974
 105   2.0000      -0.774798       -21.0833
 106   2.0000      -0.758814       -20.6484
 107   2.0000      -0.755111       -20.5476
 108   2.0000      -0.723020       -19.6744
 109   2.0000      -0.714600       -19.4452
 110   2.0000      -0.707760       -19.2591
 111   2.0000      -0.694345       -18.8941
 112   2.0000      -0.682748       -18.5785
 113   2.0000      -0.677652       -18.4398
 114   2.0000      -0.663211       -18.0469
 115   2.0000      -0.660564       -17.9749
 116   2.0000      -0.654103       -17.7990
 117   2.0000      -0.642792       -17.4913
 118   2.0000      -0.635951       -17.3051
 119   2.0000      -0.630956       -17.1692
 120   2.0000      -0.628038       -17.0898
 121   2.0000      -0.620053       -16.8725
 122   2.0000      -0.618832       -16.8393
 123   2.0000      -0.616285       -16.7700
 124   2.0000      -0.614346       -16.7172
 125   2.0000      -0.606898       -16.5145
 126   2.0000      -0.604768       -16.4566
 127   2.0000      -0.604488       -16.4490
 128   2.0000      -0.600792       -16.3484
 129   2.0000      -0.591736       -16.1019
 130   2.0000      -0.591085       -16.0842
 131   2.0000      -0.588721       -16.0199
 132   2.0000      -0.578182       -15.7331
 133   2.0000      -0.570529       -15.5249
 134   2.0000      -0.554956       -15.1011
 135   2.0000      -0.549598       -14.9553
 136   2.0000      -0.544171       -14.8076
 137   2.0000      -0.539945       -14.6926
 138   2.0000      -0.532953       -14.5024
 139   2.0000      -0.526248       -14.3199
 140   2.0000      -0.521181       -14.1821
 141   2.0000      -0.516882       -14.0651
 142   2.0000      -0.505100       -13.7445
 143   2.0000      -0.503217       -13.6932
 144   2.0000      -0.501621       -13.6498
 145   2.0000      -0.496435       -13.5087
 146   2.0000      -0.491786       -13.3822
 147   2.0000      -0.487780       -13.2732
 148   2.0000      -0.486173       -13.2294
 149   2.0000      -0.485369       -13.2076
 150   2.0000      -0.484230       -13.1766
 151   2.0000      -0.478361       -13.0169
 152   2.0000      -0.477216       -12.9857
 153   2.0000      -0.476268       -12.9599
 154   2.0000      -0.474880       -12.9221
 155   2.0000      -0.473416       -12.8823
 156   2.0000      -0.472845       -12.8668
 157   2.0000      -0.471508       -12.8304
 158   2.0000      -0.471020       -12.8171
 159   2.0000      -0.466000       -12.6805
 160   2.0000      -0.457759       -12.4562
 161   2.0000      -0.455313       -12.3897
 162   2.0000      -0.453505       -12.3405
 163   2.0000      -0.452663       -12.3176
 164   2.0000      -0.447914       -12.1884
 165   2.0000      -0.446407       -12.1473
 166   2.0000      -0.445892       -12.1333
 167   2.0000      -0.444542       -12.0966
 168   2.0000      -0.439800       -11.9676
 169   2.0000      -0.436056       -11.8657
 170   2.0000      -0.431586       -11.7441
 171   2.0000      -0.429305       -11.6820
 172   2.0000      -0.423934       -11.5358
 173   2.0000      -0.420319       -11.4375
 174   2.0000      -0.417900       -11.3716
 175   2.0000      -0.417617       -11.3639
 176   2.0000      -0.412117       -11.2143
 177   2.0000      -0.411503       -11.1976
 178   2.0000      -0.409515       -11.1435
 179   2.0000      -0.407446       -11.0872
 180   2.0000      -0.405868       -11.0442
 181   2.0000      -0.402609       -10.9555
 182   2.0000      -0.399807       -10.8793
 183   2.0000      -0.395813       -10.7706
 184   2.0000      -0.389354       -10.5948
 185   2.0000      -0.386550       -10.5185
 186   2.0000      -0.373057       -10.1514
 187   2.0000      -0.366823        -9.9818
 188   2.0000      -0.354714        -9.6523
 189   2.0000      -0.342766        -9.3271
 190   2.0000      -0.330712        -8.9991
 191   2.0000      -0.328585        -8.9412
 192   2.0000      -0.326543        -8.8857
 193   2.0000      -0.325767        -8.8646
 194   2.0000      -0.311955        -8.4887
 195   2.0000      -0.311109        -8.4657
 196   2.0000      -0.309028        -8.4091
 197   2.0000      -0.304983        -8.2990
 198   2.0000      -0.276825        -7.5328
 199   2.0000      -0.272807        -7.4235
 200   2.0000      -0.250509        -6.8167
 201   2.0000      -0.235154        -6.3989
 202   2.0000      -0.207096        -5.6354
 203   2.0000      -0.206400        -5.6164
 204   0.0000      -0.062424        -1.6986
 205   0.0000      -0.056654        -1.5416
 206   0.0000      -0.028217        -0.7678
 207   0.0000      -0.025606        -0.6968
 208   0.0000      -0.003136        -0.0853

MULLIKEN ATOMIC CHARGES
-----------------------
   0 C :   -0.033438
   1 C :   -0.063563
   2 C :    0.047300
   3 C :    0.031747
   4 C :   -0.070117
   5 S :    0.073465
   6 C :   -0.047792
   7 C :    0.025474
   8 C :    0.039275
   9 C :   -0.017441
  10 S :    0.062987
  11 C :   -0.021224
  12 C :    0.009971
  13 C :    0.001375
  14 C :    0.122656
  15 C :   -0.123047
  16 S :    0.105248
  17 C :   -0.063849
  18 C :   -0.016180
  19 C :    0.022277
  20 C :    0.007269
  21 C :    0.021949
  22 C :   -0.002783
  23 C :    0.115158
  24 C :   -0.130425
  25 S :    0.117371
  26 C :   -0.096109
  27 C :   -0.009896
  28 C :    0.052279
  29 C :    0.018201
  30 C :    0.024626
  31 C :    0.001656
  32 C :    0.110785
  33 C :   -0.129539
  34 S :    0.118518
  35 C :   -0.089323
  36 C :   -0.020695
  37 C :    0.057360
  38 C :    0.004142
  39 C :   -0.021540
  40 C :   -0.016515
  41 C :    0.037212
  42 C :    0.026854
  43 C :   -0.048503
  44 S :    0.065299
  45 C :   -0.069729
  46 C :    0.030934
  47 C :    0.049883
  48 C :   -0.064134
  49 S :    0.076154
  50 C :   -0.031246
  51 H :    0.017123
  52 H :    0.019124
  53 H :   -0.014340
  54 H :   -0.015445
  55 H :   -0.017429
  56 H :   -0.017393
  57 H :   -0.021423
  58 H :   -0.003655
  59 H :   -0.027399
  60 H :    0.016884
  61 H :   -0.020277
  62 H :   -0.015647
  63 H :   -0.007532
  64 H :   -0.016004
  65 H :   -0.022811
  66 H :    0.017384
  67 H :   -0.021310
  68 H :   -0.020826
  69 H :   -0.013321
  70 H :   -0.019535
  71 H :   -0.020814
  72 H :    0.019479
  73 H :   -0.020054
  74 H :   -0.022332
  75 H :    0.000127
  76 H :   -0.020004
  77 H :   -0.016083
  78 H :   -0.016443
  79 H :   -0.014622
  80 H :   -0.013619
  81 H :    0.017918
  82 H :    0.019945
Sum of atomic charges:    0.0000000

LOEWDIN ATOMIC CHARGES
----------------------
   0 C :   -0.084031
   1 C :   -0.138530
   2 C :   -0.036364
   3 C :   -0.026464
   4 C :   -0.182312
   5 S :    0.345038
   6 C :   -0.178223
   7 C :   -0.034773
   8 C :   -0.033227
   9 C :   -0.147817
  10 S :    0.355224
  11 C :   -0.055241
  12 C :   -0.036278
  13 C :   -0.013689
  14 C :   -0.067576
  15 C :   -0.184512
  16 S :    0.430745
  17 C :   -0.161844
  18 C :   -0.052025
  19 C :   -0.041589
  20 C :   -0.027513
  21 C :   -0.028064
  22 C :   -0.017091
  23 C :   -0.065010
  24 C :   -0.188850
  25 S :    0.434315
  26 C :   -0.166555
  27 C :   -0.052889
  28 C :   -0.046715
  29 C :   -0.016148
  30 C :   -0.021753
  31 C :   -0.020596
  32 C :   -0.065433
  33 C :   -0.188249
  34 S :    0.439554
  35 C :   -0.170376
  36 C :   -0.052364
  37 C :   -0.040877
  38 C :   -0.027011
  39 C :   -0.057652
  40 C :   -0.146106
  41 C :   -0.034324
  42 C :   -0.033172
  43 C :   -0.179007
  44 S :    0.357921
  45 C :   -0.180353
  46 C :   -0.026706
  47 C :   -0.034595
  48 C :   -0.138976
  49 S :    0.347272
  50 C :   -0.081063
  51 H :    0.027259
  52 H :    0.025065
  53 H :    0.032056
  54 H :    0.030990
  55 H :    0.029998
  56 H :    0.031871
  57 H :    0.030864
  58 H :    0.021050
  59 H :    0.027338
  60 H :    0.021139
  61 H :    0.027803
  62 H :    0.032675
  63 H :    0.020882
  64 H :    0.025750
  65 H :    0.028150
  66 H :    0.021284
  67 H :    0.025459
  68 H :    0.025613
  69 H :    0.027077
  70 H :    0.025287
  71 H :    0.027567
  72 H :    0.019600
  73 H :    0.027306
  74 H :    0.025985
  75 H :    0.022673
  76 H :    0.031468
  77 H :    0.032329
  78 H :    0.030357
  79 H :    0.031285
  80 H :    0.032482
  81 H :    0.027728
  82 H :    0.025482

  Mayer bond orders larger than 0.100000
B(  0-C ,  1-C ) :   1.8666 B(  0-C , 51-H ) :   0.9502 B(  0-C , 52-H ) :   0.9407
B(  1-C ,  2-C ) :   1.0799 B(  1-C ,  5-S ) :   1.0085 B(  2-C ,  3-C ) :   1.6640
B(  2-C , 53-H ) :   0.9925 B(  3-C ,  4-C ) :   1.1513 B(  3-C , 54-H ) :   0.9907
B(  4-C ,  5-S ) :   1.0376 B(  4-C ,  6-C ) :   1.5678 B(  6-C ,  7-C ) :   1.1643
B(  6-C , 10-S ) :   1.0360 B(  7-C ,  8-C ) :   1.6181 B(  7-C , 55-H ) :   0.9924
B(  8-C ,  9-C ) :   1.1247 B(  8-C , 56-H ) :   0.9978 B(  9-C , 10-S ) :   1.0202
B(  9-C , 11-C ) :   1.5965 B( 11-C , 12-C ) :   1.1343 B( 11-C , 57-H ) :   0.9823
B( 12-C , 13-C ) :   1.6765 B( 12-C , 58-H ) :   0.9675 B( 13-C , 14-C ) :   1.0775
B( 13-C , 59-H ) :   0.9852 B( 14-C , 15-C ) :   1.5000 B( 14-C , 18-C ) :   1.2050
B( 15-C , 16-S ) :   1.1540 B( 15-C , 60-H ) :   0.9738 B( 16-S , 17-C ) :   1.1152
B( 17-C , 18-C ) :   1.5318 B( 17-C , 19-C ) :   1.1137 B( 18-C , 61-H ) :   1.0004
B( 19-C , 20-C ) :   1.6727 B( 19-C , 62-H ) :   0.9828 B( 20-C , 21-C ) :   1.1231
B( 20-C , 63-H ) :   0.9802 B( 21-C , 22-C ) :   1.6983 B( 21-C , 64-H ) :   0.9820
B( 22-C , 23-C ) :   1.0578 B( 22-C , 65-H ) :   0.9834 B( 23-C , 24-C ) :   1.4998
B( 23-C , 27-C ) :   1.2342 B( 24-C , 25-S ) :   1.1585 B( 24-C , 66-H ) :   0.9748
B( 25-S , 26-C ) :   1.1282 B( 26-C , 27-C ) :   1.5485 B( 26-C , 28-C ) :   1.0726
B( 27-C , 67-H ) :   0.9906 B( 28-C , 29-C ) :   1.7069 B( 28-C , 68-H ) :   0.9652
B( 29-C , 30-C ) :   1.1234 B( 29-C , 69-H ) :   0.9838 B( 30-C , 31-C ) :   1.7054
B( 30-C , 70-H ) :   0.9808 B( 31-C , 32-C ) :   1.0540 B( 31-C , 71-H ) :   0.9804
B( 32-C , 33-C ) :   1.5154 B( 32-C , 36-C ) :   1.2325 B( 33-C , 34-S ) :   1.1657
B( 33-C , 72-H ) :   0.9631 B( 34-S , 35-C ) :   1.1284 B( 35-C , 36-C ) :   1.5096
B( 35-C , 37-C ) :   1.1006 B( 36-C , 73-H ) :   0.9984 B( 37-C , 38-C ) :   1.6748
B( 37-C , 74-H ) :   0.9691 B( 38-C , 39-C ) :   1.1509 B( 38-C , 75-H ) :   0.9703
B( 39-C , 40-C ) :   1.5804 B( 39-C , 76-H ) :   0.9832 B( 40-C , 41-C ) :   1.1287
B( 40-C , 44-S ) :   1.0244 B( 41-C , 42-C ) :   1.6113 B( 41-C , 77-H ) :   0.9990
B( 42-C , 43-C ) :   1.1700 B( 42-C , 78-H ) :   0.9918 B( 43-C , 44-S ) :   1.0359
B( 43-C , 45-C ) :   1.5619 B( 45-C , 46-C ) :   1.1534 B( 45-C , 49-S ) :   1.0399
B( 46-C , 47-C ) :   1.6626 B( 46-C , 79-H ) :   0.9905 B( 47-C , 48-C ) :   1.0800
B( 47-C , 80-H ) :   0.9924 B( 48-C , 49-S ) :   1.0081 B( 48-C , 50-C ) :   1.8657
B( 50-C , 81-H ) :   0.9501 B( 50-C , 82-H ) :   0.9414

-----------------------------------------------------------------------------
         ABSORPTION SPECTRUM VIA TRANSITION ELECTRIC DIPOLE MOMENTS
-----------------------------------------------------------------------------
State   Energy  Wavelength   fosc         T2         TX        TY        TZ
        (cm-1)    (nm)                  (au**2)     (au)      (au)      (au)
-----------------------------------------------------------------------------
   0   18444.8    542.2   1.493590516  26.65831   0.65909   4.18811   2.94680
   1   19586.7    510.6   1.547563787  26.01134  -5.01476   0.92708   0.06354
   2   25492.4    392.3   0.004301406   0.05555  -0.07716   0.07031  -0.21131
   3   26090.4    383.3   0.100123299   1.26337   0.27653  -0.67055   0.85864
   4   26417.9    378.5   0.183110070   2.28186  -0.06569  -1.34467   0.68514
   5   26940.2    371.2   0.016102970   0.19678  -0.11932  -0.34692   0.24938
   6   27648.4    361.7   0.178825085   2.12928  -0.27851   1.06919  -0.95318
   7   27980.8    357.4   0.028752793   0.33830  -0.07154  -0.44132   0.37204
   8   28274.6    353.7   0.009010277   0.10491  -0.08652   0.29229  -0.10951
   9   29272.9    341.6   0.976350622  10.98035  -0.39948   2.16143  -2.47972
  10   29626.3    337.5   0.045899564   0.51004  -0.23889   0.53012  -0.41467
  11   31183.2    320.7   0.454436456   4.79764   0.94868   1.80849  -0.79183
  12   31485.7    317.6   0.591660855   6.18635   1.10044  -0.76662   2.09468
  13   32134.8    311.2   0.098047637   1.00447  -0.65486  -0.65368  -0.38514
  14   32538.5    307.3   0.670414413   6.78300   1.79621   1.88336  -0.09784
  15   33092.8    302.2   0.378544631   3.76582   0.12385  -1.15820   1.55211
  16   33571.8    297.9   0.046210931   0.45315  -0.12791  -0.54850   0.36871
  17   33763.5    296.2   0.084744332   0.82630   0.05853  -0.69801   0.57937
  18   34268.7    291.8   0.017859151   0.17157  -0.34722  -0.17472  -0.14312
  19   34288.6    291.6   0.000046871   0.00045   0.00698   0.00428   0.01957
  20   34386.9    290.8   0.001759622   0.01685   0.10871   0.03996   0.05858
  21   34931.0    286.3   0.063343062   0.59698   0.41659   0.44583   0.47399
  22   35783.1    279.5   0.144407843   1.32858   1.07818   0.28940   0.28698
  23   36327.9    275.3   0.014764824   0.13380   0.07344  -0.04464  -0.35555
  24   37316.5    268.0   0.036567949   0.32261  -0.13918  -0.20528  -0.51098
  25   38286.8    261.2   0.001082414   0.00931   0.08216   0.02672   0.04293
  26   39167.9    255.3   0.002202354   0.01851   0.07176  -0.11373   0.02068
  27   39396.6    253.8   0.067439814   0.56355  -0.71198  -0.18208   0.15322
  28   39794.5    251.3   0.103961574   0.86005   0.22228  -0.82047   0.37076
  29   40096.5    249.4   0.006587299   0.05409  -0.03815  -0.14505   0.17773
  30   40174.0    248.9   0.023072654   0.18907   0.39078  -0.15333   0.11336

FINAL SINGLE POINT ENERGY     -4480.043164402359

DIPOLE MOMENT
-------------
                                X             Y             Z
Electronic contribution:     -5.71554      -6.78679       1.26110
Nuclear contribution   :      6.30681       7.32844      -0.69121
                        -----------------------------------------
Total Dipole Moment    :      0.59127       0.54165       0.56989
                        -----------------------------------------
Magnitude (a.u.)       :      0.98374
Magnitude (Debye)      :      2.50048

Rotational constants in cm-1:     0.000856     0.000323     0.000275
Rotational constants in MHz :    25.671826     9.669745     8.248109

                             ****ORCA TERMINATED NORMALLY****
TOTAL RUN TIME: 0 days 0 hours 5 minutes 4 seconds 79 msec
