                         Program Version 4.2.0 -  RELEASE  -
|  1> # ORCA input file
|  2> # SCF done       -187.231125398653          0.000968206189
|  3> ! CAM-B3LYP def2-SVP def2/J RIJCOSX Grid4 TightSCF
|  4> %maxcore 5000
|  5> %tddft
|  6>     Mode sTDDFT
|  7>     Ethresh 5.0
|  8>     maxcore 5000
|  9> end
| 10>
| 11> %pal
| 12>   nprocs 6
| 13>   end
| 14> * xyz 0 1
| 15>    C        5.52142       -24.51868        -0.70754
| 16>    C        6.41052       -23.64947        -1.21049
| 17>    C        7.40603       -23.88984        -2.21271
| 18>    C        8.16057       -22.80903        -2.52086
| 19>    C        7.82862       -21.63565        -1.79440
| 20>    S        6.50849       -21.95937        -0.68985
| 21>    C        8.41881       -20.39285        -1.89885
| 22>    C        9.47881       -20.00587        -2.74658
| 23>    C        9.83941       -18.69572        -2.61624
| 24>    C        9.08964       -17.97826        -1.66318
| 25>    S        7.89569       -19.03084        -0.92811
| 26>    C        9.24307       -16.64553        -1.32463
| 27>    C        8.48882       -15.97588        -0.37713
| 28>    C        8.65919       -14.64549        -0.03577
| 29>    C        7.93106       -13.91581         0.92381
| 30>    C        8.32600       -12.61534         1.06248
| 31>    C        9.39079       -12.25022         0.21323
| 32>    S        9.87277       -13.61619        -0.77223
| 33>    C       10.02374       -11.02710         0.11300
| 34>    C        9.76037        -9.85143         0.85850
| 35>    C       10.56064        -8.80164         0.54843
| 36>    C       11.51935        -9.08023        -0.47364
| 37>    S       11.33121       -10.75340        -1.02113
| 38>    C       12.47940        -8.26922        -0.96515
| 39>    C       13.37922        -8.68030        -2.05599
| 40>    C       14.71032        -9.07663        -1.89412
| 41>    N       15.47693        -9.20996        -0.75249
| 42>    C       14.96650        -9.01166         0.57793
| 43>    C       14.40215       -10.30374         1.17957
| 44>    C       13.81947       -10.05542         2.56353
| 45>    C       16.73117        -9.65330        -1.10555
| 46>    C       16.78835        -9.77201        -2.51801
| 47>    C       15.49063        -9.42718        -3.01848
| 48>    C       14.96066        -9.40009        -4.30090
| 49>    C       13.64044        -9.03368        -4.45405
| 50>    C       12.87112        -8.68510        -3.35018
| 51>    C       17.95351       -10.13881        -3.17225
| 52>    C       19.08214       -10.38128        -2.41264
| 53>    C       19.03948       -10.26743        -1.03403
| 54>    C       17.88015        -9.91386        -0.33138
| 55>    C       17.91905        -9.86970         1.11269
| 56>    C       19.01428        -9.57270         1.84379
| 57>    C       19.03198        -9.54710         3.26632
| 58>    S       17.55260        -9.61759         4.16914
| 59>    C       18.41028        -9.45602         5.65351
| 60>    C       19.75164        -9.34809         5.49664
| 61>    C       20.67062        -9.22834         6.66623
| 62>    C       20.14156        -9.40735         4.11431
| 63>    C       21.45554        -9.43121         3.57174
| 64>    C       22.65293        -9.15066         4.15744
| 65>    C       23.89369        -9.27486         3.48450
| 66>    C       24.07350        -9.77285         2.22295
| 67>    C       25.33366        -9.88754         1.61998
| 68>    C       25.53773       -10.38250         0.35222
| 69>    C       26.80796       -10.55656        -0.31443
| 70>    C       28.05147       -10.21724         0.16238
| 71>    C       29.25140       -10.40703        -0.55151
| 72>    N       30.26262       -10.53427        -1.08141
| 73>    C       28.32184        -9.62978         1.41446
| 74>    N       28.63703        -9.15227         2.41142
| 75>    C       26.54819       -11.16490        -1.61734
| 76>    C       25.15154       -11.34001        -1.76512
| 77>    C       24.46632       -10.84502        -0.55322
| 78>    O       23.26229       -10.83133        -0.37551
| 79>    C       24.58702       -11.89684        -2.88590
| 80>    C       25.44357       -12.30491        -3.91399
| 81>    C       26.83758       -12.12668        -3.75832
| 82>    C       27.40819       -11.56121        -2.62407
| 83>    S       27.71390       -12.70020        -5.14621
| 84>    C       26.21450       -13.16815        -5.90284
| 85>    C       25.11377       -12.90683        -5.15961
| 86>   Br       26.24303       -13.95185        -7.60791
| 87>    H        5.49665       -25.53770        -1.05135
| 88>    H        4.81424       -24.23133         0.04833
| 89>    H        7.51221       -24.86234        -2.65950
| 90>    H        8.95100       -22.81112        -3.25039
| 91>    H        9.94579       -20.69577        -3.42612
| 92>    H       10.62537       -18.22361        -3.17942
| 93>    H       10.01750       -16.09522        -1.84477
| 94>    H        7.71171       -16.52229         0.14251
| 95>    H        7.13580       -14.37139         1.48748
| 96>    H        7.87933       -11.91824         1.74850
| 97>    H        8.98706        -9.82180         1.60554
| 98>    H       10.50964        -7.83184         1.01145
| 99>    H       12.53887        -7.24746        -0.61059
|100>    H       14.16336        -8.27391         0.52327
|101>    H       15.75741        -8.59797         1.20950
|102>    H       15.18342       -11.06439         1.23515
|103>    H       13.62676       -10.68765         0.51460
|104>    H       14.58274        -9.67490         3.23958
|105>    H       13.42276       -10.97854         2.97779
|106>    H       13.01067        -9.32958         2.51035
|107>    H       15.56891        -9.66821        -5.15082
|108>    H       13.19223        -9.01257        -5.43578
|109>    H       11.84042        -8.39506        -3.49418
|110>    H       17.97129       -10.22653        -4.24758
|111>    H       20.00720       -10.66835        -2.88856
|112>    H       19.93181       -10.50087        -0.47428
|113>    H       17.02098       -10.12701         1.65279
|114>    H       19.93024        -9.30232         1.34008
|115>    H       17.85687        -9.45754         6.57213
|116>    H       20.10717        -9.33677         7.59029
|117>    H       21.15688        -8.25355         6.67635
|118>    H       21.43557       -10.00233         6.63143
|119>    H       21.49126        -9.72351         2.53279
|120>    H       22.69886        -8.79415         5.17337
|121>    H       24.77391        -8.95620         4.03073
|122>    H       23.22910       -10.11111         1.64440
|123>    H       26.19095        -9.57483         2.20188
|124>    H       23.51809       -12.01816        -2.96622
|125>    H       28.47710       -11.44939        -2.55540
|126>    H       24.11033       -13.12877        -5.47417
|127> *
|128>
|129>                          ****END OF INPUT****

CARTESIAN COORDINATES (ANGSTROEM)
---------------------------------
  C      5.521420  -24.518680   -0.707540
  C      6.410520  -23.649470   -1.210490
  C      7.406030  -23.889840   -2.212710
  C      8.160570  -22.809030   -2.520860
  C      7.828620  -21.635650   -1.794400
  S      6.508490  -21.959370   -0.689850
  C      8.418810  -20.392850   -1.898850
  C      9.478810  -20.005870   -2.746580
  C      9.839410  -18.695720   -2.616240
  C      9.089640  -17.978260   -1.663180
  S      7.895690  -19.030840   -0.928110
  C      9.243070  -16.645530   -1.324630
  C      8.488820  -15.975880   -0.377130
  C      8.659190  -14.645490   -0.035770
  C      7.931060  -13.915810    0.923810
  C      8.326000  -12.615340    1.062480
  C      9.390790  -12.250220    0.213230
  S      9.872770  -13.616190   -0.772230
  C     10.023740  -11.027100    0.113000
  C      9.760370   -9.851430    0.858500
  C     10.560640   -8.801640    0.548430
  C     11.519350   -9.080230   -0.473640
  S     11.331210  -10.753400   -1.021130
  C     12.479400   -8.269220   -0.965150
  C     13.379220   -8.680300   -2.055990
  C     14.710320   -9.076630   -1.894120
  N     15.476930   -9.209960   -0.752490
  C     14.966500   -9.011660    0.577930
  C     14.402150  -10.303740    1.179570
  C     13.819470  -10.055420    2.563530
  C     16.731170   -9.653300   -1.105550
  C     16.788350   -9.772010   -2.518010
  C     15.490630   -9.427180   -3.018480
  C     14.960660   -9.400090   -4.300900
  C     13.640440   -9.033680   -4.454050
  C     12.871120   -8.685100   -3.350180
  C     17.953510  -10.138810   -3.172250
  C     19.082140  -10.381280   -2.412640
  C     19.039480  -10.267430   -1.034030
  C     17.880150   -9.913860   -0.331380
  C     17.919050   -9.869700    1.112690
  C     19.014280   -9.572700    1.843790
  C     19.031980   -9.547100    3.266320
  S     17.552600   -9.617590    4.169140
  C     18.410280   -9.456020    5.653510
  C     19.751640   -9.348090    5.496640
  C     20.670620   -9.228340    6.666230
  C     20.141560   -9.407350    4.114310
  C     21.455540   -9.431210    3.571740
  C     22.652930   -9.150660    4.157440
  C     23.893690   -9.274860    3.484500
  C     24.073500   -9.772850    2.222950
  C     25.333660   -9.887540    1.619980
  C     25.537730  -10.382500    0.352220
  C     26.807960  -10.556560   -0.314430
  C     28.051470  -10.217240    0.162380
  C     29.251400  -10.407030   -0.551510
  N     30.262620  -10.534270   -1.081410
  C     28.321840   -9.629780    1.414460
  N     28.637030   -9.152270    2.411420
  C     26.548190  -11.164900   -1.617340
  C     25.151540  -11.340010   -1.765120
  C     24.466320  -10.845020   -0.553220
  O     23.262290  -10.831330   -0.375510
  C     24.587020  -11.896840   -2.885900
  C     25.443570  -12.304910   -3.913990
  C     26.837580  -12.126680   -3.758320
  C     27.408190  -11.561210   -2.624070
  S     27.713900  -12.700200   -5.146210
  C     26.214500  -13.168150   -5.902840
  C     25.113770  -12.906830   -5.159610
  Br    26.243030  -13.951850   -7.607910
  H      5.496650  -25.537700   -1.051350
  H      4.814240  -24.231330    0.048330
  H      7.512210  -24.862340   -2.659500
  H      8.951000  -22.811120   -3.250390
  H      9.945790  -20.695770   -3.426120
  H     10.625370  -18.223610   -3.179420
  H     10.017500  -16.095220   -1.844770
  H      7.711710  -16.522290    0.142510
  H      7.135800  -14.371390    1.487480
  H      7.879330  -11.918240    1.748500
  H      8.987060   -9.821800    1.605540
  H     10.509640   -7.831840    1.011450
  H     12.538870   -7.247460   -0.610590
  H     14.163360   -8.273910    0.523270
  H     15.757410   -8.597970    1.209500
  H     15.183420  -11.064390    1.235150
  H     13.626760  -10.687650    0.514600
  H     14.582740   -9.674900    3.239580
  H     13.422760  -10.978540    2.977790
  H     13.010670   -9.329580    2.510350
  H     15.568910   -9.668210   -5.150820
  H     13.192230   -9.012570   -5.435780
  H     11.840420   -8.395060   -3.494180
  H     17.971290  -10.226530   -4.247580
  H     20.007200  -10.668350   -2.888560
  H     19.931810  -10.500870   -0.474280
  H     17.020980  -10.127010    1.652790
  H     19.930240   -9.302320    1.340080
  H     17.856870   -9.457540    6.572130
  H     20.107170   -9.336770    7.590290
  H     21.156880   -8.253550    6.676350
  H     21.435570  -10.002330    6.631430
  H     21.491260   -9.723510    2.532790
  H     22.698860   -8.794150    5.173370
  H     24.773910   -8.956200    4.030730
  H     23.229100  -10.111110    1.644400
  H     26.190950   -9.574830    2.201880
  H     23.518090  -12.018160   -2.966220
  H     28.477100  -11.449390   -2.555400
  H     24.110330  -13.128770   -5.474170

 Total Charge           Charge          ....    0
 Multiplicity           Mult            ....    1
 Number of Electrons    NEL             ....  566
 Basis Dimension        Dim             .... 1250

ORBITAL ENERGIES
----------------

  NO   OCC          E(Eh)            E(eV)
   0   2.0000    -482.881073    -13139.8620
   1   2.0000     -88.969715     -2420.9890
   2   2.0000     -88.958704     -2420.6894
   3   2.0000     -88.940220     -2420.1864
   4   2.0000     -88.939965     -2420.1795
   5   2.0000     -88.939901     -2420.1778
   6   2.0000     -88.936344     -2420.0810
   7   2.0000     -62.558789     -1702.3112
   8   2.0000     -56.392737     -1534.5244
   9   2.0000     -56.390027     -1534.4506
  10   2.0000     -56.389992     -1534.4497
  11   2.0000     -19.209252      -522.7103
  12   2.0000     -14.447459      -393.1354
  13   2.0000     -14.406930      -392.0325
  14   2.0000     -14.405052      -391.9814
  15   2.0000     -10.359264      -281.8899
  16   2.0000     -10.353417      -281.7308
  17   2.0000     -10.331510      -281.1347
  18   2.0000     -10.330117      -281.0968
  19   2.0000     -10.318845      -280.7901
  20   2.0000     -10.311574      -280.5922
  21   2.0000     -10.310379      -280.5597
  22   2.0000     -10.308763      -280.5157
  23   2.0000     -10.307312      -280.4762
  24   2.0000     -10.306929      -280.4658
  25   2.0000     -10.305879      -280.4372
  26   2.0000     -10.305022      -280.4139
  27   2.0000     -10.304896      -280.4105
  28   2.0000     -10.304453      -280.3984
  29   2.0000     -10.304119      -280.3893
  30   2.0000     -10.303673      -280.3772
  31   2.0000     -10.302775      -280.3528
  32   2.0000     -10.301524      -280.3187
  33   2.0000     -10.301041      -280.3056
  34   2.0000     -10.300971      -280.3037
  35   2.0000     -10.300090      -280.2797
  36   2.0000     -10.299972      -280.2765
  37   2.0000     -10.298220      -280.2288
  38   2.0000     -10.297974      -280.2221
  39   2.0000     -10.295298      -280.1493
  40   2.0000     -10.294168      -280.1186
  41   2.0000     -10.291569      -280.0478
  42   2.0000     -10.291557      -280.0475
  43   2.0000     -10.287984      -279.9503
  44   2.0000     -10.286864      -279.9198
  45   2.0000     -10.285428      -279.8807
  46   2.0000     -10.285210      -279.8748
  47   2.0000     -10.284161      -279.8463
  48   2.0000     -10.283966      -279.8409
  49   2.0000     -10.283532      -279.8291
  50   2.0000     -10.282978      -279.8141
  51   2.0000     -10.282915      -279.8124
  52   2.0000     -10.282736      -279.8075
  53   2.0000     -10.281717      -279.7797
  54   2.0000     -10.280989      -279.7599
  55   2.0000     -10.279877      -279.7297
  56   2.0000     -10.279228      -279.7120
  57   2.0000     -10.278843      -279.7015
  58   2.0000     -10.277402      -279.6623
  59   2.0000     -10.276619      -279.6410
  60   2.0000     -10.275747      -279.6173
  61   2.0000     -10.274956      -279.5958
  62   2.0000     -10.274120      -279.5730
  63   2.0000     -10.273313      -279.5511
  64   2.0000     -10.270699      -279.4799
  65   2.0000     -10.267775      -279.4004
  66   2.0000     -10.265023      -279.3255
  67   2.0000     -10.263213      -279.2762
  68   2.0000     -10.261893      -279.2403
  69   2.0000     -10.261486      -279.2292
  70   2.0000     -10.259746      -279.1819
  71   2.0000     -10.259128      -279.1651
  72   2.0000     -10.258772      -279.1554
  73   2.0000     -10.255150      -279.0568
  74   2.0000     -10.254618      -279.0423
  75   2.0000     -10.253522      -279.0125
  76   2.0000      -8.788214      -239.1395
  77   2.0000      -8.065696      -219.4787
  78   2.0000      -8.054381      -219.1709
  79   2.0000      -8.036606      -218.6872
  80   2.0000      -8.036315      -218.6793
  81   2.0000      -8.035206      -218.6491
  82   2.0000      -8.033041      -218.5902
  83   2.0000      -6.624512      -180.2621
  84   2.0000      -6.609948      -179.8658
  85   2.0000      -6.609758      -179.8607
  86   2.0000      -6.035383      -164.2311
  87   2.0000      -6.031124      -164.1152
  88   2.0000      -6.026916      -164.0007
  89   2.0000      -6.023617      -163.9110
  90   2.0000      -6.019376      -163.7955
  91   2.0000      -6.016740      -163.7238
  92   2.0000      -6.006293      -163.4395
  93   2.0000      -6.006011      -163.4319
  94   2.0000      -6.005051      -163.4058
  95   2.0000      -6.002835      -163.3454
  96   2.0000      -6.002365      -163.3327
  97   2.0000      -6.002045      -163.3240
  98   2.0000      -6.001045      -163.2967
  99   2.0000      -5.998945      -163.2396
 100   2.0000      -5.997502      -163.2003
 101   2.0000      -5.997222      -163.1927
 102   2.0000      -5.995990      -163.1592
 103   2.0000      -5.993611      -163.0945
 104   2.0000      -2.740326       -74.5680
 105   2.0000      -2.736303       -74.4586
 106   2.0000      -2.736197       -74.4557
 107   2.0000      -2.724598       -74.1401
 108   2.0000      -2.724569       -74.1393
 109   2.0000      -1.121998       -30.5311
 110   2.0000      -1.076983       -29.3062
 111   2.0000      -1.015321       -27.6283
 112   2.0000      -1.005112       -27.3505
 113   2.0000      -0.991064       -26.9682
 114   2.0000      -0.990408       -26.9504
 115   2.0000      -0.989075       -26.9141
 116   2.0000      -0.984794       -26.7976
 117   2.0000      -0.980940       -26.6927
 118   2.0000      -0.969960       -26.3940
 119   2.0000      -0.965794       -26.2806
 120   2.0000      -0.942645       -25.6507
 121   2.0000      -0.940582       -25.5945
 122   2.0000      -0.937488       -25.5103
 123   2.0000      -0.924394       -25.1540
 124   2.0000      -0.908442       -24.7200
 125   2.0000      -0.900966       -24.5165
 126   2.0000      -0.900519       -24.5044
 127   2.0000      -0.893918       -24.3248
 128   2.0000      -0.888014       -24.1641
 129   2.0000      -0.878875       -23.9154
 130   2.0000      -0.876383       -23.8476
 131   2.0000      -0.869913       -23.6715
 132   2.0000      -0.867375       -23.6025
 133   2.0000      -0.861249       -23.4358
 134   2.0000      -0.850956       -23.1557
 135   2.0000      -0.844467       -22.9791
 136   2.0000      -0.841184       -22.8898
 137   2.0000      -0.838273       -22.8106
 138   2.0000      -0.833034       -22.6680
 139   2.0000      -0.825018       -22.4499
 140   2.0000      -0.822395       -22.3785
 141   2.0000      -0.816540       -22.2192
 142   2.0000      -0.815855       -22.2005
 143   2.0000      -0.811401       -22.0793
 144   2.0000      -0.800538       -21.7837
 145   2.0000      -0.794880       -21.6298
 146   2.0000      -0.788426       -21.4542
 147   2.0000      -0.772493       -21.0206
 148   2.0000      -0.759452       -20.6657
 149   2.0000      -0.757909       -20.6238
 150   2.0000      -0.751323       -20.4445
 151   2.0000      -0.749269       -20.3887
 152   2.0000      -0.729462       -19.8497
 153   2.0000      -0.721096       -19.6220
 154   2.0000      -0.717394       -19.5213
 155   2.0000      -0.704115       -19.1599
 156   2.0000      -0.694677       -18.9031
 157   2.0000      -0.690988       -18.8028
 158   2.0000      -0.689505       -18.7624
 159   2.0000      -0.682993       -18.5852
 160   2.0000      -0.682333       -18.5672
 161   2.0000      -0.680054       -18.5052
 162   2.0000      -0.670933       -18.2570
 163   2.0000      -0.663488       -18.0544
 164   2.0000      -0.656307       -17.8590
 165   2.0000      -0.651522       -17.7288
 166   2.0000      -0.650242       -17.6940
 167   2.0000      -0.641918       -17.4675
 168   2.0000      -0.635258       -17.2862
 169   2.0000      -0.629138       -17.1197
 170   2.0000      -0.621502       -16.9119
 171   2.0000      -0.620558       -16.8862
 172   2.0000      -0.617194       -16.7947
 173   2.0000      -0.615515       -16.7490
 174   2.0000      -0.609758       -16.5923
 175   2.0000      -0.604885       -16.4598
 176   2.0000      -0.603909       -16.4332
 177   2.0000      -0.600375       -16.3370
 178   2.0000      -0.596127       -16.2214
 179   2.0000      -0.594868       -16.1872
 180   2.0000      -0.590998       -16.0819
 181   2.0000      -0.589049       -16.0288
 182   2.0000      -0.586391       -15.9565
 183   2.0000      -0.577808       -15.7229
 184   2.0000      -0.570698       -15.5295
 185   2.0000      -0.562446       -15.3049
 186   2.0000      -0.554878       -15.0990
 187   2.0000      -0.553908       -15.0726
 188   2.0000      -0.547701       -14.9037
 189   2.0000      -0.545309       -14.8386
 190   2.0000      -0.541190       -14.7265
 191   2.0000      -0.539531       -14.6814
 192   2.0000      -0.533002       -14.5037
 193   2.0000      -0.531740       -14.4694
 194   2.0000      -0.530419       -14.4334
 195   2.0000      -0.529095       -14.3974
 196   2.0000      -0.521896       -14.2015
 197   2.0000      -0.520774       -14.1710
 198   2.0000      -0.517332       -14.0773
 199   2.0000      -0.516391       -14.0517
 200   2.0000      -0.514984       -14.0134
 201   2.0000      -0.513473       -13.9723
 202   2.0000      -0.511605       -13.9215
 203   2.0000      -0.505611       -13.7584
 204   2.0000      -0.502517       -13.6742
 205   2.0000      -0.501993       -13.6599
 206   2.0000      -0.501765       -13.6537
 207   2.0000      -0.499034       -13.5794
 208   2.0000      -0.495406       -13.4807
 209   2.0000      -0.494406       -13.4535
 210   2.0000      -0.492984       -13.4148
 211   2.0000      -0.492698       -13.4070
 212   2.0000      -0.491173       -13.3655
 213   2.0000      -0.489582       -13.3222
 214   2.0000      -0.486270       -13.2321
 215   2.0000      -0.485353       -13.2071
 216   2.0000      -0.484832       -13.1930
 217   2.0000      -0.483040       -13.1442
 218   2.0000      -0.478764       -13.0278
 219   2.0000      -0.478067       -13.0089
 220   2.0000      -0.471016       -12.8170
 221   2.0000      -0.469314       -12.7707
 222   2.0000      -0.464609       -12.6427
 223   2.0000      -0.463572       -12.6144
 224   2.0000      -0.462478       -12.5847
 225   2.0000      -0.461907       -12.5691
 226   2.0000      -0.458212       -12.4686
 227   2.0000      -0.456352       -12.4180
 228   2.0000      -0.453957       -12.3528
 229   2.0000      -0.452463       -12.3121
 230   2.0000      -0.451425       -12.2839
 231   2.0000      -0.446638       -12.1536
 232   2.0000      -0.444631       -12.0990
 233   2.0000      -0.442394       -12.0381
 234   2.0000      -0.440283       -11.9807
 235   2.0000      -0.437060       -11.8930
 236   2.0000      -0.435301       -11.8451
 237   2.0000      -0.434491       -11.8231
 238   2.0000      -0.433384       -11.7930
 239   2.0000      -0.432661       -11.7733
 240   2.0000      -0.432180       -11.7602
 241   2.0000      -0.430571       -11.7164
 242   2.0000      -0.427868       -11.6429
 243   2.0000      -0.424220       -11.5436
 244   2.0000      -0.422259       -11.4902
 245   2.0000      -0.420793       -11.4504
 246   2.0000      -0.417945       -11.3729
 247   2.0000      -0.417142       -11.3510
 248   2.0000      -0.414887       -11.2897
 249   2.0000      -0.414635       -11.2828
 250   2.0000      -0.410515       -11.1707
 251   2.0000      -0.406269       -11.0552
 252   2.0000      -0.404649       -11.0111
 253   2.0000      -0.404323       -11.0022
 254   2.0000      -0.402701       -10.9580
 255   2.0000      -0.398371       -10.8402
 256   2.0000      -0.397259       -10.8100
 257   2.0000      -0.391058       -10.6412
 258   2.0000      -0.386478       -10.5166
 259   2.0000      -0.385025       -10.4771
 260   2.0000      -0.382276       -10.4023
 261   2.0000      -0.377215       -10.2645
 262   2.0000      -0.374618       -10.1939
 263   2.0000      -0.370684       -10.0868
 264   2.0000      -0.352922        -9.6035
 265   2.0000      -0.344819        -9.3830
 266   2.0000      -0.342099        -9.3090
 267   2.0000      -0.333905        -9.0860
 268   2.0000      -0.333546        -9.0763
 269   2.0000      -0.327961        -8.9243
 270   2.0000      -0.323526        -8.8036
 271   2.0000      -0.320799        -8.7294
 272   2.0000      -0.318642        -8.6707
 273   2.0000      -0.316889        -8.6230
 274   2.0000      -0.309135        -8.4120
 275   2.0000      -0.296394        -8.0653
 276   2.0000      -0.289415        -7.8754
 277   2.0000      -0.286048        -7.7838
 278   2.0000      -0.270400        -7.3580
 279   2.0000      -0.261917        -7.1271
 280   2.0000      -0.246567        -6.7094
 281   2.0000      -0.239146        -6.5075
 282   2.0000      -0.193741        -5.2720
 283   0.0000      -0.091957        -2.5023
 284   0.0000      -0.085090        -2.3154
 285   0.0000      -0.056888        -1.5480
 286   0.0000      -0.033710        -0.9173
 287   0.0000      -0.032280        -0.8784

MULLIKEN ATOMIC CHARGES
-----------------------
   0 C :   -0.030286
   1 C :   -0.066039
   2 C :    0.052756
   3 C :    0.025221
   4 C :   -0.067163
   5 S :    0.079705
   6 C :   -0.043577
   7 C :    0.019689
   8 C :    0.029652
   9 C :   -0.019087
  10 S :    0.074477
  11 C :   -0.020929
  12 C :   -0.013723
  13 C :   -0.022826
  14 C :    0.032386
  15 C :    0.015716
  16 C :   -0.042404
  17 S :    0.073259
  18 C :   -0.057283
  19 C :    0.019349
  20 C :    0.055239
  21 C :   -0.018232
  22 S :    0.088632
  23 C :   -0.109303
  24 C :   -0.057369
  25 C :    0.129922
  26 N :   -0.176424
  27 C :    0.129078
  28 C :   -0.017737
  29 C :    0.014222
  30 C :    0.109267
  31 C :    0.058360
  32 C :    0.062704
  33 C :   -0.047014
  34 C :    0.032574
  35 C :   -0.016263
  36 C :   -0.049281
  37 C :    0.031091
  38 C :   -0.047434
  39 C :    0.050023
  40 C :   -0.054485
  41 C :    0.002529
  42 C :   -0.111124
  43 S :    0.094457
  44 C :   -0.111878
  45 C :   -0.087767
  46 C :    0.118804
  47 C :    0.137940
  48 C :   -0.002510
  49 C :   -0.015340
  50 C :    0.059149
  51 C :   -0.017416
  52 C :   -0.013588
  53 C :   -0.097253
  54 C :    0.334612
  55 C :   -0.361630
  56 C :   -0.185475
  57 N :    0.140336
  58 C :   -0.190845
  59 N :    0.141811
  60 C :    0.015670
  61 C :   -0.002584
  62 C :    0.149234
  63 O :   -0.170023
  64 C :   -0.080662
  65 C :    0.123633
  66 C :   -0.091029
  67 C :   -0.027730
  68 S :    0.183741
  69 C :   -0.121303
  70 C :    0.033330
  71 Br:    0.018144
  72 H :    0.019404
  73 H :    0.021848
  74 H :   -0.012909
  75 H :   -0.011129
  76 H :   -0.015060
  77 H :   -0.012398
  78 H :   -0.006006
  79 H :   -0.007324
  80 H :   -0.013198
  81 H :   -0.016494
  82 H :   -0.014326
  83 H :   -0.016249
  84 H :    0.019612
  85 H :    0.004486
  86 H :    0.014391
  87 H :    0.016310
  88 H :    0.015279
  89 H :    0.000890
  90 H :    0.019911
  91 H :    0.009394
  92 H :   -0.036137
  93 H :   -0.024603
  94 H :   -0.025582
  95 H :   -0.033321
  96 H :   -0.025951
  97 H :   -0.016201
  98 H :   -0.002913
  99 H :    0.009123
 100 H :    0.014885
 101 H :    0.006412
 102 H :    0.038699
 103 H :    0.034039
 104 H :   -0.004032
 105 H :   -0.026707
 106 H :    0.004527
 107 H :    0.024896
 108 H :    0.003691
 109 H :   -0.015369
 110 H :   -0.008230
 111 H :   -0.005353
Sum of atomic charges:   -0.0000000

LOEWDIN ATOMIC CHARGES
----------------------
   0 C :   -0.077661
   1 C :   -0.139441
   2 C :   -0.033542
   3 C :   -0.027243
   4 C :   -0.178022
   5 S :    0.352289
   6 C :   -0.180055
   7 C :   -0.034743
   8 C :   -0.036333
   9 C :   -0.143498
  10 S :    0.369360
  11 C :   -0.066451
  12 C :   -0.059648
  13 C :   -0.148630
  14 C :   -0.033412
  15 C :   -0.039947
  16 C :   -0.175791
  17 S :    0.370256
  18 C :   -0.187239
  19 C :   -0.026709
  20 C :   -0.041591
  21 C :   -0.138226
  22 S :    0.373988
  23 C :   -0.060724
  24 C :   -0.070363
  25 C :    0.035058
  26 N :    0.026360
  27 C :    0.037494
  28 C :   -0.047588
  29 C :   -0.056213
  30 C :    0.038957
  31 C :   -0.042137
  32 C :   -0.041085
  33 C :   -0.011773
  34 C :   -0.044475
  35 C :   -0.014791
  36 C :   -0.007825
  37 C :   -0.044935
  38 C :   -0.006876
  39 C :   -0.060313
  40 C :   -0.004631
  41 C :   -0.053852
  42 C :   -0.137822
  43 S :    0.439350
  44 C :   -0.191902
  45 C :   -0.047499
  46 C :   -0.043964
  47 C :   -0.075078
  48 C :    0.040449
  49 C :   -0.060970
  50 C :    0.041474
  51 C :   -0.045676
  52 C :    0.071967
  53 C :   -0.109858
  54 C :    0.076549
  55 C :   -0.149379
  56 C :   -0.017859
  57 N :   -0.062281
  58 C :   -0.020242
  59 N :   -0.060347
  60 C :   -0.019235
  61 C :   -0.049135
  62 C :    0.087284
  63 O :   -0.162670
  64 C :    0.018176
  65 C :   -0.034192
  66 C :   -0.144566
  67 C :   -0.011199
  68 S :    0.429986
  69 C :   -0.272772
  70 C :   -0.071102
  71 Br:    0.132447
  72 H :    0.028395
  73 H :    0.026006
  74 H :    0.032870
  75 H :    0.032289
  76 H :    0.030731
  77 H :    0.033781
  78 H :    0.028142
  79 H :    0.028372
  80 H :    0.033493
  81 H :    0.030148
  82 H :    0.031659
  83 H :    0.031478
  84 H :    0.031672
  85 H :    0.027811
  86 H :    0.022993
  87 H :    0.019973
  88 H :    0.017121
  89 H :    0.013417
  90 H :    0.028663
  91 H :    0.021637
  92 H :    0.026404
  93 H :    0.025752
  94 H :    0.028559
  95 H :    0.027050
  96 H :    0.026123
  97 H :    0.030451
  98 H :    0.019746
  99 H :    0.034423
 100 H :    0.022115
 101 H :    0.033577
 102 H :    0.035506
 103 H :    0.036636
 104 H :    0.035734
 105 H :    0.027772
 106 H :    0.036155
 107 H :    0.027386
 108 H :    0.040747
 109 H :    0.038771
 110 H :    0.040638
 111 H :    0.037874

  Mayer bond orders larger than 0.100000
B(  0-C ,  1-C ) :   1.8560 B(  0-C , 72-H ) :   0.9505 B(  0-C , 73-H ) :   0.9423
B(  1-C ,  2-C ) :   1.0849 B(  1-C ,  5-S ) :   1.0089 B(  2-C ,  3-C ) :   1.6482
B(  2-C , 74-H ) :   0.9931 B(  3-C ,  4-C ) :   1.1651 B(  3-C , 75-H ) :   0.9928
B(  4-C ,  5-S ) :   1.0478 B(  4-C ,  6-C ) :   1.5237 B(  6-C ,  7-C ) :   1.1954
B(  6-C , 10-S ) :   1.0413 B(  7-C ,  8-C ) :   1.5649 B(  7-C , 76-H ) :   0.9940
B(  8-C ,  9-C ) :   1.1731 B(  8-C , 77-H ) :   1.0008 B(  9-C , 10-S ) :   1.0421
B(  9-C , 11-C ) :   1.5262 B( 11-C , 12-C ) :   1.2064 B( 11-C , 78-H ) :   0.9720
B( 12-C , 13-C ) :   1.5256 B( 12-C , 79-H ) :   0.9732 B( 13-C , 14-C ) :   1.1756
B( 13-C , 17-S ) :   1.0380 B( 14-C , 15-C ) :   1.5605 B( 14-C , 80-H ) :   1.0006
B( 15-C , 16-C ) :   1.1987 B( 15-C , 81-H ) :   0.9943 B( 16-C , 17-S ) :   1.0466
B( 16-C , 18-C ) :   1.5130 B( 18-C , 19-C ) :   1.1765 B( 18-C , 22-S ) :   1.0316
B( 19-C , 20-C ) :   1.6211 B( 19-C , 82-H ) :   0.9945 B( 20-C , 21-C ) :   1.0919
B( 20-C , 83-H ) :   0.9978 B( 21-C , 22-S ) :   1.0321 B( 21-C , 23-C ) :   1.7609
B( 23-C , 24-C ) :   0.9519 B( 23-C , 84-H ) :   0.9514 B( 24-C , 25-C ) :   1.3316
B( 24-C , 35-C ) :   1.4215 B( 25-C , 26-N ) :   1.1322 B( 25-C , 32-C ) :   1.2923
B( 26-N , 27-C ) :   0.9607 B( 26-N , 30-C ) :   1.1466 B( 27-C , 28-C ) :   1.0882
B( 27-C , 85-H ) :   0.9147 B( 27-C , 86-H ) :   0.9324 B( 28-C , 29-C ) :   1.1050
B( 28-C , 87-H ) :   0.9350 B( 28-C , 88-H ) :   0.9237 B( 29-C , 89-H ) :   0.9666
B( 29-C , 90-H ) :   0.9657 B( 29-C , 91-H ) :   0.9673 B( 30-C , 31-C ) :   1.2768
B( 30-C , 39-C ) :   1.2776 B( 31-C , 32-C ) :   1.0743 B( 31-C , 36-C ) :   1.3483
B( 32-C , 33-C ) :   1.3377 B( 33-C , 34-C ) :   1.3891 B( 33-C , 92-H ) :   0.9983
B( 34-C , 35-C ) :   1.3310 B( 34-C , 93-H ) :   0.9870 B( 35-C , 94-H ) :   0.9945
B( 36-C , 37-C ) :   1.3616 B( 36-C , 95-H ) :   1.0000 B( 37-C , 38-C ) :   1.3696
B( 37-C , 96-H ) :   0.9849 B( 38-C , 39-C ) :   1.3725 B( 38-C , 97-H ) :   0.9886
B( 39-C , 40-C ) :   1.0375 B( 40-C , 41-C ) :   1.7182 B( 40-C , 98-H ) :   0.9665
B( 41-C , 42-C ) :   1.1373 B( 41-C , 99-H ) :   0.9628 B( 42-C , 43-S ) :   1.1589
B( 42-C , 47-C ) :   1.3778 B( 43-S , 44-C ) :   1.1088 B( 44-C , 45-C ) :   1.6391
B( 44-C ,100-H ) :   0.9653 B( 45-C , 46-C ) :   1.0993 B( 45-C , 47-C ) :   1.1876
B( 46-C ,101-H ) :   0.9442 B( 46-C ,102-H ) :   0.9395 B( 46-C ,103-H ) :   0.9426
B( 47-C , 48-C ) :   1.1697 B( 48-C , 49-C ) :   1.6129 B( 48-C ,104-H ) :   0.9502
B( 49-C , 50-C ) :   1.1606 B( 49-C ,105-H ) :   0.9792 B( 50-C , 51-C ) :   1.5363
B( 50-C ,106-H ) :   0.9805 B( 51-C , 52-C ) :   1.2165 B( 51-C ,107-H ) :   0.9609
B( 52-C , 53-C ) :   1.4808 B( 52-C ,108-H ) :   0.9620 B( 53-C , 54-C ) :   1.0807
B( 53-C , 62-C ) :   0.9629 B( 54-C , 55-C ) :   1.6072 B( 54-C , 60-C ) :   0.9956
B( 55-C , 56-C ) :   1.1469 B( 55-C , 58-C ) :   1.1509 B( 56-C , 57-N ) :   2.9631
B( 58-C , 59-N ) :   2.9578 B( 60-C , 61-C ) :   1.2776 B( 60-C , 67-C ) :   1.4111
B( 61-C , 62-C ) :   0.9485 B( 61-C , 64-C ) :   1.4228 B( 62-C , 63-O ) :   2.1556
B( 64-C , 65-C ) :   1.2405 B( 64-C ,109-H ) :   1.0183 B( 65-C , 66-C ) :   1.3108
B( 65-C , 70-C ) :   1.1592 B( 66-C , 67-C ) :   1.3254 B( 66-C , 68-S ) :   1.0847
B( 67-C ,110-H ) :   0.9809 B( 68-S , 69-C ) :   1.0860 B( 69-C , 70-C ) :   1.6203
B( 69-C , 71-Br) :   1.0151 B( 70-C ,111-H ) :   1.0010

-----------------------------------------------------------------------------
         ABSORPTION SPECTRUM VIA TRANSITION ELECTRIC DIPOLE MOMENTS
-----------------------------------------------------------------------------
State   Energy  Wavelength   fosc         T2         TX        TY        TZ
        (cm-1)    (nm)                  (au**2)     (au)      (au)      (au)
-----------------------------------------------------------------------------
   0   12155.9    822.6   1.862591724  50.44370  -2.57948  -6.58840  -0.61886
   1   15192.9    658.2   0.012328469   0.26714   0.44407  -0.26178  -0.03755
   2   16831.8    594.1   0.732737419  14.33157   3.64703  -0.84311  -0.56558
   3   19669.5    508.4   0.000005454   0.00009   0.00383   0.00828  -0.00283
   4   22849.7    437.6   0.280960892   4.04800  -1.05478   0.19704   1.70194
   5   23020.2    434.4   0.260680103   3.72799   1.20808  -0.33985  -1.46733
   6   23172.2    431.6   0.026676000   0.37899  -0.44574   0.13072   0.40400
   7   24514.8    407.9   0.020182831   0.27104  -0.44849   0.17284   0.20004
   8   25038.1    399.4   0.009928839   0.13055  -0.34282   0.08722   0.07358
   9   25782.3    387.9   0.064012937   0.81738  -0.86839   0.15899   0.19492
  10   26092.8    383.2   0.007808533   0.09852   0.22206  -0.03901  -0.21838
  11   27061.5    369.5   0.008017420   0.09753  -0.22376  -0.00674  -0.21776
  12   27389.2    365.1   0.185235638   2.22649   0.07176  -0.75054  -1.28764
  13   27928.0    358.1   0.009237087   0.10889  -0.15075   0.22609   0.18720
  14   28155.8    355.2   0.000930704   0.01088   0.03093   0.04314   0.08980
  15   28274.6    353.7   0.012368723   0.14401   0.15334   0.33400   0.09456
  16   28722.6    348.2   0.233908765   2.68101   0.50206   0.17213   1.54897
  17   29619.2    337.6   0.333233726   3.70383   0.30104   0.35629   1.86715
  18   29719.6    336.5   0.191995537   2.12679   0.11391   0.25502   1.43136
  19   29874.5    334.7   0.037599770   0.41434  -0.21459  -0.06224  -0.60367
  20   30914.7    323.5   0.006838583   0.07282   0.05091  -0.16155   0.21008
  21   31018.4    322.4   0.036621934   0.38868   0.44680   0.05487  -0.43133
  22   31696.7    315.5   0.104333766   1.08365   0.82454   0.40521  -0.48947
  23   32240.0    310.2   0.000896738   0.00916  -0.04943  -0.07788   0.02545
  24   32280.8    309.8   0.001291671   0.01317  -0.04279  -0.05700  -0.08996
  25   32335.0    309.3   0.000856615   0.00872   0.08980   0.01764  -0.01860
  26   32948.1    303.5   0.232911207   2.32721   0.56551   0.60999   1.27880
  27   33333.0    300.0   0.424741912   4.19495  -1.15260  -0.78304  -1.50110
  28   33507.8    298.4   0.247484641   2.43152  -1.00444  -0.09678   1.18880
  29   33725.6    296.5   0.003598959   0.03513   0.14756   0.09976  -0.05834
  30   34234.6    292.1   0.026392182   0.25380   0.06874   0.17244   0.46833
  31   34286.4    291.7   0.005134641   0.04930   0.02362  -0.14413  -0.16725
  32   34335.2    291.2   0.037826400   0.36269  -0.08641  -0.11818  -0.58417
  33   34700.5    288.2   0.137432881   1.30386   0.61225   0.27719   0.92314
  34   34833.6    287.1   0.145857823   1.37850   0.66091   0.45959   0.85468
  35   34991.0    285.8   0.041780179   0.39309   0.37619   0.24389   0.43827
  36   35056.6    285.3   0.031156530   0.29259  -0.35314  -0.11030  -0.39461
  37   35584.2    281.0   0.095300524   0.88169   0.08926  -0.30838  -0.88239
  38   35979.5    277.9   0.125668570   1.14987   0.59323  -0.57762  -0.68140
  39   36502.7    274.0   0.090137636   0.81294  -0.86974   0.04860   0.23267
  40   37034.8    270.0   0.000501680   0.00446  -0.05780  -0.03287   0.00619
  41   37077.4    269.7   0.072456852   0.64335  -0.73075  -0.19772   0.26506
  42   37613.9    265.9   0.011907630   0.10422   0.30392  -0.10825   0.01160
  43   37964.3    263.4   0.334066304   2.89690  -1.65867  -0.37082   0.09061
  44   38125.7    262.3   0.164065537   1.41669   0.45265   0.46626  -0.99719
  45   38182.6    261.9   0.099545910   0.85829   0.15170  -0.89013  -0.20722
  46   38214.5    261.7   0.111381894   0.95954   0.67708   0.24340  -0.66472
  47   38348.6    260.8   0.002263578   0.01943  -0.10284  -0.07542   0.05628
  48   38569.6    259.3   0.112333500   0.95882  -0.70783  -0.00979   0.67654
  49   38882.7    257.2   0.018613038   0.15759   0.04242  -0.35853   0.16507
  50   39374.5    254.0   0.020223833   0.16909   0.18592   0.35373  -0.09696
  51   40056.2    249.6   0.069636446   0.57232  -0.52699  -0.32370   0.43569
  52   40264.1    248.4   0.003379362   0.02763   0.14590  -0.05112  -0.06107

FINAL SINGLE POINT ENERGY     -7546.977237559990

DIPOLE MOMENT
-------------
                                X             Y             Z
Electronic contribution:    145.87787     -29.64963    -111.39147
Nuclear contribution   :   -149.81542      28.90377     111.97614
                        -----------------------------------------
Total Dipole Moment    :     -3.93755      -0.74585       0.58467
                        -----------------------------------------
Magnitude (a.u.)       :      4.04999
Magnitude (Debye)      :     10.29425

Rotational constants in cm-1:     0.000692     0.000226     0.000196
Rotational constants in MHz :    20.753639     6.784739     5.878982

                             ****ORCA TERMINATED NORMALLY****
TOTAL RUN TIME: 0 days 0 hours 22 minutes 15 seconds 719 msec
