                         Program Version 4.2.0 -  RELEASE  -
|  1> # ORCA input file
|  2> # SCF done       -177.695619484284          0.000928439161
|  3> ! CAM-B3LYP def2-SVP def2/J RIJCOSX Grid4 TightSCF
|  4> %maxcore 5000
|  5> %tddft
|  6>     Mode sTDDFT
|  7>     Ethresh 5.0
|  8>     maxcore 5000
|  9> end
| 10>
| 11> %pal
| 12>   nprocs 6
| 13>   end
| 14> * xyz 0 1
| 15>    C        2.05356        -0.08314        12.13540
| 16>    C        3.24161        -0.48766        11.66315
| 17>    C        4.53850        -0.26472        12.23205
| 18>    C        5.55928        -0.79476        11.51919
| 19>    C        5.15349        -1.47409        10.33871
| 20>    S        3.41637        -1.41957        10.16642
| 21>    C        5.97698        -2.09881         9.42258
| 22>    C        7.38398        -2.18381         9.45579
| 23>    C        7.91663        -2.86018         8.39585
| 24>    C        6.96325        -3.34518         7.48089
| 25>    S        5.35142        -2.91244         8.00122
| 26>    C        7.24388        -4.06561         6.32984
| 27>    C        6.31273        -4.55441         5.43743
| 28>    C        6.64449        -5.26905         4.29376
| 29>    C        5.77582        -5.80798         3.33207
| 30>    C        6.40631        -6.46094         2.30462
| 31>    C        7.80686        -6.46225         2.41445
| 32>    S        8.30508        -5.61680         3.86008
| 33>    C        8.74095        -7.01688         1.55113
| 34>    C        8.52969        -7.71840         0.35127
| 35>    C        9.67351        -8.12502        -0.27472
| 36>    C       10.86008        -7.76275         0.40385
| 37>    S       10.45587        -6.88515         1.88060
| 38>    C       12.15079        -8.01273         0.03140
| 39>    N       13.21299        -7.60755         0.77700
| 40>    C       14.51766        -7.78209         0.48823
| 41>    S       15.00001        -8.58451        -0.97623
| 42>    C       16.66451        -8.35698        -0.52956
| 43>    N       17.62794        -8.84474        -1.40700
| 44>    O       18.80208        -8.69305        -1.11227
| 45>    O       17.21489        -9.39289        -2.42050
| 46>    C       16.82691        -7.70829         0.66563
| 47>    C       15.60821        -7.36457         1.27773
| 48>    C       15.47269        -6.68968         2.53784
| 49>    C       16.51100        -6.29595         3.29943
| 50>    N       16.36543        -5.66601         4.50797
| 51>    C       17.37915        -5.27916         5.31023
| 52>    S       19.02752        -5.54235         4.83849
| 53>    C       19.55526        -4.83135         6.33696
| 54>    N       20.93629        -4.75022         6.54335
| 55>    O       21.33135        -4.25059         7.57905
| 56>    O       21.64217        -5.19110         5.65052
| 57>    C       18.53132        -4.42653         7.14117
| 58>    C       17.25747        -4.66628         6.57625
| 59>    C       16.01957        -4.32536         7.19367
| 60>    C       15.90154        -3.83783         8.45949
| 61>    C       14.66066        -3.48415         9.02329
| 62>    C       14.49757        -3.02393        10.30614
| 63>    C       13.26371        -2.61007        10.93177
| 64>    C       12.01467        -2.55624        10.35438
| 65>    C       10.86098        -2.08192        11.00414
| 66>    N        9.88025        -1.69095        11.45964
| 67>    C       11.69673        -2.95266         9.04324
| 68>    N       11.32841        -3.26695         7.99945
| 69>    C       13.56226        -2.23293        12.30820
| 70>    C       14.95114        -2.39159        12.53316
| 71>    C       15.59318        -2.87564        11.29396
| 72>    O       16.77568        -3.10271        11.14405
| 73>    C       15.54218        -2.13116        13.74432
| 74>    C       14.72137        -1.69337        14.79002
| 75>    C       13.33474        -1.53727        14.55722
| 76>    C       12.73793        -1.79983        13.33041
| 77>    S       12.50497        -0.99318        15.98434
| 78>    C       14.01166        -0.98487        16.86223
| 79>    C       15.08183        -1.36796        16.12604
| 80>   Br       14.02682        -0.47317        18.66687
| 81>    H        1.98991         0.48236        13.04822
| 82>    H        1.13540        -0.30681        11.62397
| 83>    H        4.64797         0.28383        13.15047
| 84>    H        6.59597        -0.72690        11.79620
| 85>    H        7.96894        -1.75605        10.24970
| 86>    H        8.96847        -3.02431         8.24201
| 87>    H        8.29253        -4.25218         6.13178
| 88>    H        5.26137        -4.37882         5.62646
| 89>    H        4.70850        -5.70291         3.41678
| 90>    H        5.89600        -6.93139         1.48368
| 91>    H        7.53969        -7.90572        -0.02357
| 92>    H        9.70237        -8.67032        -1.20045
| 93>    H       12.36907        -8.54573        -0.88051
| 94>    H       12.98446        -7.11630         1.63435
| 95>    H       17.80337        -7.50230         1.06205
| 96>    H       14.46934        -6.49364         2.89462
| 97>    H       17.53319        -6.46098         2.99939
| 98>    H       15.42160        -5.49244         4.83257
| 99>    H       18.70325        -3.96606         8.09664
|100>    H       15.11361        -4.46126         6.61390
|101>    H       16.77631        -3.71345         9.07675
|102>    H       13.78687        -3.58453         8.39155
|103>    H       16.60362        -2.26422        13.88291
|104>    H       11.67614        -1.66814        13.20759
|105>    H       16.08489        -1.42085        16.50814
|106> *
|107>
|108>                          ****END OF INPUT****

CARTESIAN COORDINATES (ANGSTROEM)
---------------------------------
  C      2.053560   -0.083140   12.135400
  C      3.241610   -0.487660   11.663150
  C      4.538500   -0.264720   12.232050
  C      5.559280   -0.794760   11.519190
  C      5.153490   -1.474090   10.338710
  S      3.416370   -1.419570   10.166420
  C      5.976980   -2.098810    9.422580
  C      7.383980   -2.183810    9.455790
  C      7.916630   -2.860180    8.395850
  C      6.963250   -3.345180    7.480890
  S      5.351420   -2.912440    8.001220
  C      7.243880   -4.065610    6.329840
  C      6.312730   -4.554410    5.437430
  C      6.644490   -5.269050    4.293760
  C      5.775820   -5.807980    3.332070
  C      6.406310   -6.460940    2.304620
  C      7.806860   -6.462250    2.414450
  S      8.305080   -5.616800    3.860080
  C      8.740950   -7.016880    1.551130
  C      8.529690   -7.718400    0.351270
  C      9.673510   -8.125020   -0.274720
  C     10.860080   -7.762750    0.403850
  S     10.455870   -6.885150    1.880600
  C     12.150790   -8.012730    0.031400
  N     13.212990   -7.607550    0.777000
  C     14.517660   -7.782090    0.488230
  S     15.000010   -8.584510   -0.976230
  C     16.664510   -8.356980   -0.529560
  N     17.627940   -8.844740   -1.407000
  O     18.802080   -8.693050   -1.112270
  O     17.214890   -9.392890   -2.420500
  C     16.826910   -7.708290    0.665630
  C     15.608210   -7.364570    1.277730
  C     15.472690   -6.689680    2.537840
  C     16.511000   -6.295950    3.299430
  N     16.365430   -5.666010    4.507970
  C     17.379150   -5.279160    5.310230
  S     19.027520   -5.542350    4.838490
  C     19.555260   -4.831350    6.336960
  N     20.936290   -4.750220    6.543350
  O     21.331350   -4.250590    7.579050
  O     21.642170   -5.191100    5.650520
  C     18.531320   -4.426530    7.141170
  C     17.257470   -4.666280    6.576250
  C     16.019570   -4.325360    7.193670
  C     15.901540   -3.837830    8.459490
  C     14.660660   -3.484150    9.023290
  C     14.497570   -3.023930   10.306140
  C     13.263710   -2.610070   10.931770
  C     12.014670   -2.556240   10.354380
  C     10.860980   -2.081920   11.004140
  N      9.880250   -1.690950   11.459640
  C     11.696730   -2.952660    9.043240
  N     11.328410   -3.266950    7.999450
  C     13.562260   -2.232930   12.308200
  C     14.951140   -2.391590   12.533160
  C     15.593180   -2.875640   11.293960
  O     16.775680   -3.102710   11.144050
  C     15.542180   -2.131160   13.744320
  C     14.721370   -1.693370   14.790020
  C     13.334740   -1.537270   14.557220
  C     12.737930   -1.799830   13.330410
  S     12.504970   -0.993180   15.984340
  C     14.011660   -0.984870   16.862230
  C     15.081830   -1.367960   16.126040
  Br    14.026820   -0.473170   18.666870
  H      1.989910    0.482360   13.048220
  H      1.135400   -0.306810   11.623970
  H      4.647970    0.283830   13.150470
  H      6.595970   -0.726900   11.796200
  H      7.968940   -1.756050   10.249700
  H      8.968470   -3.024310    8.242010
  H      8.292530   -4.252180    6.131780
  H      5.261370   -4.378820    5.626460
  H      4.708500   -5.702910    3.416780
  H      5.896000   -6.931390    1.483680
  H      7.539690   -7.905720   -0.023570
  H      9.702370   -8.670320   -1.200450
  H     12.369070   -8.545730   -0.880510
  H     12.984460   -7.116300    1.634350
  H     17.803370   -7.502300    1.062050
  H     14.469340   -6.493640    2.894620
  H     17.533190   -6.460980    2.999390
  H     15.421600   -5.492440    4.832570
  H     18.703250   -3.966060    8.096640
  H     15.113610   -4.461260    6.613900
  H     16.776310   -3.713450    9.076750
  H     13.786870   -3.584530    8.391550
  H     16.603620   -2.264220   13.882910
  H     11.676140   -1.668140   13.207590
  H     16.084890   -1.420850   16.508140

 Total Charge           Charge          ....    0
 Multiplicity           Mult            ....    1
 Number of Electrons    NEL             ....  536
 Basis Dimension        Dim             .... 1095

ORBITAL ENERGIES
----------------

  NO   OCC          E(Eh)            E(eV)
   0   2.0000    -482.891575    -13140.1478
   1   2.0000     -88.997192     -2421.7367
   2   2.0000     -88.982638     -2421.3407
   3   2.0000     -88.981969     -2421.3225
   4   2.0000     -88.949265     -2420.4325
   5   2.0000     -88.940249     -2420.1872
   6   2.0000     -88.937539     -2420.1135
   7   2.0000     -88.934666     -2420.0353
   8   2.0000     -62.569277     -1702.5966
   9   2.0000     -56.403242     -1534.8102
  10   2.0000     -56.400501     -1534.7357
  11   2.0000     -56.400473     -1534.7349
  12   2.0000     -19.242440      -523.6134
  13   2.0000     -19.242018      -523.6019
  14   2.0000     -19.228577      -523.2362
  15   2.0000     -19.228305      -523.2288
  16   2.0000     -19.224718      -523.1312
  17   2.0000     -14.654154      -398.7598
  18   2.0000     -14.640296      -398.3827
  19   2.0000     -14.504857      -394.6972
  20   2.0000     -14.490179      -394.2978
  21   2.0000     -14.431562      -392.7028
  22   2.0000     -14.430603      -392.6767
  23   2.0000     -10.391400      -282.7644
  24   2.0000     -10.375171      -282.3228
  25   2.0000     -10.370829      -282.2046
  26   2.0000     -10.366009      -282.0734
  27   2.0000     -10.352902      -281.7168
  28   2.0000     -10.351188      -281.6701
  29   2.0000     -10.350015      -281.6382
  30   2.0000     -10.345854      -281.5250
  31   2.0000     -10.336501      -281.2705
  32   2.0000     -10.336001      -281.2569
  33   2.0000     -10.335581      -281.2455
  34   2.0000     -10.333017      -281.1757
  35   2.0000     -10.328817      -281.0614
  36   2.0000     -10.328745      -281.0594
  37   2.0000     -10.325979      -280.9842
  38   2.0000     -10.321299      -280.8568
  39   2.0000     -10.316061      -280.7143
  40   2.0000     -10.315279      -280.6930
  41   2.0000     -10.314457      -280.6707
  42   2.0000     -10.314113      -280.6613
  43   2.0000     -10.310983      -280.5761
  44   2.0000     -10.309982      -280.5489
  45   2.0000     -10.309229      -280.5284
  46   2.0000     -10.308097      -280.4976
  47   2.0000     -10.307463      -280.4803
  48   2.0000     -10.306586      -280.4565
  49   2.0000     -10.305258      -280.4203
  50   2.0000     -10.304019      -280.3866
  51   2.0000     -10.303218      -280.3648
  52   2.0000     -10.303213      -280.3647
  53   2.0000     -10.302175      -280.3364
  54   2.0000     -10.300660      -280.2952
  55   2.0000     -10.299979      -280.2767
  56   2.0000     -10.299596      -280.2663
  57   2.0000     -10.297691      -280.2144
  58   2.0000     -10.294101      -280.1167
  59   2.0000     -10.286288      -279.9041
  60   2.0000     -10.284301      -279.8501
  61   2.0000     -10.282122      -279.7908
  62   2.0000     -10.280261      -279.7401
  63   2.0000     -10.279511      -279.7197
  64   2.0000     -10.278738      -279.6987
  65   2.0000     -10.277080      -279.6536
  66   2.0000     -10.271756      -279.5087
  67   2.0000     -10.268933      -279.4319
  68   2.0000     -10.267598      -279.3955
  69   2.0000     -10.266398      -279.3629
  70   2.0000      -8.798701      -239.4248
  71   2.0000      -8.092558      -220.2097
  72   2.0000      -8.078641      -219.8310
  73   2.0000      -8.077275      -219.7938
  74   2.0000      -8.045664      -218.9336
  75   2.0000      -8.036618      -218.6875
  76   2.0000      -8.033818      -218.6113
  77   2.0000      -8.031471      -218.5474
  78   2.0000      -6.635057      -180.5491
  79   2.0000      -6.620419      -180.1508
  80   2.0000      -6.620183      -180.1443
  81   2.0000      -6.062374      -164.9656
  82   2.0000      -6.057866      -164.8429
  83   2.0000      -6.053789      -164.7320
  84   2.0000      -6.048348      -164.5839
  85   2.0000      -6.047076      -164.5493
  86   2.0000      -6.044041      -164.4667
  87   2.0000      -6.042677      -164.4296
  88   2.0000      -6.039854      -164.3528
  89   2.0000      -6.038477      -164.3153
  90   2.0000      -6.015509      -163.6903
  91   2.0000      -6.011594      -163.5838
  92   2.0000      -6.006349      -163.4411
  93   2.0000      -6.006273      -163.4390
  94   2.0000      -6.003466      -163.3626
  95   2.0000      -6.002322      -163.3315
  96   2.0000      -6.001244      -163.3022
  97   2.0000      -5.999519      -163.2552
  98   2.0000      -5.997639      -163.2041
  99   2.0000      -5.997336      -163.1958
 100   2.0000      -5.994862      -163.1285
 101   2.0000      -5.992081      -163.0528
 102   2.0000      -2.750894       -74.8556
 103   2.0000      -2.746793       -74.7440
 104   2.0000      -2.746687       -74.7411
 105   2.0000      -2.735017       -74.4236
 106   2.0000      -2.735004       -74.4233
 107   2.0000      -1.323494       -36.0141
 108   2.0000      -1.307733       -35.5852
 109   2.0000      -1.142847       -31.0985
 110   2.0000      -1.139233       -31.0001
 111   2.0000      -1.127005       -30.6674
 112   2.0000      -1.110205       -30.2102
 113   2.0000      -1.096719       -29.8433
 114   2.0000      -1.033714       -28.1288
 115   2.0000      -1.024664       -27.8825
 116   2.0000      -1.016709       -27.6661
 117   2.0000      -1.009881       -27.4803
 118   2.0000      -1.004169       -27.3248
 119   2.0000      -0.999345       -27.1936
 120   2.0000      -0.991362       -26.9763
 121   2.0000      -0.985591       -26.8193
 122   2.0000      -0.970020       -26.3956
 123   2.0000      -0.962596       -26.1936
 124   2.0000      -0.954013       -25.9600
 125   2.0000      -0.941756       -25.6265
 126   2.0000      -0.927134       -25.2286
 127   2.0000      -0.917291       -24.9608
 128   2.0000      -0.908591       -24.7240
 129   2.0000      -0.900204       -24.4958
 130   2.0000      -0.893870       -24.3234
 131   2.0000      -0.893697       -24.3187
 132   2.0000      -0.885128       -24.0856
 133   2.0000      -0.874237       -23.7892
 134   2.0000      -0.871085       -23.7034
 135   2.0000      -0.859498       -23.3881
 136   2.0000      -0.849388       -23.1130
 137   2.0000      -0.844587       -22.9824
 138   2.0000      -0.838824       -22.8256
 139   2.0000      -0.837371       -22.7860
 140   2.0000      -0.834674       -22.7126
 141   2.0000      -0.830160       -22.5898
 142   2.0000      -0.819638       -22.3035
 143   2.0000      -0.811904       -22.0930
 144   2.0000      -0.802494       -21.8370
 145   2.0000      -0.796344       -21.6696
 146   2.0000      -0.782635       -21.2966
 147   2.0000      -0.772801       -21.0290
 148   2.0000      -0.767077       -20.8732
 149   2.0000      -0.752968       -20.4893
 150   2.0000      -0.742342       -20.2002
 151   2.0000      -0.736032       -20.0284
 152   2.0000      -0.728795       -19.8315
 153   2.0000      -0.716272       -19.4907
 154   2.0000      -0.705340       -19.1933
 155   2.0000      -0.702290       -19.1103
 156   2.0000      -0.696509       -18.9530
 157   2.0000      -0.685350       -18.6493
 158   2.0000      -0.679986       -18.5033
 159   2.0000      -0.673258       -18.3203
 160   2.0000      -0.668241       -18.1838
 161   2.0000      -0.666035       -18.1237
 162   2.0000      -0.655360       -17.8333
 163   2.0000      -0.651886       -17.7387
 164   2.0000      -0.644451       -17.5364
 165   2.0000      -0.637670       -17.3519
 166   2.0000      -0.635616       -17.2960
 167   2.0000      -0.632070       -17.1995
 168   2.0000      -0.631191       -17.1756
 169   2.0000      -0.626552       -17.0494
 170   2.0000      -0.621700       -16.9173
 171   2.0000      -0.620248       -16.8778
 172   2.0000      -0.617959       -16.8155
 173   2.0000      -0.614686       -16.7265
 174   2.0000      -0.612904       -16.6780
 175   2.0000      -0.608698       -16.5635
 176   2.0000      -0.602157       -16.3855
 177   2.0000      -0.601358       -16.3638
 178   2.0000      -0.597111       -16.2482
 179   2.0000      -0.591212       -16.0877
 180   2.0000      -0.589915       -16.0524
 181   2.0000      -0.584997       -15.9186
 182   2.0000      -0.584397       -15.9022
 183   2.0000      -0.579413       -15.7666
 184   2.0000      -0.576615       -15.6905
 185   2.0000      -0.565695       -15.3934
 186   2.0000      -0.562533       -15.3073
 187   2.0000      -0.554356       -15.0848
 188   2.0000      -0.553332       -15.0569
 189   2.0000      -0.551579       -15.0092
 190   2.0000      -0.549684       -14.9577
 191   2.0000      -0.548821       -14.9342
 192   2.0000      -0.539949       -14.6928
 193   2.0000      -0.539194       -14.6722
 194   2.0000      -0.536973       -14.6118
 195   2.0000      -0.530920       -14.4471
 196   2.0000      -0.522105       -14.2072
 197   2.0000      -0.519061       -14.1244
 198   2.0000      -0.517583       -14.0842
 199   2.0000      -0.517464       -14.0809
 200   2.0000      -0.514304       -13.9949
 201   2.0000      -0.505316       -13.7503
 202   2.0000      -0.504335       -13.7236
 203   2.0000      -0.502859       -13.6835
 204   2.0000      -0.499996       -13.6056
 205   2.0000      -0.498115       -13.5544
 206   2.0000      -0.495807       -13.4916
 207   2.0000      -0.494774       -13.4635
 208   2.0000      -0.492860       -13.4114
 209   2.0000      -0.489944       -13.3321
 210   2.0000      -0.487883       -13.2760
 211   2.0000      -0.486486       -13.2380
 212   2.0000      -0.482516       -13.1299
 213   2.0000      -0.480499       -13.0750
 214   2.0000      -0.479852       -13.0574
 215   2.0000      -0.476062       -12.9543
 216   2.0000      -0.470657       -12.8072
 217   2.0000      -0.470282       -12.7970
 218   2.0000      -0.466168       -12.6851
 219   2.0000      -0.465924       -12.6784
 220   2.0000      -0.460155       -12.5215
 221   2.0000      -0.457570       -12.4511
 222   2.0000      -0.456529       -12.4228
 223   2.0000      -0.456336       -12.4175
 224   2.0000      -0.455908       -12.4059
 225   2.0000      -0.449244       -12.2246
 226   2.0000      -0.448936       -12.2162
 227   2.0000      -0.445406       -12.1201
 228   2.0000      -0.444753       -12.1023
 229   2.0000      -0.443985       -12.0814
 230   2.0000      -0.441279       -12.0078
 231   2.0000      -0.437119       -11.8946
 232   2.0000      -0.434765       -11.8306
 233   2.0000      -0.428784       -11.6678
 234   2.0000      -0.426360       -11.6019
 235   2.0000      -0.417163       -11.3516
 236   2.0000      -0.414883       -11.2895
 237   2.0000      -0.412952       -11.2370
 238   2.0000      -0.400835       -10.9073
 239   2.0000      -0.399550       -10.8723
 240   2.0000      -0.398567       -10.8455
 241   2.0000      -0.394806       -10.7432
 242   2.0000      -0.389935       -10.6107
 243   2.0000      -0.389368       -10.5952
 244   2.0000      -0.385067       -10.4782
 245   2.0000      -0.380896       -10.3647
 246   2.0000      -0.379339       -10.3223
 247   2.0000      -0.377508       -10.2725
 248   2.0000      -0.373712       -10.1692
 249   2.0000      -0.370962       -10.0944
 250   2.0000      -0.369181       -10.0459
 251   2.0000      -0.357747        -9.7348
 252   2.0000      -0.357426        -9.7261
 253   2.0000      -0.344812        -9.3828
 254   2.0000      -0.343840        -9.3564
 255   2.0000      -0.341922        -9.3042
 256   2.0000      -0.337871        -9.1939
 257   2.0000      -0.329977        -8.9791
 258   2.0000      -0.323350        -8.7988
 259   2.0000      -0.321419        -8.7463
 260   2.0000      -0.320973        -8.7341
 261   2.0000      -0.315115        -8.5747
 262   2.0000      -0.304586        -8.2882
 263   2.0000      -0.301340        -8.1999
 264   2.0000      -0.285156        -7.7595
 265   2.0000      -0.261953        -7.1281
 266   2.0000      -0.236048        -6.4232
 267   2.0000      -0.186635        -5.0786
 268   0.0000      -0.106452        -2.8967
 269   0.0000      -0.087377        -2.3777
 270   0.0000      -0.069749        -1.8980
 271   0.0000      -0.062969        -1.7135
 272   0.0000      -0.050653        -1.3783

MULLIKEN ATOMIC CHARGES
-----------------------
   0 C :   -0.029484
   1 C :   -0.065298
   2 C :    0.052326
   3 C :    0.026463
   4 C :   -0.072979
   5 S :    0.081263
   6 C :   -0.039385
   7 C :    0.028007
   8 C :    0.034205
   9 C :   -0.014254
  10 S :    0.078603
  11 C :   -0.037079
  12 C :    0.005131
  13 C :   -0.034223
  14 C :    0.035416
  15 C :    0.006200
  16 C :   -0.031059
  17 S :    0.062019
  18 C :   -0.050498
  19 C :    0.027560
  20 C :    0.029850
  21 C :   -0.033751
  22 S :    0.012572
  23 C :    0.009255
  24 N :   -0.025246
  25 C :   -0.115774
  26 S :    0.150254
  27 C :   -0.008148
  28 N :    0.279313
  29 O :   -0.260111
  30 O :   -0.275722
  31 C :   -0.002667
  32 C :    0.112558
  33 C :   -0.031919
  34 C :    0.043997
  35 N :   -0.019431
  36 C :   -0.090402
  37 S :    0.153195
  38 C :   -0.001100
  39 N :    0.278337
  40 O :   -0.243186
  41 O :   -0.263916
  42 C :    0.023373
  43 C :    0.114295
  44 C :   -0.003327
  45 C :   -0.013507
  46 C :   -0.024964
  47 C :   -0.082701
  48 C :    0.341349
  49 C :   -0.368184
  50 C :   -0.147900
  51 N :    0.121357
  52 C :   -0.139146
  53 N :    0.104454
  54 C :    0.008771
  55 C :   -0.005046
  56 C :    0.145621
  57 O :   -0.152333
  58 C :   -0.071242
  59 C :    0.118880
  60 C :   -0.090163
  61 C :   -0.024387
  62 S :    0.186620
  63 C :   -0.121671
  64 C :    0.038138
  65 Br:    0.028493
  66 H :    0.019045
  67 H :    0.020953
  68 H :   -0.013444
  69 H :    0.003194
  70 H :   -0.016769
  71 H :   -0.033139
  72 H :    0.001944
  73 H :   -0.008257
  74 H :   -0.012686
  75 H :   -0.018235
  76 H :   -0.013728
  77 H :   -0.014636
  78 H :    0.023644
  79 H :    0.144439
  80 H :    0.003637
  81 H :   -0.031012
  82 H :    0.032964
  83 H :    0.140583
  84 H :    0.025945
  85 H :   -0.017424
  86 H :    0.027027
  87 H :    0.003281
  88 H :   -0.006652
  89 H :   -0.008129
  90 H :   -0.000215
Sum of atomic charges:   -0.0000000

LOEWDIN ATOMIC CHARGES
----------------------
   0 C :   -0.077268
   1 C :   -0.138746
   2 C :   -0.033436
   3 C :   -0.022268
   4 C :   -0.173111
   5 S :    0.354968
   6 C :   -0.179945
   7 C :   -0.026148
   8 C :   -0.040162
   9 C :   -0.134743
  10 S :    0.369750
  11 C :   -0.074981
  12 C :   -0.046984
  13 C :   -0.158399
  14 C :   -0.030245
  15 C :   -0.048419
  16 C :   -0.173216
  17 S :    0.370680
  18 C :   -0.190327
  19 C :   -0.033084
  20 C :   -0.046201
  21 C :   -0.174131
  22 S :    0.328198
  23 C :   -0.035570
  24 N :    0.051550
  25 C :   -0.098998
  26 S :    0.450323
  27 C :   -0.214456
  28 N :    0.273329
  29 O :   -0.226854
  30 O :   -0.242308
  31 C :   -0.000477
  32 C :   -0.113420
  33 C :   -0.059833
  34 C :    0.009416
  35 N :    0.050851
  36 C :   -0.077789
  37 S :    0.460665
  38 C :   -0.206874
  39 N :    0.273350
  40 O :   -0.210351
  41 O :   -0.230309
  42 C :    0.019048
  43 C :   -0.123235
  44 C :    0.034294
  45 C :   -0.042464
  46 C :    0.070163
  47 C :   -0.104422
  48 C :    0.084761
  49 C :   -0.156538
  50 C :    0.000785
  51 N :   -0.067161
  52 C :   -0.007052
  53 N :   -0.068059
  54 C :   -0.023165
  55 C :   -0.048379
  56 C :    0.086100
  57 O :   -0.144839
  58 C :    0.023456
  59 C :   -0.030207
  60 C :   -0.144076
  61 C :   -0.009731
  62 S :    0.432359
  63 C :   -0.269221
  64 C :   -0.069479
  65 Br:    0.140561
  66 H :    0.028218
  67 H :    0.025718
  68 H :    0.032695
  69 H :    0.038596
  70 H :    0.027561
  71 H :    0.030219
  72 H :    0.029648
  73 H :    0.029441
  74 H :    0.033678
  75 H :    0.029589
  76 H :    0.033058
  77 H :    0.032253
  78 H :    0.028342
  79 H :    0.082650
  80 H :    0.041437
  81 H :    0.022966
  82 H :    0.023729
  83 H :    0.098083
  84 H :    0.052273
  85 H :    0.027203
  86 H :    0.033078
  87 H :    0.039427
  88 H :    0.042417
  89 H :    0.040028
  90 H :    0.040166

  Mayer bond orders larger than 0.100000
B(  0-C ,  1-C ) :   1.8558 B(  0-C , 66-H ) :   0.9505 B(  0-C , 67-H ) :   0.9420
B(  1-C ,  2-C ) :   1.0845 B(  1-C ,  5-S ) :   1.0074 B(  2-C ,  3-C ) :   1.6433
B(  2-C , 68-H ) :   0.9933 B(  3-C ,  4-C ) :   1.1676 B(  3-C , 69-H ) :   0.9941
B(  4-C ,  5-S ) :   1.0516 B(  4-C ,  6-C ) :   1.5175 B(  6-C ,  7-C ) :   1.1998
B(  6-C , 10-S ) :   1.0364 B(  7-C ,  8-C ) :   1.5511 B(  7-C , 70-H ) :   0.9810
B(  8-C ,  9-C ) :   1.1812 B(  8-C , 71-H ) :   0.9929 B(  9-C , 10-S ) :   1.0509
B(  9-C , 11-C ) :   1.5076 B( 11-C , 12-C ) :   1.2225 B( 11-C , 72-H ) :   0.9694
B( 12-C , 13-C ) :   1.5001 B( 12-C , 73-H ) :   0.9755 B( 13-C , 14-C ) :   1.1965
B( 13-C , 17-S ) :   1.0363 B( 14-C , 15-C ) :   1.5337 B( 14-C , 74-H ) :   1.0003
B( 15-C , 16-C ) :   1.2243 B( 15-C , 75-H ) :   0.9953 B( 16-C , 17-S ) :   1.0549
B( 16-C , 18-C ) :   1.4693 B( 18-C , 19-C ) :   1.2166 B( 18-C , 22-S ) :   1.0305
B( 19-C , 20-C ) :   1.5831 B( 19-C , 76-H ) :   0.9930 B( 20-C , 21-C ) :   1.1662
B( 20-C , 77-H ) :   0.9952 B( 21-C , 22-S ) :   1.0150 B( 21-C , 23-C ) :   1.6004
B( 23-C , 24-N ) :   1.1126 B( 23-C , 78-H ) :   0.9583 B( 24-N , 25-C ) :   1.2724
B( 24-N , 79-H ) :   0.9052 B( 25-C , 26-S ) :   1.1273 B( 25-C , 32-C ) :   1.3277
B( 26-S , 27-C ) :   1.0571 B( 27-C , 28-N ) :   0.9912 B( 27-C , 31-C ) :   1.4913
B( 28-N , 29-O ) :   1.5179 B( 28-N , 30-O ) :   1.4960 B( 29-O , 30-O ) :   0.2494
B( 31-C , 32-C ) :   1.2402 B( 31-C , 80-H ) :   0.9947 B( 32-C , 33-C ) :   1.0987
B( 33-C , 34-C ) :   1.7348 B( 33-C , 81-H ) :   0.9603 B( 34-C , 35-N ) :   1.0851
B( 34-C , 82-H ) :   0.9559 B( 35-N , 36-C ) :   1.2870 B( 35-N , 83-H ) :   0.9144
B( 36-C , 37-S ) :   1.1453 B( 36-C , 43-C ) :   1.2868 B( 37-S , 38-C ) :   1.0471
B( 38-C , 39-N ) :   0.9716 B( 38-C , 42-C ) :   1.5286 B( 39-N , 40-O ) :   1.5344
B( 39-N , 41-O ) :   1.5052 B( 40-O , 41-O ) :   0.2594 B( 42-C , 43-C ) :   1.2065
B( 42-C , 84-H ) :   0.9995 B( 43-C , 44-C ) :   1.0966 B( 44-C , 45-C ) :   1.5716
B( 44-C , 85-H ) :   0.9826 B( 45-C , 46-C ) :   1.1846 B( 45-C , 86-H ) :   0.9744
B( 46-C , 47-C ) :   1.5015 B( 46-C , 87-H ) :   0.9627 B( 47-C , 48-C ) :   1.0836
B( 47-C , 56-C ) :   0.9490 B( 48-C , 49-C ) :   1.5884 B( 48-C , 54-C ) :   1.0033
B( 49-C , 50-C ) :   1.1639 B( 49-C , 52-C ) :   1.1643 B( 50-C , 51-N ) :   2.8696
B( 52-C , 53-N ) :   2.8543 B( 54-C , 55-C ) :   1.2744 B( 54-C , 61-C ) :   1.4065
B( 55-C , 56-C ) :   0.9439 B( 55-C , 58-C ) :   1.4270 B( 56-C , 57-O ) :   2.1900
B( 58-C , 59-C ) :   1.2417 B( 58-C , 88-H ) :   1.0172 B( 59-C , 60-C ) :   1.3079
B( 59-C , 64-C ) :   1.1620 B( 60-C , 61-C ) :   1.3331 B( 60-C , 62-S ) :   1.0852
B( 61-C , 89-H ) :   0.9796 B( 62-S , 63-C ) :   1.0876 B( 63-C , 64-C ) :   1.6163
B( 63-C , 65-Br) :   1.0218 B( 64-C , 90-H ) :   1.0010

-----------------------------------------------------------------------------
         ABSORPTION SPECTRUM VIA TRANSITION ELECTRIC DIPOLE MOMENTS
-----------------------------------------------------------------------------
State   Energy  Wavelength   fosc         T2         TX        TY        TZ
        (cm-1)    (nm)                  (au**2)     (au)      (au)      (au)
-----------------------------------------------------------------------------
   0    6236.9   1603.4   0.015047550   0.79428  -0.88167   0.11446  -0.06190
   1   10092.4    990.8   1.414406353  46.13771   4.15078  -2.96219  -4.48710
   2   15041.0    664.8   0.219003964   4.79347  -0.36219   1.00477   1.91121
   3   16688.2    599.2   0.462422751   9.12234   0.96157  -1.31120  -2.54529
   4   17230.3    580.4   0.082240130   1.57133  -0.56885  -0.56821  -0.96170
   5   17540.0    570.1   0.014391018   0.27011  -0.17194   0.25151   0.42106
   6   19501.6    512.8   0.561663877   9.48159  -0.02786   1.46962   2.70574
   7   19776.5    505.7   0.558009662   9.28899  -2.65864   0.54970   1.38508
   8   23100.3    432.9   0.131902102   1.87979   1.14581   0.46048   0.59571
   9   24942.8    400.9   0.088579215   1.16913   0.90305   0.25552   0.53697
  10   25513.8    391.9   0.040982278   0.52881  -0.72483   0.01038  -0.05766
  11   25678.1    389.4   0.315103240   4.03985  -1.30955  -0.68415  -1.36267
  12   26290.8    380.4   0.199657820   2.50011   1.49046  -0.37457  -0.37191
  13   26617.7    375.7   0.202072783   2.49927  -1.05234  -0.40540  -1.10793
  14   26989.0    370.5   0.281795271   3.43734   0.19763  -0.52592  -1.76683
  15   27382.8    365.2   0.000260187   0.00313  -0.05358   0.01604  -0.00064
  16   27893.7    358.5   0.182872363   2.15833   0.63571   0.37743   1.26955
  17   27955.1    357.7   0.137935214   1.62439  -0.90245   0.35339   0.82770
  18   28461.8    351.3   0.000448112   0.00518   0.05733  -0.01744  -0.03991
  19   28613.5    349.5   0.078034738   0.89783  -0.94366   0.06106  -0.05998
  20   29368.9    340.5   0.084373786   0.94579   0.84897   0.04687   0.47207
  21   29730.0    336.4   0.000547311   0.00606  -0.05623  -0.05383  -0.00096
  22   30305.0    330.0   0.167415854   1.81869   1.17011   0.27100   0.61327
  23   30561.0    327.2   0.251314676   2.70723  -0.83769   0.46470   1.33774
  24   30783.5    324.8   0.001016089   0.01087   0.06252   0.03102   0.07743
  25   31340.4    319.1   0.087783476   0.92211  -0.90751   0.19574   0.24540
  26   31536.9    317.1   0.000215691   0.00225  -0.02159  -0.02865  -0.03105
  27   31659.4    315.9   0.017273600   0.17962   0.34607   0.09489   0.22551
  28   32115.9    311.4   0.105990818   1.08649   0.80843   0.19715   0.62774
  29   32873.4    304.2   0.240928430   2.41278   0.58256   0.31258   1.40560
  30   33044.0    302.6   0.320579762   3.19388  -1.02828  -0.28529  -1.43358
  31   33229.7    300.9   0.018004994   0.17838  -0.41702  -0.05153   0.04268
  32   33274.5    300.5   0.000879050   0.00870  -0.08705  -0.00325   0.03331
  33   33384.7    299.5   0.000041834   0.00041  -0.00396   0.01272  -0.01534
  34   33443.0    299.0   0.001608947   0.01584   0.04747   0.08660  -0.07802
  35   33671.5    297.0   0.023915086   0.23382   0.48311   0.01320  -0.01600
  36   34190.0    292.5   0.009073946   0.08737  -0.27865  -0.06239  -0.07639
  37   34536.7    289.5   0.056493761   0.53851  -0.17734   0.15669   0.69463
  38   34668.3    288.4   0.000130437   0.00124   0.02088  -0.02053  -0.01952
  39   35223.2    283.9   0.015653490   0.14630  -0.11828  -0.18368  -0.31397
  40   35308.0    283.2   0.032120255   0.29949   0.52596   0.04210   0.14520
  41   35747.7    279.7   0.015355077   0.14141   0.08815   0.18341   0.31623
  42   35824.3    279.1   0.002128027   0.01956  -0.13587   0.01095   0.03123
  43   36261.2    275.8   0.010006970   0.09085  -0.06515  -0.15206  -0.25197
  44   36467.3    274.2   0.000349399   0.00315   0.02015   0.01903  -0.04884
  45   36626.2    273.0   0.115949499   1.04220  -0.65196   0.42021   0.66376
  46   36914.7    270.9   0.004456657   0.03975  -0.17082   0.07548   0.06976
  47   37757.8    264.8   0.002051046   0.01788   0.04457  -0.06612  -0.10735
  48   37930.3    263.6   0.002335406   0.02027  -0.02073  -0.05290  -0.13054
  49   38025.7    263.0   0.033571627   0.29065  -0.52460  -0.11670  -0.04274
  50   38205.7    261.7   0.005334262   0.04596   0.20124  -0.00246   0.07390
  51   38464.3    260.0   0.138385509   1.18443   0.89115  -0.36787  -0.50492
  52   38560.0    259.3   0.196854643   1.68068   0.68919  -0.55079  -0.94991
  53   38845.6    257.4   0.054722874   0.46377   0.40214   0.17268   0.52176
  54   38861.0    257.3   0.000999349   0.00847  -0.06812  -0.06185  -0.00017
  55   39184.3    255.2   0.054790809   0.46033   0.63350  -0.15042  -0.19075
  56   39282.1    254.6   0.104319245   0.87427  -0.83836   0.22020   0.35062
  57   39846.9    251.0   0.077897256   0.64358   0.77383  -0.13296  -0.16457
  58   39875.8    250.8   0.014512677   0.11982   0.33120  -0.06481  -0.07697
  59   39968.4    250.2   0.001682444   0.01386   0.08589  -0.05306  -0.06054
  60   40094.9    249.4   0.025670340   0.21077  -0.44374  -0.05155  -0.10590
  61   40258.0    248.4   0.009948330   0.08135  -0.00037   0.13864   0.24926

FINAL SINGLE POINT ENERGY     -7867.658069617028

DIPOLE MOMENT
-------------
                                X             Y             Z
Electronic contribution:     47.29904      36.82429     122.51773
Nuclear contribution   :    -49.60746     -35.99233    -120.20113
                        -----------------------------------------
Total Dipole Moment    :     -2.30843       0.83195       2.31660
                        -----------------------------------------
Magnitude (a.u.)       :      3.37455
Magnitude (Debye)      :      8.57743

Rotational constants in cm-1:     0.000685     0.000381     0.000247
Rotational constants in MHz :    20.537474    11.407151     7.391497

                             ****ORCA TERMINATED NORMALLY****
TOTAL RUN TIME: 0 days 0 hours 9 minutes 38 seconds 602 msec
