                         Program Version 4.2.0 -  RELEASE  -
|  1> # ORCA input file
|  2> # SCF done       -155.940326295024          0.000772442051
|  3> ! CAM-B3LYP def2-SVP def2/J RIJCOSX Grid4 TightSCF
|  4> %maxcore 5000
|  5> %tddft
|  6>     Mode sTDDFT
|  7>     Ethresh 5.0
|  8>     maxcore 5000
|  9> end
| 10>
| 11> %pal
| 12>   nprocs 6
| 13>   end
| 14> * xyz 0 1
| 15>    C        0.98600         1.34933         4.61340
| 16>    C        0.62075         1.23793         3.32414
| 17>    C       -0.66780         1.78181         3.00876
| 18>    S       -1.41277         2.45566         4.44492
| 19>    C        0.01839         2.00191         5.47268
| 20>    O        0.06126         2.24004         6.64482
| 21>    C       -1.22033         1.76705         1.76388
| 22>    C       -2.47179         2.27391         1.36136
| 23>    C       -2.97358         2.21863         0.06413
| 24>    C       -4.23057         2.79832        -0.03823
| 25>    C       -4.69859         3.30426         1.19301
| 26>    S       -3.58995         3.06180         2.46675
| 27>    C       -5.97781         3.87462         0.98331
| 28>    C       -6.31943         3.73182        -0.37374
| 29>    C       -5.23506         3.04812        -1.05963
| 30>    C       -5.17738         2.71012        -2.37968
| 31>    C       -6.22720         3.00592        -3.27479
| 32>    N       -7.08161         3.24698        -4.00038
| 33>    C       -4.06599         2.04167        -2.93496
| 34>    N       -3.16265         1.49615        -3.38318
| 35>    C       -7.56704         4.27085        -0.68049
| 36>    C       -8.17947         4.82181         0.43137
| 37>    S       -7.19573         4.66994         1.88025
| 38>    C       -9.44595         5.45574         0.48351
| 39>    C      -10.08485         5.99391         1.58630
| 40>    C      -11.32475         6.53968         1.25464
| 41>    C      -11.62767         6.41613        -0.11228
| 42>    S      -10.39310         5.62784        -0.98825
| 43>    C      -12.89671         6.99856        -0.34985
| 44>    C      -13.40123         7.48997         0.86659
| 45>    C      -12.42999         7.21790         1.91554
| 46>    C      -12.53359         7.53273         3.23810
| 47>    C      -13.66349         8.19544         3.76270
| 48>    N      -14.58219         8.73509         4.18595
| 49>    C      -11.51770         7.21579         4.16487
| 50>    N      -10.69210         6.95682         4.91694
| 51>    C      -14.65475         8.08653         0.73175
| 52>    C      -15.10396         8.05403        -0.57610
| 53>    S      -13.95868         7.27080        -1.65746
| 54>    C      -16.32111         8.56185        -1.09477
| 55>    C      -16.73937         8.54130        -2.41359
| 56>    C      -17.99185         9.13074        -2.57190
| 57>    C      -18.53346         9.60311        -1.36330
| 58>    S      -17.49723         9.32201        -0.03287
| 59>    C      -19.79939        10.18069        -1.62984
| 60>    C      -20.05712        10.07415        -3.01075
| 61>    C      -18.92835         9.41487        -3.64741
| 62>    C      -18.77449         9.13652        -4.97373
| 63>    C      -19.75491         9.48795        -5.92523
| 64>    N      -20.55494         9.78408        -6.69144
| 65>    C      -17.62487         8.49096        -5.47600
| 66>    N      -16.68913         7.96730        -5.88159
| 67>    C      -21.28597        10.60992        -3.38256
| 68>    C      -21.98078        11.13779        -2.30417
| 69>    S      -21.07809        10.93766        -0.79777
| 70>    C      -23.24781        11.75856        -2.20672
| 71>    C      -24.08100        12.19377        -3.19286
| 72>    S      -25.65353        12.85876        -2.75777
| 73>    C      -26.08110        13.16342        -4.48723
| 74>    O      -27.12961        13.63510        -4.82435
| 75>    C      -24.94712        12.75097        -5.29589
| 76>    C      -23.90548        12.24237        -4.61500
| 77>    H        1.91021         1.00263         5.04025
| 78>    H        1.22049         0.78153         2.55520
| 79>    H       -0.63662         1.31117         0.97315
| 80>    H       -2.42970         1.77269        -0.74890
| 81>    H       -8.02064         4.27077        -1.65544
| 82>    H       -9.65537         5.97975         2.57199
| 83>    H      -15.22262         8.52690         1.53168
| 84>    H      -16.14919         8.11571        -3.20527
| 85>    H      -21.66931        10.58227        -4.38400
| 86>    H      -23.59761        11.91031        -1.19298
| 87>    H      -24.99676        12.87509        -6.36336
| 88>    H      -22.99404        11.92232        -5.08548
| 89> *
| 90>
| 91>                          ****END OF INPUT****

CARTESIAN COORDINATES (ANGSTROEM)
---------------------------------
  C      0.986000    1.349330    4.613400
  C      0.620750    1.237930    3.324140
  C     -0.667800    1.781810    3.008760
  S     -1.412770    2.455660    4.444920
  C      0.018390    2.001910    5.472680
  O      0.061260    2.240040    6.644820
  C     -1.220330    1.767050    1.763880
  C     -2.471790    2.273910    1.361360
  C     -2.973580    2.218630    0.064130
  C     -4.230570    2.798320   -0.038230
  C     -4.698590    3.304260    1.193010
  S     -3.589950    3.061800    2.466750
  C     -5.977810    3.874620    0.983310
  C     -6.319430    3.731820   -0.373740
  C     -5.235060    3.048120   -1.059630
  C     -5.177380    2.710120   -2.379680
  C     -6.227200    3.005920   -3.274790
  N     -7.081610    3.246980   -4.000380
  C     -4.065990    2.041670   -2.934960
  N     -3.162650    1.496150   -3.383180
  C     -7.567040    4.270850   -0.680490
  C     -8.179470    4.821810    0.431370
  S     -7.195730    4.669940    1.880250
  C     -9.445950    5.455740    0.483510
  C    -10.084850    5.993910    1.586300
  C    -11.324750    6.539680    1.254640
  C    -11.627670    6.416130   -0.112280
  S    -10.393100    5.627840   -0.988250
  C    -12.896710    6.998560   -0.349850
  C    -13.401230    7.489970    0.866590
  C    -12.429990    7.217900    1.915540
  C    -12.533590    7.532730    3.238100
  C    -13.663490    8.195440    3.762700
  N    -14.582190    8.735090    4.185950
  C    -11.517700    7.215790    4.164870
  N    -10.692100    6.956820    4.916940
  C    -14.654750    8.086530    0.731750
  C    -15.103960    8.054030   -0.576100
  S    -13.958680    7.270800   -1.657460
  C    -16.321110    8.561850   -1.094770
  C    -16.739370    8.541300   -2.413590
  C    -17.991850    9.130740   -2.571900
  C    -18.533460    9.603110   -1.363300
  S    -17.497230    9.322010   -0.032870
  C    -19.799390   10.180690   -1.629840
  C    -20.057120   10.074150   -3.010750
  C    -18.928350    9.414870   -3.647410
  C    -18.774490    9.136520   -4.973730
  C    -19.754910    9.487950   -5.925230
  N    -20.554940    9.784080   -6.691440
  C    -17.624870    8.490960   -5.476000
  N    -16.689130    7.967300   -5.881590
  C    -21.285970   10.609920   -3.382560
  C    -21.980780   11.137790   -2.304170
  S    -21.078090   10.937660   -0.797770
  C    -23.247810   11.758560   -2.206720
  C    -24.081000   12.193770   -3.192860
  S    -25.653530   12.858760   -2.757770
  C    -26.081100   13.163420   -4.487230
  O    -27.129610   13.635100   -4.824350
  C    -24.947120   12.750970   -5.295890
  C    -23.905480   12.242370   -4.615000
  H      1.910210    1.002630    5.040250
  H      1.220490    0.781530    2.555200
  H     -0.636620    1.311170    0.973150
  H     -2.429700    1.772690   -0.748900
  H     -8.020640    4.270770   -1.655440
  H     -9.655370    5.979750    2.571990
  H    -15.222620    8.526900    1.531680
  H    -16.149190    8.115710   -3.205270
  H    -21.669310   10.582270   -4.384000
  H    -23.597610   11.910310   -1.192980
  H    -24.996760   12.875090   -6.363360
  H    -22.994040   11.922320   -5.085480

 Total Charge           Charge          ....    0
 Multiplicity           Mult            ....    1
 Number of Electrons    NEL             ....  474
 Basis Dimension        Dim             ....  960

ORBITAL ENERGIES
----------------

  NO   OCC          E(Eh)            E(eV)
   0   2.0000     -89.001435     -2421.8522
   1   2.0000     -89.000479     -2421.8262
   2   2.0000     -89.000058     -2421.8147
   3   2.0000     -88.999674     -2421.8043
   4   2.0000     -88.998529     -2421.7731
   5   2.0000     -88.996859     -2421.7276
   6   2.0000     -88.942837     -2420.2576
   7   2.0000     -88.935378     -2420.0547
   8   2.0000     -19.218103      -522.9512
   9   2.0000     -19.211780      -522.7791
  10   2.0000     -14.440927      -392.9576
  11   2.0000     -14.439817      -392.9274
  12   2.0000     -14.439543      -392.9199
  13   2.0000     -14.439147      -392.9092
  14   2.0000     -14.437770      -392.8717
  15   2.0000     -14.437453      -392.8631
  16   2.0000     -10.382669      -282.5268
  17   2.0000     -10.377213      -282.3783
  18   2.0000     -10.374928      -282.3162
  19   2.0000     -10.374423      -282.3024
  20   2.0000     -10.372267      -282.2437
  21   2.0000     -10.361971      -281.9636
  22   2.0000     -10.361461      -281.9497
  23   2.0000     -10.359693      -281.9016
  24   2.0000     -10.343172      -281.4520
  25   2.0000     -10.342117      -281.4233
  26   2.0000     -10.341727      -281.4127
  27   2.0000     -10.341327      -281.4018
  28   2.0000     -10.341314      -281.4015
  29   2.0000     -10.340630      -281.3828
  30   2.0000     -10.340422      -281.3772
  31   2.0000     -10.339998      -281.3656
  32   2.0000     -10.339776      -281.3596
  33   2.0000     -10.339710      -281.3578
  34   2.0000     -10.339394      -281.3492
  35   2.0000     -10.339332      -281.3475
  36   2.0000     -10.339280      -281.3461
  37   2.0000     -10.338961      -281.3374
  38   2.0000     -10.338081      -281.3135
  39   2.0000     -10.337659      -281.3020
  40   2.0000     -10.334567      -281.2179
  41   2.0000     -10.330381      -281.1040
  42   2.0000     -10.324394      -280.9410
  43   2.0000     -10.323654      -280.9209
  44   2.0000     -10.316060      -280.7143
  45   2.0000     -10.315141      -280.6893
  46   2.0000     -10.314447      -280.6704
  47   2.0000     -10.313255      -280.6379
  48   2.0000     -10.313144      -280.6349
  49   2.0000     -10.313015      -280.6314
  50   2.0000     -10.312945      -280.6295
  51   2.0000     -10.312891      -280.6280
  52   2.0000     -10.312510      -280.6177
  53   2.0000     -10.312185      -280.6088
  54   2.0000     -10.311853      -280.5998
  55   2.0000     -10.311715      -280.5960
  56   2.0000     -10.310977      -280.5760
  57   2.0000     -10.310834      -280.5721
  58   2.0000     -10.309823      -280.5445
  59   2.0000     -10.309774      -280.5432
  60   2.0000     -10.293085      -280.0891
  61   2.0000     -10.291547      -280.0472
  62   2.0000      -8.095820      -220.2985
  63   2.0000      -8.094912      -220.2738
  64   2.0000      -8.094509      -220.2628
  65   2.0000      -8.094062      -220.2506
  66   2.0000      -8.093299      -220.2299
  67   2.0000      -8.090848      -220.1632
  68   2.0000      -8.040599      -218.7958
  69   2.0000      -8.033361      -218.5989
  70   2.0000      -6.065142      -165.0409
  71   2.0000      -6.064216      -165.0157
  72   2.0000      -6.063806      -165.0045
  73   2.0000      -6.063365      -164.9926
  74   2.0000      -6.062447      -164.9676
  75   2.0000      -6.060958      -164.9271
  76   2.0000      -6.060105      -164.9039
  77   2.0000      -6.060034      -164.9019
  78   2.0000      -6.059643      -164.8913
  79   2.0000      -6.059195      -164.8791
  80   2.0000      -6.058333      -164.8556
  81   2.0000      -6.058057      -164.8481
  82   2.0000      -6.057165      -164.8239
  83   2.0000      -6.056764      -164.8129
  84   2.0000      -6.056320      -164.8008
  85   2.0000      -6.055794      -164.7865
  86   2.0000      -6.055761      -164.7856
  87   2.0000      -6.053333      -164.7196
  88   2.0000      -6.009953      -163.5391
  89   2.0000      -6.006270      -163.4389
  90   2.0000      -6.002718      -163.3423
  91   2.0000      -6.001508      -163.3093
  92   2.0000      -5.999189      -163.2462
  93   2.0000      -5.994113      -163.1081
  94   2.0000      -1.140084       -31.0233
  95   2.0000      -1.133838       -30.8533
  96   2.0000      -1.056434       -28.7470
  97   2.0000      -1.053969       -28.6800
  98   2.0000      -1.051557       -28.6143
  99   2.0000      -1.032297       -28.0902
 100   2.0000      -1.031181       -28.0599
 101   2.0000      -1.029355       -28.0102
 102   2.0000      -1.018549       -27.7161
 103   2.0000      -1.017634       -27.6912
 104   2.0000      -1.016255       -27.6537
 105   2.0000      -1.015053       -27.6210
 106   2.0000      -1.008506       -27.4428
 107   2.0000      -0.998937       -27.1825
 108   2.0000      -0.982296       -26.7296
 109   2.0000      -0.978694       -26.6316
 110   2.0000      -0.970815       -26.4172
 111   2.0000      -0.965182       -26.2639
 112   2.0000      -0.961892       -26.1744
 113   2.0000      -0.931742       -25.3540
 114   2.0000      -0.924693       -25.1622
 115   2.0000      -0.913560       -24.8592
 116   2.0000      -0.887805       -24.1584
 117   2.0000      -0.886959       -24.1354
 118   2.0000      -0.879990       -23.9458
 119   2.0000      -0.879431       -23.9305
 120   2.0000      -0.871327       -23.7100
 121   2.0000      -0.869951       -23.6726
 122   2.0000      -0.864124       -23.5140
 123   2.0000      -0.858985       -23.3742
 124   2.0000      -0.846606       -23.0373
 125   2.0000      -0.838641       -22.8206
 126   2.0000      -0.832243       -22.6465
 127   2.0000      -0.813495       -22.1363
 128   2.0000      -0.792863       -21.5749
 129   2.0000      -0.788967       -21.4689
 130   2.0000      -0.785415       -21.3722
 131   2.0000      -0.781016       -21.2525
 132   2.0000      -0.768239       -20.9048
 133   2.0000      -0.750619       -20.4254
 134   2.0000      -0.731238       -19.8980
 135   2.0000      -0.716692       -19.5022
 136   2.0000      -0.710917       -19.3450
 137   2.0000      -0.707445       -19.2506
 138   2.0000      -0.699594       -19.0369
 139   2.0000      -0.697977       -18.9929
 140   2.0000      -0.692035       -18.8312
 141   2.0000      -0.685734       -18.6598
 142   2.0000      -0.677282       -18.4298
 143   2.0000      -0.666479       -18.1358
 144   2.0000      -0.650729       -17.7072
 145   2.0000      -0.648355       -17.6426
 146   2.0000      -0.641831       -17.4651
 147   2.0000      -0.638492       -17.3742
 148   2.0000      -0.635964       -17.3055
 149   2.0000      -0.634081       -17.2542
 150   2.0000      -0.630504       -17.1569
 151   2.0000      -0.629914       -17.1408
 152   2.0000      -0.627679       -17.0800
 153   2.0000      -0.619058       -16.8454
 154   2.0000      -0.618455       -16.8290
 155   2.0000      -0.608115       -16.5476
 156   2.0000      -0.594009       -16.1638
 157   2.0000      -0.587357       -15.9828
 158   2.0000      -0.577821       -15.7233
 159   2.0000      -0.566563       -15.4170
 160   2.0000      -0.561518       -15.2797
 161   2.0000      -0.559549       -15.2261
 162   2.0000      -0.556521       -15.1437
 163   2.0000      -0.553587       -15.0639
 164   2.0000      -0.549666       -14.9572
 165   2.0000      -0.546571       -14.8729
 166   2.0000      -0.537303       -14.6208
 167   2.0000      -0.534194       -14.5362
 168   2.0000      -0.526766       -14.3340
 169   2.0000      -0.522398       -14.2152
 170   2.0000      -0.518669       -14.1137
 171   2.0000      -0.518322       -14.1043
 172   2.0000      -0.517213       -14.0741
 173   2.0000      -0.516965       -14.0673
 174   2.0000      -0.514858       -14.0100
 175   2.0000      -0.512095       -13.9348
 176   2.0000      -0.510276       -13.8853
 177   2.0000      -0.510193       -13.8831
 178   2.0000      -0.507552       -13.8112
 179   2.0000      -0.506277       -13.7765
 180   2.0000      -0.504740       -13.7347
 181   2.0000      -0.502441       -13.6721
 182   2.0000      -0.499590       -13.5945
 183   2.0000      -0.496869       -13.5205
 184   2.0000      -0.494944       -13.4681
 185   2.0000      -0.493350       -13.4247
 186   2.0000      -0.488577       -13.2949
 187   2.0000      -0.484189       -13.1754
 188   2.0000      -0.480712       -13.0808
 189   2.0000      -0.480474       -13.0744
 190   2.0000      -0.473514       -12.8850
 191   2.0000      -0.471332       -12.8256
 192   2.0000      -0.470136       -12.7931
 193   2.0000      -0.468549       -12.7499
 194   2.0000      -0.467832       -12.7303
 195   2.0000      -0.466651       -12.6982
 196   2.0000      -0.465787       -12.6747
 197   2.0000      -0.464091       -12.6286
 198   2.0000      -0.457080       -12.4378
 199   2.0000      -0.455519       -12.3953
 200   2.0000      -0.452002       -12.2996
 201   2.0000      -0.450687       -12.2638
 202   2.0000      -0.450390       -12.2557
 203   2.0000      -0.449680       -12.2364
 204   2.0000      -0.449081       -12.2201
 205   2.0000      -0.448333       -12.1998
 206   2.0000      -0.448275       -12.1982
 207   2.0000      -0.447141       -12.1673
 208   2.0000      -0.446673       -12.1546
 209   2.0000      -0.445672       -12.1273
 210   2.0000      -0.444673       -12.1002
 211   2.0000      -0.436400       -11.8751
 212   2.0000      -0.434550       -11.8247
 213   2.0000      -0.432988       -11.7822
 214   2.0000      -0.430718       -11.7204
 215   2.0000      -0.423616       -11.5272
 216   2.0000      -0.423168       -11.5150
 217   2.0000      -0.419052       -11.4030
 218   2.0000      -0.415180       -11.2976
 219   2.0000      -0.401197       -10.9171
 220   2.0000      -0.393255       -10.7010
 221   2.0000      -0.374916       -10.2020
 222   2.0000      -0.362262        -9.8577
 223   2.0000      -0.359459        -9.7814
 224   2.0000      -0.357253        -9.7213
 225   2.0000      -0.352505        -9.5922
 226   2.0000      -0.344766        -9.3816
 227   2.0000      -0.336319        -9.1517
 228   2.0000      -0.336027        -9.1438
 229   2.0000      -0.333471        -9.0742
 230   2.0000      -0.332100        -9.0369
 231   2.0000      -0.331615        -9.0237
 232   2.0000      -0.327845        -8.9211
 233   2.0000      -0.314587        -8.5603
 234   2.0000      -0.287833        -7.8323
 235   2.0000      -0.261940        -7.1277
 236   2.0000      -0.242282        -6.5928
 237   0.0000      -0.119410        -3.2493
 238   0.0000      -0.113691        -3.0937
 239   0.0000      -0.111061        -3.0221
 240   0.0000      -0.076840        -2.0909
 241   0.0000      -0.073214        -1.9923

MULLIKEN ATOMIC CHARGES
-----------------------
   0 C :   -0.008004
   1 C :    0.083263
   2 C :   -0.078314
   3 S :   -0.012128
   4 C :    0.091790
   5 O :   -0.148962
   6 C :    0.013053
   7 C :   -0.065215
   8 C :   -0.038812
   9 C :    0.024156
  10 C :   -0.089249
  11 S :    0.197179
  12 C :   -0.095430
  13 C :    0.019022
  14 C :    0.304251
  15 C :   -0.294802
  16 C :   -0.187119
  17 N :    0.171043
  18 C :   -0.187552
  19 N :    0.174493
  20 C :   -0.071130
  21 C :   -0.047155
  22 S :    0.202967
  23 C :   -0.050579
  24 C :   -0.067987
  25 C :    0.018968
  26 C :   -0.094880
  27 S :    0.197865
  28 C :   -0.097735
  29 C :    0.014781
  30 C :    0.299661
  31 C :   -0.292643
  32 C :   -0.186623
  33 N :    0.174635
  34 C :   -0.188046
  35 N :    0.174095
  36 C :   -0.064360
  37 C :   -0.053559
  38 S :    0.197841
  39 C :   -0.048619
  40 C :   -0.067264
  41 C :    0.016137
  42 C :   -0.101799
  43 S :    0.201572
  44 C :   -0.092521
  45 C :   -0.008412
  46 C :    0.305511
  47 C :   -0.291356
  48 C :   -0.185663
  49 N :    0.166891
  50 C :   -0.186168
  51 N :    0.176026
  52 C :   -0.021731
  53 C :   -0.103381
  54 S :    0.195617
  55 C :    0.103679
  56 C :   -0.110903
  57 S :    0.014986
  58 C :    0.080967
  59 O :   -0.153800
  60 C :   -0.010894
  61 C :    0.077352
  62 H :    0.010609
  63 H :    0.007237
  64 H :    0.003153
  65 H :    0.008819
  66 H :    0.012809
  67 H :    0.011468
  68 H :    0.011209
  69 H :    0.013706
  70 H :    0.003223
  71 H :   -0.000570
  72 H :    0.016383
  73 H :    0.006944
Sum of atomic charges:   -0.0000000

LOEWDIN ATOMIC CHARGES
----------------------
   0 C :   -0.079268
   1 C :    0.014121
   2 C :   -0.171419
   3 S :    0.285110
   4 C :   -0.047506
   5 O :   -0.136955
   6 C :   -0.036444
   7 C :   -0.174379
   8 C :   -0.014752
   9 C :   -0.073203
  10 C :   -0.177362
  11 S :    0.491942
  12 C :   -0.180212
  13 C :   -0.064591
  14 C :    0.082264
  15 C :   -0.100857
  16 C :   -0.016168
  17 N :   -0.031862
  18 C :   -0.016390
  19 N :   -0.031054
  20 C :   -0.039734
  21 C :   -0.178093
  22 S :    0.488056
  23 C :   -0.178614
  24 C :   -0.037197
  25 C :   -0.067642
  26 C :   -0.179802
  27 S :    0.488490
  28 C :   -0.178935
  29 C :   -0.068210
  30 C :    0.082299
  31 C :   -0.098939
  32 C :   -0.016037
  33 N :   -0.030759
  34 C :   -0.016612
  35 N :   -0.029328
  36 C :   -0.036982
  37 C :   -0.179740
  38 S :    0.488190
  39 C :   -0.177714
  40 C :   -0.039762
  41 C :   -0.065061
  42 C :   -0.181521
  43 S :    0.486671
  44 C :   -0.179168
  45 C :   -0.069575
  46 C :    0.082652
  47 C :   -0.100074
  48 C :   -0.014120
  49 N :   -0.033371
  50 C :   -0.016698
  51 N :   -0.029570
  52 C :   -0.025832
  53 C :   -0.163428
  54 S :    0.485735
  55 C :   -0.049700
  56 C :   -0.151165
  57 S :    0.302692
  58 C :   -0.057952
  59 O :   -0.142214
  60 C :   -0.056698
  61 C :    0.000206
  62 H :    0.040137
  63 H :    0.039710
  64 H :    0.046695
  65 H :    0.042215
  66 H :    0.035449
  67 H :    0.036540
  68 H :    0.036267
  69 H :    0.035591
  70 H :    0.037017
  71 H :    0.034602
  72 H :    0.042027
  73 H :    0.037988

  Mayer bond orders larger than 0.100000
B(  0-C ,  1-C ) :   1.6578 B(  0-C ,  4-C ) :   0.9901 B(  0-C , 62-H ) :   0.9948
B(  1-C ,  2-C ) :   1.0894 B(  1-C , 63-H ) :   0.9985 B(  2-C ,  3-S ) :   1.0297
B(  2-C ,  6-C ) :   1.6303 B(  3-S ,  4-C ) :   0.9605 B(  3-S ,  5-O ) :   0.1052
B(  4-C ,  5-O ) :   2.1500 B(  6-C ,  7-C ) :   1.1742 B(  6-C , 64-H ) :   0.9694
B(  7-C ,  8-C ) :   1.4009 B(  7-C , 11-S ) :   1.0885 B(  8-C ,  9-C ) :   1.3071
B(  8-C , 65-H ) :   1.0042 B(  9-C , 10-C ) :   1.4057 B(  9-C , 14-C ) :   0.9909
B( 10-C , 11-S ) :   1.1421 B( 10-C , 12-C ) :   1.1939 B( 12-C , 13-C ) :   1.4389
B( 12-C , 22-S ) :   1.1187 B( 13-C , 14-C ) :   0.9982 B( 13-C , 20-C ) :   1.3034
B( 14-C , 15-C ) :   1.7137 B( 15-C , 16-C ) :   1.1316 B( 15-C , 18-C ) :   1.1338
B( 16-C , 17-N ) :   2.9894 B( 18-C , 19-N ) :   2.9930 B( 20-C , 21-C ) :   1.4522
B( 20-C , 66-H ) :   0.9862 B( 21-C , 22-S ) :   1.1102 B( 21-C , 23-C ) :   1.1726
B( 23-C , 24-C ) :   1.4559 B( 23-C , 27-S ) :   1.1083 B( 24-C , 25-C ) :   1.3001
B( 24-C , 67-H ) :   0.9889 B( 25-C , 26-C ) :   1.4451 B( 25-C , 30-C ) :   0.9937
B( 26-C , 27-S ) :   1.1221 B( 26-C , 28-C ) :   1.1857 B( 28-C , 29-C ) :   1.4448
B( 28-C , 38-S ) :   1.1217 B( 29-C , 30-C ) :   0.9932 B( 29-C , 36-C ) :   1.3008
B( 30-C , 31-C ) :   1.7159 B( 31-C , 32-C ) :   1.1329 B( 31-C , 34-C ) :   1.1317
B( 32-C , 33-N ) :   2.9920 B( 34-C , 35-N ) :   2.9919 B( 36-C , 37-C ) :   1.4584
B( 36-C , 68-H ) :   0.9876 B( 37-C , 38-S ) :   1.1084 B( 37-C , 39-C ) :   1.1704
B( 39-C , 40-C ) :   1.4546 B( 39-C , 43-S ) :   1.1114 B( 40-C , 41-C ) :   1.3036
B( 40-C , 69-H ) :   0.9856 B( 41-C , 42-C ) :   1.4452 B( 41-C , 46-C ) :   0.9948
B( 42-C , 43-S ) :   1.1168 B( 42-C , 44-C ) :   1.1905 B( 44-C , 45-C ) :   1.4237
B( 44-C , 54-S ) :   1.1354 B( 45-C , 46-C ) :   0.9998 B( 45-C , 52-C ) :   1.3207
B( 46-C , 47-C ) :   1.7120 B( 47-C , 48-C ) :   1.1319 B( 47-C , 50-C ) :   1.1322
B( 48-C , 49-N ) :   2.9922 B( 50-C , 51-N ) :   2.9910 B( 52-C , 53-C ) :   1.4307
B( 52-C , 70-H ) :   0.9870 B( 53-C , 54-S ) :   1.1017 B( 53-C , 55-C ) :   1.1541
B( 55-C , 56-C ) :   1.6914 B( 55-C , 71-H ) :   0.9320 B( 56-C , 57-S ) :   1.0299
B( 56-C , 61-C ) :   1.0748 B( 57-S , 58-C ) :   0.9905 B( 57-S , 59-O ) :   0.1141
B( 58-C , 59-O ) :   2.1378 B( 58-C , 60-C ) :   0.9800 B( 60-C , 61-C ) :   1.6885
B( 60-C , 72-H ) :   0.9916 B( 61-C , 73-H ) :   0.9882

-----------------------------------------------------------------------------
         ABSORPTION SPECTRUM VIA TRANSITION ELECTRIC DIPOLE MOMENTS
-----------------------------------------------------------------------------
State   Energy  Wavelength   fosc         T2         TX        TY        TZ
        (cm-1)    (nm)                  (au**2)     (au)      (au)      (au)
-----------------------------------------------------------------------------
   0   10555.1    947.4   0.552509776  17.23268   3.67642  -1.63883   1.01531
   1   11395.1    877.6   0.009319937   0.26926   0.42597  -0.19774   0.22071
   2   11692.8    855.2   0.044165745   1.24349   0.98400  -0.37999   0.36171
   3   18963.6    527.3   0.006205469   0.10773  -0.30078   0.09525  -0.09049
   4   19835.4    504.2   0.589672686   9.78693  -2.77221   1.27796  -0.68454
   5   20764.4    481.6   0.062440492   0.98997   0.89743  -0.40033   0.15597
   6   22146.0    451.5   2.351375098  34.95441   5.09787  -2.23167   1.99643
   7   23636.1    423.1   0.052696041   0.73397  -0.62933  -0.01190  -0.58118
   8   24587.1    406.7   0.114206635   1.52919   1.03144  -0.39499   0.55615
   9   25610.9    390.5   0.002849127   0.03662  -0.11815   0.11303   0.09943
  10   25968.8    385.1   0.028278397   0.35849  -0.36452   0.07135  -0.46960
  11   27844.8    359.1   0.100169667   1.18432   0.73470  -0.46815  -0.65220
  12   29268.2    341.7   0.016827360   0.18928  -0.14757   0.18171   0.36672
  13   29318.2    341.1   0.008753994   0.09830   0.04566  -0.11647  -0.28748
  14   29677.0    337.0   0.000053212   0.00059   0.00573   0.01814  -0.01511
  15   29763.4    336.0   0.155017568   1.71464   1.09006  -0.43597   0.57995
  16   30300.1    330.0   0.165079718   1.79360  -0.16620   0.40814   1.26468
  17   30992.0    322.7   0.102435101   1.08811  -0.21720   0.30697   0.97299
  18   31251.6    320.0   0.425132024   4.47845  -0.58257   0.71680   1.90401
  19   31492.8    317.5   0.391465695   4.09221   0.71828   0.01519   1.89105
  20   31960.6    312.9   0.797985533   8.21970  -0.03172   0.52582   2.81819
  21   32049.3    312.0   0.012162862   0.12494  -0.30537   0.00885  -0.17779
  22   32686.5    305.9   0.491105786   4.94633  -1.18267   0.90949   1.64938
  23   32942.8    303.6   0.219921212   2.19777   0.70820  -0.14043   1.29480
  24   33403.6    299.4   0.042740715   0.42123  -0.09377   0.17261   0.61858
  25   33524.9    298.3   0.124546695   1.22304   0.99529  -0.48192  -0.01383
  26   33920.8    294.8   0.127151894   1.23405   0.90079  -0.39641   0.51526
  27   34149.4    292.8   0.188684229   1.81898  -1.13163   0.40424  -0.61236
  28   34287.9    291.6   0.018594767   0.17854  -0.01925   0.08180   0.41409
  29   34576.2    289.2   0.062084993   0.59113   0.62483  -0.39693  -0.20777
  30   34969.4    286.0   0.021091717   0.19856   0.39769  -0.13194  -0.15165
  31   35370.2    282.7   0.098256883   0.91454   0.57245  -0.12788   0.75530
  32   35617.0    280.8   0.021983903   0.20320   0.07973  -0.10025  -0.43220
  33   35694.9    280.2   0.006947688   0.06408   0.02012  -0.05864  -0.24543
  34   35889.0    278.6   0.031377035   0.28782   0.17203   0.04407   0.50625
  35   36394.1    274.8   0.035924556   0.32496  -0.50356   0.25995   0.06181
  36   36705.7    272.4   0.031419309   0.28180   0.22143  -0.20043  -0.43885
  37   37136.9    269.3   0.000152798   0.00135   0.01220   0.03310   0.01049
  38   37451.3    267.0   0.011680269   0.10267  -0.26869   0.11332  -0.13280
  39   37783.8    264.7   0.092136241   0.80279  -0.32761   0.36355   0.75053
  40   38281.0    261.2   0.031940193   0.27468   0.44853  -0.25372  -0.09552
  41   38736.9    258.2   0.024056856   0.20445  -0.33581   0.10405  -0.28435
  42   38835.4    257.5   0.021828538   0.18504  -0.33872   0.20214   0.17161
  43   39076.8    255.9   0.002398479   0.02021   0.09562  -0.03120   0.10045
  44   39435.9    253.6   0.004937956   0.04122   0.13443  -0.01494   0.15142
  45   39704.3    251.9   0.012949401   0.10737  -0.23679   0.12255   0.19048
  46   40053.4    249.7   0.005253976   0.04318  -0.02005  -0.00443  -0.20679
  47   40171.3    248.9   0.045136055   0.36990   0.26042  -0.19421  -0.51416

FINAL SINGLE POINT ENERGY     -5420.606909665432

DIPOLE MOMENT
-------------
                                X             Y             Z
Electronic contribution:     -3.94761       1.63366       5.07824
Nuclear contribution   :      5.67740      -2.38144      -4.70815
                        -----------------------------------------
Total Dipole Moment    :      1.72978      -0.74778       0.37009
                        -----------------------------------------
Magnitude (a.u.)       :      1.92049
Magnitude (Debye)      :      4.88150

Rotational constants in cm-1:     0.003228     0.000225     0.000210
Rotational constants in MHz :    96.772309     6.735374     6.299828

                             ****ORCA TERMINATED NORMALLY****
TOTAL RUN TIME: 0 days 0 hours 8 minutes 41 seconds 784 msec
