                         Program Version 4.2.0 -  RELEASE  -
|  1> # ORCA input file
|  2> # SCF done       -176.694934933613          0.000698323192
|  3> ! CAM-B3LYP def2-SVP def2/J RIJCOSX Grid4 TightSCF
|  4> %maxcore 5000
|  5> %tddft
|  6>     Mode sTDDFT
|  7>     Ethresh 5.0
|  8>     maxcore 5000
|  9> end
| 10>
| 11> %pal
| 12>   nprocs 6
| 13>   end
| 14> * xyz 0 1
| 15>    C       12.13537        -1.31189         2.33068
| 16>    C       11.84645        -1.82177         1.12532
| 17>    C       12.74056        -2.03423         0.02391
| 18>    C       12.16042        -2.57659        -1.07004
| 19>    C       10.76922        -2.83605        -0.92989
| 20>    S       10.22123        -2.35393         0.66341
| 21>    C        9.92626        -3.39169        -1.86388
| 22>    C       10.23737        -3.81926        -3.17652
| 23>    C        9.17977        -4.34967        -3.84579
| 24>    C        7.95742        -4.35845        -3.12329
| 25>    S        8.22898        -3.68491        -1.52864
| 26>    C        6.78823        -4.88996        -3.61862
| 27>    C        5.48829        -4.99933        -3.13025
| 28>    C        4.64215        -4.36699        -2.25450
| 29>    C        5.01058        -3.09489        -1.54841
| 30>    C        5.17463        -1.94657        -2.54614
| 31>    C        3.32395        -4.93341        -2.15418
| 32>    C        2.26938        -4.32195        -1.27416
| 33>    C        2.39949        -4.80864         0.17170
| 34>    C        3.07709        -6.03341        -2.93092
| 35>    S        4.53408        -6.29480        -3.95405
| 36>    O        4.28134        -5.93357        -5.32493
| 37>    O        5.11578        -7.58979        -3.72054
| 38>    C        2.01781        -6.93017        -3.11828
| 39>    C        0.95979        -7.17454        -2.28914
| 40>    C       -0.03873        -8.13658        -2.53408
| 41>    S       -0.06004        -9.11752        -3.97606
| 42>    C       -1.47225        -9.97742        -3.42328
| 43>    C       -1.88897        -9.50534        -2.17532
| 44>    C       -1.10242        -8.46579        -1.68965
| 45>    C       -1.38345        -7.79144        -0.38491
| 46>    C       -2.80460        -8.08238         0.11009
| 47>    C       -2.97554        -7.50914         1.51473
| 48>    C       -3.05922        -9.59501         0.04291
| 49>    C       -4.37424       -10.00951         0.69875
| 50>    C       -3.06628       -10.03973        -1.42388
| 51>    C       -2.06936       -11.00926        -4.17193
| 52>    C       -1.66045       -11.39100        -5.41937
| 53>    C       -2.17064       -12.39217        -6.25262
| 54>    C       -3.08553       -13.41343        -6.15825
| 55>    C       -3.77866       -13.76514        -4.87077
| 56>    C       -2.79137       -14.36064        -3.86346
| 57>    C       -3.28366       -14.16829        -7.35740
| 58>    C       -4.24658       -15.31930        -7.45389
| 59>    C       -3.58419       -16.63424        -7.03646
| 60>    C       -2.51282       -13.80052        -8.43665
| 61>    S       -1.48725       -12.41525        -7.91797
| 62>    O       -1.83776       -11.21094        -8.62526
| 63>    O       -0.09432       -12.77712        -7.89021
| 64>    C       -2.42454       -14.30990        -9.72732
| 65>    C       -1.57612       -13.77490       -10.67029
| 66>    C       -1.46766       -14.26285       -11.96914
| 67>    C       -0.64943       -13.72982       -12.94508
| 68>    C       -0.51472       -14.19589       -14.27344
| 69>    C        0.35579       -13.47512       -15.03385
| 70>    C        0.95501       -12.39706       -14.34227
| 71>    S        0.37595       -12.33611       -12.68789
| 72>    C        1.86423       -11.48446       -14.83583
| 73>    C        2.40073       -11.43110       -16.15168
| 74>    C        3.27334       -10.41844       -16.35689
| 75>    C        3.49354        -9.58848       -15.20823
| 76>    S        2.51632       -10.18973       -13.85880
| 77>    C        4.29503        -8.51780       -15.11083
| 78>    H       13.13750        -1.00273         2.56975
| 79>    H       11.38494        -1.19784         3.09104
| 80>    H       13.78046        -1.77136         0.10341
| 81>    H       12.68200        -2.80474        -1.98260
| 82>    H       11.22645        -3.72291        -3.58665
| 83>    H        9.22699        -4.73140        -4.85039
| 84>    H        6.90349        -5.39872        -4.57196
| 85>    H        5.95097        -3.23618        -1.01525
| 86>    H        4.25757        -2.82437        -0.81194
| 87>    H        5.94359        -2.18332        -3.27607
| 88>    H        5.45899        -1.03620        -2.02414
| 89>    H        4.24265        -1.76928        -3.07837
| 90>    H        1.28925        -4.59203        -1.66886
| 91>    H        2.34000        -3.23388        -1.30101
| 92>    H        2.35577        -5.89434         0.21304
| 93>    H        1.59573        -4.40168         0.78171
| 94>    H        3.35003        -4.49774         0.59774
| 95>    H        2.11356        -7.53670        -4.01184
| 96>    H        0.87372        -6.64643        -1.35243
| 97>    H       -1.24768        -6.71207        -0.48738
| 98>    H       -0.66469        -8.14170         0.36412
| 99>    H       -3.51545        -7.58529        -0.55979
|100>    H       -2.36596        -8.05993         2.22830
|101>    H       -4.01228        -7.55336         1.83514
|102>    H       -2.66335        -6.46684         1.53185
|103>    H       -2.23602       -10.10355         0.55749
|104>    H       -5.20258        -9.43450         0.28953
|105>    H       -4.34357        -9.85917         1.77385
|106>    H       -4.56615       -11.06443         0.51296
|107>    H       -3.98692        -9.68559        -1.90096
|108>    H       -3.07321       -11.13145        -1.47198
|109>    H       -2.91423       -11.48978        -3.70482
|110>    H       -0.84128       -10.84006        -5.86906
|111>    H       -4.57583       -14.48522        -5.04586
|112>    H       -4.23717       -12.86665        -4.45300
|113>    H       -2.36763       -15.28353        -4.25126
|114>    H       -3.29706       -14.58009        -2.92540
|115>    H       -1.97349       -13.67243        -3.67015
|116>    H       -4.58769       -15.40499        -8.48630
|117>    H       -5.12777       -15.13865        -6.83724
|118>    H       -2.70240       -16.81783        -7.64542
|119>    H       -4.27698       -17.46300        -7.16436
|120>    H       -3.27793       -16.59773        -5.99470
|121>    H       -3.04325       -15.15558       -10.00630
|122>    H       -0.96722       -12.92819       -10.38405
|123>    H       -2.06750       -15.12024       -12.25056
|124>    H       -1.06648       -15.04990       -14.62588
|125>    H        0.57831       -13.68844       -16.06389
|126>    H        2.11875       -12.14865       -16.90166
|127>    H        3.77878       -10.21884       -17.28509
|128>    H        4.87201        -8.18463       -15.95548
|129>    H        4.38659        -7.96284       -14.19545
|130> *
|131>
|132>                          ****END OF INPUT****

CARTESIAN COORDINATES (ANGSTROEM)
---------------------------------
  C     12.135370   -1.311890    2.330680
  C     11.846450   -1.821770    1.125320
  C     12.740560   -2.034230    0.023910
  C     12.160420   -2.576590   -1.070040
  C     10.769220   -2.836050   -0.929890
  S     10.221230   -2.353930    0.663410
  C      9.926260   -3.391690   -1.863880
  C     10.237370   -3.819260   -3.176520
  C      9.179770   -4.349670   -3.845790
  C      7.957420   -4.358450   -3.123290
  S      8.228980   -3.684910   -1.528640
  C      6.788230   -4.889960   -3.618620
  C      5.488290   -4.999330   -3.130250
  C      4.642150   -4.366990   -2.254500
  C      5.010580   -3.094890   -1.548410
  C      5.174630   -1.946570   -2.546140
  C      3.323950   -4.933410   -2.154180
  C      2.269380   -4.321950   -1.274160
  C      2.399490   -4.808640    0.171700
  C      3.077090   -6.033410   -2.930920
  S      4.534080   -6.294800   -3.954050
  O      4.281340   -5.933570   -5.324930
  O      5.115780   -7.589790   -3.720540
  C      2.017810   -6.930170   -3.118280
  C      0.959790   -7.174540   -2.289140
  C     -0.038730   -8.136580   -2.534080
  S     -0.060040   -9.117520   -3.976060
  C     -1.472250   -9.977420   -3.423280
  C     -1.888970   -9.505340   -2.175320
  C     -1.102420   -8.465790   -1.689650
  C     -1.383450   -7.791440   -0.384910
  C     -2.804600   -8.082380    0.110090
  C     -2.975540   -7.509140    1.514730
  C     -3.059220   -9.595010    0.042910
  C     -4.374240  -10.009510    0.698750
  C     -3.066280  -10.039730   -1.423880
  C     -2.069360  -11.009260   -4.171930
  C     -1.660450  -11.391000   -5.419370
  C     -2.170640  -12.392170   -6.252620
  C     -3.085530  -13.413430   -6.158250
  C     -3.778660  -13.765140   -4.870770
  C     -2.791370  -14.360640   -3.863460
  C     -3.283660  -14.168290   -7.357400
  C     -4.246580  -15.319300   -7.453890
  C     -3.584190  -16.634240   -7.036460
  C     -2.512820  -13.800520   -8.436650
  S     -1.487250  -12.415250   -7.917970
  O     -1.837760  -11.210940   -8.625260
  O     -0.094320  -12.777120   -7.890210
  C     -2.424540  -14.309900   -9.727320
  C     -1.576120  -13.774900  -10.670290
  C     -1.467660  -14.262850  -11.969140
  C     -0.649430  -13.729820  -12.945080
  C     -0.514720  -14.195890  -14.273440
  C      0.355790  -13.475120  -15.033850
  C      0.955010  -12.397060  -14.342270
  S      0.375950  -12.336110  -12.687890
  C      1.864230  -11.484460  -14.835830
  C      2.400730  -11.431100  -16.151680
  C      3.273340  -10.418440  -16.356890
  C      3.493540   -9.588480  -15.208230
  S      2.516320  -10.189730  -13.858800
  C      4.295030   -8.517800  -15.110830
  H     13.137500   -1.002730    2.569750
  H     11.384940   -1.197840    3.091040
  H     13.780460   -1.771360    0.103410
  H     12.682000   -2.804740   -1.982600
  H     11.226450   -3.722910   -3.586650
  H      9.226990   -4.731400   -4.850390
  H      6.903490   -5.398720   -4.571960
  H      5.950970   -3.236180   -1.015250
  H      4.257570   -2.824370   -0.811940
  H      5.943590   -2.183320   -3.276070
  H      5.458990   -1.036200   -2.024140
  H      4.242650   -1.769280   -3.078370
  H      1.289250   -4.592030   -1.668860
  H      2.340000   -3.233880   -1.301010
  H      2.355770   -5.894340    0.213040
  H      1.595730   -4.401680    0.781710
  H      3.350030   -4.497740    0.597740
  H      2.113560   -7.536700   -4.011840
  H      0.873720   -6.646430   -1.352430
  H     -1.247680   -6.712070   -0.487380
  H     -0.664690   -8.141700    0.364120
  H     -3.515450   -7.585290   -0.559790
  H     -2.365960   -8.059930    2.228300
  H     -4.012280   -7.553360    1.835140
  H     -2.663350   -6.466840    1.531850
  H     -2.236020  -10.103550    0.557490
  H     -5.202580   -9.434500    0.289530
  H     -4.343570   -9.859170    1.773850
  H     -4.566150  -11.064430    0.512960
  H     -3.986920   -9.685590   -1.900960
  H     -3.073210  -11.131450   -1.471980
  H     -2.914230  -11.489780   -3.704820
  H     -0.841280  -10.840060   -5.869060
  H     -4.575830  -14.485220   -5.045860
  H     -4.237170  -12.866650   -4.453000
  H     -2.367630  -15.283530   -4.251260
  H     -3.297060  -14.580090   -2.925400
  H     -1.973490  -13.672430   -3.670150
  H     -4.587690  -15.404990   -8.486300
  H     -5.127770  -15.138650   -6.837240
  H     -2.702400  -16.817830   -7.645420
  H     -4.276980  -17.463000   -7.164360
  H     -3.277930  -16.597730   -5.994700
  H     -3.043250  -15.155580  -10.006300
  H     -0.967220  -12.928190  -10.384050
  H     -2.067500  -15.120240  -12.250560
  H     -1.066480  -15.049900  -14.625880
  H      0.578310  -13.688440  -16.063890
  H      2.118750  -12.148650  -16.901660
  H      3.778780  -10.218840  -17.285090
  H      4.872010   -8.184630  -15.955480
  H      4.386590   -7.962840  -14.195450

 Total Charge           Charge          ....    0
 Multiplicity           Mult            ....    1
 Number of Electrons    NEL             ....  508
 Basis Dimension        Dim             .... 1170

ORBITAL ENERGIES
----------------

  NO   OCC          E(Eh)            E(eV)
   0   2.0000     -89.112326     -2424.8697
   1   2.0000     -89.108698     -2424.7710
   2   2.0000     -88.945086     -2420.3188
   3   2.0000     -88.938980     -2420.1527
   4   2.0000     -88.938957     -2420.1520
   5   2.0000     -88.934780     -2420.0384
   6   2.0000     -88.932686     -2419.9814
   7   2.0000     -19.172902      -521.7212
   8   2.0000     -19.172681      -521.7152
   9   2.0000     -19.172320      -521.7054
  10   2.0000     -19.169576      -521.6307
  11   2.0000     -10.310905      -280.5740
  12   2.0000     -10.308318      -280.5036
  13   2.0000     -10.307212      -280.4735
  14   2.0000     -10.306734      -280.4605
  15   2.0000     -10.306322      -280.4493
  16   2.0000     -10.301131      -280.3080
  17   2.0000     -10.300935      -280.3027
  18   2.0000     -10.300741      -280.2974
  19   2.0000     -10.289525      -279.9922
  20   2.0000     -10.289288      -279.9858
  21   2.0000     -10.289195      -279.9832
  22   2.0000     -10.288621      -279.9676
  23   2.0000     -10.288340      -279.9600
  24   2.0000     -10.288000      -279.9507
  25   2.0000     -10.285057      -279.8706
  26   2.0000     -10.284382      -279.8523
  27   2.0000     -10.283945      -279.8404
  28   2.0000     -10.283289      -279.8225
  29   2.0000     -10.282898      -279.8119
  30   2.0000     -10.282638      -279.8048
  31   2.0000     -10.282632      -279.8046
  32   2.0000     -10.282277      -279.7950
  33   2.0000     -10.280641      -279.7505
  34   2.0000     -10.280325      -279.7419
  35   2.0000     -10.280248      -279.7398
  36   2.0000     -10.279826      -279.7283
  37   2.0000     -10.279805      -279.7277
  38   2.0000     -10.276938      -279.6497
  39   2.0000     -10.276348      -279.6336
  40   2.0000     -10.275124      -279.6003
  41   2.0000     -10.274989      -279.5967
  42   2.0000     -10.274142      -279.5736
  43   2.0000     -10.272853      -279.5386
  44   2.0000     -10.272102      -279.5181
  45   2.0000     -10.271925      -279.5133
  46   2.0000     -10.270886      -279.4850
  47   2.0000     -10.270484      -279.4741
  48   2.0000     -10.268631      -279.4236
  49   2.0000     -10.267348      -279.3887
  50   2.0000     -10.267331      -279.3883
  51   2.0000     -10.266161      -279.3565
  52   2.0000     -10.266080      -279.3542
  53   2.0000     -10.266055      -279.3536
  54   2.0000     -10.265972      -279.3513
  55   2.0000     -10.265893      -279.3491
  56   2.0000     -10.265717      -279.3443
  57   2.0000     -10.262352      -279.2528
  58   2.0000     -10.259320      -279.1703
  59   2.0000     -10.258287      -279.1422
  60   2.0000     -10.253129      -279.0018
  61   2.0000     -10.253060      -279.0000
  62   2.0000     -10.251478      -278.9569
  63   2.0000      -8.178702      -222.5538
  64   2.0000      -8.175920      -222.4781
  65   2.0000      -8.040833      -218.8022
  66   2.0000      -8.035564      -218.6588
  67   2.0000      -8.034230      -218.6225
  68   2.0000      -8.031045      -218.5358
  69   2.0000      -8.029467      -218.4929
  70   2.0000      -6.147650      -167.2861
  71   2.0000      -6.147224      -167.2745
  72   2.0000      -6.146690      -167.2599
  73   2.0000      -6.144762      -167.2075
  74   2.0000      -6.144476      -167.1997
  75   2.0000      -6.143787      -167.1809
  76   2.0000      -6.010568      -163.5559
  77   2.0000      -6.006562      -163.4469
  78   2.0000      -6.005398      -163.4152
  79   2.0000      -6.003392      -163.3606
  80   2.0000      -6.001778      -163.3167
  81   2.0000      -6.001460      -163.3080
  82   2.0000      -6.000757      -163.2889
  83   2.0000      -5.999607      -163.2576
  84   2.0000      -5.999262      -163.2482
  85   2.0000      -5.996759      -163.1801
  86   2.0000      -5.996244      -163.1661
  87   2.0000      -5.996134      -163.1631
  88   2.0000      -5.995320      -163.1409
  89   2.0000      -5.991900      -163.0479
  90   2.0000      -5.990014      -162.9966
  91   2.0000      -1.176172       -32.0053
  92   2.0000      -1.174641       -31.9636
  93   2.0000      -1.053706       -28.6728
  94   2.0000      -1.051971       -28.6256
  95   2.0000      -0.991642       -26.9840
  96   2.0000      -0.986280       -26.8380
  97   2.0000      -0.980063       -26.6689
  98   2.0000      -0.969944       -26.3935
  99   2.0000      -0.964165       -26.2363
 100   2.0000      -0.962658       -26.1953
 101   2.0000      -0.961257       -26.1571
 102   2.0000      -0.924102       -25.1461
 103   2.0000      -0.912284       -24.8245
 104   2.0000      -0.905016       -24.6267
 105   2.0000      -0.894295       -24.3350
 106   2.0000      -0.884411       -24.0661
 107   2.0000      -0.875570       -23.8255
 108   2.0000      -0.870219       -23.6799
 109   2.0000      -0.866279       -23.5726
 110   2.0000      -0.860660       -23.4197
 111   2.0000      -0.853889       -23.2355
 112   2.0000      -0.850545       -23.1445
 113   2.0000      -0.847599       -23.0644
 114   2.0000      -0.842689       -22.9307
 115   2.0000      -0.839114       -22.8335
 116   2.0000      -0.837778       -22.7971
 117   2.0000      -0.833606       -22.6836
 118   2.0000      -0.823241       -22.4015
 119   2.0000      -0.816050       -22.2058
 120   2.0000      -0.811738       -22.0885
 121   2.0000      -0.802801       -21.8453
 122   2.0000      -0.791299       -21.5323
 123   2.0000      -0.777427       -21.1549
 124   2.0000      -0.772492       -21.0206
 125   2.0000      -0.761320       -20.7166
 126   2.0000      -0.757003       -20.5991
 127   2.0000      -0.753172       -20.4949
 128   2.0000      -0.743392       -20.2287
 129   2.0000      -0.729838       -19.8599
 130   2.0000      -0.727614       -19.7994
 131   2.0000      -0.722602       -19.6630
 132   2.0000      -0.700689       -19.0667
 133   2.0000      -0.692953       -18.8562
 134   2.0000      -0.689974       -18.7751
 135   2.0000      -0.688440       -18.7334
 136   2.0000      -0.685012       -18.6401
 137   2.0000      -0.680141       -18.5076
 138   2.0000      -0.675407       -18.3787
 139   2.0000      -0.664092       -18.0709
 140   2.0000      -0.652452       -17.7541
 141   2.0000      -0.648786       -17.6544
 142   2.0000      -0.642666       -17.4878
 143   2.0000      -0.635992       -17.3062
 144   2.0000      -0.630595       -17.1594
 145   2.0000      -0.627307       -17.0699
 146   2.0000      -0.623829       -16.9752
 147   2.0000      -0.619384       -16.8543
 148   2.0000      -0.615152       -16.7391
 149   2.0000      -0.610080       -16.6011
 150   2.0000      -0.606166       -16.4946
 151   2.0000      -0.597721       -16.2648
 152   2.0000      -0.596320       -16.2267
 153   2.0000      -0.593586       -16.1523
 154   2.0000      -0.589430       -16.0392
 155   2.0000      -0.581907       -15.8345
 156   2.0000      -0.571024       -15.5384
 157   2.0000      -0.562001       -15.2928
 158   2.0000      -0.560163       -15.2428
 159   2.0000      -0.554351       -15.0847
 160   2.0000      -0.550083       -14.9685
 161   2.0000      -0.543903       -14.8003
 162   2.0000      -0.541406       -14.7324
 163   2.0000      -0.536193       -14.5905
 164   2.0000      -0.534581       -14.5467
 165   2.0000      -0.530178       -14.4269
 166   2.0000      -0.526118       -14.3164
 167   2.0000      -0.524571       -14.2743
 168   2.0000      -0.521006       -14.1773
 169   2.0000      -0.518753       -14.1160
 170   2.0000      -0.515367       -14.0239
 171   2.0000      -0.514892       -14.0109
 172   2.0000      -0.513074       -13.9614
 173   2.0000      -0.510829       -13.9004
 174   2.0000      -0.510149       -13.8819
 175   2.0000      -0.507728       -13.8160
 176   2.0000      -0.504975       -13.7411
 177   2.0000      -0.503580       -13.7031
 178   2.0000      -0.501657       -13.6508
 179   2.0000      -0.500443       -13.6177
 180   2.0000      -0.499884       -13.6025
 181   2.0000      -0.497195       -13.5294
 182   2.0000      -0.493232       -13.4215
 183   2.0000      -0.492628       -13.4051
 184   2.0000      -0.491001       -13.3608
 185   2.0000      -0.488317       -13.2878
 186   2.0000      -0.486034       -13.2257
 187   2.0000      -0.483895       -13.1675
 188   2.0000      -0.479863       -13.0577
 189   2.0000      -0.479025       -13.0349
 190   2.0000      -0.475015       -12.9258
 191   2.0000      -0.472235       -12.8502
 192   2.0000      -0.469154       -12.7663
 193   2.0000      -0.466797       -12.7022
 194   2.0000      -0.465647       -12.6709
 195   2.0000      -0.464923       -12.6512
 196   2.0000      -0.461619       -12.5613
 197   2.0000      -0.457881       -12.4596
 198   2.0000      -0.456472       -12.4212
 199   2.0000      -0.455956       -12.4072
 200   2.0000      -0.453939       -12.3523
 201   2.0000      -0.452696       -12.3185
 202   2.0000      -0.451244       -12.2790
 203   2.0000      -0.450848       -12.2682
 204   2.0000      -0.449480       -12.2310
 205   2.0000      -0.446596       -12.1525
 206   2.0000      -0.444406       -12.0929
 207   2.0000      -0.440152       -11.9772
 208   2.0000      -0.437730       -11.9112
 209   2.0000      -0.431785       -11.7495
 210   2.0000      -0.431402       -11.7391
 211   2.0000      -0.428036       -11.6474
 212   2.0000      -0.425605       -11.5813
 213   2.0000      -0.423214       -11.5162
 214   2.0000      -0.422362       -11.4931
 215   2.0000      -0.421887       -11.4801
 216   2.0000      -0.421615       -11.4727
 217   2.0000      -0.420032       -11.4297
 218   2.0000      -0.416753       -11.3404
 219   2.0000      -0.414870       -11.2892
 220   2.0000      -0.413383       -11.2487
 221   2.0000      -0.411579       -11.1996
 222   2.0000      -0.410160       -11.1610
 223   2.0000      -0.405093       -11.0231
 224   2.0000      -0.402138       -10.9427
 225   2.0000      -0.393372       -10.7042
 226   2.0000      -0.390096       -10.6150
 227   2.0000      -0.389395       -10.5960
 228   2.0000      -0.387587       -10.5468
 229   2.0000      -0.386501       -10.5172
 230   2.0000      -0.381902       -10.3921
 231   2.0000      -0.378734       -10.3059
 232   2.0000      -0.375688       -10.2230
 233   2.0000      -0.373050       -10.1512
 234   2.0000      -0.371697       -10.1144
 235   2.0000      -0.369647       -10.0586
 236   2.0000      -0.356269        -9.6946
 237   2.0000      -0.348448        -9.4818
 238   2.0000      -0.338910        -9.2222
 239   2.0000      -0.336873        -9.1668
 240   2.0000      -0.336443        -9.1551
 241   2.0000      -0.331568        -9.0224
 242   2.0000      -0.330313        -8.9883
 243   2.0000      -0.329357        -8.9623
 244   2.0000      -0.328275        -8.9328
 245   2.0000      -0.322088        -8.7645
 246   2.0000      -0.316803        -8.6206
 247   2.0000      -0.307321        -8.3626
 248   2.0000      -0.299595        -8.1524
 249   2.0000      -0.288872        -7.8606
 250   2.0000      -0.266626        -7.2553
 251   2.0000      -0.238018        -6.4768
 252   2.0000      -0.211431        -5.7533
 253   2.0000      -0.194171        -5.2837
 254   0.0000      -0.089481        -2.4349
 255   0.0000      -0.073695        -2.0053
 256   0.0000      -0.043625        -1.1871
 257   0.0000      -0.023834        -0.6486
 258   0.0000       0.003024         0.0823

MULLIKEN ATOMIC CHARGES
-----------------------
   0 C :   -0.026901
   1 C :   -0.064701
   2 C :    0.054377
   3 C :    0.028743
   4 C :   -0.063527
   5 S :    0.080251
   6 C :   -0.043131
   7 C :    0.029081
   8 C :    0.036650
   9 C :   -0.018568
  10 S :    0.071501
  11 C :   -0.002305
  12 C :   -0.106957
  13 C :   -0.041939
  14 C :    0.042331
  15 C :    0.027878
  16 C :   -0.070806
  17 C :    0.034062
  18 C :    0.024174
  19 C :   -0.086107
  20 S :    0.745020
  21 O :   -0.464297
  22 O :   -0.461569
  23 C :    0.058169
  24 C :   -0.034922
  25 C :   -0.087588
  26 S :    0.121953
  27 C :   -0.084675
  28 C :   -0.071204
  29 C :   -0.065835
  30 C :    0.170308
  31 C :   -0.128899
  32 C :    0.095643
  33 C :   -0.131493
  34 C :    0.092947
  35 C :    0.172944
  36 C :   -0.038189
  37 C :    0.059610
  38 C :   -0.096543
  39 C :   -0.046311
  40 C :    0.061227
  41 C :    0.010962
  42 C :   -0.066655
  43 C :    0.050959
  44 C :    0.028707
  45 C :   -0.028014
  46 S :    0.748127
  47 O :   -0.464303
  48 O :   -0.463786
  49 C :   -0.041124
  50 C :    0.030011
  51 C :   -0.027791
  52 C :   -0.010333
  53 C :    0.030963
  54 C :    0.027513
  55 C :   -0.051332
  56 S :    0.109229
  57 C :   -0.065467
  58 C :    0.028216
  59 C :    0.055172
  60 C :   -0.067639
  61 S :    0.101480
  62 C :   -0.025492
  63 H :    0.020815
  64 H :    0.022639
  65 H :   -0.009985
  66 H :   -0.009777
  67 H :   -0.013572
  68 H :   -0.004280
  69 H :    0.010335
  70 H :    0.026506
  71 H :   -0.004551
  72 H :    0.028918
  73 H :    0.015515
  74 H :    0.012192
  75 H :    0.011543
  76 H :    0.014373
  77 H :    0.026272
  78 H :    0.019111
  79 H :    0.014049
  80 H :    0.009215
  81 H :   -0.021673
  82 H :    0.010791
  83 H :    0.006332
  84 H :   -0.006903
  85 H :    0.001587
  86 H :    0.011705
  87 H :    0.001230
  88 H :   -0.006927
  89 H :    0.002200
  90 H :    0.013007
  91 H :    0.001777
  92 H :    0.006111
  93 H :    0.011968
  94 H :   -0.026261
  95 H :    0.008314
  96 H :   -0.006446
  97 H :    0.021045
  98 H :    0.016355
  99 H :    0.014613
 100 H :    0.033508
 101 H :    0.007672
 102 H :    0.010302
 103 H :    0.021478
 104 H :    0.018049
 105 H :    0.006065
 106 H :   -0.023670
 107 H :    0.026445
 108 H :   -0.022567
 109 H :   -0.015654
 110 H :   -0.014555
 111 H :   -0.012553
 112 H :   -0.011637
 113 H :    0.020661
 114 H :    0.028516
Sum of atomic charges:   -0.0000000

LOEWDIN ATOMIC CHARGES
----------------------
   0 C :   -0.073374
   1 C :   -0.139412
   2 C :   -0.028903
   3 C :   -0.026037
   4 C :   -0.172979
   5 S :    0.351654
   6 C :   -0.181238
   7 C :   -0.034605
   8 C :   -0.026760
   9 C :   -0.141710
  10 S :    0.396282
  11 C :   -0.076639
  12 C :   -0.170356
  13 C :   -0.026768
  14 C :   -0.039695
  15 C :   -0.045183
  16 C :   -0.026418
  17 C :   -0.030796
  18 C :   -0.049551
  19 C :   -0.165615
  20 S :    1.177901
  21 O :   -0.504963
  22 O :   -0.504669
  23 C :   -0.046569
  24 C :   -0.028123
  25 C :   -0.170112
  26 S :    0.443329
  27 C :   -0.163675
  28 C :   -0.053930
  29 C :   -0.049011
  30 C :   -0.022223
  31 C :   -0.026782
  32 C :   -0.047576
  33 C :   -0.026995
  34 C :   -0.047987
  35 C :   -0.022244
  36 C :   -0.037902
  37 C :   -0.041708
  38 C :   -0.171405
  39 C :   -0.020276
  40 C :   -0.029869
  41 C :   -0.047755
  42 C :   -0.041497
  43 C :   -0.028298
  44 C :   -0.047758
  45 C :   -0.156206
  46 S :    1.178323
  47 O :   -0.502434
  48 O :   -0.501367
  49 C :   -0.052470
  50 C :   -0.004501
  51 C :   -0.068897
  52 C :   -0.133186
  53 C :   -0.040230
  54 C :   -0.025962
  55 C :   -0.184176
  56 S :    0.394845
  57 C :   -0.170062
  58 C :   -0.028590
  59 C :   -0.027673
  60 C :   -0.140795
  61 S :    0.368505
  62 C :   -0.068235
  63 H :    0.029181
  64 H :    0.026676
  65 H :    0.034091
  66 H :    0.033225
  67 H :    0.031967
  68 H :    0.036851
  69 H :    0.039960
  70 H :    0.013790
  71 H :    0.024635
  72 H :    0.027337
  73 H :    0.025305
  74 H :    0.024463
  75 H :    0.029886
  76 H :    0.029555
  77 H :    0.025909
  78 H :    0.026185
  79 H :    0.025362
  80 H :    0.029266
  81 H :    0.029995
  82 H :    0.028261
  83 H :    0.031272
  84 H :    0.020740
  85 H :    0.022288
  86 H :    0.022815
  87 H :    0.023033
  88 H :    0.020587
  89 H :    0.022331
  90 H :    0.022989
  91 H :    0.023067
  92 H :    0.030875
  93 H :    0.028605
  94 H :    0.027884
  95 H :    0.028195
  96 H :    0.026287
  97 H :    0.031062
  98 H :    0.025064
  99 H :    0.024502
 100 H :    0.028837
 101 H :    0.029457
 102 H :    0.026880
 103 H :    0.028386
 104 H :    0.025630
 105 H :    0.022104
 106 H :    0.028722
 107 H :    0.021570
 108 H :    0.029869
 109 H :    0.032185
 110 H :    0.030887
 111 H :    0.031905
 112 H :    0.033430
 113 H :    0.028963
 114 H :    0.028991

  Mayer bond orders larger than 0.100000
B(  0-C ,  1-C ) :   1.8636 B(  0-C , 63-H ) :   0.9505 B(  0-C , 64-H ) :   0.9418
B(  1-C ,  2-C ) :   1.0800 B(  1-C ,  5-S ) :   1.0077 B(  2-C ,  3-C ) :   1.6601
B(  2-C , 65-H ) :   0.9932 B(  3-C ,  4-C ) :   1.1542 B(  3-C , 66-H ) :   0.9919
B(  4-C ,  5-S ) :   1.0470 B(  4-C ,  6-C ) :   1.5492 B(  6-C ,  7-C ) :   1.1718
B(  6-C , 10-S ) :   1.0321 B(  7-C ,  8-C ) :   1.5979 B(  7-C , 67-H ) :   0.9925
B(  8-C ,  9-C ) :   1.1435 B(  8-C , 68-H ) :   1.0001 B(  9-C , 10-S ) :   1.0397
B(  9-C , 11-C ) :   1.5974 B( 11-C , 12-C ) :   1.1764 B( 11-C , 69-H ) :   0.9211
B( 12-C , 13-C ) :   1.5862 B( 12-C , 20-S ) :   0.8282 B( 13-C , 14-C ) :   1.0824
B( 13-C , 16-C ) :   1.1359 B( 14-C , 15-C ) :   1.1033 B( 14-C , 70-H ) :   0.9059
B( 14-C , 71-H ) :   0.9082 B( 15-C , 72-H ) :   0.9700 B( 15-C , 73-H ) :   0.9660
B( 15-C , 74-H ) :   0.9650 B( 16-C , 17-C ) :   1.0795 B( 16-C , 19-C ) :   1.6162
B( 17-C , 18-C ) :   1.0998 B( 17-C , 75-H ) :   0.9197 B( 17-C , 76-H ) :   0.9172
B( 18-C , 77-H ) :   0.9617 B( 18-C , 78-H ) :   0.9681 B( 18-C , 79-H ) :   0.9637
B( 19-C , 20-S ) :   0.8092 B( 19-C , 23-C ) :   1.1830 B( 20-S , 21-O ) :   1.6865
B( 20-S , 22-O ) :   1.7158 B( 23-C , 24-C ) :   1.5875 B( 23-C , 80-H ) :   0.9340
B( 24-C , 25-C ) :   1.2239 B( 24-C , 81-H ) :   0.9616 B( 25-C , 26-S ) :   1.1011
B( 25-C , 29-C ) :   1.4307 B( 26-S , 27-C ) :   1.1062 B( 27-C , 28-C ) :   1.4286
B( 27-C , 36-C ) :   1.2282 B( 28-C , 29-C ) :   1.3683 B( 28-C , 35-C ) :   1.0439
B( 29-C , 30-C ) :   1.0434 B( 30-C , 31-C ) :   1.0567 B( 30-C , 82-H ) :   0.9073
B( 30-C , 83-H ) :   0.8980 B( 31-C , 32-C ) :   1.0831 B( 31-C , 33-C ) :   1.0099
B( 31-C , 84-H ) :   0.9191 B( 32-C , 85-H ) :   0.9591 B( 32-C , 86-H ) :   0.9574
B( 32-C , 87-H ) :   0.9586 B( 33-C , 34-C ) :   1.0821 B( 33-C , 35-C ) :   1.0564
B( 33-C , 88-H ) :   0.9193 B( 34-C , 89-H ) :   0.9595 B( 34-C , 90-H ) :   0.9575
B( 34-C , 91-H ) :   0.9586 B( 35-C , 92-H ) :   0.8998 B( 35-C , 93-H ) :   0.9055
B( 36-C , 37-C ) :   1.5690 B( 36-C , 94-H ) :   0.9631 B( 37-C , 38-C ) :   1.2081
B( 37-C , 95-H ) :   0.9336 B( 38-C , 39-C ) :   1.5781 B( 38-C , 46-S ) :   0.8306
B( 39-C , 40-C ) :   1.0757 B( 39-C , 42-C ) :   1.1708 B( 40-C , 41-C ) :   1.1064
B( 40-C , 96-H ) :   0.9131 B( 40-C , 97-H ) :   0.9142 B( 41-C , 98-H ) :   0.9613
B( 41-C , 99-H ) :   0.9668 B( 41-C ,100-H ) :   0.9670 B( 42-C , 43-C ) :   1.0837
B( 42-C , 45-C ) :   1.5639 B( 43-C , 44-C ) :   1.0997 B( 43-C ,101-H ) :   0.9163
B( 43-C ,102-H ) :   0.9214 B( 44-C ,103-H ) :   0.9676 B( 44-C ,104-H ) :   0.9647
B( 44-C ,105-H ) :   0.9689 B( 45-C , 46-S ) :   0.7900 B( 45-C , 49-C ) :   1.2531
B( 46-S , 47-O ) :   1.6814 B( 46-S , 48-O ) :   1.6784 B( 49-C , 50-C ) :   1.5257
B( 49-C ,106-H ) :   0.9779 B( 50-C , 51-C ) :   1.2021 B( 50-C ,107-H ) :   0.9549
B( 51-C , 52-C ) :   1.5097 B( 51-C ,108-H ) :   0.9849 B( 52-C , 53-C ) :   1.1538
B( 52-C , 56-S ) :   1.0580 B( 53-C , 54-C ) :   1.5799 B( 53-C ,109-H ) :   1.0005
B( 54-C , 55-C ) :   1.1893 B( 54-C ,110-H ) :   0.9928 B( 55-C , 56-S ) :   1.0414
B( 55-C , 57-C ) :   1.5277 B( 57-C , 58-C ) :   1.1598 B( 57-C , 61-S ) :   1.0586
B( 58-C , 59-C ) :   1.6545 B( 58-C ,111-H ) :   0.9912 B( 59-C , 60-C ) :   1.0827
B( 59-C ,112-H ) :   0.9927 B( 60-C , 61-S ) :   1.0089 B( 60-C , 62-C ) :   1.8581
B( 62-C ,113-H ) :   0.9514 B( 62-C ,114-H ) :   0.9417

-----------------------------------------------------------------------------
         ABSORPTION SPECTRUM VIA TRANSITION ELECTRIC DIPOLE MOMENTS
-----------------------------------------------------------------------------
State   Energy  Wavelength   fosc         T2         TX        TY        TZ
        (cm-1)    (nm)                  (au**2)     (au)      (au)      (au)
-----------------------------------------------------------------------------
   0   10467.8    955.3   1.154744465  36.31683  -1.89248  -2.38428  -5.20101
   1   14919.3    670.3   1.974899553  43.57856   5.75913   2.97008  -1.26079
   2   15933.5    627.6   0.084184335   1.73938  -0.84135  -0.28869   0.97374
   3   19416.2    515.0   0.049069663   0.83200  -0.00830   0.83251  -0.37265
   4   20530.7    487.1   0.165181651   2.64871   0.43018   1.26598  -0.92788
   5   22160.0    451.3   0.471886013   7.01040   1.40155   2.18268  -0.53100
   6   23516.1    425.2   0.018085179   0.25318   0.12337  -0.46699  -0.14102
   7   25423.2    393.3   0.383324967   4.96378   0.73306   1.23462   1.70356
   8   26321.0    379.9   0.229999584   2.87674   0.42699   0.85615   1.40051
   9   27631.8    361.9   0.025424985   0.30292  -0.07994  -0.25652  -0.48034
  10   27730.0    360.6   0.043414517   0.51542   0.19498  -0.23455  -0.64991
  11   30195.1    331.2   0.039392500   0.42949  -0.10727   0.10759   0.63750
  12   30980.4    322.8   0.014096663   0.14980   0.11830  -0.11528  -0.35002
  13   31360.2    318.9   0.069815224   0.73290  -0.36922   0.14595   0.75847
  14   31562.5    316.8   0.004209263   0.04390  -0.12973  -0.00249   0.16453
  15   31706.4    315.4   0.014046955   0.14585   0.25549  -0.04450  -0.28035
  16   32208.1    310.5   0.000490791   0.00502  -0.00545  -0.05128   0.04855
  17   32227.3    310.3   0.001462908   0.01494  -0.05396  -0.10369  -0.03579
  18   32645.8    306.3   0.000922699   0.00930  -0.05501  -0.06556  -0.04450
  19   33179.3    301.4   0.038929132   0.38626  -0.25908  -0.53573  -0.17925
  20   33624.7    297.4   0.024559115   0.24045   0.37942   0.30080  -0.07755
  21   34213.2    292.3   0.006838282   0.06580   0.03282  -0.19052  -0.16859
  22   34674.3    288.4   0.000275465   0.00262  -0.00398   0.04709   0.01954
  23   34801.5    287.3   0.050423751   0.47699   0.09216   0.36836   0.57690
  24   35205.3    284.0   0.047038447   0.43987  -0.19415   0.22808   0.59174
  25   36178.3    276.4   0.034907349   0.31765  -0.36326  -0.41419   0.11888
  26   36259.1    275.8   0.084712968   0.76914   0.45755  -0.04424  -0.74689
  27   36411.8    274.6   0.018789059   0.16988   0.05184  -0.38180  -0.14636
  28   36550.9    273.6   0.036569430   0.32938  -0.18491  -0.48908  -0.23662
  29   36728.3    272.3   0.019243724   0.17249  -0.13326  -0.39287   0.01962
  30   37004.7    270.2   0.007073028   0.06293  -0.19928   0.15218   0.00717
  31   37213.6    268.7   0.040050205   0.35431   0.32212   0.06073  -0.49685
  32   37789.3    264.6   0.015496995   0.13501  -0.23740   0.11145  -0.25734
  33   38480.4    259.9   0.205224202   1.75576  -1.02072  -0.77815  -0.32920
  34   38967.1    256.6   0.103281212   0.87257   0.19669  -0.31514  -0.85707
  35   39988.9    250.1   0.006865518   0.05652  -0.01306  -0.05085  -0.23187
  36   40320.5    248.0   0.008588806   0.07013  -0.10560   0.02529  -0.24153

FINAL SINGLE POINT ENERGY     -5096.947538387448

DIPOLE MOMENT
-------------
                                X             Y             Z
Electronic contribution:     60.71274      11.27606     -64.05147
Nuclear contribution   :    -61.30000     -11.12393      65.06400
                        -----------------------------------------
Total Dipole Moment    :     -0.58726       0.15213       1.01253
                        -----------------------------------------
Magnitude (a.u.)       :      1.18035
Magnitude (Debye)      :      3.00022

Rotational constants in cm-1:     0.000927     0.000358     0.000269
Rotational constants in MHz :    27.779426    10.738692     8.056614

                             ****ORCA TERMINATED NORMALLY****
TOTAL RUN TIME: 0 days 0 hours 10 minutes 31 seconds 412 msec
