                         Program Version 4.2.0 -  RELEASE  -
|  1> # ORCA input file
|  2> # SCF done       -134.907420039757          0.000292444635
|  3> ! CAM-B3LYP def2-SVP def2/J RIJCOSX Grid4 TightSCF
|  4> %maxcore 5000
|  5> %tddft
|  6>     Mode sTDDFT
|  7>     Ethresh 5.0
|  8>     maxcore 5000
|  9> end
| 10>
| 11> %pal
| 12>   nprocs 6
| 13>   end
| 14> * xyz 0 1
| 15>    C       11.09932        -2.52712        -5.36527
| 16>    C       10.84969        -2.59778        -4.05015
| 17>    C       11.70743        -2.21564        -2.96782
| 18>    C       11.19128        -2.43216        -1.73564
| 19>    C        9.89087        -3.00203        -1.73476
| 20>    S        9.33213        -3.22431        -3.38631
| 21>    C        9.13601        -3.38824        -0.65085
| 22>    C        9.45776        -3.32736         0.72470
| 23>    C        8.50212        -3.85109         1.54160
| 24>    C        7.35898        -4.35966         0.87610
| 25>    S        7.55189        -4.11517        -0.85452
| 26>    C        6.28203        -4.96088         1.48600
| 27>    C        5.14031        -5.49266         0.87333
| 28>    S        3.88563        -6.24031         1.88895
| 29>    C        2.91815        -6.59023         0.49642
| 30>    C        3.57271        -6.13539        -0.67458
| 31>    C        4.80143        -5.53229        -0.47385
| 32>    N        2.77079        -6.40839        -1.72781
| 33>    C        1.62288        -7.02894        -1.28497
| 34>    C        1.71225        -7.15828         0.11886
| 35>    C        0.56898        -7.40679        -2.13570
| 36>    C        0.43346        -7.05298        -3.46235
| 37>    C       -0.55237        -7.46491        -4.38840
| 38>    C       -0.42519        -6.93373        -5.64612
| 39>    C        0.66047        -6.05466        -5.78958
| 40>    S        1.50808        -5.91786        -4.26622
| 41>    C        1.17787        -5.32682        -6.85103
| 42>    C        0.84501        -5.24061        -8.21267
| 43>    C        1.67537        -4.42228        -8.93265
| 44>    C        2.70467        -3.80828        -8.18251
| 45>    S        2.56135        -4.30797        -6.51220
| 46>    C        3.70810        -2.98277        -8.64549
| 47>    C        4.71393        -2.37896        -7.87960
| 48>    S        6.03471        -1.54000        -8.72334
| 49>    C        6.79133        -1.15156        -7.21881
| 50>    C        6.02224        -1.64197        -6.13436
| 51>    C        4.87271        -2.32353        -6.49675
| 52>    N        6.65147        -1.27531        -4.99160
| 53>    C        7.81041        -0.59399        -5.30629
| 54>    C        7.90600        -0.50731        -6.70828
| 55>    C        8.63581        -0.11269        -4.27754
| 56>    C        9.88828         0.43420        -4.38132
| 57>    C       10.68923         0.86440        -3.29308
| 58>    C       11.93460         1.28571        -3.63928
| 59>    C       12.19819         1.21333        -5.02816
| 60>    S       10.78175         0.61740        -5.87720
| 61>    C       13.36375         1.52382        -5.68758
| 62>    C       14.57307         2.01566        -5.12462
| 63>    C       15.56505         2.21866        -6.02057
| 64>    C       15.21584         1.90005        -7.37485
| 65>    S       13.54010         1.32806        -7.42210
| 66>    C       15.98762         1.99569        -8.46647
| 67>    H       12.04231        -2.15578        -5.72492
| 68>    H       10.37431        -2.83180        -6.09717
| 69>    H       12.67962        -1.79836        -3.16295
| 70>    H       11.70343        -2.20923        -0.81597
| 71>    H       10.38651        -2.91097         1.07199
| 72>    H        8.58371        -3.89789         2.61366
| 73>    H        6.32756        -5.03504         2.56488
| 74>    H        5.41596        -5.13882        -1.25941
| 75>    H        3.02896        -6.27708        -2.69008
| 76>    H        0.96569        -7.59496         0.75103
| 77>    H       -0.21165        -8.01419        -1.70072
| 78>    H       -1.32605        -8.15772        -4.10625
| 79>    H       -1.08822        -7.15482        -6.46409
| 80>    H        0.02006        -5.78791        -8.63397
| 81>    H        1.57793        -4.24775        -9.99015
| 82>    H        3.73567        -2.80351        -9.71218
| 83>    H        4.17384        -2.73120        -5.79367
| 84>    H        6.38498        -1.53977        -4.05843
| 85>    H        8.68257        -0.01786        -7.25870
| 86>    H        8.24814        -0.22147        -3.27155
| 87>    H       10.31588         0.83508        -2.28410
| 88>    H       12.67228         1.63319        -2.93841
| 89>    H       14.66196         2.20364        -4.06905
| 90>    H       16.54675         2.58649        -5.77979
| 91>    H       17.00178         2.34648        -8.39227
| 92>    H       15.62415         1.72771        -9.44135
| 93> *
| 94>
| 95>                          ****END OF INPUT****

CARTESIAN COORDINATES (ANGSTROEM)
---------------------------------
  C     11.099320   -2.527120   -5.365270
  C     10.849690   -2.597780   -4.050150
  C     11.707430   -2.215640   -2.967820
  C     11.191280   -2.432160   -1.735640
  C      9.890870   -3.002030   -1.734760
  S      9.332130   -3.224310   -3.386310
  C      9.136010   -3.388240   -0.650850
  C      9.457760   -3.327360    0.724700
  C      8.502120   -3.851090    1.541600
  C      7.358980   -4.359660    0.876100
  S      7.551890   -4.115170   -0.854520
  C      6.282030   -4.960880    1.486000
  C      5.140310   -5.492660    0.873330
  S      3.885630   -6.240310    1.888950
  C      2.918150   -6.590230    0.496420
  C      3.572710   -6.135390   -0.674580
  C      4.801430   -5.532290   -0.473850
  N      2.770790   -6.408390   -1.727810
  C      1.622880   -7.028940   -1.284970
  C      1.712250   -7.158280    0.118860
  C      0.568980   -7.406790   -2.135700
  C      0.433460   -7.052980   -3.462350
  C     -0.552370   -7.464910   -4.388400
  C     -0.425190   -6.933730   -5.646120
  C      0.660470   -6.054660   -5.789580
  S      1.508080   -5.917860   -4.266220
  C      1.177870   -5.326820   -6.851030
  C      0.845010   -5.240610   -8.212670
  C      1.675370   -4.422280   -8.932650
  C      2.704670   -3.808280   -8.182510
  S      2.561350   -4.307970   -6.512200
  C      3.708100   -2.982770   -8.645490
  C      4.713930   -2.378960   -7.879600
  S      6.034710   -1.540000   -8.723340
  C      6.791330   -1.151560   -7.218810
  C      6.022240   -1.641970   -6.134360
  C      4.872710   -2.323530   -6.496750
  N      6.651470   -1.275310   -4.991600
  C      7.810410   -0.593990   -5.306290
  C      7.906000   -0.507310   -6.708280
  C      8.635810   -0.112690   -4.277540
  C      9.888280    0.434200   -4.381320
  C     10.689230    0.864400   -3.293080
  C     11.934600    1.285710   -3.639280
  C     12.198190    1.213330   -5.028160
  S     10.781750    0.617400   -5.877200
  C     13.363750    1.523820   -5.687580
  C     14.573070    2.015660   -5.124620
  C     15.565050    2.218660   -6.020570
  C     15.215840    1.900050   -7.374850
  S     13.540100    1.328060   -7.422100
  C     15.987620    1.995690   -8.466470
  H     12.042310   -2.155780   -5.724920
  H     10.374310   -2.831800   -6.097170
  H     12.679620   -1.798360   -3.162950
  H     11.703430   -2.209230   -0.815970
  H     10.386510   -2.910970    1.071990
  H      8.583710   -3.897890    2.613660
  H      6.327560   -5.035040    2.564880
  H      5.415960   -5.138820   -1.259410
  H      3.028960   -6.277080   -2.690080
  H      0.965690   -7.594960    0.751030
  H     -0.211650   -8.014190   -1.700720
  H     -1.326050   -8.157720   -4.106250
  H     -1.088220   -7.154820   -6.464090
  H      0.020060   -5.787910   -8.633970
  H      1.577930   -4.247750   -9.990150
  H      3.735670   -2.803510   -9.712180
  H      4.173840   -2.731200   -5.793670
  H      6.384980   -1.539770   -4.058430
  H      8.682570   -0.017860   -7.258700
  H      8.248140   -0.221470   -3.271550
  H     10.315880    0.835080   -2.284100
  H     12.672280    1.633190   -2.938410
  H     14.661960    2.203640   -4.069050
  H     16.546750    2.586490   -5.779790
  H     17.001780    2.346480   -8.392270
  H     15.624150    1.727710   -9.441350

 Total Charge           Charge          ....    0
 Multiplicity           Mult            ....    1
 Number of Electrons    NEL             ....  420
 Basis Dimension        Dim             ....  890

ORBITAL ENERGIES
----------------

  NO   OCC          E(Eh)            E(eV)
   0   2.0000     -88.939623     -2420.1702
   1   2.0000     -88.939615     -2420.1700
   2   2.0000     -88.939478     -2420.1662
   3   2.0000     -88.938426     -2420.1376
   4   2.0000     -88.938134     -2420.1297
   5   2.0000     -88.935780     -2420.0656
   6   2.0000     -88.934073     -2420.0191
   7   2.0000     -88.931589     -2419.9516
   8   2.0000     -14.452490      -393.2723
   9   2.0000     -14.449526      -393.1916
  10   2.0000     -10.304442      -280.3981
  11   2.0000     -10.303758      -280.3795
  12   2.0000     -10.302628      -280.3487
  13   2.0000     -10.302383      -280.3421
  14   2.0000     -10.302118      -280.3349
  15   2.0000     -10.301253      -280.3113
  16   2.0000     -10.300502      -280.2909
  17   2.0000     -10.300121      -280.2805
  18   2.0000     -10.299899      -280.2745
  19   2.0000     -10.299888      -280.2742
  20   2.0000     -10.299420      -280.2615
  21   2.0000     -10.296841      -280.1913
  22   2.0000     -10.296554      -280.1835
  23   2.0000     -10.296547      -280.1833
  24   2.0000     -10.295570      -280.1567
  25   2.0000     -10.295567      -280.1566
  26   2.0000     -10.294940      -280.1396
  27   2.0000     -10.294128      -280.1175
  28   2.0000     -10.283585      -279.8306
  29   2.0000     -10.281433      -279.7720
  30   2.0000     -10.279916      -279.7307
  31   2.0000     -10.279791      -279.7273
  32   2.0000     -10.279019      -279.7063
  33   2.0000     -10.279000      -279.7058
  34   2.0000     -10.278875      -279.7024
  35   2.0000     -10.278555      -279.6937
  36   2.0000     -10.278188      -279.6837
  37   2.0000     -10.277977      -279.6780
  38   2.0000     -10.277597      -279.6676
  39   2.0000     -10.277129      -279.6549
  40   2.0000     -10.276962      -279.6503
  41   2.0000     -10.276836      -279.6469
  42   2.0000     -10.276805      -279.6461
  43   2.0000     -10.276755      -279.6447
  44   2.0000     -10.276556      -279.6393
  45   2.0000     -10.276045      -279.6254
  46   2.0000     -10.266436      -279.3639
  47   2.0000     -10.266351      -279.3616
  48   2.0000     -10.263087      -279.2728
  49   2.0000     -10.262454      -279.2556
  50   2.0000     -10.262378      -279.2535
  51   2.0000     -10.260554      -279.2039
  52   2.0000      -8.036370      -218.6808
  53   2.0000      -8.035198      -218.6488
  54   2.0000      -8.034617      -218.6331
  55   2.0000      -8.033491      -218.6024
  56   2.0000      -8.033296      -218.5971
  57   2.0000      -8.031927      -218.5598
  58   2.0000      -8.029840      -218.5031
  59   2.0000      -8.028277      -218.4605
  60   2.0000      -6.006105      -163.4344
  61   2.0000      -6.004938      -163.4027
  62   2.0000      -6.004359      -163.3869
  63   2.0000      -6.003178      -163.3548
  64   2.0000      -6.003121      -163.3532
  65   2.0000      -6.002007      -163.3229
  66   2.0000      -6.001670      -163.3137
  67   2.0000      -6.000956      -163.2943
  68   2.0000      -6.000482      -163.2814
  69   2.0000      -5.999691      -163.2599
  70   2.0000      -5.999307      -163.2494
  71   2.0000      -5.999033      -163.2420
  72   2.0000      -5.998112      -163.2169
  73   2.0000      -5.997510      -163.2006
  74   2.0000      -5.997275      -163.1941
  75   2.0000      -5.996173      -163.1642
  76   2.0000      -5.995800      -163.1540
  77   2.0000      -5.995683      -163.1508
  78   2.0000      -5.994651      -163.1228
  79   2.0000      -5.994264      -163.1122
  80   2.0000      -5.994211      -163.1108
  81   2.0000      -5.992957      -163.0766
  82   2.0000      -5.990493      -163.0096
  83   2.0000      -5.988779      -162.9630
  84   2.0000      -1.075090       -29.2547
  85   2.0000      -1.073286       -29.2056
  86   2.0000      -0.989064       -26.9138
  87   2.0000      -0.986052       -26.8318
  88   2.0000      -0.984414       -26.7873
  89   2.0000      -0.967783       -26.3347
  90   2.0000      -0.964180       -26.2367
  91   2.0000      -0.961649       -26.1678
  92   2.0000      -0.953286       -25.9402
  93   2.0000      -0.951030       -25.8788
  94   2.0000      -0.889346       -24.2003
  95   2.0000      -0.887086       -24.1388
  96   2.0000      -0.883752       -24.0481
  97   2.0000      -0.875159       -23.8143
  98   2.0000      -0.865427       -23.5495
  99   2.0000      -0.860539       -23.4165
 100   2.0000      -0.849583       -23.1183
 101   2.0000      -0.841378       -22.8951
 102   2.0000      -0.838608       -22.8197
 103   2.0000      -0.837820       -22.7982
 104   2.0000      -0.835014       -22.7219
 105   2.0000      -0.819521       -22.3003
 106   2.0000      -0.815919       -22.2023
 107   2.0000      -0.812121       -22.0989
 108   2.0000      -0.809198       -22.0194
 109   2.0000      -0.806304       -21.9407
 110   2.0000      -0.799187       -21.7470
 111   2.0000      -0.792488       -21.5647
 112   2.0000      -0.782522       -21.2935
 113   2.0000      -0.765615       -20.8334
 114   2.0000      -0.746484       -20.3129
 115   2.0000      -0.733832       -19.9686
 116   2.0000      -0.715505       -19.4699
 117   2.0000      -0.701680       -19.0937
 118   2.0000      -0.684652       -18.6303
 119   2.0000      -0.680229       -18.5100
 120   2.0000      -0.678241       -18.4559
 121   2.0000      -0.673413       -18.3245
 122   2.0000      -0.669970       -18.2308
 123   2.0000      -0.660548       -17.9744
 124   2.0000      -0.653100       -17.7718
 125   2.0000      -0.644819       -17.5464
 126   2.0000      -0.633856       -17.2481
 127   2.0000      -0.630044       -17.1444
 128   2.0000      -0.624622       -16.9968
 129   2.0000      -0.618229       -16.8229
 130   2.0000      -0.614818       -16.7301
 131   2.0000      -0.612886       -16.6775
 132   2.0000      -0.612049       -16.6547
 133   2.0000      -0.601837       -16.3768
 134   2.0000      -0.595775       -16.2119
 135   2.0000      -0.593526       -16.1507
 136   2.0000      -0.592360       -16.1189
 137   2.0000      -0.587028       -15.9738
 138   2.0000      -0.584393       -15.9021
 139   2.0000      -0.577083       -15.7032
 140   2.0000      -0.572802       -15.5867
 141   2.0000      -0.552619       -15.0375
 142   2.0000      -0.549027       -14.9398
 143   2.0000      -0.542187       -14.7536
 144   2.0000      -0.535641       -14.5755
 145   2.0000      -0.526276       -14.3207
 146   2.0000      -0.523447       -14.2437
 147   2.0000      -0.519353       -14.1323
 148   2.0000      -0.518085       -14.0978
 149   2.0000      -0.515849       -14.0370
 150   2.0000      -0.513562       -13.9747
 151   2.0000      -0.509513       -13.8646
 152   2.0000      -0.508365       -13.8333
 153   2.0000      -0.497356       -13.5337
 154   2.0000      -0.495932       -13.4950
 155   2.0000      -0.493870       -13.4389
 156   2.0000      -0.490612       -13.3502
 157   2.0000      -0.489323       -13.3152
 158   2.0000      -0.488557       -13.2943
 159   2.0000      -0.485326       -13.2064
 160   2.0000      -0.484399       -13.1812
 161   2.0000      -0.483650       -13.1608
 162   2.0000      -0.480796       -13.0831
 163   2.0000      -0.477418       -12.9912
 164   2.0000      -0.472665       -12.8619
 165   2.0000      -0.471645       -12.8341
 166   2.0000      -0.464901       -12.6506
 167   2.0000      -0.464473       -12.6390
 168   2.0000      -0.461790       -12.5659
 169   2.0000      -0.460910       -12.5420
 170   2.0000      -0.454057       -12.3555
 171   2.0000      -0.449699       -12.2369
 172   2.0000      -0.446898       -12.1607
 173   2.0000      -0.446529       -12.1507
 174   2.0000      -0.438148       -11.9226
 175   2.0000      -0.437604       -11.9078
 176   2.0000      -0.433087       -11.7849
 177   2.0000      -0.428197       -11.6518
 178   2.0000      -0.422067       -11.4850
 179   2.0000      -0.421270       -11.4633
 180   2.0000      -0.420605       -11.4452
 181   2.0000      -0.417902       -11.3717
 182   2.0000      -0.413570       -11.2538
 183   2.0000      -0.411590       -11.1999
 184   2.0000      -0.402725       -10.9587
 185   2.0000      -0.402168       -10.9435
 186   2.0000      -0.390218       -10.6184
 187   2.0000      -0.389286       -10.5930
 188   2.0000      -0.387488       -10.5441
 189   2.0000      -0.386648       -10.5212
 190   2.0000      -0.381953       -10.3935
 191   2.0000      -0.372848       -10.1457
 192   2.0000      -0.358725        -9.7614
 193   2.0000      -0.353210        -9.6113
 194   2.0000      -0.344351        -9.3703
 195   2.0000      -0.337973        -9.1967
 196   2.0000      -0.332429        -9.0458
 197   2.0000      -0.328329        -8.9343
 198   2.0000      -0.326398        -8.8817
 199   2.0000      -0.315895        -8.5959
 200   2.0000      -0.314255        -8.5513
 201   2.0000      -0.309784        -8.4296
 202   2.0000      -0.301564        -8.2060
 203   2.0000      -0.283672        -7.7191
 204   2.0000      -0.281618        -7.6632
 205   2.0000      -0.273517        -7.4428
 206   2.0000      -0.251489        -6.8434
 207   2.0000      -0.226312        -6.1583
 208   2.0000      -0.201430        -5.4812
 209   2.0000      -0.182434        -4.9643
 210   0.0000      -0.082140        -2.2351
 211   0.0000      -0.058947        -1.6040
 212   0.0000      -0.046495        -1.2652
 213   0.0000      -0.002751        -0.0749
 214   0.0000       0.010170         0.2767

MULLIKEN ATOMIC CHARGES
-----------------------
   0 C :    0.013026
   1 C :   -0.092002
   2 C :    0.090683
   3 C :    0.002401
   4 C :   -0.063496
   5 S :    0.055447
   6 C :   -0.035631
   7 C :    0.022800
   8 C :    0.032977
   9 C :   -0.035098
  10 S :    0.025745
  11 C :    0.032280
  12 C :   -0.106489
  13 S :    0.106158
  14 C :   -0.002353
  15 C :    0.078478
  16 C :   -0.048822
  17 N :   -0.041132
  18 C :    0.082319
  19 C :   -0.122119
  20 C :   -0.008992
  21 C :   -0.023655
  22 C :    0.029384
  23 C :    0.028786
  24 C :   -0.031861
  25 S :   -0.003937
  26 C :   -0.023872
  27 C :    0.024421
  28 C :    0.031189
  29 C :   -0.035475
  30 S :    0.016489
  31 C :    0.050506
  32 C :   -0.114345
  33 S :    0.109001
  34 C :   -0.018459
  35 C :    0.098823
  36 C :   -0.060763
  37 N :   -0.027513
  38 C :    0.086699
  39 C :   -0.133916
  40 C :    0.011609
  41 C :   -0.043479
  42 C :    0.058804
  43 C :    0.005066
  44 C :   -0.044435
  45 S :    0.050923
  46 C :   -0.071584
  47 C :    0.026543
  48 C :    0.050910
  49 C :   -0.062417
  50 S :    0.070440
  51 C :   -0.033348
  52 H :    0.022959
  53 H :    0.027143
  54 H :   -0.012171
  55 H :   -0.018427
  56 H :   -0.020384
  57 H :   -0.015314
  58 H :   -0.020343
  59 H :   -0.015696
  60 H :    0.131924
  61 H :   -0.027091
  62 H :   -0.017416
  63 H :   -0.014729
  64 H :   -0.015760
  65 H :   -0.017959
  66 H :   -0.015184
  67 H :   -0.019603
  68 H :   -0.010295
  69 H :    0.121582
  70 H :   -0.010242
  71 H :   -0.025773
  72 H :   -0.017057
  73 H :   -0.022150
  74 H :   -0.015114
  75 H :   -0.015261
  76 H :    0.016505
  77 H :    0.019143
Sum of atomic charges:   -0.0000000

LOEWDIN ATOMIC CHARGES
----------------------
   0 C :   -0.062378
   1 C :   -0.148149
   2 C :   -0.019842
   3 C :   -0.039848
   4 C :   -0.178487
   5 S :    0.352675
   6 C :   -0.189062
   7 C :   -0.044404
   8 C :   -0.036015
   9 C :   -0.149258
  10 S :    0.367564
  11 C :   -0.078676
  12 C :   -0.155675
  13 S :    0.385171
  14 C :   -0.196119
  15 C :   -0.019882
  16 C :   -0.089338
  17 N :    0.070976
  18 C :   -0.003799
  19 C :   -0.076270
  20 C :   -0.060722
  21 C :   -0.159826
  22 C :   -0.035916
  23 C :   -0.044471
  24 C :   -0.180565
  25 S :    0.367950
  26 C :   -0.182630
  27 C :   -0.045694
  28 C :   -0.035404
  29 C :   -0.153990
  30 S :    0.382088
  31 C :   -0.073945
  32 C :   -0.158057
  33 S :    0.389137
  34 C :   -0.194875
  35 C :   -0.022152
  36 C :   -0.090694
  37 N :    0.080187
  38 C :   -0.005149
  39 C :   -0.088984
  40 C :   -0.064567
  41 C :   -0.151597
  42 C :   -0.024117
  43 C :   -0.051261
  44 C :   -0.180085
  45 S :    0.395187
  46 C :   -0.186515
  47 C :   -0.028329
  48 C :   -0.036921
  49 C :   -0.138953
  50 S :    0.343059
  51 C :   -0.083662
  52 H :    0.027351
  53 H :    0.027525
  54 H :    0.032806
  55 H :    0.029914
  56 H :    0.029112
  57 H :    0.032178
  58 H :    0.032900
  59 H :    0.013849
  60 H :    0.054512
  61 H :    0.026579
  62 H :    0.039460
  63 H :    0.031990
  64 H :    0.032167
  65 H :    0.030921
  66 H :    0.031730
  67 H :    0.032701
  68 H :    0.013429
  69 H :    0.088424
  70 H :    0.018266
  71 H :    0.031768
  72 H :    0.031624
  73 H :    0.027996
  74 H :    0.030942
  75 H :    0.031873
  76 H :    0.027255
  77 H :    0.025017

  Mayer bond orders larger than 0.100000
B(  0-C ,  1-C ) :   1.8619 B(  0-C , 52-H ) :   0.9406 B(  0-C , 53-H ) :   0.9376
B(  1-C ,  2-C ) :   1.0947 B(  1-C ,  5-S ) :   1.0002 B(  2-C ,  3-C ) :   1.6405
B(  2-C , 54-H ) :   0.9886 B(  3-C ,  4-C ) :   1.1591 B(  3-C , 55-H ) :   0.9953
B(  4-C ,  5-S ) :   1.0440 B(  4-C ,  6-C ) :   1.5357 B(  6-C ,  7-C ) :   1.1832
B(  6-C , 10-S ) :   1.0250 B(  7-C ,  8-C ) :   1.5883 B(  7-C , 56-H ) :   0.9918
B(  8-C ,  9-C ) :   1.1565 B(  8-C , 57-H ) :   0.9980 B(  9-C , 10-S ) :   1.0323
B(  9-C , 11-C ) :   1.5755 B( 11-C , 12-C ) :   1.2047 B( 11-C , 58-H ) :   0.9550
B( 12-C , 13-S ) :   1.0714 B( 12-C , 16-C ) :   1.4225 B( 13-S , 14-C ) :   1.0313
B( 14-C , 15-C ) :   1.3223 B( 14-C , 19-C ) :   1.3489 B( 15-C , 16-C ) :   1.2736
B( 15-C , 17-N ) :   1.2152 B( 16-C , 59-H ) :   0.9816 B( 17-N , 18-C ) :   1.1788
B( 17-N , 60-H ) :   0.9000 B( 18-C , 19-C ) :   1.3376 B( 18-C , 20-C ) :   1.1975
B( 19-C , 61-H ) :   1.0204 B( 20-C , 21-C ) :   1.5257 B( 20-C , 62-H ) :   0.9655
B( 21-C , 22-C ) :   1.1794 B( 21-C , 25-S ) :   1.0125 B( 22-C , 23-C ) :   1.5539
B( 22-C , 63-H ) :   0.9968 B( 23-C , 24-C ) :   1.2214 B( 23-C , 64-H ) :   0.9947
B( 24-C , 25-S ) :   1.0410 B( 24-C , 26-C ) :   1.4589 B( 26-C , 27-C ) :   1.2202
B( 26-C , 30-S ) :   1.0403 B( 27-C , 28-C ) :   1.5537 B( 27-C , 65-H ) :   0.9960
B( 28-C , 29-C ) :   1.1777 B( 28-C , 66-H ) :   0.9962 B( 29-C , 30-S ) :   1.0390
B( 29-C , 31-C ) :   1.5524 B( 31-C , 32-C ) :   1.2141 B( 31-C , 67-H ) :   0.9553
B( 32-C , 33-S ) :   1.0686 B( 32-C , 36-C ) :   1.4123 B( 33-S , 34-C ) :   1.0377
B( 34-C , 35-C ) :   1.3316 B( 34-C , 39-C ) :   1.3412 B( 35-C , 36-C ) :   1.2699
B( 35-C , 37-N ) :   1.1999 B( 36-C , 68-H ) :   0.9798 B( 37-N , 38-C ) :   1.1690
B( 37-N , 69-H ) :   0.9326 B( 38-C , 39-C ) :   1.3835 B( 38-C , 40-C ) :   1.1346
B( 39-C , 70-H ) :   1.0038 B( 40-C , 41-C ) :   1.5940 B( 40-C , 71-H ) :   0.9545
B( 41-C , 42-C ) :   1.1486 B( 41-C , 45-S ) :   1.0369 B( 42-C , 43-C ) :   1.5859
B( 42-C , 72-H ) :   0.9988 B( 43-C , 44-C ) :   1.1695 B( 43-C , 73-H ) :   0.9945
B( 44-C , 45-S ) :   1.0375 B( 44-C , 46-C ) :   1.5503 B( 46-C , 47-C ) :   1.1568
B( 46-C , 50-S ) :   1.0375 B( 47-C , 48-C ) :   1.6553 B( 47-C , 74-H ) :   0.9922
B( 48-C , 49-C ) :   1.0815 B( 48-C , 75-H ) :   0.9927 B( 49-C , 50-S ) :   1.0076
B( 49-C , 51-C ) :   1.8612 B( 51-C , 76-H ) :   0.9501 B( 51-C , 77-H ) :   0.9423

-----------------------------------------------------------------------------
         ABSORPTION SPECTRUM VIA TRANSITION ELECTRIC DIPOLE MOMENTS
-----------------------------------------------------------------------------
State   Energy  Wavelength   fosc         T2         TX        TY        TZ
        (cm-1)    (nm)                  (au**2)     (au)      (au)      (au)
-----------------------------------------------------------------------------
   0    8369.1   1194.9   0.230103600   9.05145   0.75139   1.86174  -2.24071
   1   12419.4    805.2   0.055783394   1.47870   1.01331   0.66357  -0.10759
   2   15728.2    635.8   2.839368926  59.43180   6.97460   3.27331  -0.26878
   3   16341.8    611.9   0.050365685   1.01464   0.95615   0.27703   0.15386
   4   17824.2    561.0   0.075428973   1.39317   0.17625  -0.33103   1.11916
   5   19871.6    503.2   0.213609523   3.53886   0.02125   0.41020  -1.83580
   6   20411.9    489.9   0.496231827   8.00346  -0.47765  -1.28012   2.47722
   7   22709.8    440.3   0.109610320   1.58897   1.05559   0.44978  -0.52192
   8   24103.9    414.9   0.364632822   4.98017   0.98930   0.29901  -1.97789
   9   26333.7    379.7   0.764492531   9.55734   0.44106   0.33628   3.04134
  10   26779.4    373.4   0.364570734   4.48184  -1.00493  -0.54286  -1.78249
  11   27059.7    369.6   0.095716194   1.16450   0.98737   0.42791   0.08060
  12   28033.9    356.7   0.011357526   0.13338   0.19465   0.21760   0.21940
  13   28581.0    349.9   0.020227271   0.23299   0.19120   0.16037  -0.41317
  14   28932.2    345.6   0.037002318   0.42104  -0.56821  -0.29893   0.09391
  15   29655.2    337.2   0.004176584   0.04637  -0.21471   0.01437   0.00763
  16   30123.1    332.0   0.013322235   0.14560   0.30159   0.22236   0.07209
  17   30585.4    327.0   0.004770200   0.05134  -0.06274  -0.09505   0.19589
  18   31195.1    320.6   0.001717660   0.01813   0.08027   0.07435   0.07846
  19   31613.9    316.3   0.075414873   0.78533  -0.58915  -0.35154   0.56094
  20   31877.4    313.7   0.001965883   0.02030   0.07791   0.04675  -0.10976
  21   32476.2    307.9   0.010596781   0.10742   0.27243   0.06439   0.17046
  22   32714.9    305.7   0.115963889   1.16695   0.10295  -0.00686  -1.07532
  23   32946.6    303.5   0.002847607   0.02845  -0.01567  -0.01031  -0.16764
  24   33514.5    298.4   0.013774260   0.13530  -0.00882   0.01184   0.36754
  25   33771.9    296.1   0.000326917   0.00319  -0.03225  -0.04612  -0.00441
  26   34066.4    293.5   0.010249617   0.09905  -0.04914   0.20225   0.23607
  27   34299.1    291.6   0.035906969   0.34464   0.33060   0.13069   0.46719
  28   34895.1    286.6   0.006958276   0.06565  -0.20563  -0.10667   0.10946
  29   35142.5    284.6   0.004997525   0.04682   0.18584  -0.02744  -0.10736
  30   35636.8    280.6   0.005841044   0.05396   0.07437   0.00875  -0.21989
  31   35773.7    279.5   0.016394963   0.15088  -0.10038   0.03825  -0.37328
  32   36221.8    276.1   0.027324669   0.24835  -0.08414   0.03307  -0.49008
  33   36510.5    273.9   0.033563818   0.30264   0.03555   0.12422   0.53474
  34   37109.8    269.5   0.030844549   0.27363  -0.26321  -0.20701   0.40187
  35   37427.4    267.2   0.001435806   0.01263   0.09439   0.04783  -0.03785
  36   37486.7    266.8   0.026669719   0.23422  -0.29176  -0.24462   0.29875
  37   38204.1    261.8   0.003249482   0.02800  -0.01125  -0.16404  -0.03105
  38   38406.2    260.4   0.017560731   0.15053  -0.26042   0.08265  -0.27546
  39   38477.5    259.9   0.029519897   0.25257  -0.41590  -0.10419  -0.26219
  40   38829.0    257.5   0.042514446   0.36046  -0.28697   0.04338  -0.52557
  41   39006.9    256.4   0.023462552   0.19802   0.30010   0.30916  -0.11126
  42   39216.3    255.0   0.021386463   0.17953   0.27161   0.27500   0.17359
  43   39381.1    253.9   0.100449487   0.83972  -0.65359  -0.36339   0.52961
  44   39979.6    250.1   0.008763451   0.07216   0.05551   0.25352   0.06933
  45   40060.8    249.6   0.000606725   0.00499   0.06500   0.02653  -0.00759

FINAL SINGLE POINT ENERGY     -4907.823784332814

DIPOLE MOMENT
-------------
                                X             Y             Z
Electronic contribution:    -17.83919      -6.74861       0.50033
Nuclear contribution   :     18.31476       6.87320       0.20006
                        -----------------------------------------
Total Dipole Moment    :      0.47557       0.12459       0.70039
                        -----------------------------------------
Magnitude (a.u.)       :      0.85571
Magnitude (Debye)      :      2.17503

Rotational constants in cm-1:     0.001920     0.000725     0.000541
Rotational constants in MHz :    57.567757    21.724237    16.218998

                             ****ORCA TERMINATED NORMALLY****
TOTAL RUN TIME: 0 days 0 hours 10 minutes 44 seconds 68 msec
