                         Program Version 4.2.0 -  RELEASE  -
|  1> # ORCA input file
|  2> # SCF done       -180.791803311254          0.000921623144
|  3> ! CAM-B3LYP def2-SVP def2/J RIJCOSX Grid4 TightSCF
|  4> %maxcore 5000
|  5> %tddft
|  6>     Mode sTDDFT
|  7>     Ethresh 5.0
|  8>     maxcore 5000
|  9> end
| 10>
| 11> %pal
| 12>   nprocs 6
| 13>   end
| 14> * xyz 0 1
| 15>    C       22.83462       -20.80265        -0.16047
| 16>    C       22.65284       -19.48087        -0.30253
| 17>    C       23.19390       -18.62086        -1.31203
| 18>    C       22.82178       -17.32410        -1.19361
| 19>    C       21.96178       -17.06772        -0.09456
| 20>    S       21.64764       -18.52758         0.79845
| 21>    C       21.38150       -15.85466         0.24582
| 22>    C       21.53146       -14.61065        -0.38897
| 23>    C       20.75171       -13.61992         0.15183
| 24>    C       19.95593       -14.04100         1.22635
| 25>    S       20.24896       -15.72383         1.57457
| 26>    C       19.01839       -13.27574         1.92313
| 27>    C       18.20610       -13.75836         2.91651
| 28>    C       17.20529       -13.01569         3.55332
| 29>    C       16.31506       -13.45682         4.53211
| 30>    C       15.35919       -12.52171         4.87983
| 31>    C       15.48209       -11.32277         4.18485
| 32>    S       16.84156       -11.36703         3.10359
| 33>    C       14.63480       -10.19570         4.22396
| 34>    C       13.37014       -10.07111         4.77862
| 35>    C       12.78544        -8.83977         4.51560
| 36>    C       13.55578        -7.99363         3.72686
| 37>    S       15.09126        -8.73579         3.39457
| 38>    C       13.19031        -6.67423         3.33461
| 39>    C       13.65447        -5.88890         2.32630
| 40>    C       14.49778        -6.22107         1.23009
| 41>    C       15.21946        -5.33426         0.44317
| 42>    C       15.97982        -5.94073        -0.55119
| 43>    C       15.83756        -7.31820        -0.57696
| 44>    S       14.68916        -7.83519         0.62319
| 45>    C       16.53019        -8.32217        -1.28910
| 46>    C       17.46443        -8.25228        -2.31306
| 47>    C       17.99276        -9.48604        -2.65744
| 48>    C       17.49062       -10.55074        -1.90797
| 49>    S       16.30865        -9.96976        -0.77031
| 50>    C       17.86502       -11.90111        -1.97602
| 51>    C       17.37978       -12.91144        -1.18224
| 52>    S       16.15777       -12.65979         0.03245
| 53>    C       16.17745       -14.32856         0.57378
| 54>    C       17.10057       -15.08049        -0.20734
| 55>    C       17.77101       -14.29060        -1.18069
| 56>    C       18.72118       -14.86504        -2.02436
| 57>    C       19.00351       -16.20303        -1.89934
| 58>    F       19.94361       -16.76137        -2.68829
| 59>    C       18.33120       -16.99111        -0.95722
| 60>    F       18.62703       -18.29881        -0.87222
| 61>    C       17.38793       -16.44836        -0.11917
| 62>    C       15.31743       -14.61576         1.62096
| 63>    C       15.12539       -15.78785         2.32853
| 64>    C       14.19213       -15.84551         3.35611
| 65>    C       13.88618       -16.98277         4.08812
| 66>    C       12.91022       -17.08989         5.13366
| 67>    C       12.20702       -16.06581         5.73564
| 68>    C       11.24985       -16.25288         6.74987
| 69>    N       10.46046       -16.32949         7.58197
| 70>    C       12.35665       -14.69563         5.46860
| 71>    N       12.42338       -13.55254         5.34619
| 72>    C       12.79947       -18.50207         5.49913
| 73>    C       13.73700       -19.23869         4.73636
| 74>    C       14.46733       -18.31145         3.84264
| 75>    O       15.35828       -18.61728         3.07054
| 76>    C       13.87930       -20.59831         4.84855
| 77>    C       13.05001       -21.26870         5.75615
| 78>    C       12.11536       -20.52576         6.51090
| 79>    C       11.97516       -19.14645         6.39996
| 80>    S       11.18677       -21.54961         7.56597
| 81>    C       12.05829       -22.94309         6.98429
| 82>    C       12.99524       -22.65933         6.04983
| 83>   Br       11.64677       -24.64302         7.66560
| 84>    H       23.44970       -21.34985        -0.85286
| 85>    H       22.37225       -21.35377         0.63776
| 86>    H       23.82993       -19.01065        -2.08581
| 87>    H       23.12115       -16.54282        -1.86867
| 88>    H       22.19210       -14.47002        -1.22506
| 89>    H       20.72035       -12.60684        -0.20884
| 90>    H       18.91574       -12.24109         1.61998
| 91>    H       18.31335       -14.79070         3.22532
| 92>    H       16.37472       -14.44498         4.95230
| 93>    H       14.57535       -12.69279         5.59444
| 94>    H       12.88809       -10.87038         5.31147
| 95>    H       11.79839        -8.56799         4.84735
| 96>    H       12.42962        -6.23691         3.97171
| 97>    H       13.32376        -4.85651         2.32477
| 98>    H       15.22343        -4.27448         0.63052
| 99>    H       16.63935        -5.40778        -1.21212
|100>    H       17.74605        -7.32635        -2.78190
|101>    H       18.73508        -9.62579        -3.42371
|102>    H       18.61641       -12.14982        -2.71259
|103>    H       19.24311       -14.28360        -2.76620
|104>    H       16.89711       -17.09206         0.58937
|105>    H       14.71036       -13.77167         1.93604
|106>    H       15.68665       -16.67801         2.10518
|107>    H       13.64564       -14.93695         3.57788
|108>    H       14.60443       -21.13154         4.25375
|109>    H       11.24444       -18.62751         6.99721
|110>    H       13.62211       -23.39781         5.58432
|111> *
|112>
|113>                          ****END OF INPUT****

CARTESIAN COORDINATES (ANGSTROEM)
---------------------------------
  C     22.834620  -20.802650   -0.160470
  C     22.652840  -19.480870   -0.302530
  C     23.193900  -18.620860   -1.312030
  C     22.821780  -17.324100   -1.193610
  C     21.961780  -17.067720   -0.094560
  S     21.647640  -18.527580    0.798450
  C     21.381500  -15.854660    0.245820
  C     21.531460  -14.610650   -0.388970
  C     20.751710  -13.619920    0.151830
  C     19.955930  -14.041000    1.226350
  S     20.248960  -15.723830    1.574570
  C     19.018390  -13.275740    1.923130
  C     18.206100  -13.758360    2.916510
  C     17.205290  -13.015690    3.553320
  C     16.315060  -13.456820    4.532110
  C     15.359190  -12.521710    4.879830
  C     15.482090  -11.322770    4.184850
  S     16.841560  -11.367030    3.103590
  C     14.634800  -10.195700    4.223960
  C     13.370140  -10.071110    4.778620
  C     12.785440   -8.839770    4.515600
  C     13.555780   -7.993630    3.726860
  S     15.091260   -8.735790    3.394570
  C     13.190310   -6.674230    3.334610
  C     13.654470   -5.888900    2.326300
  C     14.497780   -6.221070    1.230090
  C     15.219460   -5.334260    0.443170
  C     15.979820   -5.940730   -0.551190
  C     15.837560   -7.318200   -0.576960
  S     14.689160   -7.835190    0.623190
  C     16.530190   -8.322170   -1.289100
  C     17.464430   -8.252280   -2.313060
  C     17.992760   -9.486040   -2.657440
  C     17.490620  -10.550740   -1.907970
  S     16.308650   -9.969760   -0.770310
  C     17.865020  -11.901110   -1.976020
  C     17.379780  -12.911440   -1.182240
  S     16.157770  -12.659790    0.032450
  C     16.177450  -14.328560    0.573780
  C     17.100570  -15.080490   -0.207340
  C     17.771010  -14.290600   -1.180690
  C     18.721180  -14.865040   -2.024360
  C     19.003510  -16.203030   -1.899340
  F     19.943610  -16.761370   -2.688290
  C     18.331200  -16.991110   -0.957220
  F     18.627030  -18.298810   -0.872220
  C     17.387930  -16.448360   -0.119170
  C     15.317430  -14.615760    1.620960
  C     15.125390  -15.787850    2.328530
  C     14.192130  -15.845510    3.356110
  C     13.886180  -16.982770    4.088120
  C     12.910220  -17.089890    5.133660
  C     12.207020  -16.065810    5.735640
  C     11.249850  -16.252880    6.749870
  N     10.460460  -16.329490    7.581970
  C     12.356650  -14.695630    5.468600
  N     12.423380  -13.552540    5.346190
  C     12.799470  -18.502070    5.499130
  C     13.737000  -19.238690    4.736360
  C     14.467330  -18.311450    3.842640
  O     15.358280  -18.617280    3.070540
  C     13.879300  -20.598310    4.848550
  C     13.050010  -21.268700    5.756150
  C     12.115360  -20.525760    6.510900
  C     11.975160  -19.146450    6.399960
  S     11.186770  -21.549610    7.565970
  C     12.058290  -22.943090    6.984290
  C     12.995240  -22.659330    6.049830
  Br    11.646770  -24.643020    7.665600
  H     23.449700  -21.349850   -0.852860
  H     22.372250  -21.353770    0.637760
  H     23.829930  -19.010650   -2.085810
  H     23.121150  -16.542820   -1.868670
  H     22.192100  -14.470020   -1.225060
  H     20.720350  -12.606840   -0.208840
  H     18.915740  -12.241090    1.619980
  H     18.313350  -14.790700    3.225320
  H     16.374720  -14.444980    4.952300
  H     14.575350  -12.692790    5.594440
  H     12.888090  -10.870380    5.311470
  H     11.798390   -8.567990    4.847350
  H     12.429620   -6.236910    3.971710
  H     13.323760   -4.856510    2.324770
  H     15.223430   -4.274480    0.630520
  H     16.639350   -5.407780   -1.212120
  H     17.746050   -7.326350   -2.781900
  H     18.735080   -9.625790   -3.423710
  H     18.616410  -12.149820   -2.712590
  H     19.243110  -14.283600   -2.766200
  H     16.897110  -17.092060    0.589370
  H     14.710360  -13.771670    1.936040
  H     15.686650  -16.678010    2.105180
  H     13.645640  -14.936950    3.577880
  H     14.604430  -21.131540    4.253750
  H     11.244440  -18.627510    6.997210
  H     13.622110  -23.397810    5.584320

 Total Charge           Charge          ....    0
 Multiplicity           Mult            ....    1
 Number of Electrons    NEL             ....  560
 Basis Dimension        Dim             .... 1151

ORBITAL ENERGIES
----------------

  NO   OCC          E(Eh)            E(eV)
   0   2.0000    -482.869698    -13139.5525
   1   2.0000     -88.970890     -2421.0210
   2   2.0000     -88.967725     -2420.9349
   3   2.0000     -88.959894     -2420.7218
   4   2.0000     -88.955423     -2420.6001
   5   2.0000     -88.951171     -2420.4844
   6   2.0000     -88.950595     -2420.4687
   7   2.0000     -88.946932     -2420.3691
   8   2.0000     -88.946748     -2420.3641
   9   2.0000     -62.547398     -1702.0012
  10   2.0000     -56.381321     -1534.2137
  11   2.0000     -56.378657     -1534.1412
  12   2.0000     -56.378610     -1534.1400
  13   2.0000     -24.792666      -674.6427
  14   2.0000     -24.785383      -674.4446
  15   2.0000     -19.184721      -522.0428
  16   2.0000     -14.394522      -391.6949
  17   2.0000     -14.383265      -391.3885
  18   2.0000     -10.365979      -282.0726
  19   2.0000     -10.364995      -282.0459
  20   2.0000     -10.345063      -281.5035
  21   2.0000     -10.338993      -281.3383
  22   2.0000     -10.337391      -281.2947
  23   2.0000     -10.334527      -281.2168
  24   2.0000     -10.331182      -281.1258
  25   2.0000     -10.330264      -281.1008
  26   2.0000     -10.318157      -280.7713
  27   2.0000     -10.313197      -280.6363
  28   2.0000     -10.312309      -280.6122
  29   2.0000     -10.311557      -280.5917
  30   2.0000     -10.309765      -280.5430
  31   2.0000     -10.309469      -280.5349
  32   2.0000     -10.309003      -280.5222
  33   2.0000     -10.307332      -280.4768
  34   2.0000     -10.304020      -280.3866
  35   2.0000     -10.303067      -280.3607
  36   2.0000     -10.302497      -280.3452
  37   2.0000     -10.302297      -280.3397
  38   2.0000     -10.301891      -280.3287
  39   2.0000     -10.301727      -280.3243
  40   2.0000     -10.301668      -280.3226
  41   2.0000     -10.301534      -280.3190
  42   2.0000     -10.300426      -280.2888
  43   2.0000     -10.299809      -280.2720
  44   2.0000     -10.295075      -280.1432
  45   2.0000     -10.295025      -280.1419
  46   2.0000     -10.294244      -280.1206
  47   2.0000     -10.292961      -280.0857
  48   2.0000     -10.292613      -280.0763
  49   2.0000     -10.291808      -280.0543
  50   2.0000     -10.289404      -279.9889
  51   2.0000     -10.284747      -279.8622
  52   2.0000     -10.284049      -279.8432
  53   2.0000     -10.283709      -279.8340
  54   2.0000     -10.282743      -279.8077
  55   2.0000     -10.282357      -279.7972
  56   2.0000     -10.281835      -279.7830
  57   2.0000     -10.280853      -279.7562
  58   2.0000     -10.279586      -279.7218
  59   2.0000     -10.278753      -279.6991
  60   2.0000     -10.277942      -279.6770
  61   2.0000     -10.277432      -279.6631
  62   2.0000     -10.276010      -279.6244
  63   2.0000     -10.274966      -279.5960
  64   2.0000     -10.274115      -279.5729
  65   2.0000     -10.272912      -279.5401
  66   2.0000     -10.271827      -279.5106
  67   2.0000     -10.271160      -279.4925
  68   2.0000     -10.270542      -279.4757
  69   2.0000     -10.270497      -279.4744
  70   2.0000     -10.264889      -279.3218
  71   2.0000     -10.253336      -279.0075
  72   2.0000     -10.251872      -278.9676
  73   2.0000      -8.776816      -238.8293
  74   2.0000      -8.066374      -219.4972
  75   2.0000      -8.064357      -219.4423
  76   2.0000      -8.055216      -219.1936
  77   2.0000      -8.051322      -219.0876
  78   2.0000      -8.046798      -218.9645
  79   2.0000      -8.046342      -218.9521
  80   2.0000      -8.042845      -218.8569
  81   2.0000      -8.042040      -218.8350
  82   2.0000      -6.612984      -179.9484
  83   2.0000      -6.598588      -179.5567
  84   2.0000      -6.598468      -179.5535
  85   2.0000      -6.035939      -164.2463
  86   2.0000      -6.034036      -164.1945
  87   2.0000      -6.031938      -164.1374
  88   2.0000      -6.030033      -164.0855
  89   2.0000      -6.027708      -164.0223
  90   2.0000      -6.025200      -163.9540
  91   2.0000      -6.024473      -163.9343
  92   2.0000      -6.021028      -163.8405
  93   2.0000      -6.020388      -163.8231
  94   2.0000      -6.017309      -163.7393
  95   2.0000      -6.016750      -163.7241
  96   2.0000      -6.016134      -163.7073
  97   2.0000      -6.015587      -163.6924
  98   2.0000      -6.012577      -163.6105
  99   2.0000      -6.012119      -163.5981
 100   2.0000      -6.011911      -163.5924
 101   2.0000      -6.011558      -163.5828
 102   2.0000      -6.011416      -163.5789
 103   2.0000      -6.008766      -163.5068
 104   2.0000      -6.008408      -163.4971
 105   2.0000      -6.007865      -163.4823
 106   2.0000      -6.007320      -163.4675
 107   2.0000      -6.004836      -163.3999
 108   2.0000      -6.003677      -163.3684
 109   2.0000      -2.728898       -74.2571
 110   2.0000      -2.724819       -74.1461
 111   2.0000      -2.724724       -74.1435
 112   2.0000      -2.713273       -73.8319
 113   2.0000      -2.713271       -73.8319
 114   2.0000      -1.309504       -35.6334
 115   2.0000      -1.294009       -35.2118
 116   2.0000      -1.097863       -29.8744
 117   2.0000      -1.019707       -27.7476
 118   2.0000      -1.001599       -27.2549
 119   2.0000      -0.998412       -27.1682
 120   2.0000      -0.997242       -27.1363
 121   2.0000      -0.995493       -27.0888
 122   2.0000      -0.990616       -26.9560
 123   2.0000      -0.989500       -26.9257
 124   2.0000      -0.975007       -26.5313
 125   2.0000      -0.969047       -26.3691
 126   2.0000      -0.967549       -26.3283
 127   2.0000      -0.961069       -26.1520
 128   2.0000      -0.939497       -25.5650
 129   2.0000      -0.922129       -25.0924
 130   2.0000      -0.919061       -25.0089
 131   2.0000      -0.906625       -24.6705
 132   2.0000      -0.899063       -24.4647
 133   2.0000      -0.891181       -24.2503
 134   2.0000      -0.884820       -24.0772
 135   2.0000      -0.878707       -23.9108
 136   2.0000      -0.869479       -23.6597
 137   2.0000      -0.867010       -23.5925
 138   2.0000      -0.862099       -23.4589
 139   2.0000      -0.857652       -23.3379
 140   2.0000      -0.852342       -23.1934
 141   2.0000      -0.847586       -23.0640
 142   2.0000      -0.844262       -22.9735
 143   2.0000      -0.840012       -22.8579
 144   2.0000      -0.833667       -22.6852
 145   2.0000      -0.828764       -22.5518
 146   2.0000      -0.821907       -22.3652
 147   2.0000      -0.817858       -22.2550
 148   2.0000      -0.813427       -22.1345
 149   2.0000      -0.810410       -22.0524
 150   2.0000      -0.805796       -21.9268
 151   2.0000      -0.795187       -21.6381
 152   2.0000      -0.779987       -21.2245
 153   2.0000      -0.763807       -20.7842
 154   2.0000      -0.753490       -20.5035
 155   2.0000      -0.736420       -20.0390
 156   2.0000      -0.733688       -19.9647
 157   2.0000      -0.730013       -19.8647
 158   2.0000      -0.723485       -19.6870
 159   2.0000      -0.707456       -19.2508
 160   2.0000      -0.702985       -19.1292
 161   2.0000      -0.695064       -18.9137
 162   2.0000      -0.682816       -18.5804
 163   2.0000      -0.672485       -18.2992
 164   2.0000      -0.668678       -18.1956
 165   2.0000      -0.667374       -18.1602
 166   2.0000      -0.663121       -18.0444
 167   2.0000      -0.658040       -17.9062
 168   2.0000      -0.651628       -17.7317
 169   2.0000      -0.649470       -17.6730
 170   2.0000      -0.641844       -17.4655
 171   2.0000      -0.636173       -17.3111
 172   2.0000      -0.634609       -17.2686
 173   2.0000      -0.633150       -17.2289
 174   2.0000      -0.627860       -17.0849
 175   2.0000      -0.622771       -16.9465
 176   2.0000      -0.619990       -16.8708
 177   2.0000      -0.617521       -16.8036
 178   2.0000      -0.613280       -16.6882
 179   2.0000      -0.608997       -16.5716
 180   2.0000      -0.605501       -16.4765
 181   2.0000      -0.602322       -16.3900
 182   2.0000      -0.599489       -16.3129
 183   2.0000      -0.595809       -16.2128
 184   2.0000      -0.590731       -16.0746
 185   2.0000      -0.579605       -15.7719
 186   2.0000      -0.579246       -15.7621
 187   2.0000      -0.575944       -15.6722
 188   2.0000      -0.572010       -15.5652
 189   2.0000      -0.569420       -15.4947
 190   2.0000      -0.558836       -15.2067
 191   2.0000      -0.551313       -15.0020
 192   2.0000      -0.547731       -14.9045
 193   2.0000      -0.544919       -14.8280
 194   2.0000      -0.537875       -14.6363
 195   2.0000      -0.536084       -14.5876
 196   2.0000      -0.533871       -14.5274
 197   2.0000      -0.532781       -14.4977
 198   2.0000      -0.529524       -14.4091
 199   2.0000      -0.525324       -14.2948
 200   2.0000      -0.523411       -14.2427
 201   2.0000      -0.521745       -14.1974
 202   2.0000      -0.517960       -14.0944
 203   2.0000      -0.514300       -13.9948
 204   2.0000      -0.513567       -13.9749
 205   2.0000      -0.511858       -13.9284
 206   2.0000      -0.509492       -13.8640
 207   2.0000      -0.504475       -13.7275
 208   2.0000      -0.502780       -13.6813
 209   2.0000      -0.499885       -13.6026
 210   2.0000      -0.496845       -13.5198
 211   2.0000      -0.495390       -13.4803
 212   2.0000      -0.493549       -13.4302
 213   2.0000      -0.489155       -13.3106
 214   2.0000      -0.486821       -13.2471
 215   2.0000      -0.485780       -13.2187
 216   2.0000      -0.485164       -13.2020
 217   2.0000      -0.482896       -13.1403
 218   2.0000      -0.480137       -13.0652
 219   2.0000      -0.477234       -12.9862
 220   2.0000      -0.476320       -12.9613
 221   2.0000      -0.475886       -12.9495
 222   2.0000      -0.474261       -12.9053
 223   2.0000      -0.470752       -12.8098
 224   2.0000      -0.468306       -12.7433
 225   2.0000      -0.467568       -12.7232
 226   2.0000      -0.465482       -12.6664
 227   2.0000      -0.461738       -12.5645
 228   2.0000      -0.458736       -12.4829
 229   2.0000      -0.457238       -12.4421
 230   2.0000      -0.455632       -12.3984
 231   2.0000      -0.454146       -12.3579
 232   2.0000      -0.448342       -12.2000
 233   2.0000      -0.446632       -12.1535
 234   2.0000      -0.443633       -12.0719
 235   2.0000      -0.439845       -11.9688
 236   2.0000      -0.435737       -11.8570
 237   2.0000      -0.435342       -11.8463
 238   2.0000      -0.433880       -11.8065
 239   2.0000      -0.427831       -11.6419
 240   2.0000      -0.426530       -11.6065
 241   2.0000      -0.425393       -11.5755
 242   2.0000      -0.422640       -11.5006
 243   2.0000      -0.419475       -11.4145
 244   2.0000      -0.419013       -11.4019
 245   2.0000      -0.417062       -11.3488
 246   2.0000      -0.415522       -11.3069
 247   2.0000      -0.414357       -11.2752
 248   2.0000      -0.413737       -11.2584
 249   2.0000      -0.409115       -11.1326
 250   2.0000      -0.402890       -10.9632
 251   2.0000      -0.399939       -10.8829
 252   2.0000      -0.397892       -10.8272
 253   2.0000      -0.393891       -10.7183
 254   2.0000      -0.386039       -10.5047
 255   2.0000      -0.382149       -10.3988
 256   2.0000      -0.377142       -10.2626
 257   2.0000      -0.375747       -10.2246
 258   2.0000      -0.373355       -10.1595
 259   2.0000      -0.364076        -9.9070
 260   2.0000      -0.360999        -9.8233
 261   2.0000      -0.359420        -9.7803
 262   2.0000      -0.352150        -9.5825
 263   2.0000      -0.349421        -9.5082
 264   2.0000      -0.340552        -9.2669
 265   2.0000      -0.333020        -9.0619
 266   2.0000      -0.328986        -8.9522
 267   2.0000      -0.324806        -8.8384
 268   2.0000      -0.322038        -8.7631
 269   2.0000      -0.306448        -8.3389
 270   2.0000      -0.305921        -8.3245
 271   2.0000      -0.302860        -8.2412
 272   2.0000      -0.298604        -8.1254
 273   2.0000      -0.293876        -7.9968
 274   2.0000      -0.292460        -7.9582
 275   2.0000      -0.274822        -7.4783
 276   2.0000      -0.269349        -7.3293
 277   2.0000      -0.243851        -6.6355
 278   2.0000      -0.227669        -6.1952
 279   2.0000      -0.195675        -5.3246
 280   0.0000      -0.121060        -3.2942
 281   0.0000      -0.067208        -1.8288
 282   0.0000      -0.061503        -1.6736
 283   0.0000      -0.042607        -1.1594
 284   0.0000      -0.031048        -0.8449

MULLIKEN ATOMIC CHARGES
-----------------------
   0 C :   -0.000932
   1 C :   -0.074844
   2 C :    0.068462
   3 C :    0.036078
   4 C :   -0.043015
   5 S :    0.131318
   6 C :   -0.069947
   7 C :    0.040556
   8 C :    0.037770
   9 C :   -0.013947
  10 S :    0.115764
  11 C :   -0.023989
  12 C :    0.071231
  13 C :   -0.074415
  14 C :    0.040232
  15 C :    0.019060
  16 C :   -0.034742
  17 S :    0.129103
  18 C :   -0.072715
  19 C :    0.025557
  20 C :    0.033955
  21 C :   -0.084847
  22 S :    0.139061
  23 C :    0.006210
  24 C :    0.031689
  25 C :   -0.098770
  26 C :    0.036402
  27 C :    0.000574
  28 C :   -0.043916
  29 S :    0.125410
  30 C :   -0.020470
  31 C :    0.022250
  32 C :   -0.001264
  33 C :   -0.043266
  34 S :    0.073420
  35 C :   -0.023813
  36 C :   -0.072839
  37 S :    0.068525
  38 C :   -0.110963
  39 C :    0.162825
  40 C :    0.138657
  41 C :   -0.122350
  42 C :    0.233466
  43 F :   -0.191661
  44 C :    0.209053
  45 F :   -0.176894
  46 C :   -0.130848
  47 C :    0.106709
  48 C :   -0.078361
  49 C :   -0.050459
  50 C :   -0.106248
  51 C :    0.337577
  52 C :   -0.390369
  53 C :   -0.194285
  54 N :    0.125237
  55 C :   -0.174894
  56 N :    0.105499
  57 C :    0.009785
  58 C :   -0.002711
  59 C :    0.133661
  60 O :   -0.183159
  61 C :   -0.085030
  62 C :    0.117692
  63 C :   -0.095510
  64 C :   -0.029155
  65 S :    0.172897
  66 C :   -0.124447
  67 C :    0.036326
  68 Br:    0.005122
  69 H :    0.035918
  70 H :    0.039608
  71 H :    0.001666
  72 H :   -0.003316
  73 H :   -0.005664
  74 H :   -0.004623
  75 H :    0.009314
  76 H :    0.012293
  77 H :    0.001984
  78 H :    0.006055
  79 H :    0.005404
  80 H :   -0.013090
  81 H :    0.001205
  82 H :   -0.002076
  83 H :   -0.018239
  84 H :   -0.022190
  85 H :   -0.021253
  86 H :   -0.025085
  87 H :   -0.028325
  88 H :   -0.022498
  89 H :   -0.003595
  90 H :   -0.008496
  91 H :    0.009150
  92 H :   -0.003301
  93 H :   -0.021521
  94 H :   -0.010721
  95 H :   -0.010659
Sum of atomic charges:   -0.0000000

LOEWDIN ATOMIC CHARGES
----------------------
   0 C :   -0.032491
   1 C :   -0.142607
   2 C :   -0.005656
   3 C :   -0.025599
   4 C :   -0.143113
   5 S :    0.399213
   6 C :   -0.196330
   7 C :   -0.006379
   8 C :   -0.041986
   9 C :   -0.107038
  10 S :    0.425876
  11 C :   -0.077591
  12 C :    0.014377
  13 C :   -0.175832
  14 C :   -0.016388
  15 C :   -0.043754
  16 C :   -0.154860
  17 S :    0.435887
  18 C :   -0.193571
  19 C :   -0.029241
  20 C :   -0.044107
  21 C :   -0.173674
  22 S :    0.437600
  23 C :   -0.059552
  24 C :   -0.043307
  25 C :   -0.193059
  26 C :   -0.040269
  27 C :   -0.066679
  28 C :   -0.174872
  29 S :    0.437229
  30 C :   -0.196232
  31 C :   -0.049808
  32 C :   -0.066024
  33 C :   -0.166200
  34 S :    0.420248
  35 C :   -0.095555
  36 C :   -0.158206
  37 S :    0.417615
  38 C :   -0.191434
  39 C :   -0.029709
  40 C :   -0.044663
  41 C :   -0.033283
  42 C :    0.050619
  43 F :   -0.065430
  44 C :    0.056814
  45 F :   -0.056680
  46 C :   -0.037432
  47 C :   -0.005232
  48 C :   -0.071668
  49 C :    0.040953
  50 C :   -0.140098
  51 C :    0.075257
  52 C :   -0.184502
  53 C :   -0.021796
  54 N :   -0.085239
  55 C :    0.000499
  56 N :   -0.097932
  57 C :   -0.016526
  58 C :   -0.046330
  59 C :    0.078586
  60 O :   -0.177715
  61 C :    0.010928
  62 C :   -0.039559
  63 C :   -0.148545
  64 C :   -0.017374
  65 S :    0.422453
  66 C :   -0.278485
  67 C :   -0.072015
  68 Br:    0.122511
  69 H :    0.036015
  70 H :    0.034392
  71 H :    0.039442
  72 H :    0.036379
  73 H :    0.034708
  74 H :    0.037037
  75 H :    0.031133
  76 H :    0.036342
  77 H :    0.037555
  78 H :    0.035258
  79 H :    0.038985
  80 H :    0.032969
  81 H :    0.038915
  82 H :    0.038024
  83 H :    0.030200
  84 H :    0.028187
  85 H :    0.029662
  86 H :    0.026757
  87 H :    0.031669
  88 H :    0.034819
  89 H :    0.046636
  90 H :    0.031146
  91 H :    0.022823
  92 H :    0.034923
  93 H :    0.036056
  94 H :    0.039226
  95 H :    0.035708

  Mayer bond orders larger than 0.100000
B(  0-C ,  1-C ) :   1.8501 B(  0-C , 69-H ) :   0.9516 B(  0-C , 70-H ) :   0.9414
B(  1-C ,  2-C ) :   1.0880 B(  1-C ,  5-S ) :   1.0067 B(  2-C ,  3-C ) :   1.6366
B(  2-C , 71-H ) :   0.9936 B(  3-C ,  4-C ) :   1.1739 B(  3-C , 72-H ) :   0.9930
B(  4-C ,  5-S ) :   1.1030 B(  4-C ,  6-C ) :   1.4550 B(  6-C ,  7-C ) :   1.2385
B(  6-C , 10-S ) :   1.0558 B(  7-C ,  8-C ) :   1.4842 B(  7-C , 73-H ) :   0.9983
B(  8-C ,  9-C ) :   1.2309 B(  8-C , 74-H ) :   1.0044 B(  9-C , 10-S ) :   1.1071
B(  9-C , 11-C ) :   1.3839 B( 11-C , 12-C ) :   1.3575 B( 11-C , 75-H ) :   0.9702
B( 12-C , 13-C ) :   1.3419 B( 12-C , 76-H ) :   0.9738 B( 13-C , 14-C ) :   1.3148
B( 13-C , 17-S ) :   1.0753 B( 14-C , 15-C ) :   1.3635 B( 14-C , 77-H ) :   0.9997
B( 15-C , 16-C ) :   1.4044 B( 15-C , 78-H ) :   0.9876 B( 16-C , 17-S ) :   1.1353
B( 16-C , 18-C ) :   1.1704 B( 18-C , 19-C ) :   1.4502 B( 18-C , 22-S ) :   1.1072
B( 19-C , 20-C ) :   1.3162 B( 19-C , 79-H ) :   0.9882 B( 20-C , 21-C ) :   1.4239
B( 20-C , 80-H ) :   1.0007 B( 21-C , 22-S ) :   1.1272 B( 21-C , 23-C ) :   1.1338
B( 23-C , 24-C ) :   1.6984 B( 23-C , 81-H ) :   0.9577 B( 24-C , 25-C ) :   1.1403
B( 24-C , 82-H ) :   0.9584 B( 25-C , 26-C ) :   1.4422 B( 25-C , 29-S ) :   1.1090
B( 26-C , 27-C ) :   1.3046 B( 26-C , 83-H ) :   0.9977 B( 27-C , 28-C ) :   1.4662
B( 27-C , 84-H ) :   0.9958 B( 28-C , 29-S ) :   1.1250 B( 28-C , 30-C ) :   1.1527
B( 30-C , 31-C ) :   1.4493 B( 30-C , 34-S ) :   1.1002 B( 31-C , 32-C ) :   1.3264
B( 31-C , 85-H ) :   0.9969 B( 32-C , 33-C ) :   1.3849 B( 32-C , 86-H ) :   1.0001
B( 33-C , 34-S ) :   1.1015 B( 33-C , 35-C ) :   1.2289 B( 35-C , 36-C ) :   1.5323
B( 35-C , 87-H ) :   0.9642 B( 36-C , 37-S ) :   1.0620 B( 36-C , 40-C ) :   1.1054
B( 37-S , 38-C ) :   1.0415 B( 38-C , 39-C ) :   1.1646 B( 38-C , 47-C ) :   1.3958
B( 39-C , 40-C ) :   1.2976 B( 39-C , 46-C ) :   1.2328 B( 40-C , 41-C ) :   1.2691
B( 41-C , 42-C ) :   1.4061 B( 41-C , 46-C ) :   0.1064 B( 41-C , 88-H ) :   0.9989
B( 42-C , 43-F ) :   1.1032 B( 42-C , 44-C ) :   1.2349 B( 44-C , 45-F ) :   1.1397
B( 44-C , 46-C ) :   1.4048 B( 46-C , 89-H ) :   1.0137 B( 47-C , 48-C ) :   1.3083
B( 47-C , 90-H ) :   0.9395 B( 48-C , 49-C ) :   1.3788 B( 48-C , 91-H ) :   0.9862
B( 49-C , 50-C ) :   1.3003 B( 49-C , 92-H ) :   0.9693 B( 50-C , 51-C ) :   1.1670
B( 50-C , 59-C ) :   0.9951 B( 51-C , 52-C ) :   1.5164 B( 51-C , 57-C ) :   0.9797
B( 52-C , 53-C ) :   1.1536 B( 52-C , 55-C ) :   1.1816 B( 53-C , 54-N ) :   2.9597
B( 55-C , 56-N ) :   2.8928 B( 57-C , 58-C ) :   1.2818 B( 57-C , 64-C ) :   1.4301
B( 58-C , 59-C ) :   0.9338 B( 58-C , 61-C ) :   1.4412 B( 59-C , 60-O ) :   2.1609
B( 61-C , 62-C ) :   1.2279 B( 61-C , 93-H ) :   1.0159 B( 62-C , 63-C ) :   1.3289
B( 62-C , 67-C ) :   1.1605 B( 63-C , 64-C ) :   1.3097 B( 63-C , 65-S ) :   1.0795
B( 64-C , 94-H ) :   0.9790 B( 65-S , 66-C ) :   1.0856 B( 66-C , 67-C ) :   1.6198
B( 66-C , 68-Br) :   1.0078 B( 67-C , 95-H ) :   0.9996

-----------------------------------------------------------------------------
         ABSORPTION SPECTRUM VIA TRANSITION ELECTRIC DIPOLE MOMENTS
-----------------------------------------------------------------------------
State   Energy  Wavelength   fosc         T2         TX        TY        TZ
        (cm-1)    (nm)                  (au**2)     (au)      (au)      (au)
-----------------------------------------------------------------------------
   0    1833.7   5453.4   0.019190250   3.44527   1.85032  -0.13458  -0.05891
   1    9726.8   1028.1   0.253912031   8.59390   1.25910  -2.64737   0.00128
   2   12087.3    827.3   0.095058732   2.58904   1.29692  -0.38043  -0.87310
   3   13960.3    716.3   1.064258638  25.09733  -0.15248   4.83428  -1.30529
   4   15017.1    665.9   0.821156375  18.00179   2.91801  -0.96125  -2.92626
   5   18202.4    549.4   0.240441932   4.34868  -1.19475   1.37050   1.02126
   6   19047.8    525.0   0.069515384   1.20147   0.63885  -0.27943  -0.84573
   7   20600.6    485.4   0.346869347   5.54320  -0.79759  -1.13641   1.90148
   8   20698.0    483.1   0.467603071   7.43746  -1.47645   0.63937   2.20199
   9   21409.9    467.1   0.072684213   1.11764  -0.17648   1.04118  -0.04933
  10   22188.6    450.7   0.034427036   0.51079  -0.06198   0.70633   0.08974
  11   22368.4    447.1   0.120896803   1.77932  -0.68387   0.87754   0.73591
  12   22648.5    441.5   0.011712113   0.17024  -0.26372  -0.19702  -0.24875
  13   23472.3    426.0   0.125830215   1.76484  -0.51368  -0.83981   0.89201
  14   24626.9    406.1   0.026906560   0.35969  -0.04462  -0.55037   0.23407
  15   24646.0    405.7   0.016932878   0.22618  -0.14916   0.45157   0.00451
  16   24937.3    401.0   0.165289955   2.18209   0.92410  -0.98424  -0.59948
  17   25381.2    394.0   0.297479312   3.85852  -1.10964   1.41959   0.78228
  18   26245.4    381.0   0.007202555   0.09035   0.17897   0.21999   0.09960
  19   26499.0    377.4   0.023230177   0.28860  -0.27851   0.28150  -0.36303
  20   27428.6    364.6   0.121886444   1.46294   0.86443  -0.02733  -0.84555
  21   27820.7    359.4   0.087614046   1.03677   0.34937   0.59733  -0.74693
  22   28464.0    351.3   0.019418915   0.22460   0.34336  -0.32660   0.00566
  23   28855.8    346.6   0.002192850   0.02502  -0.03484  -0.11407   0.10389
  24   29176.1    342.7   0.132493119   1.49500   0.01920  -1.07830   0.57612
  25   29862.5    334.9   0.036682017   0.40439  -0.12550   0.60661  -0.14376
  26   30151.9    331.7   0.004025830   0.04396   0.18275  -0.10252   0.00707
  27   30406.4    328.9   0.106113102   1.14889  -0.20837  -1.03472   0.18663
  28   30465.9    328.2   0.007514972   0.08121   0.12399   0.21833  -0.13477
  29   30704.0    325.7   0.101597013   1.08933  -0.55696  -0.69599   0.54289
  30   30822.2    324.4   0.008942031   0.09551   0.10366  -0.28471  -0.06088
  31   30996.4    322.6   0.017200764   0.18269   0.02515   0.41674  -0.09157
  32   31229.7    320.2   0.001294263   0.01364  -0.03118   0.10302   0.04537
  33   31787.3    314.6   0.183974331   1.90537   0.10277   1.37600  -0.03790
  34   32089.2    311.6   0.112958060   1.15887  -0.13459   1.04287  -0.23058
  35   32163.7    310.9   0.379960324   3.88908  -0.06170  -1.90206   0.51713
  36   32308.1    309.5   0.032141731   0.32752   0.43936  -0.36096  -0.06475
  37   32821.3    304.7   0.009505771   0.09535   0.17044   0.15203  -0.20782
  38   33210.3    301.1   0.048706631   0.48283  -0.47867   0.07487   0.49809
  39   33387.7    299.5   0.021986645   0.21679  -0.06329   0.44128   0.13440
  40   33664.9    297.0   0.025709212   0.25141   0.41305   0.17349  -0.22518
  41   33720.1    296.6   0.059595899   0.58184   0.59538   0.20428  -0.43085
  42   33993.1    294.2   0.018611699   0.18025  -0.09154   0.13467   0.39209
  43   34252.8    291.9   0.020033392   0.19255  -0.28842  -0.15040   0.29451
  44   34278.8    291.7   0.005401651   0.05188   0.13069  -0.14796  -0.11359
  45   34795.8    287.4   0.051740046   0.48953  -0.08804  -0.69168  -0.05796
  46   34858.9    286.9   0.307765823   2.90658   0.05959  -1.63294   0.48636
  47   35185.2    284.2   0.008482436   0.07937   0.13434   0.21455   0.12365
  48   35295.0    283.3   0.010015450   0.09342   0.27040   0.02621  -0.14006
  49   35778.2    279.5   0.039506913   0.36352  -0.27733   0.52665   0.09619
  50   35932.2    278.3   0.100405425   0.91992  -0.45815   0.79560   0.27754
  51   36058.4    277.3   0.247562073   2.26023  -0.64814   1.24788   0.53193
  52   36289.6    275.6   0.141822439   1.28659  -0.49922   0.88446   0.50507
  53   36520.7    273.8   0.107146990   0.96587   0.09521  -0.97492   0.07964
  54   36698.3    272.5   0.013677863   0.12270  -0.15023   0.29240  -0.12097
  55   36915.7    270.9   0.025540046   0.22776  -0.02519   0.47466   0.04273
  56   37059.6    269.8   0.046493461   0.41302  -0.27694   0.57449   0.07924
  57   37428.7    267.2   0.005793853   0.05096   0.15457  -0.04774  -0.15744
  58   37688.7    265.3   0.015055605   0.13151   0.19223  -0.07590  -0.29799
  59   37848.4    264.2   0.032955853   0.28666   0.34514  -0.07788  -0.40183
  60   38043.6    262.9   0.038234703   0.33087  -0.12284  -0.19275   0.52785
  61   38766.7    258.0   0.023592443   0.20035   0.04143  -0.31511   0.31518
  62   38824.9    257.6   0.022459698   0.19044  -0.23410   0.34667   0.12434
  63   39074.9    255.9   0.004038600   0.03403  -0.10344  -0.14024   0.06047
  64   39283.0    254.6   0.022363029   0.18741  -0.20280   0.32612   0.19984
  65   39397.5    253.8   0.006898799   0.05765   0.09659  -0.13353   0.17460
  66   39554.3    252.8   0.087341245   0.72694  -0.18817  -0.62123   0.55282
  67   39791.4    251.3   0.003598095   0.02977   0.09474  -0.13521  -0.05011
  68   39921.2    250.5   0.028009580   0.23098  -0.23396  -0.36450   0.20828
  69   39949.2    250.3   0.002904762   0.02394   0.00266   0.10287  -0.11553
  70   40183.6    248.9   0.034321976   0.28119   0.32605  -0.41131  -0.07554
  71   40301.4    248.1   0.023248525   0.18991   0.30362  -0.27672  -0.14543

FINAL SINGLE POINT ENERGY     -8251.731845880513

DIPOLE MOMENT
-------------
                                X             Y             Z
Electronic contribution:    -56.26326    -126.47792      62.41016
Nuclear contribution   :     61.51827     127.16052     -65.48216
                        -----------------------------------------
Total Dipole Moment    :      5.25501       0.68261      -3.07200
                        -----------------------------------------
Magnitude (a.u.)       :      6.12521
Magnitude (Debye)      :     15.56906

Rotational constants in cm-1:     0.000935     0.000473     0.000334
Rotational constants in MHz :    28.021490    14.190292    10.003733

                             ****ORCA TERMINATED NORMALLY****
TOTAL RUN TIME: 0 days 0 hours 11 minutes 25 seconds 722 msec
