                         Program Version 4.2.0 -  RELEASE  -
|  1> # ORCA input file
|  2> # SCF done       -145.701918078176          0.000886885305
|  3> ! CAM-B3LYP def2-SVP def2/J RIJCOSX Grid4 TightSCF
|  4> %maxcore 5000
|  5> %tddft
|  6>     Mode sTDDFT
|  7>     Ethresh 5.0
|  8>     maxcore 5000
|  9> end
| 10>
| 11> %pal
| 12>   nprocs 6
| 13>   end
| 14> * xyz 0 1
| 15>    C        7.48387        -9.93980         4.95831
| 16>    C        7.55369        -8.68013         4.51034
| 17>    C        8.06672        -7.53004         5.20226
| 18>    C        8.00920        -6.38212         4.49621
| 19>    C        7.44762        -6.52222         3.19216
| 20>    S        6.99666        -8.18962         2.90177
| 21>    C        7.26433        -5.53978         2.25488
| 22>    C        7.58535        -4.15844         2.35814
| 23>    C        7.28704        -3.43637         1.25369
| 24>    C        6.69226        -4.19295         0.19734
| 25>    S        6.56236        -5.87911         0.68406
| 26>    C        6.36784        -3.72117        -1.03416
| 27>    C        5.74628        -4.49068        -2.07661
| 28>    C        6.16429        -4.44100        -3.39579
| 29>    C        7.20068        -3.66868        -3.91043
| 30>    N        8.05344        -3.02162        -4.32926
| 31>    S        5.28518        -5.54560        -4.41139
| 32>    C        4.29087        -6.05558        -3.07930
| 33>    C        4.65043        -5.39228        -1.91517
| 34>    C        3.93875        -5.49112        -0.70665
| 35>    N        3.35014        -5.50759         0.27844
| 36>    C        3.22186        -6.99043        -3.24702
| 37>    S        1.79762        -6.83244        -2.25635
| 38>    C        1.07139        -8.21698        -3.01204
| 39>    C        1.90980        -8.77276        -3.96416
| 40>    C        3.11717        -8.06702        -4.11210
| 41>    C        4.18026        -8.53670        -5.05597
| 42>    C        3.56304        -9.37684        -6.17609
| 43>    C        2.71339        -8.57257        -7.15598
| 44>    O        1.70960        -9.02442        -7.64516
| 45>    C        3.22371        -7.19963        -7.51036
| 46>    C        2.75520       -10.51927        -5.55564
| 47>    C        1.55639        -9.97690        -4.77802
| 48>    C       -0.22142        -8.67947        -2.64058
| 49>    C       -1.00869        -8.08151        -1.72409
| 50>    C       -2.30494        -8.54822        -1.32566
| 51>    C       -3.18800        -7.73827        -0.62430
| 52>    C       -2.97755        -6.41494        -0.24560
| 53>    N       -2.81226        -5.32038         0.06337
| 54>    S       -4.68662        -8.53470        -0.25793
| 55>    C       -4.15963        -9.98874        -1.06776
| 56>    C       -2.86023        -9.84393        -1.55389
| 57>    C       -2.09525       -10.93265        -1.99222
| 58>    N       -1.44717       -11.83854        -2.27620
| 59>    C       -5.06290       -11.07427        -1.11700
| 60>    C       -5.16689       -12.05809        -2.06303
| 61>    C       -6.11667       -13.12018        -2.01117
| 62>    C       -6.11568       -13.92759        -3.09994
| 63>    C       -5.17080       -13.55412        -4.08987
| 64>    S       -4.27494       -12.13847        -3.56723
| 65>    C       -4.92731       -14.15960        -5.29800
| 66>    C       -5.57782       -15.31162        -5.83142
| 67>    C       -5.13135       -15.68644        -7.04842
| 68>    C       -4.08723       -14.85432        -7.57853
| 69>    S       -3.71990       -13.56896        -6.41552
| 70>    C       -3.45786       -14.98018        -8.75371
| 71>    H        7.83545       -10.19320         5.94292
| 72>    H        7.07671       -10.73185         4.35703
| 73>    H        8.45416        -7.62074         6.20160
| 74>    H        8.34768        -5.42781         4.85881
| 75>    H        8.02727        -3.74794         3.24841
| 76>    H        7.45654        -2.37971         1.14577
| 77>    H        6.67400        -2.71542        -1.29034
| 78>    H        4.88567        -9.16307        -4.49865
| 79>    H        4.74667        -7.70252        -5.46400
| 80>    H        4.37687        -9.79883        -6.78028
| 81>    H        3.03806        -6.52314        -6.67776
| 82>    H        2.68941        -6.82973        -8.38179
| 83>    H        4.29163        -7.21567        -7.71142
| 84>    H        3.40530       -11.08964        -4.88958
| 85>    H        2.39606       -11.18675        -6.33892
| 86>    H        1.15197       -10.75950        -4.13270
| 87>    H        0.76970        -9.69938        -5.48567
| 88>    H       -0.56323        -9.56587        -3.15399
| 89>    H       -0.67919        -7.16179        -1.25527
| 90>    H       -5.82245       -11.07783        -0.34454
| 91>    H       -6.76228       -13.24324        -1.15956
| 92>    H       -6.76412       -14.77600        -3.22471
| 93>    H       -6.35399       -15.81828        -5.28604
| 94>    H       -5.49777       -16.52924        -7.60722
| 95>    H       -3.71281       -15.77570        -9.43162
| 96>    H       -2.68380       -14.29873        -9.05572
| 97> *
| 98>
| 99>                          ****END OF INPUT****

CARTESIAN COORDINATES (ANGSTROEM)
---------------------------------
  C      7.483870   -9.939800    4.958310
  C      7.553690   -8.680130    4.510340
  C      8.066720   -7.530040    5.202260
  C      8.009200   -6.382120    4.496210
  C      7.447620   -6.522220    3.192160
  S      6.996660   -8.189620    2.901770
  C      7.264330   -5.539780    2.254880
  C      7.585350   -4.158440    2.358140
  C      7.287040   -3.436370    1.253690
  C      6.692260   -4.192950    0.197340
  S      6.562360   -5.879110    0.684060
  C      6.367840   -3.721170   -1.034160
  C      5.746280   -4.490680   -2.076610
  C      6.164290   -4.441000   -3.395790
  C      7.200680   -3.668680   -3.910430
  N      8.053440   -3.021620   -4.329260
  S      5.285180   -5.545600   -4.411390
  C      4.290870   -6.055580   -3.079300
  C      4.650430   -5.392280   -1.915170
  C      3.938750   -5.491120   -0.706650
  N      3.350140   -5.507590    0.278440
  C      3.221860   -6.990430   -3.247020
  S      1.797620   -6.832440   -2.256350
  C      1.071390   -8.216980   -3.012040
  C      1.909800   -8.772760   -3.964160
  C      3.117170   -8.067020   -4.112100
  C      4.180260   -8.536700   -5.055970
  C      3.563040   -9.376840   -6.176090
  C      2.713390   -8.572570   -7.155980
  O      1.709600   -9.024420   -7.645160
  C      3.223710   -7.199630   -7.510360
  C      2.755200  -10.519270   -5.555640
  C      1.556390   -9.976900   -4.778020
  C     -0.221420   -8.679470   -2.640580
  C     -1.008690   -8.081510   -1.724090
  C     -2.304940   -8.548220   -1.325660
  C     -3.188000   -7.738270   -0.624300
  C     -2.977550   -6.414940   -0.245600
  N     -2.812260   -5.320380    0.063370
  S     -4.686620   -8.534700   -0.257930
  C     -4.159630   -9.988740   -1.067760
  C     -2.860230   -9.843930   -1.553890
  C     -2.095250  -10.932650   -1.992220
  N     -1.447170  -11.838540   -2.276200
  C     -5.062900  -11.074270   -1.117000
  C     -5.166890  -12.058090   -2.063030
  C     -6.116670  -13.120180   -2.011170
  C     -6.115680  -13.927590   -3.099940
  C     -5.170800  -13.554120   -4.089870
  S     -4.274940  -12.138470   -3.567230
  C     -4.927310  -14.159600   -5.298000
  C     -5.577820  -15.311620   -5.831420
  C     -5.131350  -15.686440   -7.048420
  C     -4.087230  -14.854320   -7.578530
  S     -3.719900  -13.568960   -6.415520
  C     -3.457860  -14.980180   -8.753710
  H      7.835450  -10.193200    5.942920
  H      7.076710  -10.731850    4.357030
  H      8.454160   -7.620740    6.201600
  H      8.347680   -5.427810    4.858810
  H      8.027270   -3.747940    3.248410
  H      7.456540   -2.379710    1.145770
  H      6.674000   -2.715420   -1.290340
  H      4.885670   -9.163070   -4.498650
  H      4.746670   -7.702520   -5.464000
  H      4.376870   -9.798830   -6.780280
  H      3.038060   -6.523140   -6.677760
  H      2.689410   -6.829730   -8.381790
  H      4.291630   -7.215670   -7.711420
  H      3.405300  -11.089640   -4.889580
  H      2.396060  -11.186750   -6.338920
  H      1.151970  -10.759500   -4.132700
  H      0.769700   -9.699380   -5.485670
  H     -0.563230   -9.565870   -3.153990
  H     -0.679190   -7.161790   -1.255270
  H     -5.822450  -11.077830   -0.344540
  H     -6.762280  -13.243240   -1.159560
  H     -6.764120  -14.776000   -3.224710
  H     -6.353990  -15.818280   -5.286040
  H     -5.497770  -16.529240   -7.607220
  H     -3.712810  -15.775700   -9.431620
  H     -2.683800  -14.298730   -9.055720

 Total Charge           Charge          ....    0
 Multiplicity           Mult            ....    1
 Number of Electrons    NEL             ....  438
 Basis Dimension        Dim             ....  942

ORBITAL ENERGIES
----------------

  NO   OCC          E(Eh)            E(eV)
   0   2.0000     -88.985714     -2421.4244
   1   2.0000     -88.975627     -2421.1499
   2   2.0000     -88.956495     -2420.6293
   3   2.0000     -88.951900     -2420.5043
   4   2.0000     -88.949318     -2420.4340
   5   2.0000     -88.939636     -2420.1705
   6   2.0000     -88.937958     -2420.1249
   7   2.0000     -19.205361      -522.6044
   8   2.0000     -14.406163      -392.0116
   9   2.0000     -14.403628      -391.9426
  10   2.0000     -14.402565      -391.9137
  11   2.0000     -14.400084      -391.8462
  12   2.0000     -10.355098      -281.7765
  13   2.0000     -10.343264      -281.4545
  14   2.0000     -10.335355      -281.2393
  15   2.0000     -10.329615      -281.0831
  16   2.0000     -10.326895      -281.0091
  17   2.0000     -10.325477      -280.9705
  18   2.0000     -10.324992      -280.9573
  19   2.0000     -10.317733      -280.7598
  20   2.0000     -10.316721      -280.7323
  21   2.0000     -10.316078      -280.7147
  22   2.0000     -10.315127      -280.6889
  23   2.0000     -10.313249      -280.6378
  24   2.0000     -10.313042      -280.6321
  25   2.0000     -10.313040      -280.6321
  26   2.0000     -10.312555      -280.6189
  27   2.0000     -10.311965      -280.6028
  28   2.0000     -10.308860      -280.5183
  29   2.0000     -10.306407      -280.4516
  30   2.0000     -10.306160      -280.4449
  31   2.0000     -10.305285      -280.4211
  32   2.0000     -10.304752      -280.4066
  33   2.0000     -10.300707      -280.2965
  34   2.0000     -10.299848      -280.2731
  35   2.0000     -10.299513      -280.2640
  36   2.0000     -10.298872      -280.2466
  37   2.0000     -10.297824      -280.2180
  38   2.0000     -10.291203      -280.0379
  39   2.0000     -10.290837      -280.0279
  40   2.0000     -10.289728      -279.9977
  41   2.0000     -10.289578      -279.9936
  42   2.0000     -10.288577      -279.9664
  43   2.0000     -10.287714      -279.9429
  44   2.0000     -10.286086      -279.8986
  45   2.0000     -10.283929      -279.8399
  46   2.0000     -10.283302      -279.8229
  47   2.0000     -10.283160      -279.8190
  48   2.0000     -10.281922      -279.7853
  49   2.0000     -10.281088      -279.7626
  50   2.0000     -10.279471      -279.7186
  51   2.0000     -10.279429      -279.7175
  52   2.0000     -10.271306      -279.4965
  53   2.0000     -10.267826      -279.4017
  54   2.0000     -10.263867      -279.2940
  55   2.0000     -10.263677      -279.2889
  56   2.0000      -8.080276      -219.8755
  57   2.0000      -8.071215      -219.6289
  58   2.0000      -8.051479      -219.0919
  59   2.0000      -8.047908      -218.9947
  60   2.0000      -8.046063      -218.9445
  61   2.0000      -8.035880      -218.6674
  62   2.0000      -8.034644      -218.6338
  63   2.0000      -6.049736      -164.6217
  64   2.0000      -6.045438      -164.5047
  65   2.0000      -6.042266      -164.4184
  66   2.0000      -6.040643      -164.3743
  67   2.0000      -6.036440      -164.2599
  68   2.0000      -6.033001      -164.1663
  69   2.0000      -6.020705      -163.8317
  70   2.0000      -6.017676      -163.7493
  71   2.0000      -6.016613      -163.7204
  72   2.0000      -6.015875      -163.7003
  73   2.0000      -6.013594      -163.6382
  74   2.0000      -6.013524      -163.6363
  75   2.0000      -6.011903      -163.5922
  76   2.0000      -6.008749      -163.5064
  77   2.0000      -6.006610      -163.4482
  78   2.0000      -6.005734      -163.4243
  79   2.0000      -6.004470      -163.3899
  80   2.0000      -6.001713      -163.3149
  81   2.0000      -6.000547      -163.2832
  82   2.0000      -5.996441      -163.1715
  83   2.0000      -5.995163      -163.1367
  84   2.0000      -1.124666       -30.6037
  85   2.0000      -1.024016       -27.8649
  86   2.0000      -1.017272       -27.6814
  87   2.0000      -1.002192       -27.2710
  88   2.0000      -0.994626       -27.0652
  89   2.0000      -0.991718       -26.9860
  90   2.0000      -0.988749       -26.9052
  91   2.0000      -0.986068       -26.8323
  92   2.0000      -0.979844       -26.6629
  93   2.0000      -0.977143       -26.5894
  94   2.0000      -0.976396       -26.5691
  95   2.0000      -0.968215       -26.3465
  96   2.0000      -0.928442       -25.2642
  97   2.0000      -0.917881       -24.9768
  98   2.0000      -0.907133       -24.6844
  99   2.0000      -0.897621       -24.4255
 100   2.0000      -0.885449       -24.0943
 101   2.0000      -0.878413       -23.9028
 102   2.0000      -0.873880       -23.7795
 103   2.0000      -0.862676       -23.4746
 104   2.0000      -0.856422       -23.3044
 105   2.0000      -0.854143       -23.2424
 106   2.0000      -0.845413       -23.0049
 107   2.0000      -0.844624       -22.9834
 108   2.0000      -0.836014       -22.7491
 109   2.0000      -0.830297       -22.5935
 110   2.0000      -0.826554       -22.4917
 111   2.0000      -0.820414       -22.3246
 112   2.0000      -0.816819       -22.2268
 113   2.0000      -0.796451       -21.6725
 114   2.0000      -0.787295       -21.4234
 115   2.0000      -0.778077       -21.1725
 116   2.0000      -0.748693       -20.3730
 117   2.0000      -0.742087       -20.1932
 118   2.0000      -0.738903       -20.1066
 119   2.0000      -0.731753       -19.9120
 120   2.0000      -0.720894       -19.6165
 121   2.0000      -0.710652       -19.3378
 122   2.0000      -0.700042       -19.0491
 123   2.0000      -0.697468       -18.9791
 124   2.0000      -0.684870       -18.6363
 125   2.0000      -0.675743       -18.3879
 126   2.0000      -0.669407       -18.2155
 127   2.0000      -0.655236       -17.8299
 128   2.0000      -0.645921       -17.5764
 129   2.0000      -0.636738       -17.3265
 130   2.0000      -0.630065       -17.1449
 131   2.0000      -0.627394       -17.0723
 132   2.0000      -0.622610       -16.9421
 133   2.0000      -0.619756       -16.8644
 134   2.0000      -0.614558       -16.7230
 135   2.0000      -0.608459       -16.5570
 136   2.0000      -0.599185       -16.3046
 137   2.0000      -0.594063       -16.1653
 138   2.0000      -0.586691       -15.9647
 139   2.0000      -0.583777       -15.8854
 140   2.0000      -0.577692       -15.7198
 141   2.0000      -0.569591       -15.4994
 142   2.0000      -0.563199       -15.3254
 143   2.0000      -0.559622       -15.2281
 144   2.0000      -0.552036       -15.0217
 145   2.0000      -0.549117       -14.9422
 146   2.0000      -0.543415       -14.7871
 147   2.0000      -0.539152       -14.6711
 148   2.0000      -0.532690       -14.4952
 149   2.0000      -0.531474       -14.4621
 150   2.0000      -0.526691       -14.3320
 151   2.0000      -0.519910       -14.1475
 152   2.0000      -0.519673       -14.1410
 153   2.0000      -0.517129       -14.0718
 154   2.0000      -0.511513       -13.9190
 155   2.0000      -0.509474       -13.8635
 156   2.0000      -0.507673       -13.8145
 157   2.0000      -0.507286       -13.8040
 158   2.0000      -0.503684       -13.7059
 159   2.0000      -0.501333       -13.6420
 160   2.0000      -0.497900       -13.5485
 161   2.0000      -0.494122       -13.4457
 162   2.0000      -0.492907       -13.4127
 163   2.0000      -0.492696       -13.4069
 164   2.0000      -0.489761       -13.3271
 165   2.0000      -0.487086       -13.2543
 166   2.0000      -0.483095       -13.1457
 167   2.0000      -0.481883       -13.1127
 168   2.0000      -0.476716       -12.9721
 169   2.0000      -0.473267       -12.8782
 170   2.0000      -0.471487       -12.8298
 171   2.0000      -0.468240       -12.7415
 172   2.0000      -0.466221       -12.6865
 173   2.0000      -0.462687       -12.5904
 174   2.0000      -0.457995       -12.4627
 175   2.0000      -0.457470       -12.4484
 176   2.0000      -0.454584       -12.3699
 177   2.0000      -0.449858       -12.2413
 178   2.0000      -0.448822       -12.2131
 179   2.0000      -0.446109       -12.1392
 180   2.0000      -0.440007       -11.9732
 181   2.0000      -0.435693       -11.8558
 182   2.0000      -0.434945       -11.8355
 183   2.0000      -0.433358       -11.7923
 184   2.0000      -0.431579       -11.7439
 185   2.0000      -0.429441       -11.6857
 186   2.0000      -0.429216       -11.6796
 187   2.0000      -0.428586       -11.6624
 188   2.0000      -0.424450       -11.5499
 189   2.0000      -0.421099       -11.4587
 190   2.0000      -0.418756       -11.3949
 191   2.0000      -0.417152       -11.3513
 192   2.0000      -0.414886       -11.2896
 193   2.0000      -0.408730       -11.1221
 194   2.0000      -0.407895       -11.0994
 195   2.0000      -0.404139       -10.9972
 196   2.0000      -0.403486       -10.9794
 197   2.0000      -0.400772       -10.9056
 198   2.0000      -0.395533       -10.7630
 199   2.0000      -0.394669       -10.7395
 200   2.0000      -0.394163       -10.7257
 201   2.0000      -0.393034       -10.6950
 202   2.0000      -0.389196       -10.5906
 203   2.0000      -0.382925       -10.4199
 204   2.0000      -0.357237        -9.7209
 205   2.0000      -0.349413        -9.5080
 206   2.0000      -0.345964        -9.4141
 207   2.0000      -0.342903        -9.3309
 208   2.0000      -0.335827        -9.1383
 209   2.0000      -0.324535        -8.8311
 210   2.0000      -0.320738        -8.7277
 211   2.0000      -0.319588        -8.6964
 212   2.0000      -0.317830        -8.6486
 213   2.0000      -0.309917        -8.4333
 214   2.0000      -0.305229        -8.3057
 215   2.0000      -0.298613        -8.1257
 216   2.0000      -0.257311        -7.0018
 217   2.0000      -0.232681        -6.3316
 218   2.0000      -0.226181        -6.1547
 219   0.0000      -0.082269        -2.2387
 220   0.0000      -0.069338        -1.8868
 221   0.0000      -0.060285        -1.6404
 222   0.0000      -0.026297        -0.7156
 223   0.0000      -0.013160        -0.3581

MULLIKEN ATOMIC CHARGES
-----------------------
   0 C :   -0.020641
   1 C :   -0.070412
   2 C :    0.059178
   3 C :    0.029694
   4 C :   -0.061864
   5 S :    0.090770
   6 C :   -0.058878
   7 C :    0.046644
   8 C :    0.032614
   9 C :   -0.005609
  10 S :    0.098936
  11 C :   -0.089241
  12 C :    0.207719
  13 C :   -0.307464
  14 C :   -0.177792
  15 N :    0.136585
  16 S :    0.191903
  17 C :   -0.044810
  18 C :   -0.066773
  19 C :   -0.284118
  20 N :    0.185129
  21 C :   -0.164023
  22 S :    0.163028
  23 C :   -0.090265
  24 C :   -0.089101
  25 C :   -0.074110
  26 C :    0.172154
  27 C :   -0.123379
  28 C :   -0.020331
  29 O :   -0.177966
  30 C :    0.061918
  31 C :    0.100716
  32 C :    0.091651
  33 C :    0.000561
  34 C :   -0.046615
  35 C :    0.252499
  36 C :   -0.313736
  37 C :   -0.188966
  38 N :    0.135116
  39 S :    0.204806
  40 C :   -0.049156
  41 C :   -0.096730
  42 C :   -0.265657
  43 N :    0.139512
  44 C :   -0.032428
  45 C :   -0.004892
  46 C :    0.022833
  47 C :    0.046569
  48 C :   -0.063119
  49 S :    0.119336
  50 C :   -0.055707
  51 C :    0.026187
  52 C :    0.064008
  53 C :   -0.071015
  54 S :    0.105903
  55 C :   -0.019243
  56 H :    0.021340
  57 H :    0.024953
  58 H :   -0.009811
  59 H :   -0.010006
  60 H :   -0.011255
  61 H :   -0.006276
  62 H :    0.014912
  63 H :    0.027749
  64 H :    0.004871
  65 H :    0.026772
  66 H :    0.040459
  67 H :    0.034025
  68 H :    0.033948
  69 H :    0.002180
  70 H :    0.010122
  71 H :    0.036109
  72 H :    0.043324
  73 H :    0.015731
  74 H :    0.018607
  75 H :   -0.002550
  76 H :   -0.006917
  77 H :   -0.008939
  78 H :   -0.006152
  79 H :   -0.004817
  80 H :    0.027266
  81 H :    0.032429
Sum of atomic charges:    0.0000000

LOEWDIN ATOMIC CHARGES
----------------------
   0 C :   -0.068617
   1 C :   -0.139858
   2 C :   -0.024364
   3 C :   -0.026200
   4 C :   -0.166166
   5 S :    0.359242
   6 C :   -0.183166
   7 C :   -0.016731
   8 C :   -0.034722
   9 C :   -0.113996
  10 S :    0.391141
  11 C :   -0.083534
  12 C :   -0.000229
  13 C :   -0.235669
  14 C :   -0.057550
  15 N :   -0.052881
  16 S :    0.494801
  17 C :   -0.132141
  18 C :   -0.118216
  19 C :   -0.066576
  20 N :   -0.040131
  21 C :   -0.203157
  22 S :    0.487540
  23 C :   -0.168207
  24 C :   -0.045840
  25 C :   -0.052593
  26 C :   -0.025361
  27 C :   -0.061101
  28 C :    0.089335
  29 O :   -0.137993
  30 C :   -0.078756
  31 C :   -0.015693
  32 C :   -0.030519
  33 C :   -0.009310
  34 C :   -0.031423
  35 C :    0.005423
  36 C :   -0.233153
  37 C :   -0.059820
  38 N :   -0.049680
  39 S :    0.477337
  40 C :   -0.115183
  41 C :   -0.128377
  42 C :   -0.048503
  43 N :   -0.064725
  44 C :   -0.112806
  45 C :   -0.117600
  46 C :   -0.039984
  47 C :   -0.016720
  48 C :   -0.189244
  49 S :    0.417855
  50 C :   -0.157276
  51 C :   -0.027848
  52 C :   -0.017029
  53 C :   -0.141493
  54 S :    0.371499
  55 C :   -0.056242
  56 H :    0.029588
  57 H :    0.027970
  58 H :    0.034471
  59 H :    0.032948
  60 H :    0.033180
  61 H :    0.035570
  62 H :    0.042335
  63 H :    0.043156
  64 H :    0.009331
  65 H :    0.044304
  66 H :    0.044022
  67 H :    0.040367
  68 H :    0.037023
  69 H :    0.023920
  70 H :    0.031675
  71 H :    0.040059
  72 H :    0.039676
  73 H :    0.040845
  74 H :    0.033517
  75 H :    0.036103
  76 H :    0.034775
  77 H :    0.033736
  78 H :    0.034140
  79 H :    0.036416
  80 H :    0.032005
  81 H :    0.031080

  Mayer bond orders larger than 0.100000
B(  0-C ,  1-C ) :   1.8728 B(  0-C , 56-H ) :   0.9501 B(  0-C , 57-H ) :   0.9407
B(  1-C ,  2-C ) :   1.0752 B(  1-C ,  5-S ) :   1.0069 B(  2-C ,  3-C ) :   1.6744
B(  2-C , 58-H ) :   0.9920 B(  3-C ,  4-C ) :   1.1414 B(  3-C , 59-H ) :   0.9916
B(  4-C ,  5-S ) :   1.0520 B(  4-C ,  6-C ) :   1.5799 B(  6-C ,  7-C ) :   1.1533
B(  6-C , 10-S ) :   1.0422 B(  7-C ,  8-C ) :   1.6392 B(  7-C , 60-H ) :   0.9906
B(  8-C ,  9-C ) :   1.1097 B(  8-C , 61-H ) :   0.9980 B(  9-C , 10-S ) :   1.0530
B(  9-C , 11-C ) :   1.6641 B( 11-C , 12-C ) :   1.0765 B( 11-C , 62-H ) :   0.9492
B( 12-C , 13-C ) :   1.4835 B( 12-C , 18-C ) :   1.2453 B( 13-C , 14-C ) :   1.2098
B( 13-C , 16-S ) :   1.1038 B( 13-C , 17-C ) :   0.1103 B( 14-C , 15-N ) :   2.9963
B( 16-S , 17-C ) :   1.1603 B( 17-C , 18-C ) :   1.4881 B( 17-C , 21-C ) :   1.0976
B( 18-C , 19-C ) :   1.1035 B( 19-C , 20-N ) :   3.0179 B( 21-C , 22-S ) :   1.1490
B( 21-C , 23-C ) :   0.1171 B( 21-C , 25-C ) :   1.4888 B( 22-S , 23-C ) :   1.1211
B( 23-C , 24-C ) :   1.4856 B( 23-C , 33-C ) :   1.1633 B( 24-C , 25-C ) :   1.3200
B( 24-C , 32-C ) :   1.0566 B( 25-C , 26-C ) :   1.0522 B( 26-C , 27-C ) :   1.0535
B( 26-C , 63-H ) :   0.8929 B( 26-C , 64-H ) :   0.8952 B( 27-C , 28-C ) :   0.8924
B( 27-C , 31-C ) :   1.0555 B( 27-C , 65-H ) :   0.8884 B( 28-C , 29-O ) :   2.1945
B( 28-C , 30-C ) :   1.0476 B( 30-C , 66-H ) :   0.9353 B( 30-C , 67-H ) :   0.9463
B( 30-C , 68-H ) :   0.9487 B( 31-C , 32-C ) :   1.0875 B( 31-C , 69-H ) :   0.9431
B( 31-C , 70-H ) :   0.9168 B( 32-C , 71-H ) :   0.9093 B( 32-C , 72-H ) :   0.9035
B( 33-C , 34-C ) :   1.6565 B( 33-C , 73-H ) :   0.9578 B( 34-C , 35-C ) :   1.1345
B( 34-C , 74-H ) :   0.9520 B( 35-C , 36-C ) :   1.4583 B( 35-C , 41-C ) :   1.2158
B( 36-C , 37-C ) :   1.2159 B( 36-C , 39-S ) :   1.0993 B( 37-C , 38-N ) :   2.9874
B( 39-S , 40-C ) :   1.1314 B( 40-C , 41-C ) :   1.4550 B( 40-C , 44-C ) :   1.1514
B( 41-C , 42-C ) :   1.1318 B( 42-C , 43-N ) :   2.9650 B( 44-C , 45-C ) :   1.6074
B( 44-C , 75-H ) :   0.9401 B( 45-C , 46-C ) :   1.1274 B( 45-C , 49-S ) :   1.0765
B( 46-C , 47-C ) :   1.6172 B( 46-C , 76-H ) :   0.9988 B( 47-C , 48-C ) :   1.1639
B( 47-C , 77-H ) :   0.9917 B( 48-C , 49-S ) :   1.0431 B( 48-C , 50-C ) :   1.5593
B( 50-C , 51-C ) :   1.1436 B( 50-C , 54-S ) :   1.0646 B( 51-C , 52-C ) :   1.6690
B( 51-C , 78-H ) :   0.9925 B( 52-C , 53-C ) :   1.0755 B( 52-C , 79-H ) :   0.9933
B( 53-C , 54-S ) :   1.0057 B( 53-C , 55-C ) :   1.8686 B( 55-C , 80-H ) :   0.9513
B( 55-C , 81-H ) :   0.9419

-----------------------------------------------------------------------------
         ABSORPTION SPECTRUM VIA TRANSITION ELECTRIC DIPOLE MOMENTS
-----------------------------------------------------------------------------
State   Energy  Wavelength   fosc         T2         TX        TY        TZ
        (cm-1)    (nm)                  (au**2)     (au)      (au)      (au)
-----------------------------------------------------------------------------
   0   18447.5    542.1   1.208321410  21.56355  -1.08346  -3.00927  -3.36660
   1   19543.6    511.7   0.350507957   5.90431   0.29659  -1.20096   2.09142
   2   21622.7    462.5   0.696211462  10.60003  -1.91878   1.65923  -2.04090
   3   23161.5    431.8   0.134788295   1.91585  -0.86958  -0.52414   0.94072
   4   23803.5    420.1   0.092327898   1.27693   0.76807   0.55876  -0.61220
   5   24816.1    403.0   0.308218035   4.08884  -1.69883  -0.80848   0.74106
   6   26013.7    384.4   0.473457175   5.99176  -1.79060  -1.17605   1.18424
   7   27857.7    359.0   0.214373702   2.53339   1.25672   0.68687  -0.69444
   8   29468.5    339.3   0.024460315   0.27326   0.24506  -0.03352  -0.46053
   9   29890.7    334.6   0.009806778   0.10801   0.26553   0.10724   0.16126
  10   30463.0    328.3   0.081920448   0.88531   0.33859   0.73364  -0.48211
  11   31967.6    312.8   0.043440580   0.44736  -0.38097  -0.20276   0.51099
  12   32132.5    311.2   0.020820812   0.21332   0.21126  -0.40772   0.04953
  13   32874.2    304.2   0.088205120   0.88331  -0.45038   0.63489   0.52667
  14   33458.6    298.9   0.057508468   0.56585  -0.58722   0.06526   0.46557
  15   33643.8    297.2   0.279399629   2.73398  -1.23596  -0.88061   0.65642
  16   34362.7    291.0   0.034328888   0.32889  -0.48371   0.06847   0.30038
  17   35071.4    285.1   0.068230911   0.64048   0.41236  -0.41509  -0.54602
  18   36239.6    275.9   0.009758051   0.08865  -0.15570   0.00438  -0.25374
  19   36395.1    274.8   0.017700867   0.16011   0.12905   0.29510   0.23744
  20   36846.7    271.4   0.222461719   1.98761  -0.10788  -1.06051  -0.92265
  21   36917.0    270.9   0.071380646   0.63655   0.37525   0.26258   0.65329
  22   37079.0    269.7   0.065496238   0.58152   0.18811  -0.67699  -0.29635
  23   37566.1    266.2   0.100143072   0.87761   0.41103  -0.31471  -0.78078
  24   37736.1    265.0   0.011283802   0.09844   0.10972   0.11554  -0.27028
  25   37899.8    263.9   0.027454499   0.23848   0.11486  -0.11119  -0.46144
  26   37925.4    263.7   0.054992663   0.47737   0.52201   0.33910   0.29980
  27   38105.9    262.4   0.080402627   0.69463   0.10700   0.27272  -0.78026
  28   38203.1    261.8   0.080101706   0.69027   0.57104  -0.29623  -0.52576
  29   38701.6    258.4   0.006303905   0.05362   0.12091   0.19190  -0.04668
  30   38918.7    256.9   0.074514900   0.63032  -0.12681   0.40301   0.67217
  31   39227.7    254.9   0.034142342   0.28653   0.05387  -0.30289  -0.43805
  32   39539.6    252.9   0.041679409   0.34703  -0.38475   0.16825   0.41315
  33   39781.4    251.4   0.008554739   0.07079   0.00076  -0.23686  -0.12122
  34   39928.1    250.5   0.049356528   0.40695   0.09460   0.50678   0.37574
  35   40138.8    249.1   0.075700309   0.62088   0.10821  -0.77591   0.08445

FINAL SINGLE POINT ENERGY     -4770.343860925933

DIPOLE MOMENT
-------------
                                X             Y             Z
Electronic contribution:    -10.78826      22.23249      17.96683
Nuclear contribution   :      9.80606     -25.52992     -18.19154
                        -----------------------------------------
Total Dipole Moment    :     -0.98220      -3.29743      -0.22472
                        -----------------------------------------
Magnitude (a.u.)       :      3.44793
Magnitude (Debye)      :      8.76395

Rotational constants in cm-1:     0.001739     0.000531     0.000472
Rotational constants in MHz :    52.127244    15.917063    14.163359

                             ****ORCA TERMINATED NORMALLY****
TOTAL RUN TIME: 0 days 0 hours 5 minutes 58 seconds 437 msec
