                         Program Version 4.2.0 -  RELEASE  -
|  1> # ORCA input file
|  2> # SCF done       -184.481008490154          0.000559097724
|  3> ! CAM-B3LYP def2-SVP def2/J RIJCOSX Grid4 TightSCF
|  4> %maxcore 5000
|  5> %tddft
|  6>     Mode sTDDFT
|  7>     Ethresh 5.0
|  8>     maxcore 5000
|  9> end
| 10>
| 11> %pal
| 12>   nprocs 6
| 13>   end
| 14> * xyz 0 1
| 15>    C       24.67438       -17.84876        -5.41728
| 16>    C       23.88225       -16.77246        -5.30195
| 17>    C       23.85628       -15.60603        -6.13363
| 18>    C       22.94134       -14.67836        -5.76595
| 19>    C       22.17578       -15.03034        -4.62386
| 20>    S       22.66502       -16.60228        -4.02668
| 21>    C       21.18018       -14.28660        -4.02366
| 22>    C       20.69975       -13.01607        -4.40473
| 23>    C       19.70385       -12.53907        -3.60145
| 24>    C       19.34376       -13.40128        -2.54766
| 25>    S       20.31927       -14.85658        -2.60741
| 26>    C       18.37442       -13.17106        -1.58674
| 27>    C       18.04779       -14.03881        -0.56051
| 28>    C       17.08106       -13.78777         0.39889
| 29>    C       16.71139       -14.61608         1.47444
| 30>    C       15.73348       -14.09689         2.27785
| 31>    C       15.27996       -12.82694         1.87497
| 32>    S       16.12912       -12.31353         0.43152
| 33>    C       14.34894       -12.00614         2.48214
| 34>    C       13.65009       -12.21759         3.69335
| 35>    C       12.88697       -11.16380         4.08339
| 36>    C       12.93954       -10.04323         3.20364
| 37>    S       13.93918       -10.44608         1.80484
| 38>    C       12.44853        -8.79928         3.42848
| 39>    C       12.66617        -7.67362         2.54561
| 40>    C       13.04209        -6.44595         3.10497
| 41>    C       13.41052        -5.43010         2.25180
| 42>    C       13.36185        -5.58342         0.85994
| 43>    C       12.90659        -6.76162         0.31120
| 44>    C       12.57318        -7.80643         1.15833
| 45>    C       13.97091        -4.37027         0.22917
| 46>    C       14.26690        -3.48188         1.43927
| 47>    O       14.76051        -2.37864         1.43050
| 48>    N       13.91420        -4.17483         2.56379
| 49>    C       14.11027        -3.67584         3.90292
| 50>    C       12.79455        -3.26719         4.55880
| 51>    C       15.30031        -4.72045        -0.48924
| 52>    C       15.00038        -5.46349        -1.79292
| 53>    O       14.41910        -5.04485        -2.76250
| 54>    N       15.48939        -6.73261        -1.65308
| 55>    C       16.07476        -6.94157        -0.41265
| 56>    C       16.55009        -8.11078         0.13545
| 57>    C       16.99338        -8.07696         1.46436
| 58>    C       17.06277        -6.85554         2.14111
| 59>    C       16.60763        -5.68112         1.56528
| 60>    C       16.06706        -5.73554         0.29981
| 61>    C       17.27256        -9.32224         2.14647
| 62>    C       16.82027        -9.59120         3.39762
| 63>    C       16.89532       -10.82440         4.10834
| 64>    C       16.15628       -10.86025         5.24884
| 65>    C       15.46401        -9.65913         5.52403
| 66>    S       15.83492        -8.45040         4.31636
| 67>    C       14.57707        -9.37582         6.54527
| 68>    C       14.13881       -10.19084         7.60447
| 69>    C       13.22454        -9.58769         8.42548
| 70>    C       12.89274        -8.27065         8.05881
| 71>    S       13.78989        -7.81343         6.62259
| 72>    C       12.00541        -7.41303         8.68816
| 73>    C       11.71989        -6.13266         8.24969
| 74>    C       10.85184        -5.25052         8.86977
| 75>    C       10.53072        -3.94737         8.44281
| 76>    C        9.65061        -3.29000         9.25426
| 77>    C        9.23179        -4.04423        10.37034
| 78>    S        9.98928        -5.62444        10.34874
| 79>    C        8.36703        -3.66298        11.37619
| 80>    C        7.69953        -2.41795        11.51153
| 81>    C        6.91733        -2.31961        12.61225
| 82>    C        6.90718        -3.49161        13.43667
| 83>    S        7.95689        -4.71950        12.71126
| 84>    C        6.23767        -3.68716        14.58249
| 85>    H       25.40188       -17.91151        -6.20708
| 86>    H       24.61034       -18.67447        -4.73289
| 87>    H       24.52465       -15.51317        -6.97109
| 88>    H       22.78723       -13.74491        -6.27777
| 89>    H       21.09559       -12.48768        -5.25317
| 90>    H       19.21836       -11.58856        -3.73827
| 91>    H       17.83615       -12.23331        -1.65285
| 92>    H       18.58063       -14.97858        -0.49004
| 93>    H       17.17900       -15.57258         1.63005
| 94>    H       15.33441       -14.59434         3.14360
| 95>    H       13.75225       -13.13116         4.25183
| 96>    H       12.30659       -11.12951         4.98874
| 97>    H       11.97090        -8.60728         4.37957
| 98>    H       13.11040        -6.34692         4.17653
| 99>    H       12.82347        -6.87810        -0.75853
|100>    H       12.21707        -8.73472         0.73971
|101>    H       13.32030        -3.85529        -0.48275
|102>    H       14.76904        -2.80727         3.81837
|103>    H       14.60847        -4.45028         4.49551
|104>    H       12.32309        -2.47048         3.98852
|105>    H       12.98557        -2.90884         5.56710
|106>    H       12.10997        -4.11112         4.60660
|107>    H       15.83967        -3.78990        -0.68389
|108>    H       15.38082        -7.44505        -2.35763
|109>    H       16.51036        -9.04671        -0.40034
|110>    H       17.49099        -6.82617         3.13081
|111>    H       16.65820        -4.74947         2.10745
|112>    H       17.74031       -10.12010         1.58709
|113>    H       17.47263       -11.64887         3.72801
|114>    H       16.07101       -11.72083         5.88857
|115>    H       14.50283       -11.19410         7.73634
|116>    H       12.77924       -10.05790         9.28483
|117>    H       11.50935        -7.77831         9.57822
|118>    H       12.21185        -5.77955         7.35144
|119>    H       10.95663        -3.52989         7.54706
|120>    H        9.29883        -2.28961         9.07770
|121>    H        7.82328        -1.63411        10.78534
|122>    H        6.33829        -1.45401        12.88079
|123>    H        5.61324        -2.91271        14.99145
|124>    H        6.30538        -4.61107        15.12647
|125> *
|126>
|127>                          ****END OF INPUT****

CARTESIAN COORDINATES (ANGSTROEM)
---------------------------------
  C     24.674380  -17.848760   -5.417280
  C     23.882250  -16.772460   -5.301950
  C     23.856280  -15.606030   -6.133630
  C     22.941340  -14.678360   -5.765950
  C     22.175780  -15.030340   -4.623860
  S     22.665020  -16.602280   -4.026680
  C     21.180180  -14.286600   -4.023660
  C     20.699750  -13.016070   -4.404730
  C     19.703850  -12.539070   -3.601450
  C     19.343760  -13.401280   -2.547660
  S     20.319270  -14.856580   -2.607410
  C     18.374420  -13.171060   -1.586740
  C     18.047790  -14.038810   -0.560510
  C     17.081060  -13.787770    0.398890
  C     16.711390  -14.616080    1.474440
  C     15.733480  -14.096890    2.277850
  C     15.279960  -12.826940    1.874970
  S     16.129120  -12.313530    0.431520
  C     14.348940  -12.006140    2.482140
  C     13.650090  -12.217590    3.693350
  C     12.886970  -11.163800    4.083390
  C     12.939540  -10.043230    3.203640
  S     13.939180  -10.446080    1.804840
  C     12.448530   -8.799280    3.428480
  C     12.666170   -7.673620    2.545610
  C     13.042090   -6.445950    3.104970
  C     13.410520   -5.430100    2.251800
  C     13.361850   -5.583420    0.859940
  C     12.906590   -6.761620    0.311200
  C     12.573180   -7.806430    1.158330
  C     13.970910   -4.370270    0.229170
  C     14.266900   -3.481880    1.439270
  O     14.760510   -2.378640    1.430500
  N     13.914200   -4.174830    2.563790
  C     14.110270   -3.675840    3.902920
  C     12.794550   -3.267190    4.558800
  C     15.300310   -4.720450   -0.489240
  C     15.000380   -5.463490   -1.792920
  O     14.419100   -5.044850   -2.762500
  N     15.489390   -6.732610   -1.653080
  C     16.074760   -6.941570   -0.412650
  C     16.550090   -8.110780    0.135450
  C     16.993380   -8.076960    1.464360
  C     17.062770   -6.855540    2.141110
  C     16.607630   -5.681120    1.565280
  C     16.067060   -5.735540    0.299810
  C     17.272560   -9.322240    2.146470
  C     16.820270   -9.591200    3.397620
  C     16.895320  -10.824400    4.108340
  C     16.156280  -10.860250    5.248840
  C     15.464010   -9.659130    5.524030
  S     15.834920   -8.450400    4.316360
  C     14.577070   -9.375820    6.545270
  C     14.138810  -10.190840    7.604470
  C     13.224540   -9.587690    8.425480
  C     12.892740   -8.270650    8.058810
  S     13.789890   -7.813430    6.622590
  C     12.005410   -7.413030    8.688160
  C     11.719890   -6.132660    8.249690
  C     10.851840   -5.250520    8.869770
  C     10.530720   -3.947370    8.442810
  C      9.650610   -3.290000    9.254260
  C      9.231790   -4.044230   10.370340
  S      9.989280   -5.624440   10.348740
  C      8.367030   -3.662980   11.376190
  C      7.699530   -2.417950   11.511530
  C      6.917330   -2.319610   12.612250
  C      6.907180   -3.491610   13.436670
  S      7.956890   -4.719500   12.711260
  C      6.237670   -3.687160   14.582490
  H     25.401880  -17.911510   -6.207080
  H     24.610340  -18.674470   -4.732890
  H     24.524650  -15.513170   -6.971090
  H     22.787230  -13.744910   -6.277770
  H     21.095590  -12.487680   -5.253170
  H     19.218360  -11.588560   -3.738270
  H     17.836150  -12.233310   -1.652850
  H     18.580630  -14.978580   -0.490040
  H     17.179000  -15.572580    1.630050
  H     15.334410  -14.594340    3.143600
  H     13.752250  -13.131160    4.251830
  H     12.306590  -11.129510    4.988740
  H     11.970900   -8.607280    4.379570
  H     13.110400   -6.346920    4.176530
  H     12.823470   -6.878100   -0.758530
  H     12.217070   -8.734720    0.739710
  H     13.320300   -3.855290   -0.482750
  H     14.769040   -2.807270    3.818370
  H     14.608470   -4.450280    4.495510
  H     12.323090   -2.470480    3.988520
  H     12.985570   -2.908840    5.567100
  H     12.109970   -4.111120    4.606600
  H     15.839670   -3.789900   -0.683890
  H     15.380820   -7.445050   -2.357630
  H     16.510360   -9.046710   -0.400340
  H     17.490990   -6.826170    3.130810
  H     16.658200   -4.749470    2.107450
  H     17.740310  -10.120100    1.587090
  H     17.472630  -11.648870    3.728010
  H     16.071010  -11.720830    5.888570
  H     14.502830  -11.194100    7.736340
  H     12.779240  -10.057900    9.284830
  H     11.509350   -7.778310    9.578220
  H     12.211850   -5.779550    7.351440
  H     10.956630   -3.529890    7.547060
  H      9.298830   -2.289610    9.077700
  H      7.823280   -1.634110   10.785340
  H      6.338290   -1.454010   12.880790
  H      5.613240   -2.912710   14.991450
  H      6.305380   -4.611070   15.126470

 Total Charge           Charge          ....    0
 Multiplicity           Mult            ....    1
 Number of Electrons    NEL             ....  546
 Basis Dimension        Dim             .... 1212

ORBITAL ENERGIES
----------------

  NO   OCC          E(Eh)            E(eV)
   0   2.0000     -88.943897     -2420.2865
   1   2.0000     -88.943714     -2420.2815
   2   2.0000     -88.939162     -2420.1576
   3   2.0000     -88.939066     -2420.1550
   4   2.0000     -88.937428     -2420.1105
   5   2.0000     -88.936484     -2420.0848
   6   2.0000     -88.934789     -2420.0386
   7   2.0000     -88.934627     -2420.0342
   8   2.0000     -19.185454      -522.0628
   9   2.0000     -19.184871      -522.0469
  10   2.0000     -14.445988      -393.0953
  11   2.0000     -14.444674      -393.0596
  12   2.0000     -10.371846      -282.2323
  13   2.0000     -10.367570      -282.1159
  14   2.0000     -10.310705      -280.5685
  15   2.0000     -10.306651      -280.4582
  16   2.0000     -10.305367      -280.4233
  17   2.0000     -10.305244      -280.4199
  18   2.0000     -10.305202      -280.4188
  19   2.0000     -10.304906      -280.4107
  20   2.0000     -10.304548      -280.4010
  21   2.0000     -10.304465      -280.3987
  22   2.0000     -10.304430      -280.3978
  23   2.0000     -10.304240      -280.3926
  24   2.0000     -10.303697      -280.3779
  25   2.0000     -10.302705      -280.3509
  26   2.0000     -10.302606      -280.3482
  27   2.0000     -10.302487      -280.3449
  28   2.0000     -10.302406      -280.3427
  29   2.0000     -10.301189      -280.3096
  30   2.0000     -10.301137      -280.3082
  31   2.0000     -10.299713      -280.2694
  32   2.0000     -10.299666      -280.2682
  33   2.0000     -10.288461      -279.9632
  34   2.0000     -10.288275      -279.9582
  35   2.0000     -10.285170      -279.8737
  36   2.0000     -10.285125      -279.8725
  37   2.0000     -10.284462      -279.8544
  38   2.0000     -10.284239      -279.8484
  39   2.0000     -10.282832      -279.8101
  40   2.0000     -10.282521      -279.8016
  41   2.0000     -10.281894      -279.7846
  42   2.0000     -10.281891      -279.7845
  43   2.0000     -10.281394      -279.7710
  44   2.0000     -10.280548      -279.7479
  45   2.0000     -10.280523      -279.7473
  46   2.0000     -10.280490      -279.7464
  47   2.0000     -10.279852      -279.7290
  48   2.0000     -10.279780      -279.7270
  49   2.0000     -10.279185      -279.7108
  50   2.0000     -10.279119      -279.7091
  51   2.0000     -10.278007      -279.6788
  52   2.0000     -10.276147      -279.6282
  53   2.0000     -10.275407      -279.6080
  54   2.0000     -10.275349      -279.6065
  55   2.0000     -10.274768      -279.5907
  56   2.0000     -10.274730      -279.5896
  57   2.0000     -10.273284      -279.5503
  58   2.0000     -10.273262      -279.5497
  59   2.0000     -10.270266      -279.4681
  60   2.0000     -10.269669      -279.4519
  61   2.0000     -10.269463      -279.4463
  62   2.0000     -10.269254      -279.4406
  63   2.0000     -10.268708      -279.4258
  64   2.0000     -10.265957      -279.3509
  65   2.0000     -10.265884      -279.3489
  66   2.0000     -10.265849      -279.3479
  67   2.0000     -10.263178      -279.2753
  68   2.0000     -10.260792      -279.2104
  69   2.0000     -10.260228      -279.1950
  70   2.0000      -8.039490      -218.7656
  71   2.0000      -8.039428      -218.7639
  72   2.0000      -8.035500      -218.6571
  73   2.0000      -8.035440      -218.6554
  74   2.0000      -8.032610      -218.5784
  75   2.0000      -8.031602      -218.5510
  76   2.0000      -8.031441      -218.5466
  77   2.0000      -8.031351      -218.5442
  78   2.0000      -6.009161      -163.5176
  79   2.0000      -6.009113      -163.5163
  80   2.0000      -6.005239      -163.4109
  81   2.0000      -6.005197      -163.4097
  82   2.0000      -6.005190      -163.4095
  83   2.0000      -6.005122      -163.4077
  84   2.0000      -6.002470      -163.3355
  85   2.0000      -6.001469      -163.3083
  86   2.0000      -6.001260      -163.3026
  87   2.0000      -6.001231      -163.3018
  88   2.0000      -6.001201      -163.3010
  89   2.0000      -6.001153      -163.2997
  90   2.0000      -6.000558      -163.2835
  91   2.0000      -6.000524      -163.2826
  92   2.0000      -5.998385      -163.2244
  93   2.0000      -5.997380      -163.1970
  94   2.0000      -5.997339      -163.1959
  95   2.0000      -5.997248      -163.1934
  96   2.0000      -5.996404      -163.1705
  97   2.0000      -5.996346      -163.1689
  98   2.0000      -5.993448      -163.0900
  99   2.0000      -5.992430      -163.0623
 100   2.0000      -5.992047      -163.0519
 101   2.0000      -5.991918      -163.0484
 102   2.0000      -1.129057       -30.7232
 103   2.0000      -1.126261       -30.6471
 104   2.0000      -1.052862       -28.6498
 105   2.0000      -1.046665       -28.4812
 106   2.0000      -0.992844       -27.0167
 107   2.0000      -0.989615       -26.9288
 108   2.0000      -0.987976       -26.8842
 109   2.0000      -0.987427       -26.8693
 110   2.0000      -0.970550       -26.4100
 111   2.0000      -0.968091       -26.3431
 112   2.0000      -0.964673       -26.2501
 113   2.0000      -0.964449       -26.2440
 114   2.0000      -0.949217       -25.8295
 115   2.0000      -0.941424       -25.6174
 116   2.0000      -0.919554       -25.0223
 117   2.0000      -0.901009       -24.5177
 118   2.0000      -0.899472       -24.4759
 119   2.0000      -0.885193       -24.0873
 120   2.0000      -0.875173       -23.8147
 121   2.0000      -0.870380       -23.6842
 122   2.0000      -0.863286       -23.4912
 123   2.0000      -0.860131       -23.4054
 124   2.0000      -0.847470       -23.0608
 125   2.0000      -0.846477       -23.0338
 126   2.0000      -0.839660       -22.8483
 127   2.0000      -0.839647       -22.8480
 128   2.0000      -0.838824       -22.8256
 129   2.0000      -0.833791       -22.6886
 130   2.0000      -0.832304       -22.6481
 131   2.0000      -0.827895       -22.5282
 132   2.0000      -0.816281       -22.2121
 133   2.0000      -0.814897       -22.1745
 134   2.0000      -0.814557       -22.1652
 135   2.0000      -0.813305       -22.1311
 136   2.0000      -0.811100       -22.0712
 137   2.0000      -0.805635       -21.9225
 138   2.0000      -0.795953       -21.6590
 139   2.0000      -0.783648       -21.3241
 140   2.0000      -0.776915       -21.1409
 141   2.0000      -0.755235       -20.5510
 142   2.0000      -0.753078       -20.4923
 143   2.0000      -0.733501       -19.9596
 144   2.0000      -0.728425       -19.8214
 145   2.0000      -0.725466       -19.7409
 146   2.0000      -0.708886       -19.2898
 147   2.0000      -0.702411       -19.1136
 148   2.0000      -0.697713       -18.9857
 149   2.0000      -0.696618       -18.9559
 150   2.0000      -0.684437       -18.6245
 151   2.0000      -0.680489       -18.5170
 152   2.0000      -0.675590       -18.3838
 153   2.0000      -0.670364       -18.2415
 154   2.0000      -0.669441       -18.2164
 155   2.0000      -0.663541       -18.0559
 156   2.0000      -0.656725       -17.8704
 157   2.0000      -0.644669       -17.5423
 158   2.0000      -0.638543       -17.3756
 159   2.0000      -0.633697       -17.2438
 160   2.0000      -0.631440       -17.1824
 161   2.0000      -0.623849       -16.9758
 162   2.0000      -0.621540       -16.9130
 163   2.0000      -0.620211       -16.8768
 164   2.0000      -0.619671       -16.8621
 165   2.0000      -0.615540       -16.7497
 166   2.0000      -0.612271       -16.6607
 167   2.0000      -0.608571       -16.5601
 168   2.0000      -0.603072       -16.4104
 169   2.0000      -0.602343       -16.3906
 170   2.0000      -0.593554       -16.1514
 171   2.0000      -0.593528       -16.1507
 172   2.0000      -0.590354       -16.0644
 173   2.0000      -0.589552       -16.0425
 174   2.0000      -0.589439       -16.0395
 175   2.0000      -0.579714       -15.7748
 176   2.0000      -0.575066       -15.6483
 177   2.0000      -0.569694       -15.5022
 178   2.0000      -0.562152       -15.2969
 179   2.0000      -0.552924       -15.0458
 180   2.0000      -0.552508       -15.0345
 181   2.0000      -0.545501       -14.8438
 182   2.0000      -0.544362       -14.8128
 183   2.0000      -0.541488       -14.7346
 184   2.0000      -0.540845       -14.7171
 185   2.0000      -0.537585       -14.6284
 186   2.0000      -0.531525       -14.4635
 187   2.0000      -0.524214       -14.2646
 188   2.0000      -0.518143       -14.0994
 189   2.0000      -0.515783       -14.0352
 190   2.0000      -0.515483       -14.0270
 191   2.0000      -0.514022       -13.9872
 192   2.0000      -0.512535       -13.9468
 193   2.0000      -0.510118       -13.8810
 194   2.0000      -0.508500       -13.8370
 195   2.0000      -0.503846       -13.7103
 196   2.0000      -0.502532       -13.6746
 197   2.0000      -0.501247       -13.6396
 198   2.0000      -0.500539       -13.6204
 199   2.0000      -0.497353       -13.5337
 200   2.0000      -0.492507       -13.4018
 201   2.0000      -0.491520       -13.3749
 202   2.0000      -0.491503       -13.3745
 203   2.0000      -0.490811       -13.3556
 204   2.0000      -0.490572       -13.3491
 205   2.0000      -0.490356       -13.3433
 206   2.0000      -0.488359       -13.2889
 207   2.0000      -0.486610       -13.2413
 208   2.0000      -0.483221       -13.1491
 209   2.0000      -0.478241       -13.0136
 210   2.0000      -0.477825       -13.0023
 211   2.0000      -0.473883       -12.8950
 212   2.0000      -0.472834       -12.8665
 213   2.0000      -0.469420       -12.7736
 214   2.0000      -0.466899       -12.7050
 215   2.0000      -0.464386       -12.6366
 216   2.0000      -0.463421       -12.6103
 217   2.0000      -0.462126       -12.5751
 218   2.0000      -0.458224       -12.4689
 219   2.0000      -0.457334       -12.4447
 220   2.0000      -0.454621       -12.3709
 221   2.0000      -0.453345       -12.3361
 222   2.0000      -0.452446       -12.3117
 223   2.0000      -0.451703       -12.2915
 224   2.0000      -0.451448       -12.2845
 225   2.0000      -0.450330       -12.2541
 226   2.0000      -0.446855       -12.1595
 227   2.0000      -0.441463       -12.0128
 228   2.0000      -0.436967       -11.8905
 229   2.0000      -0.434568       -11.8252
 230   2.0000      -0.429601       -11.6900
 231   2.0000      -0.429075       -11.6757
 232   2.0000      -0.427491       -11.6326
 233   2.0000      -0.425970       -11.5912
 234   2.0000      -0.425408       -11.5760
 235   2.0000      -0.421418       -11.4674
 236   2.0000      -0.420145       -11.4327
 237   2.0000      -0.415184       -11.2977
 238   2.0000      -0.414028       -11.2663
 239   2.0000      -0.411921       -11.2089
 240   2.0000      -0.408637       -11.1196
 241   2.0000      -0.405252       -11.0275
 242   2.0000      -0.401394       -10.9225
 243   2.0000      -0.397681       -10.8214
 244   2.0000      -0.396405       -10.7867
 245   2.0000      -0.391418       -10.6510
 246   2.0000      -0.390363       -10.6223
 247   2.0000      -0.382617       -10.4115
 248   2.0000      -0.380676       -10.3587
 249   2.0000      -0.374242       -10.1836
 250   2.0000      -0.365152        -9.9363
 251   2.0000      -0.351079        -9.5533
 252   2.0000      -0.348581        -9.4854
 253   2.0000      -0.335947        -9.1416
 254   2.0000      -0.333693        -9.0802
 255   2.0000      -0.332425        -9.0457
 256   2.0000      -0.332396        -9.0450
 257   2.0000      -0.327201        -8.9036
 258   2.0000      -0.325332        -8.8527
 259   2.0000      -0.324148        -8.8205
 260   2.0000      -0.323878        -8.8132
 261   2.0000      -0.318711        -8.6726
 262   2.0000      -0.315137        -8.5753
 263   2.0000      -0.311957        -8.4888
 264   2.0000      -0.308438        -8.3930
 265   2.0000      -0.292464        -7.9584
 266   2.0000      -0.291267        -7.9258
 267   2.0000      -0.275984        -7.5099
 268   2.0000      -0.271504        -7.3880
 269   2.0000      -0.243812        -6.6344
 270   2.0000      -0.241448        -6.5701
 271   2.0000      -0.195155        -5.3104
 272   2.0000      -0.186135        -5.0650
 273   0.0000      -0.087230        -2.3737
 274   0.0000      -0.082374        -2.2415
 275   0.0000      -0.039534        -1.0758
 276   0.0000      -0.032112        -0.8738
 277   0.0000      -0.002128        -0.0579

MULLIKEN ATOMIC CHARGES
-----------------------
   0 C :   -0.030915
   1 C :   -0.064493
   2 C :    0.047515
   3 C :    0.030662
   4 C :   -0.068426
   5 S :    0.078126
   6 C :   -0.044353
   7 C :    0.019119
   8 C :    0.030912
   9 C :   -0.023180
  10 S :    0.074253
  11 C :   -0.017658
  12 C :   -0.010015
  13 C :   -0.026450
  14 C :    0.027825
  15 C :    0.016299
  16 C :   -0.055870
  17 S :    0.050445
  18 C :   -0.043284
  19 C :    0.044096
  20 C :    0.050428
  21 C :   -0.031634
  22 S :    0.067078
  23 C :   -0.017674
  24 C :    0.086078
  25 C :   -0.125357
  26 C :    0.215189
  27 C :   -0.053036
  28 C :   -0.014563
  29 C :   -0.024135
  30 C :    0.052501
  31 C :    0.106791
  32 O :   -0.201569
  33 N :   -0.227963
  34 C :    0.103541
  35 C :   -0.010090
  36 C :    0.012795
  37 C :    0.103294
  38 O :   -0.180617
  39 N :   -0.081353
  40 C :    0.166666
  41 C :   -0.103168
  42 C :    0.072681
  43 C :   -0.021223
  44 C :   -0.012805
  45 C :   -0.047724
  46 C :   -0.008989
  47 C :   -0.037217
  48 C :    0.062040
  49 C :    0.043571
  50 C :   -0.043078
  51 S :    0.057883
  52 C :   -0.043183
  53 C :    0.015360
  54 C :    0.025158
  55 C :   -0.019636
  56 S :    0.036865
  57 C :   -0.009311
  58 C :   -0.020107
  59 C :   -0.019605
  60 C :    0.032992
  61 C :    0.019214
  62 C :   -0.043806
  63 S :    0.073964
  64 C :   -0.068247
  65 C :    0.027470
  66 C :    0.050429
  67 C :   -0.063967
  68 S :    0.077968
  69 C :   -0.031760
  70 H :    0.019595
  71 H :    0.021035
  72 H :   -0.012459
  73 H :   -0.013585
  74 H :   -0.016108
  75 H :   -0.018585
  76 H :   -0.016945
  77 H :   -0.009768
  78 H :   -0.015586
  79 H :   -0.019214
  80 H :   -0.022402
  81 H :   -0.009120
  82 H :   -0.000043
  83 H :   -0.053461
  84 H :   -0.019121
  85 H :   -0.015599
  86 H :    0.051253
  87 H :    0.040320
  88 H :    0.024914
  89 H :    0.027373
  90 H :    0.027130
  91 H :    0.024463
  92 H :    0.052624
  93 H :    0.121572
  94 H :   -0.052590
  95 H :   -0.011224
  96 H :   -0.017169
  97 H :   -0.002148
  98 H :   -0.007146
  99 H :   -0.021772
 100 H :   -0.019951
 101 H :   -0.015253
 102 H :   -0.009375
 103 H :   -0.018151
 104 H :   -0.024091
 105 H :   -0.016793
 106 H :   -0.011963
 107 H :   -0.013025
 108 H :    0.019056
 109 H :    0.020570
Sum of atomic charges:   -0.0000000

LOEWDIN ATOMIC CHARGES
----------------------
   0 C :   -0.079499
   1 C :   -0.139230
   2 C :   -0.034985
   3 C :   -0.027075
   4 C :   -0.179858
   5 S :    0.351370
   6 C :   -0.179689
   7 C :   -0.036519
   8 C :   -0.037869
   9 C :   -0.147322
  10 S :    0.368826
  11 C :   -0.068556
  12 C :   -0.067235
  13 C :   -0.149277
  14 C :   -0.041444
  15 C :   -0.040123
  16 C :   -0.188479
  17 S :    0.370669
  18 C :   -0.174174
  19 C :   -0.037470
  20 C :   -0.021834
  21 C :   -0.143322
  22 S :    0.389315
  23 C :   -0.038379
  24 C :   -0.019749
  25 C :   -0.051924
  26 C :    0.036467
  27 C :   -0.041320
  28 C :   -0.013487
  29 C :   -0.045186
  30 C :   -0.019536
  31 C :    0.075510
  32 O :   -0.197451
  33 N :   -0.005433
  34 C :    0.040337
  35 C :   -0.062650
  36 C :   -0.022466
  37 C :    0.073533
  38 O :   -0.190312
  39 N :    0.023292
  40 C :    0.032403
  41 C :   -0.047723
  42 C :   -0.019112
  43 C :   -0.047052
  44 C :   -0.012376
  45 C :   -0.043000
  46 C :   -0.039681
  47 C :   -0.142059
  48 C :   -0.021591
  49 C :   -0.034954
  50 C :   -0.173696
  51 S :    0.392656
  52 C :   -0.188482
  53 C :   -0.039328
  54 C :   -0.042591
  55 C :   -0.149342
  56 S :    0.374847
  57 C :   -0.067218
  58 C :   -0.069440
  59 C :   -0.147085
  60 C :   -0.038831
  61 C :   -0.036426
  62 C :   -0.179670
  63 S :    0.369107
  64 C :   -0.179594
  65 C :   -0.027308
  66 C :   -0.034808
  67 C :   -0.139324
  68 S :    0.351409
  69 C :   -0.079309
  70 H :    0.028181
  71 H :    0.025685
  72 H :    0.032737
  73 H :    0.031846
  74 H :    0.030440
  75 H :    0.031628
  76 H :    0.023941
  77 H :    0.028096
  78 H :    0.032915
  79 H :    0.029866
  80 H :    0.027589
  81 H :    0.033990
  82 H :    0.028765
  83 H :    0.016752
  84 H :    0.030255
  85 H :    0.020767
  86 H :    0.054061
  87 H :    0.034966
  88 H :    0.024452
  89 H :    0.031813
  90 H :    0.028331
  91 H :    0.023405
  92 H :    0.054170
  93 H :    0.087998
  94 H :    0.023602
  95 H :    0.021138
  96 H :    0.031829
  97 H :    0.025385
  98 H :    0.034559
  99 H :    0.027754
 100 H :    0.029802
 101 H :    0.032863
 102 H :    0.028197
 103 H :    0.023860
 104 H :    0.031700
 105 H :    0.030357
 106 H :    0.032085
 107 H :    0.032684
 108 H :    0.028112
 109 H :    0.025536

  Mayer bond orders larger than 0.100000
B(  0-C ,  1-C ) :   1.8559 B(  0-C , 70-H ) :   0.9507 B(  0-C , 71-H ) :   0.9414
B(  1-C ,  2-C ) :   1.0862 B(  1-C ,  5-S ) :   1.0087 B(  2-C ,  3-C ) :   1.6473
B(  2-C , 72-H ) :   0.9934 B(  3-C ,  4-C ) :   1.1665 B(  3-C , 73-H ) :   0.9919
B(  4-C ,  5-S ) :   1.0469 B(  4-C ,  6-C ) :   1.5212 B(  6-C ,  7-C ) :   1.1981
B(  6-C , 10-S ) :   1.0416 B(  7-C ,  8-C ) :   1.5624 B(  7-C , 74-H ) :   0.9941
B(  8-C ,  9-C ) :   1.1770 B(  8-C , 75-H ) :   0.9991 B(  9-C , 10-S ) :   1.0413
B(  9-C , 11-C ) :   1.5227 B( 11-C , 12-C ) :   1.2129 B( 11-C , 76-H ) :   0.9702
B( 12-C , 13-C ) :   1.5161 B( 12-C , 77-H ) :   0.9725 B( 13-C , 14-C ) :   1.1832
B( 13-C , 17-S ) :   1.0358 B( 14-C , 15-C ) :   1.5446 B( 14-C , 78-H ) :   0.9999
B( 15-C , 16-C ) :   1.2088 B( 15-C , 79-H ) :   0.9963 B( 16-C , 17-S ) :   1.0368
B( 16-C , 18-C ) :   1.4946 B( 18-C , 19-C ) :   1.1773 B( 18-C , 22-S ) :   1.0526
B( 19-C , 20-C ) :   1.6107 B( 19-C , 80-H ) :   0.9962 B( 20-C , 21-C ) :   1.1072
B( 20-C , 81-H ) :   0.9966 B( 21-C , 22-S ) :   1.0243 B( 21-C , 23-C ) :   1.6962
B( 23-C , 24-C ) :   1.0141 B( 23-C , 82-H ) :   0.9612 B( 24-C , 25-C ) :   1.2890
B( 24-C , 29-C ) :   1.3776 B( 25-C , 26-C ) :   1.3650 B( 25-C , 83-H ) :   1.0078
B( 26-C , 27-C ) :   1.3561 B( 26-C , 33-N ) :   1.0263 B( 27-C , 28-C ) :   1.4613
B( 27-C , 30-C ) :   0.9468 B( 28-C , 29-C ) :   1.3360 B( 28-C , 84-H ) :   0.9919
B( 29-C , 85-H ) :   0.9829 B( 30-C , 31-C ) :   0.9217 B( 30-C , 36-C ) :   1.0249
B( 30-C , 86-H ) :   0.8772 B( 31-C , 32-O ) :   2.1587 B( 31-C , 33-N ) :   1.1394
B( 33-N , 34-C ) :   0.9476 B( 34-C , 35-C ) :   1.1203 B( 34-C , 87-H ) :   0.9345
B( 34-C , 88-H ) :   0.9461 B( 35-C , 89-H ) :   0.9615 B( 35-C , 90-H ) :   0.9671
B( 35-C , 91-H ) :   0.9700 B( 36-C , 37-C ) :   0.9092 B( 36-C , 45-C ) :   0.9485
B( 36-C , 92-H ) :   0.8819 B( 37-C , 38-O ) :   2.2265 B( 37-C , 39-N ) :   1.1327
B( 39-N , 40-C ) :   1.0574 B( 39-N , 93-H ) :   0.9250 B( 40-C , 41-C ) :   1.3685
B( 40-C , 45-C ) :   1.3477 B( 41-C , 42-C ) :   1.2976 B( 41-C , 94-H ) :   1.0117
B( 42-C , 43-C ) :   1.3725 B( 42-C , 46-C ) :   1.0156 B( 43-C , 44-C ) :   1.3406
B( 43-C , 95-H ) :   0.9800 B( 44-C , 45-C ) :   1.4626 B( 44-C , 96-H ) :   0.9936
B( 46-C , 47-C ) :   1.6919 B( 46-C , 97-H ) :   0.9610 B( 47-C , 48-C ) :   1.1159
B( 47-C , 51-S ) :   1.0254 B( 48-C , 49-C ) :   1.6123 B( 48-C , 98-H ) :   0.9943
B( 49-C , 50-C ) :   1.1873 B( 49-C , 99-H ) :   0.9899 B( 50-C , 51-S ) :   1.0484
B( 50-C , 52-C ) :   1.4898 B( 52-C , 53-C ) :   1.2140 B( 52-C , 56-S ) :   1.0350
B( 53-C , 54-C ) :   1.5417 B( 53-C ,100-H ) :   0.9949 B( 54-C , 55-C ) :   1.1831
B( 54-C ,101-H ) :   1.0009 B( 55-C , 56-S ) :   1.0379 B( 55-C , 57-C ) :   1.5116
B( 57-C , 58-C ) :   1.2122 B( 57-C ,102-H ) :   0.9738 B( 58-C , 59-C ) :   1.5216
B( 58-C ,103-H ) :   0.9706 B( 59-C , 60-C ) :   1.1746 B( 59-C , 63-S ) :   1.0421
B( 60-C , 61-C ) :   1.5612 B( 60-C ,104-H ) :   1.0000 B( 61-C , 62-C ) :   1.1999
B( 61-C ,105-H ) :   0.9933 B( 62-C , 63-S ) :   1.0411 B( 62-C , 64-C ) :   1.5199
B( 64-C , 65-C ) :   1.1690 B( 64-C , 68-S ) :   1.0468 B( 65-C , 66-C ) :   1.6462
B( 65-C ,106-H ) :   0.9914 B( 66-C , 67-C ) :   1.0863 B( 66-C ,107-H ) :   0.9929
B( 67-C , 68-S ) :   1.0091 B( 67-C , 69-C ) :   1.8540 B( 69-C ,108-H ) :   0.9509
B( 69-C ,109-H ) :   0.9421

-----------------------------------------------------------------------------
         ABSORPTION SPECTRUM VIA TRANSITION ELECTRIC DIPOLE MOMENTS
-----------------------------------------------------------------------------
State   Energy  Wavelength   fosc         T2         TX        TY        TZ
        (cm-1)    (nm)                  (au**2)     (au)      (au)      (au)
-----------------------------------------------------------------------------
   0    9917.5   1008.3   1.956168162  64.93498   5.04800  -3.58259  -5.15924
   1   10651.1    938.9   0.015960516   0.49332  -0.47363   0.51340   0.07357
   2   12509.0    799.4   0.253434219   6.66987   1.55299  -0.70636  -1.93885
   3   12645.2    790.8   1.300221233  33.85075   4.28049  -2.40976  -3.11789
   4   18246.0    548.1   0.006736844   0.12155   0.01778   0.32015  -0.13690
   5   18940.7    528.0   0.000311176   0.00541   0.06325   0.03748  -0.00192
   6   21525.5    464.6   0.071927947   1.10007   0.05609   0.93051  -0.48070
   7   21874.3    457.2   0.000208109   0.00313  -0.00918   0.01532  -0.05304
   8   22722.3    440.1   0.025256265   0.36592   0.51010  -0.10020  -0.30932
   9   22894.8    436.8   0.018613682   0.26765   0.37173  -0.35185  -0.07532
  10   23702.7    421.9   0.038410486   0.53349  -0.66220   0.16802   0.25836
  11   24169.2    413.7   0.098504739   1.34175  -0.08862  -1.02140   0.53910
  12   26269.5    380.7   0.003305961   0.04143  -0.02467   0.18715  -0.07613
  13   26717.7    374.3   0.017185744   0.21176   0.19644  -0.20852  -0.36013
  14   27125.2    368.7   0.001989296   0.02414   0.13589   0.05894  -0.04694
  15   28249.6    354.0   0.010404977   0.12126   0.00707   0.27780  -0.20985
  16   28507.5    350.8   0.011734198   0.13551  -0.18281   0.27308  -0.16588
  17   28815.3    347.0   0.046749830   0.53411  -0.04760  -0.57399   0.44987
  18   30093.8    332.3   0.000345089   0.00378  -0.01667  -0.01282   0.05773
  19   30219.7    330.9   0.000324961   0.00354   0.00881  -0.05754   0.01231
  20   30433.7    328.6   0.034892358   0.37744   0.00720   0.48138  -0.38167
  21   30724.6    325.5   0.006357765   0.06812   0.08463  -0.22882  -0.09274
  22   31095.1    321.6   0.016772367   0.17757  -0.08361   0.12709   0.39298
  23   31696.3    315.5   0.135874973   1.41126   0.03311  -1.00436   0.63358
  24   31757.3    314.9   0.004147382   0.04299   0.01233  -0.13133   0.15998
  25   31769.8    314.8   0.164491243   1.70453  -0.05714   1.10237  -0.69716
  26   32159.9    310.9   0.042670498   0.43681  -0.06983   0.39308  -0.52670
  27   32374.1    308.9   0.059972535   0.60986   0.02291   0.69494  -0.35552
  28   32516.7    307.5   0.025079504   0.25391  -0.23760   0.02715   0.44354
  29   32571.2    307.0   0.083796532   0.84697  -0.09713   0.78966  -0.46256
  30   32714.5    305.7   0.017371817   0.17482   0.12553   0.26069  -0.30183
  31   32837.6    304.5   0.030436887   0.30514   0.38344  -0.30701  -0.25270
  32   32876.1    304.2   0.002847803   0.02852   0.08647   0.11613  -0.08691
  33   33037.6    302.7   0.053923728   0.53734  -0.08969  -0.36920   0.62688
  34   33119.4    301.9   0.048091463   0.47804   0.22326  -0.54582  -0.36093
  35   33328.9    300.0   0.144170084   1.42407  -0.02922   1.01855  -0.62111
  36   33430.7    299.1   0.001363193   0.01342  -0.05323  -0.07383   0.07169
  37   34054.0    293.7   0.031822751   0.30764  -0.05398   0.52405  -0.17348
  38   34133.0    293.0   0.018736789   0.18072  -0.16093   0.28043   0.27600
  39   34341.0    291.2   0.162290345   1.55580  -0.03683  -0.95320   0.80365
  40   35252.1    283.7   0.003821357   0.03569  -0.03694   0.11322   0.14664
  41   35452.5    282.1   0.013412940   0.12455  -0.05162  -0.27448   0.21575
  42   35656.0    280.5   0.001164396   0.01075   0.07929  -0.06165  -0.02575
  43   35763.7    279.6   0.056054116   0.51599  -0.57623  -0.25758   0.34294
  44   35906.7    278.5   0.025755095   0.23614   0.09078  -0.38400   0.28362
  45   36050.8    277.4   0.115830587   1.05775  -0.36537   0.94769  -0.16167
  46   36149.5    276.6   0.029921365   0.27249   0.08921   0.21675  -0.46643
  47   36447.9    274.4   0.023947103   0.21630   0.27480  -0.05961  -0.37045
  48   36839.0    271.5   0.055944967   0.49995   0.24787   0.18689  -0.63528
  49   37172.9    269.0   0.012458297   0.11033   0.10174  -0.31150   0.05429
  50   37502.3    266.7   0.006309468   0.05539   0.09118  -0.04994  -0.21114
  51   37725.9    265.1   0.048571245   0.42385  -0.32014   0.21264   0.52549
  52   37751.2    264.9   0.037433376   0.32644   0.30125  -0.48509   0.01941
  53   37871.3    264.1   0.047852517   0.41598   0.09250  -0.59562   0.22949
  54   38674.4    258.6   0.041463684   0.35296   0.00314  -0.45076   0.38699
  55   38994.8    256.4   0.008131587   0.06865   0.25792  -0.01226  -0.04448
  56   39029.8    256.2   0.002355970   0.01987  -0.06092  -0.02640   0.12435
  57   39103.5    255.7   0.011159851   0.09395   0.19150   0.17329  -0.16508
  58   39183.4    255.2   0.034129322   0.28675  -0.14328   0.37041   0.35919
  59   39474.0    253.3   0.056690959   0.47280   0.46161  -0.31813  -0.39813
  60   39813.8    251.2   0.004733213   0.03914   0.01674   0.03138  -0.19461
  61   39975.6    250.2   0.025295906   0.20832  -0.26550   0.26274   0.26229
  62   40218.2    248.6   0.023000927   0.18828  -0.28129   0.06299   0.32433

FINAL SINGLE POINT ENERGY     -5675.466822988525

DIPOLE MOMENT
-------------
                                X             Y             Z
Electronic contribution:      4.49659     -15.60748      -6.36803
Nuclear contribution   :     -4.38188      14.24835       7.37511
                        -----------------------------------------
Total Dipole Moment    :      0.11471      -1.35913       1.00708
                        -----------------------------------------
Magnitude (a.u.)       :      1.69547
Magnitude (Debye)      :      4.30954

Rotational constants in cm-1:     0.001885     0.000293     0.000265
Rotational constants in MHz :    56.524512     8.797936     7.937828

                             ****ORCA TERMINATED NORMALLY****
TOTAL RUN TIME: 0 days 0 hours 21 minutes 27 seconds 463 msec
