                         Program Version 4.2.0 -  RELEASE  -
|  1> # ORCA input file
|  2> # SCF done       -146.534295204734          0.000343839323
|  3> ! CAM-B3LYP def2-SVP def2/J RIJCOSX Grid4 TightSCF
|  4> %maxcore 5000
|  5> %tddft
|  6>     Mode sTDDFT
|  7>     Ethresh 5.0
|  8>     maxcore 5000
|  9> end
| 10>
| 11> %pal
| 12>   nprocs 6
| 13>   end
| 14> * xyz 0 1
| 15>    C        3.80669         5.25134         4.03563
| 16>    C        3.07081         4.16332         4.29860
| 17>    C        1.66675         4.10251         4.59165
| 18>    C        1.19800         2.85777         4.82494
| 19>    C        2.18250         1.83221         4.73945
| 20>    S        3.74297         2.52449         4.33649
| 21>    C        2.00557         0.48783         4.94827
| 22>    C        0.80821        -0.18881         5.29874
| 23>    C        0.96131        -1.52442         5.47433
| 24>    C        2.28877        -1.99662         5.27507
| 25>    S        3.33341        -0.65723         4.82792
| 26>    C        2.70185        -3.28783         5.43601
| 27>    C        4.00007        -3.80691         5.27338
| 28>    S        5.38246        -2.89061         4.69914
| 29>    C        6.43673        -4.24634         4.83757
| 30>    C        5.78506        -5.35246         5.30045
| 31>    C        4.40567        -5.09927         5.54022
| 32>    S        3.52247        -6.47915         6.15752
| 33>    C        4.99732        -7.42006         6.12868
| 34>    C        6.13249        -6.70423         5.63956
| 35>    C        7.26200        -7.46503         5.64402
| 36>    S        6.96394        -9.05144         6.24759
| 37>    C        5.26660        -8.70934         6.51265
| 38>    C        4.39350        -9.67836         7.07302
| 39>    S        2.67330        -9.37788         7.21932
| 40>    C        2.39891       -10.90092         7.97594
| 41>    C        3.55269       -11.61088         8.11371
| 42>    C        4.68532       -10.91395         7.59264
| 43>    S        6.19721       -11.78313         7.76026
| 44>    C        5.34191       -13.08741         8.55946
| 45>    C        3.93496       -12.87451         8.67723
| 46>    C        3.30721       -13.90240         9.31362
| 47>    S        4.41273       -15.13647         9.78156
| 48>    C        5.77792       -14.26592         9.10908
| 49>    C        7.09148       -14.79927         9.17981
| 50>    S        8.45252       -14.03534         8.38532
| 51>    C        9.54496       -15.25219         8.93190
| 52>    C        8.91393       -16.19664         9.68405
| 53>    C        7.51967       -15.93233         9.82338
| 54>    S        6.66806       -17.10227        10.80292
| 55>    C        8.15276       -18.00728        11.01756
| 56>    C        9.28125       -17.39210        10.38963
| 57>    C       10.44724       -18.05628        10.62580
| 58>    S       10.19513       -19.43128        11.62474
| 59>    C        8.45831       -19.14519        11.73658
| 60>    C        7.71113       -20.04968        12.52434
| 61>    C        6.36243       -20.26075        12.57861
| 62>    C        5.72583       -21.15502        13.48774
| 63>    C        4.37606       -21.21285        13.37440
| 64>    C        3.84897       -20.37821        12.35536
| 65>    S        5.15178       -19.53423        11.53542
| 66>    C        2.53709       -20.18978        12.00156
| 67>    C        1.38707       -20.81437        12.56213
| 68>    C        0.21664       -20.42248        12.01406
| 69>    C        0.34763       -19.45033        10.96575
| 70>    S        2.06338       -19.07435        10.73263
| 71>    C       -0.63116       -18.88507        10.24660
| 72>    H        3.35765         6.22887         4.02544
| 73>    H        4.85906         5.18555         3.82921
| 74>    H        1.07294         4.99922         4.61595
| 75>    H        0.17342         2.62997         5.06079
| 76>    H       -0.12403         0.33421         5.41538
| 77>    H        0.17002        -2.20035         5.74746
| 78>    H        1.95742        -4.01206         5.74445
| 79>    H        7.46927        -4.14266         4.57271
| 80>    H        8.25123        -7.19539         5.33514
| 81>    H        1.40648       -11.17254         8.27260
| 82>    H        2.26631       -14.01245         9.54004
| 83>    H       10.57945       -15.19047         8.66204
| 84>    H       11.43270       -17.82003        10.27929
| 85>    H        8.31012       -20.68399        13.16677
| 86>    H        6.30117       -21.71199        14.20660
| 87>    H        3.74147       -21.82038        13.99452
| 88>    H        1.47486       -21.53472        13.35625
| 89>    H       -0.75312       -20.78286        12.30868
| 90>    H       -1.66071       -19.14346        10.42107
| 91>    H       -0.42319       -18.16321         9.47840
| 92> *
| 93>
| 94>                          ****END OF INPUT****

CARTESIAN COORDINATES (ANGSTROEM)
---------------------------------
  C      3.806690    5.251340    4.035630
  C      3.070810    4.163320    4.298600
  C      1.666750    4.102510    4.591650
  C      1.198000    2.857770    4.824940
  C      2.182500    1.832210    4.739450
  S      3.742970    2.524490    4.336490
  C      2.005570    0.487830    4.948270
  C      0.808210   -0.188810    5.298740
  C      0.961310   -1.524420    5.474330
  C      2.288770   -1.996620    5.275070
  S      3.333410   -0.657230    4.827920
  C      2.701850   -3.287830    5.436010
  C      4.000070   -3.806910    5.273380
  S      5.382460   -2.890610    4.699140
  C      6.436730   -4.246340    4.837570
  C      5.785060   -5.352460    5.300450
  C      4.405670   -5.099270    5.540220
  S      3.522470   -6.479150    6.157520
  C      4.997320   -7.420060    6.128680
  C      6.132490   -6.704230    5.639560
  C      7.262000   -7.465030    5.644020
  S      6.963940   -9.051440    6.247590
  C      5.266600   -8.709340    6.512650
  C      4.393500   -9.678360    7.073020
  S      2.673300   -9.377880    7.219320
  C      2.398910  -10.900920    7.975940
  C      3.552690  -11.610880    8.113710
  C      4.685320  -10.913950    7.592640
  S      6.197210  -11.783130    7.760260
  C      5.341910  -13.087410    8.559460
  C      3.934960  -12.874510    8.677230
  C      3.307210  -13.902400    9.313620
  S      4.412730  -15.136470    9.781560
  C      5.777920  -14.265920    9.109080
  C      7.091480  -14.799270    9.179810
  S      8.452520  -14.035340    8.385320
  C      9.544960  -15.252190    8.931900
  C      8.913930  -16.196640    9.684050
  C      7.519670  -15.932330    9.823380
  S      6.668060  -17.102270   10.802920
  C      8.152760  -18.007280   11.017560
  C      9.281250  -17.392100   10.389630
  C     10.447240  -18.056280   10.625800
  S     10.195130  -19.431280   11.624740
  C      8.458310  -19.145190   11.736580
  C      7.711130  -20.049680   12.524340
  C      6.362430  -20.260750   12.578610
  C      5.725830  -21.155020   13.487740
  C      4.376060  -21.212850   13.374400
  C      3.848970  -20.378210   12.355360
  S      5.151780  -19.534230   11.535420
  C      2.537090  -20.189780   12.001560
  C      1.387070  -20.814370   12.562130
  C      0.216640  -20.422480   12.014060
  C      0.347630  -19.450330   10.965750
  S      2.063380  -19.074350   10.732630
  C     -0.631160  -18.885070   10.246600
  H      3.357650    6.228870    4.025440
  H      4.859060    5.185550    3.829210
  H      1.072940    4.999220    4.615950
  H      0.173420    2.629970    5.060790
  H     -0.124030    0.334210    5.415380
  H      0.170020   -2.200350    5.747460
  H      1.957420   -4.012060    5.744450
  H      7.469270   -4.142660    4.572710
  H      8.251230   -7.195390    5.335140
  H      1.406480  -11.172540    8.272600
  H      2.266310  -14.012450    9.540040
  H     10.579450  -15.190470    8.662040
  H     11.432700  -17.820030   10.279290
  H      8.310120  -20.683990   13.166770
  H      6.301170  -21.711990   14.206600
  H      3.741470  -21.820380   13.994520
  H      1.474860  -21.534720   13.356250
  H     -0.753120  -20.782860   12.308680
  H     -1.660710  -19.143460   10.421070
  H     -0.423190  -18.163210    9.478400

 Total Charge           Charge          ....    0
 Multiplicity           Mult            ....    1
 Number of Electrons    NEL             ....  492
 Basis Dimension        Dim             ....  950

ORBITAL ENERGIES
----------------

  NO   OCC          E(Eh)            E(eV)
   0   2.0000     -88.955783     -2420.6099
   1   2.0000     -88.955527     -2420.6030
   2   2.0000     -88.954673     -2420.5797
   3   2.0000     -88.953843     -2420.5571
   4   2.0000     -88.952399     -2420.5178
   5   2.0000     -88.952013     -2420.5073
   6   2.0000     -88.944407     -2420.3004
   7   2.0000     -88.944061     -2420.2909
   8   2.0000     -88.941619     -2420.2245
   9   2.0000     -88.937724     -2420.1185
  10   2.0000     -88.936166     -2420.0761
  11   2.0000     -88.932331     -2419.9718
  12   2.0000     -88.932201     -2419.9682
  13   2.0000     -10.305449      -280.4255
  14   2.0000     -10.305008      -280.4135
  15   2.0000     -10.303934      -280.3843
  16   2.0000     -10.303703      -280.3780
  17   2.0000     -10.303400      -280.3698
  18   2.0000     -10.303160      -280.3632
  19   2.0000     -10.302770      -280.3526
  20   2.0000     -10.302336      -280.3408
  21   2.0000     -10.301910      -280.3292
  22   2.0000     -10.301856      -280.3278
  23   2.0000     -10.301316      -280.3131
  24   2.0000     -10.301026      -280.3052
  25   2.0000     -10.300675      -280.2956
  26   2.0000     -10.298211      -280.2286
  27   2.0000     -10.296981      -280.1951
  28   2.0000     -10.295379      -280.1515
  29   2.0000     -10.295038      -280.1422
  30   2.0000     -10.294253      -280.1209
  31   2.0000     -10.293917      -280.1117
  32   2.0000     -10.293131      -280.0903
  33   2.0000     -10.292955      -280.0856
  34   2.0000     -10.292605      -280.0760
  35   2.0000     -10.292590      -280.0756
  36   2.0000     -10.291827      -280.0549
  37   2.0000     -10.291697      -280.0513
  38   2.0000     -10.290949      -280.0310
  39   2.0000     -10.284587      -279.8578
  40   2.0000     -10.284452      -279.8542
  41   2.0000     -10.281625      -279.7772
  42   2.0000     -10.281546      -279.7751
  43   2.0000     -10.281190      -279.7654
  44   2.0000     -10.280790      -279.7545
  45   2.0000     -10.280675      -279.7514
  46   2.0000     -10.280627      -279.7501
  47   2.0000     -10.279935      -279.7313
  48   2.0000     -10.279799      -279.7276
  49   2.0000     -10.279379      -279.7161
  50   2.0000     -10.279358      -279.7156
  51   2.0000     -10.279301      -279.7140
  52   2.0000     -10.279194      -279.7111
  53   2.0000     -10.279011      -279.7061
  54   2.0000     -10.278556      -279.6937
  55   2.0000     -10.264442      -279.3097
  56   2.0000     -10.264366      -279.3076
  57   2.0000      -8.050879      -219.0756
  58   2.0000      -8.050595      -219.0678
  59   2.0000      -8.049807      -219.0464
  60   2.0000      -8.048945      -219.0229
  61   2.0000      -8.047682      -218.9886
  62   2.0000      -8.047352      -218.9796
  63   2.0000      -8.039282      -218.7600
  64   2.0000      -8.039141      -218.7562
  65   2.0000      -8.036362      -218.6805
  66   2.0000      -8.033782      -218.6103
  67   2.0000      -8.032428      -218.5735
  68   2.0000      -8.028985      -218.4798
  69   2.0000      -8.028908      -218.4777
  70   2.0000      -6.020474      -163.8254
  71   2.0000      -6.020181      -163.8175
  72   2.0000      -6.019381      -163.7957
  73   2.0000      -6.018512      -163.7720
  74   2.0000      -6.017129      -163.7344
  75   2.0000      -6.016839      -163.7265
  76   2.0000      -6.015975      -163.7030
  77   2.0000      -6.015678      -163.6949
  78   2.0000      -6.014889      -163.6735
  79   2.0000      -6.014018      -163.6498
  80   2.0000      -6.012844      -163.6178
  81   2.0000      -6.012821      -163.6172
  82   2.0000      -6.012565      -163.6102
  83   2.0000      -6.012404      -163.6058
  84   2.0000      -6.011759      -163.5883
  85   2.0000      -6.010891      -163.5647
  86   2.0000      -6.009633      -163.5304
  87   2.0000      -6.009456      -163.5256
  88   2.0000      -6.009447      -163.5254
  89   2.0000      -6.009232      -163.5195
  90   2.0000      -6.006491      -163.4449
  91   2.0000      -6.005350      -163.4139
  92   2.0000      -6.005215      -163.4102
  93   2.0000      -6.003649      -163.3676
  94   2.0000      -6.002304      -163.3310
  95   2.0000      -6.002214      -163.3286
  96   2.0000      -5.999547      -163.2560
  97   2.0000      -5.999543      -163.2559
  98   2.0000      -5.999502      -163.2547
  99   2.0000      -5.998828      -163.2364
 100   2.0000      -5.998748      -163.2342
 101   2.0000      -5.998178      -163.2187
 102   2.0000      -5.996670      -163.1777
 103   2.0000      -5.994922      -163.1301
 104   2.0000      -5.994848      -163.1281
 105   2.0000      -5.994501      -163.1187
 106   2.0000      -5.993096      -163.0804
 107   2.0000      -5.989470      -162.9818
 108   2.0000      -5.989388      -162.9795
 109   2.0000      -1.012032       -27.5388
 110   2.0000      -1.007136       -27.4056
 111   2.0000      -1.001121       -27.2419
 112   2.0000      -0.986980       -26.8571
 113   2.0000      -0.986155       -26.8346
 114   2.0000      -0.980644       -26.6847
 115   2.0000      -0.972234       -26.4558
 116   2.0000      -0.964996       -26.2589
 117   2.0000      -0.961629       -26.1673
 118   2.0000      -0.960107       -26.1258
 119   2.0000      -0.913192       -24.8492
 120   2.0000      -0.911248       -24.7963
 121   2.0000      -0.909830       -24.7577
 122   2.0000      -0.888431       -24.1754
 123   2.0000      -0.888035       -24.1647
 124   2.0000      -0.875352       -23.8195
 125   2.0000      -0.865685       -23.5565
 126   2.0000      -0.858783       -23.3687
 127   2.0000      -0.852754       -23.2046
 128   2.0000      -0.839423       -22.8418
 129   2.0000      -0.839056       -22.8319
 130   2.0000      -0.830633       -22.6027
 131   2.0000      -0.823989       -22.4219
 132   2.0000      -0.819048       -22.2874
 133   2.0000      -0.815446       -22.1894
 134   2.0000      -0.813660       -22.1408
 135   2.0000      -0.810240       -22.0478
 136   2.0000      -0.795701       -21.6521
 137   2.0000      -0.791242       -21.5308
 138   2.0000      -0.790189       -21.5021
 139   2.0000      -0.787435       -21.4272
 140   2.0000      -0.761638       -20.7252
 141   2.0000      -0.759676       -20.6718
 142   2.0000      -0.756271       -20.5792
 143   2.0000      -0.753603       -20.5066
 144   2.0000      -0.714664       -19.4470
 145   2.0000      -0.714111       -19.4319
 146   2.0000      -0.698148       -18.9976
 147   2.0000      -0.690511       -18.7898
 148   2.0000      -0.688297       -18.7295
 149   2.0000      -0.676998       -18.4221
 150   2.0000      -0.676418       -18.4063
 151   2.0000      -0.667398       -18.1608
 152   2.0000      -0.663880       -18.0651
 153   2.0000      -0.646697       -17.5975
 154   2.0000      -0.644311       -17.5326
 155   2.0000      -0.632951       -17.2235
 156   2.0000      -0.623412       -16.9639
 157   2.0000      -0.620147       -16.8751
 158   2.0000      -0.619481       -16.8569
 159   2.0000      -0.613731       -16.7005
 160   2.0000      -0.607152       -16.5214
 161   2.0000      -0.603829       -16.4310
 162   2.0000      -0.593950       -16.1622
 163   2.0000      -0.593713       -16.1557
 164   2.0000      -0.587828       -15.9956
 165   2.0000      -0.582916       -15.8619
 166   2.0000      -0.579398       -15.7662
 167   2.0000      -0.575902       -15.6711
 168   2.0000      -0.571045       -15.5389
 169   2.0000      -0.560970       -15.2648
 170   2.0000      -0.559958       -15.2372
 171   2.0000      -0.545475       -14.8431
 172   2.0000      -0.541644       -14.7389
 173   2.0000      -0.530150       -14.4261
 174   2.0000      -0.523003       -14.2316
 175   2.0000      -0.519268       -14.1300
 176   2.0000      -0.515703       -14.0330
 177   2.0000      -0.513641       -13.9769
 178   2.0000      -0.509924       -13.8758
 179   2.0000      -0.508936       -13.8488
 180   2.0000      -0.507723       -13.8158
 181   2.0000      -0.505050       -13.7431
 182   2.0000      -0.500107       -13.6086
 183   2.0000      -0.499897       -13.6029
 184   2.0000      -0.498544       -13.5661
 185   2.0000      -0.497332       -13.5331
 186   2.0000      -0.489810       -13.3284
 187   2.0000      -0.488407       -13.2902
 188   2.0000      -0.487927       -13.2772
 189   2.0000      -0.484097       -13.1729
 190   2.0000      -0.477049       -12.9812
 191   2.0000      -0.476807       -12.9746
 192   2.0000      -0.476110       -12.9556
 193   2.0000      -0.469503       -12.7758
 194   2.0000      -0.467914       -12.7326
 195   2.0000      -0.464892       -12.6504
 196   2.0000      -0.463062       -12.6006
 197   2.0000      -0.460979       -12.5439
 198   2.0000      -0.458665       -12.4809
 199   2.0000      -0.458047       -12.4641
 200   2.0000      -0.455729       -12.4010
 201   2.0000      -0.454768       -12.3749
 202   2.0000      -0.451389       -12.2829
 203   2.0000      -0.450905       -12.2697
 204   2.0000      -0.449098       -12.2206
 205   2.0000      -0.446303       -12.1445
 206   2.0000      -0.441589       -12.0163
 207   2.0000      -0.440735       -11.9930
 208   2.0000      -0.426360       -11.6019
 209   2.0000      -0.424813       -11.5597
 210   2.0000      -0.422353       -11.4928
 211   2.0000      -0.420202       -11.4343
 212   2.0000      -0.413409       -11.2494
 213   2.0000      -0.410864       -11.1802
 214   2.0000      -0.406165       -11.0523
 215   2.0000      -0.401792       -10.9333
 216   2.0000      -0.398881       -10.8541
 217   2.0000      -0.396443       -10.7878
 218   2.0000      -0.394081       -10.7235
 219   2.0000      -0.393046       -10.6953
 220   2.0000      -0.391216       -10.6455
 221   2.0000      -0.389854       -10.6085
 222   2.0000      -0.386910       -10.5284
 223   2.0000      -0.382481       -10.4078
 224   2.0000      -0.380925       -10.3655
 225   2.0000      -0.375586       -10.2202
 226   2.0000      -0.372131       -10.1262
 227   2.0000      -0.361890        -9.8475
 228   2.0000      -0.349339        -9.5060
 229   2.0000      -0.343460        -9.3460
 230   2.0000      -0.332343        -9.0435
 231   2.0000      -0.331182        -9.0119
 232   2.0000      -0.323823        -8.8117
 233   2.0000      -0.321165        -8.7393
 234   2.0000      -0.318698        -8.6722
 235   2.0000      -0.313729        -8.5370
 236   2.0000      -0.305157        -8.3037
 237   2.0000      -0.303076        -8.2471
 238   2.0000      -0.285818        -7.7775
 239   2.0000      -0.281814        -7.6685
 240   2.0000      -0.271385        -7.3848
 241   2.0000      -0.270090        -7.3495
 242   2.0000      -0.246809        -6.7160
 243   2.0000      -0.234515        -6.3815
 244   2.0000      -0.210980        -5.7411
 245   2.0000      -0.209786        -5.7086
 246   0.0000      -0.059458        -1.6179
 247   0.0000      -0.059331        -1.6145
 248   0.0000      -0.019102        -0.5198
 249   0.0000      -0.018220        -0.4958
 250   0.0000       0.000903         0.0246

MULLIKEN ATOMIC CHARGES
-----------------------
   0 C :   -0.032238
   1 C :   -0.062347
   2 C :    0.049496
   3 C :    0.030315
   4 C :   -0.069466
   5 S :    0.078345
   6 C :   -0.041592
   7 C :    0.031161
   8 C :    0.034028
   9 C :   -0.030675
  10 S :    0.063750
  11 C :   -0.032051
  12 C :   -0.142869
  13 S :    0.117292
  14 C :   -0.135125
  15 C :    0.125011
  16 C :   -0.008255
  17 S :    0.108325
  18 C :   -0.049372
  19 C :    0.137275
  20 C :   -0.142983
  21 S :    0.127725
  22 C :   -0.151490
  23 C :   -0.152728
  24 S :    0.124630
  25 C :   -0.142483
  26 C :    0.129667
  27 C :   -0.037471
  28 S :    0.110788
  29 C :   -0.035534
  30 C :    0.130853
  31 C :   -0.139934
  32 S :    0.134792
  33 C :   -0.159009
  34 C :   -0.149949
  35 S :    0.128574
  36 C :   -0.144822
  37 C :    0.142430
  38 C :   -0.040016
  39 S :    0.116594
  40 C :    0.008800
  41 C :    0.101039
  42 C :   -0.134681
  43 S :    0.113992
  44 C :   -0.193354
  45 C :    0.004499
  46 C :   -0.025021
  47 C :    0.029527
  48 C :    0.035109
  49 C :   -0.050646
  50 S :    0.079037
  51 C :   -0.067337
  52 C :    0.028248
  53 C :    0.050938
  54 C :   -0.060389
  55 S :    0.075789
  56 C :   -0.036980
  57 H :    0.018296
  58 H :    0.020757
  59 H :   -0.012721
  60 H :   -0.012563
  61 H :   -0.017128
  62 H :   -0.013660
  63 H :   -0.012532
  64 H :    0.013436
  65 H :    0.014012
  66 H :    0.013260
  67 H :    0.014281
  68 H :    0.013382
  69 H :    0.014616
  70 H :   -0.015737
  71 H :   -0.013455
  72 H :   -0.015966
  73 H :   -0.011502
  74 H :   -0.013815
  75 H :    0.018385
  76 H :    0.019443
Sum of atomic charges:    0.0000000

LOEWDIN ATOMIC CHARGES
----------------------
   0 C :   -0.079521
   1 C :   -0.138866
   2 C :   -0.032667
   3 C :   -0.026487
   4 C :   -0.177922
   5 S :    0.348652
   6 C :   -0.179384
   7 C :   -0.036284
   8 C :   -0.031686
   9 C :   -0.151781
  10 S :    0.358173
  11 C :   -0.075096
  12 C :   -0.198866
  13 S :    0.440117
  14 C :   -0.183099
  15 C :   -0.074910
  16 C :   -0.179880
  17 S :    0.360475
  18 C :   -0.186265
  19 C :   -0.070249
  20 C :   -0.183728
  21 S :    0.443773
  22 C :   -0.211207
  23 C :   -0.209906
  24 S :    0.441682
  25 C :   -0.184351
  26 C :   -0.070372
  27 C :   -0.186650
  28 S :    0.358769
  29 C :   -0.187403
  30 C :   -0.072083
  31 C :   -0.184036
  32 S :    0.450812
  33 C :   -0.208995
  34 C :   -0.212490
  35 S :    0.442483
  36 C :   -0.184348
  37 C :   -0.072205
  38 C :   -0.191134
  39 S :    0.375840
  40 C :   -0.183648
  41 C :   -0.072584
  42 C :   -0.181094
  43 S :    0.435273
  44 C :   -0.195021
  45 C :   -0.084498
  46 C :   -0.149680
  47 C :   -0.031678
  48 C :   -0.035341
  49 C :   -0.180316
  50 S :    0.373657
  51 C :   -0.179466
  52 C :   -0.026336
  53 C :   -0.033687
  54 C :   -0.138562
  55 S :    0.347223
  56 C :   -0.082593
  57 H :    0.027952
  58 H :    0.025820
  59 H :    0.032825
  60 H :    0.031850
  61 H :    0.030488
  62 H :    0.033096
  63 H :    0.036779
  64 H :    0.024319
  65 H :    0.024803
  66 H :    0.024614
  67 H :    0.024934
  68 H :    0.024205
  69 H :    0.024813
  70 H :    0.032896
  71 H :    0.032370
  72 H :    0.030650
  73 H :    0.031988
  74 H :    0.032415
  75 H :    0.027686
  76 H :    0.024944

  Mayer bond orders larger than 0.100000
B(  0-C ,  1-C ) :   1.8664 B(  0-C , 57-H ) :   0.9509 B(  0-C , 58-H ) :   0.9416
B(  1-C ,  2-C ) :   1.0767 B(  1-C ,  5-S ) :   1.0079 B(  2-C ,  3-C ) :   1.6649
B(  2-C , 59-H ) :   0.9937 B(  3-C ,  4-C ) :   1.1484 B(  3-C , 60-H ) :   0.9915
B(  4-C ,  5-S ) :   1.0414 B(  4-C ,  6-C ) :   1.5715 B(  6-C ,  7-C ) :   1.1620
B(  6-C , 10-S ) :   1.0320 B(  7-C ,  8-C ) :   1.6180 B(  7-C , 61-H ) :   0.9917
B(  8-C ,  9-C ) :   1.1259 B(  8-C , 62-H ) :   0.9994 B(  9-C , 10-S ) :   1.0286
B(  9-C , 11-C ) :   1.6133 B( 11-C , 12-C ) :   1.1636 B( 11-C , 63-H ) :   0.9636
B( 12-C , 13-S ) :   1.1071 B( 12-C , 16-C ) :   1.5083 B( 13-S , 14-C ) :   1.1471
B( 14-C , 15-C ) :   1.5278 B( 14-C , 64-H ) :   0.9687 B( 15-C , 16-C ) :   1.2584
B( 15-C , 19-C ) :   0.9990 B( 16-C , 17-S ) :   1.0030 B( 17-S , 18-C ) :   1.0104
B( 18-C , 19-C ) :   1.2378 B( 18-C , 22-C ) :   1.5507 B( 19-C , 20-C ) :   1.5479
B( 20-C , 21-S ) :   1.1396 B( 20-C , 65-H ) :   0.9689 B( 21-S , 22-C ) :   1.1330
B( 22-C , 23-C ) :   1.1541 B( 23-C , 24-S ) :   1.1325 B( 23-C , 27-C ) :   1.5492
B( 24-S , 25-C ) :   1.1377 B( 25-C , 26-C ) :   1.5498 B( 25-C , 66-H ) :   0.9690
B( 26-C , 27-C ) :   1.2377 B( 26-C , 30-C ) :   0.9963 B( 27-C , 28-S ) :   1.0044
B( 28-S , 29-C ) :   1.0023 B( 29-C , 30-C ) :   1.2396 B( 29-C , 33-C ) :   1.5475
B( 30-C , 31-C ) :   1.5463 B( 31-C , 32-S ) :   1.1411 B( 31-C , 67-H ) :   0.9695
B( 32-S , 33-C ) :   1.1358 B( 33-C , 34-C ) :   1.1589 B( 34-C , 35-S ) :   1.1321
B( 34-C , 38-C ) :   1.5409 B( 35-S , 36-C ) :   1.1392 B( 36-C , 37-C ) :   1.5446
B( 36-C , 68-H ) :   0.9684 B( 37-C , 38-C ) :   1.2360 B( 37-C , 41-C ) :   1.0052
B( 38-C , 39-S ) :   1.0054 B( 39-S , 40-C ) :   1.0106 B( 40-C , 41-C ) :   1.2380
B( 40-C , 44-C ) :   1.5128 B( 41-C , 42-C ) :   1.5446 B( 42-C , 43-S ) :   1.1449
B( 42-C , 69-H ) :   0.9689 B( 43-S , 44-C ) :   1.1243 B( 44-C , 45-C ) :   1.1311
B( 45-C , 46-C ) :   1.6438 B( 45-C , 70-H ) :   0.9451 B( 46-C , 47-C ) :   1.1237
B( 46-C , 50-S ) :   1.0266 B( 47-C , 48-C ) :   1.6245 B( 47-C , 71-H ) :   0.9978
B( 48-C , 49-C ) :   1.1578 B( 48-C , 72-H ) :   0.9908 B( 49-C , 50-S ) :   1.0372
B( 49-C , 51-C ) :   1.5695 B( 51-C , 52-C ) :   1.1485 B( 51-C , 55-S ) :   1.0392
B( 52-C , 53-C ) :   1.6635 B( 52-C , 73-H ) :   0.9924 B( 53-C , 54-C ) :   1.0792
B( 53-C , 74-H ) :   0.9932 B( 54-C , 55-S ) :   1.0077 B( 54-C , 56-C ) :   1.8624
B( 56-C , 75-H ) :   0.9512 B( 56-C , 76-H ) :   0.9425

-----------------------------------------------------------------------------
         ABSORPTION SPECTRUM VIA TRANSITION ELECTRIC DIPOLE MOMENTS
-----------------------------------------------------------------------------
State   Energy  Wavelength   fosc         T2         TX        TY        TZ
        (cm-1)    (nm)                  (au**2)     (au)      (au)      (au)
-----------------------------------------------------------------------------
   0   18805.2    531.8   0.964832943  16.89075  -3.77318  -1.61322   0.22674
   1   19326.5    517.4   1.652455211  28.14827   1.22668  -5.10115   0.78852
   2   24735.0    404.3   0.261262964   3.47730   1.65747  -0.66360   0.53826
   3   26424.0    378.4   0.011721957   0.14604   0.03097   0.37592   0.06139
   4   26795.6    373.2   0.216398571   2.65868   0.89231  -1.21240   0.62653
   5   27130.7    368.6   0.039253051   0.47631   0.57843  -0.30383   0.22230
   6   27526.6    363.3   0.005904786   0.07062  -0.05135  -0.24760   0.08172
   7   27654.3    361.6   0.114816990   1.36685   0.10652   1.07039  -0.45800
   8   28681.1    348.7   0.021433976   0.24603   0.43497  -0.23538   0.03774
   9   29087.5    343.8   0.141671149   1.60343   0.26530   1.11203  -0.54446
  10   30101.2    332.2   0.163277808   1.78574  -0.88913   0.92965  -0.36185
  11   30388.4    329.1   0.172681629   1.87074   0.52447  -1.15633   0.50850
  12   30750.9    325.2   0.100682456   1.07788   0.76394  -0.63931   0.29252
  13   31855.6    313.9   0.012210133   0.12619   0.21728   0.25339  -0.12152
  14   32261.6    310.0   0.334319582   3.41155   0.41833  -1.39959   1.13035
  15   32575.4    307.0   0.067912870   0.68634  -0.39989   0.39544  -0.60832
  16   32827.4    304.6   0.139055067   1.39453  -1.07869  -0.39768   0.26983
  17   33149.0    301.7   0.150507436   1.49473   1.17698   0.25117  -0.21533
  18   33456.3    298.9   0.111466818   1.09684   1.01431  -0.25804   0.03796
  19   33600.3    297.6   0.025010049   0.24505  -0.44757  -0.02009   0.21052
  20   34206.4    292.3   0.229017176   2.20413  -1.14481  -0.80169   0.50085
  21   34557.5    289.4   0.100545195   0.95784  -0.96639  -0.09689   0.12064
  22   34801.1    287.3   0.112701204   1.06613  -1.00288  -0.12755   0.20998
  23   35028.6    285.5   0.021780657   0.20470   0.36489  -0.26599   0.02844
  24   35516.1    281.6   0.013193695   0.12230   0.19872  -0.21218   0.19439
  25   35747.0    279.7   0.013597711   0.12523   0.34793   0.04820  -0.04299
  26   36046.0    277.4   0.004816363   0.04399   0.16010  -0.11812   0.06637
  27   36724.0    272.3   0.120581961   1.08096   0.99423  -0.28864  -0.09564
  28   37265.6    268.3   0.010148458   0.08965   0.29128   0.01006  -0.06862
  29   37992.0    263.2   0.040634986   0.35211   0.37482   0.35648  -0.29078
  30   38228.4    261.6   0.064586329   0.55620   0.62961   0.26904  -0.29564
  31   38508.5    259.7   0.002257523   0.01930   0.00981   0.12232  -0.06513
  32   38651.6    258.7   0.003472739   0.02958   0.05105  -0.15681   0.04881
  33   39454.1    253.5   0.067444826   0.56277   0.71238   0.09653  -0.21441
  34   39463.9    253.4   0.070753181   0.59023   0.22274   0.63605  -0.36887
  35   39549.9    252.8   0.045242234   0.37659   0.25754   0.46283  -0.30993
  36   39756.2    251.5   0.052369151   0.43366  -0.01015   0.49854  -0.43013
  37   39894.5    250.7   0.032482807   0.26805  -0.49993   0.13454   0.00468
  38   39918.7    250.5   0.088471706   0.72963   0.84235  -0.01119  -0.14126
  39   40016.8    249.9   0.020398902   0.16782   0.16516  -0.35904   0.10786
  40   40165.4    249.0   0.170294475   1.39580  -0.43059  -1.07305   0.24283
  41   40272.5    248.3   0.010221298   0.08356  -0.25421   0.13509  -0.02613

FINAL SINGLE POINT ENERGY     -6861.356885160390

DIPOLE MOMENT
-------------
                                X             Y             Z
Electronic contribution:     24.60581     -15.04715      -3.88036
Nuclear contribution   :    -25.44709      14.80796       4.63159
                        -----------------------------------------
Total Dipole Moment    :     -0.84129      -0.23919       0.75124
                        -----------------------------------------
Magnitude (a.u.)       :      1.15297
Magnitude (Debye)      :      2.93061

Rotational constants in cm-1:     0.002669     0.000252     0.000233
Rotational constants in MHz :    80.005927     7.555108     6.995719

                             ****ORCA TERMINATED NORMALLY****
TOTAL RUN TIME: 0 days 0 hours 6 minutes 12 seconds 686 msec
