                         Program Version 4.2.0 -  RELEASE  -
|  1> # ORCA input file
|  2> # SCF done       -187.356490812018          0.000500820897
|  3> ! CAM-B3LYP def2-SVP def2/J RIJCOSX Grid4 TightSCF
|  4> %maxcore 5000
|  5> %tddft
|  6>     Mode sTDDFT
|  7>     Ethresh 5.0
|  8>     maxcore 5000
|  9> end
| 10>
| 11> %pal
| 12>   nprocs 6
| 13>   end
| 14> * xyz 0 1
| 15>    C       11.96933        -5.75297        -8.70918
| 16>    C       11.40583        -5.22533        -7.61491
| 17>    C       11.98402        -4.28475        -6.69626
| 18>    C       11.17656        -3.93173        -5.67408
| 19>    C        9.89613        -4.55724        -5.69182
| 20>    S        9.76271        -5.61910        -7.08372
| 21>    C        8.88013        -4.39788        -4.78741
| 22>    C        8.86894        -3.59661        -3.61390
| 23>    C        7.71254        -3.65875        -2.91431
| 24>    C        6.71519        -4.51694        -3.47288
| 25>    S        7.34097        -5.22771        -4.95783
| 26>    C        5.46626        -4.66441        -2.95457
| 27>    C        4.35151        -5.44230        -3.38736
| 28>    S        2.78067        -4.70064        -3.12258
| 29>    C        1.98099        -6.04242        -3.81988
| 30>    C        2.84977        -7.01946        -4.20275
| 31>    C        4.20836        -6.69253        -3.95323
| 32>    C        5.29082        -7.70416        -4.15490
| 33>    C        4.85012        -8.79971        -5.12192
| 34>    C        3.50712        -9.37853        -4.69416
| 35>    C        2.41810        -8.31380        -4.84351
| 36>    C        1.10019        -8.72490        -4.21907
| 37>    O        0.02041        -8.55172        -4.71784
| 38>    O        1.28339        -9.27626        -3.00317
| 39>    C        0.17720        -9.59726        -2.26201
| 40>    C        0.28842       -10.29377        -1.12912
| 41>    C       -0.82578       -10.63606        -0.29492
| 42>    C       -0.78362       -11.42926         0.81346
| 43>    C       -2.04219       -11.60170         1.45786
| 44>    C       -3.04872       -10.87406         0.77258
| 45>    S       -2.43507       -10.03581        -0.62335
| 46>    C       -4.38805       -10.79256         1.13289
| 47>    O       -5.12870       -10.01211         0.29594
| 48>    C       -6.49176        -9.77114         0.52915
| 49>    C       -4.77972       -11.50315         2.27895
| 50>    C       -3.77716       -12.24210         2.95636
| 51>    C       -2.43692       -12.32148         2.59752
| 52>    O       -1.69537       -13.10185         3.43405
| 53>    C       -0.34496       -13.38019         3.17011
| 54>    S       -4.39658       -13.08191         4.34701
| 55>    C       -5.99791       -12.44590         4.03918
| 56>    C       -6.03672       -11.65045         2.93340
| 57>    C       -7.08332       -12.78295         4.91389
| 58>    S       -7.06425       -14.29760         5.77330
| 59>    C       -8.56675       -13.93604         6.51394
| 60>    C       -9.05751       -12.72321         6.13299
| 61>    C       -8.20945       -12.05322         5.21490
| 62>    C       -8.51821       -10.67328         4.73025
| 63>    C       -9.44735        -9.97626         5.72093
| 64>    C      -10.69443       -10.82351         5.93835
| 65>    C      -10.35402       -12.14095         6.63930
| 66>    C      -11.42886       -13.17751         6.36970
| 67>    O      -12.08038       -13.26262         5.36317
| 68>    O      -11.53430       -14.02716         7.40922
| 69>    C      -12.41173       -15.07510         7.31821
| 70>    C      -12.53311       -15.95482         8.32474
| 71>    C      -13.42337       -17.05866         8.28502
| 72>    C      -13.55816       -17.97240         9.28601
| 73>    C      -14.43055       -19.09887         9.30139
| 74>    C      -14.35865       -19.84995        10.42656
| 75>    C      -13.42405       -19.37292        11.38487
| 76>    S      -12.64010       -17.92010        10.78877
| 77>    C      -13.12635       -19.91464        12.60872
| 78>    C      -13.68794       -21.08518        13.19660
| 79>    C      -13.19971       -21.38456        14.41890
| 80>    C      -12.20505       -20.46868        14.90290
| 81>    S      -11.94038       -19.20579        13.68957
| 82>    C      -11.55065       -20.51230        16.07058
| 83>    H       12.97086        -5.48363        -8.99478
| 84>    H       11.44609        -6.45388        -9.33330
| 85>    H       12.98385        -3.91754        -6.84687
| 86>    H       11.44853        -3.23949        -4.89679
| 87>    H        9.71913        -3.00344        -3.32830
| 88>    H        7.52322        -3.12002        -2.00228
| 89>    H        5.24174        -4.00705        -2.12126
| 90>    H        0.91316        -6.03363        -3.91538
| 91>    H        5.52928        -8.14958        -3.18255
| 92>    H        6.20089        -7.23497        -4.52463
| 93>    H        5.60566        -9.58644        -5.14345
| 94>    H        4.76678        -8.38531        -6.12854
| 95>    H        3.56283        -9.69819        -3.65229
| 96>    H        3.25091       -10.24566        -5.30573
| 97>    H        2.22270        -8.12868        -5.90696
| 98>    H       -0.76911        -9.25200        -2.65910
| 99>    H        1.26252       -10.62932        -0.80116
|100>    H        0.13981       -11.86783         1.14055
|101>    H       -7.08185       -10.68962         0.45563
|102>    H       -6.79897        -9.08767        -0.26226
|103>    H       -6.65682        -9.29272         1.49923
|104>    H        0.27373       -12.48102         3.24883
|105>    H       -0.21384       -13.84404         2.18806
|106>    H       -0.04333       -14.08710         3.94293
|107>    H       -6.95687       -11.22586         2.58683
|108>    H       -9.00245       -14.63863         7.19643
|109>    H       -9.01430       -10.72668         3.75568
|110>    H       -7.59079       -10.10901         4.60654
|111>    H       -9.72858        -8.99564         5.33413
|112>    H       -8.92901        -9.83107         6.67122
|113>    H      -11.15104       -11.05410         4.97330
|114>    H      -11.42739       -10.27852         6.53556
|115>    H      -10.27687       -12.00344         7.72301
|116>    H      -12.97583       -15.13022         6.39614
|117>    H      -11.92851       -15.82677         9.21224
|118>    H      -14.03299       -17.18320         7.40061
|119>    H      -15.07968       -19.30584         8.46875
|120>    H      -14.94568       -20.73346        10.60323
|121>    H      -14.43704       -21.66303        12.68460
|122>    H      -13.50254       -22.22810        15.01378
|123>    H      -11.74238       -21.29932        16.77843
|124>    H      -10.81870       -19.77202        16.33666
|125> *
|126>
|127>                          ****END OF INPUT****

CARTESIAN COORDINATES (ANGSTROEM)
---------------------------------
  C     11.969330   -5.752970   -8.709180
  C     11.405830   -5.225330   -7.614910
  C     11.984020   -4.284750   -6.696260
  C     11.176560   -3.931730   -5.674080
  C      9.896130   -4.557240   -5.691820
  S      9.762710   -5.619100   -7.083720
  C      8.880130   -4.397880   -4.787410
  C      8.868940   -3.596610   -3.613900
  C      7.712540   -3.658750   -2.914310
  C      6.715190   -4.516940   -3.472880
  S      7.340970   -5.227710   -4.957830
  C      5.466260   -4.664410   -2.954570
  C      4.351510   -5.442300   -3.387360
  S      2.780670   -4.700640   -3.122580
  C      1.980990   -6.042420   -3.819880
  C      2.849770   -7.019460   -4.202750
  C      4.208360   -6.692530   -3.953230
  C      5.290820   -7.704160   -4.154900
  C      4.850120   -8.799710   -5.121920
  C      3.507120   -9.378530   -4.694160
  C      2.418100   -8.313800   -4.843510
  C      1.100190   -8.724900   -4.219070
  O      0.020410   -8.551720   -4.717840
  O      1.283390   -9.276260   -3.003170
  C      0.177200   -9.597260   -2.262010
  C      0.288420  -10.293770   -1.129120
  C     -0.825780  -10.636060   -0.294920
  C     -0.783620  -11.429260    0.813460
  C     -2.042190  -11.601700    1.457860
  C     -3.048720  -10.874060    0.772580
  S     -2.435070  -10.035810   -0.623350
  C     -4.388050  -10.792560    1.132890
  O     -5.128700  -10.012110    0.295940
  C     -6.491760   -9.771140    0.529150
  C     -4.779720  -11.503150    2.278950
  C     -3.777160  -12.242100    2.956360
  C     -2.436920  -12.321480    2.597520
  O     -1.695370  -13.101850    3.434050
  C     -0.344960  -13.380190    3.170110
  S     -4.396580  -13.081910    4.347010
  C     -5.997910  -12.445900    4.039180
  C     -6.036720  -11.650450    2.933400
  C     -7.083320  -12.782950    4.913890
  S     -7.064250  -14.297600    5.773300
  C     -8.566750  -13.936040    6.513940
  C     -9.057510  -12.723210    6.132990
  C     -8.209450  -12.053220    5.214900
  C     -8.518210  -10.673280    4.730250
  C     -9.447350   -9.976260    5.720930
  C    -10.694430  -10.823510    5.938350
  C    -10.354020  -12.140950    6.639300
  C    -11.428860  -13.177510    6.369700
  O    -12.080380  -13.262620    5.363170
  O    -11.534300  -14.027160    7.409220
  C    -12.411730  -15.075100    7.318210
  C    -12.533110  -15.954820    8.324740
  C    -13.423370  -17.058660    8.285020
  C    -13.558160  -17.972400    9.286010
  C    -14.430550  -19.098870    9.301390
  C    -14.358650  -19.849950   10.426560
  C    -13.424050  -19.372920   11.384870
  S    -12.640100  -17.920100   10.788770
  C    -13.126350  -19.914640   12.608720
  C    -13.687940  -21.085180   13.196600
  C    -13.199710  -21.384560   14.418900
  C    -12.205050  -20.468680   14.902900
  S    -11.940380  -19.205790   13.689570
  C    -11.550650  -20.512300   16.070580
  H     12.970860   -5.483630   -8.994780
  H     11.446090   -6.453880   -9.333300
  H     12.983850   -3.917540   -6.846870
  H     11.448530   -3.239490   -4.896790
  H      9.719130   -3.003440   -3.328300
  H      7.523220   -3.120020   -2.002280
  H      5.241740   -4.007050   -2.121260
  H      0.913160   -6.033630   -3.915380
  H      5.529280   -8.149580   -3.182550
  H      6.200890   -7.234970   -4.524630
  H      5.605660   -9.586440   -5.143450
  H      4.766780   -8.385310   -6.128540
  H      3.562830   -9.698190   -3.652290
  H      3.250910  -10.245660   -5.305730
  H      2.222700   -8.128680   -5.906960
  H     -0.769110   -9.252000   -2.659100
  H      1.262520  -10.629320   -0.801160
  H      0.139810  -11.867830    1.140550
  H     -7.081850  -10.689620    0.455630
  H     -6.798970   -9.087670   -0.262260
  H     -6.656820   -9.292720    1.499230
  H      0.273730  -12.481020    3.248830
  H     -0.213840  -13.844040    2.188060
  H     -0.043330  -14.087100    3.942930
  H     -6.956870  -11.225860    2.586830
  H     -9.002450  -14.638630    7.196430
  H     -9.014300  -10.726680    3.755680
  H     -7.590790  -10.109010    4.606540
  H     -9.728580   -8.995640    5.334130
  H     -8.929010   -9.831070    6.671220
  H    -11.151040  -11.054100    4.973300
  H    -11.427390  -10.278520    6.535560
  H    -10.276870  -12.003440    7.723010
  H    -12.975830  -15.130220    6.396140
  H    -11.928510  -15.826770    9.212240
  H    -14.032990  -17.183200    7.400610
  H    -15.079680  -19.305840    8.468750
  H    -14.945680  -20.733460   10.603230
  H    -14.437040  -21.663030   12.684600
  H    -13.502540  -22.228100   15.013780
  H    -11.742380  -21.299320   16.778430
  H    -10.818700  -19.772020   16.336660

 Total Charge           Charge          ....    0
 Multiplicity           Mult            ....    1
 Number of Electrons    NEL             ....  542
 Basis Dimension        Dim             .... 1194

ORBITAL ENERGIES
----------------

  NO   OCC          E(Eh)            E(eV)
   0   2.0000     -88.944413     -2420.3005
   1   2.0000     -88.940699     -2420.1995
   2   2.0000     -88.939183     -2420.1582
   3   2.0000     -88.934706     -2420.0364
   4   2.0000     -88.933948     -2420.0157
   5   2.0000     -88.933470     -2420.0028
   6   2.0000     -88.932337     -2419.9719
   7   2.0000     -88.931300     -2419.9437
   8   2.0000     -19.279276      -524.6158
   9   2.0000     -19.274921      -524.4973
  10   2.0000     -19.239599      -523.5361
  11   2.0000     -19.239220      -523.5258
  12   2.0000     -19.208937      -522.7018
  13   2.0000     -19.206286      -522.6296
  14   2.0000     -10.401709      -283.0449
  15   2.0000     -10.399385      -282.9817
  16   2.0000     -10.328666      -281.0573
  17   2.0000     -10.326520      -280.9989
  18   2.0000     -10.324983      -280.9571
  19   2.0000     -10.324459      -280.9428
  20   2.0000     -10.318853      -280.7903
  21   2.0000     -10.318540      -280.7817
  22   2.0000     -10.304790      -280.4076
  23   2.0000     -10.303671      -280.3771
  24   2.0000     -10.302704      -280.3508
  25   2.0000     -10.302616      -280.3484
  26   2.0000     -10.302342      -280.3410
  27   2.0000     -10.302074      -280.3337
  28   2.0000     -10.300275      -280.2847
  29   2.0000     -10.299643      -280.2675
  30   2.0000     -10.295183      -280.1462
  31   2.0000     -10.292397      -280.0704
  32   2.0000     -10.290738      -280.0252
  33   2.0000     -10.289602      -279.9943
  34   2.0000     -10.285838      -279.8919
  35   2.0000     -10.285186      -279.8741
  36   2.0000     -10.283769      -279.8356
  37   2.0000     -10.282707      -279.8067
  38   2.0000     -10.282161      -279.7918
  39   2.0000     -10.281992      -279.7872
  40   2.0000     -10.281856      -279.7835
  41   2.0000     -10.281689      -279.7790
  42   2.0000     -10.280761      -279.7537
  43   2.0000     -10.280645      -279.7506
  44   2.0000     -10.280133      -279.7366
  45   2.0000     -10.279935      -279.7313
  46   2.0000     -10.279867      -279.7294
  47   2.0000     -10.278847      -279.7016
  48   2.0000     -10.278224      -279.6847
  49   2.0000     -10.275774      -279.6180
  50   2.0000     -10.275653      -279.6147
  51   2.0000     -10.275058      -279.5985
  52   2.0000     -10.273849      -279.5656
  53   2.0000     -10.272764      -279.5361
  54   2.0000     -10.272241      -279.5219
  55   2.0000     -10.270068      -279.4628
  56   2.0000     -10.268664      -279.4246
  57   2.0000     -10.268521      -279.4206
  58   2.0000     -10.265577      -279.3405
  59   2.0000     -10.265439      -279.3368
  60   2.0000     -10.265392      -279.3355
  61   2.0000     -10.264891      -279.3219
  62   2.0000     -10.263146      -279.2744
  63   2.0000     -10.262634      -279.2605
  64   2.0000     -10.261969      -279.2424
  65   2.0000     -10.261455      -279.2284
  66   2.0000     -10.258551      -279.1494
  67   2.0000     -10.257539      -279.1218
  68   2.0000      -8.040371      -218.7896
  69   2.0000      -8.036906      -218.6953
  70   2.0000      -8.034961      -218.6424
  71   2.0000      -8.031118      -218.5378
  72   2.0000      -8.030161      -218.5118
  73   2.0000      -8.029348      -218.4897
  74   2.0000      -8.027979      -218.4524
  75   2.0000      -8.027697      -218.4447
  76   2.0000      -6.009589      -163.5292
  77   2.0000      -6.006144      -163.4355
  78   2.0000      -6.005371      -163.4145
  79   2.0000      -6.004780      -163.3984
  80   2.0000      -6.002662      -163.3407
  81   2.0000      -6.002008      -163.3229
  82   2.0000      -6.000905      -163.2929
  83   2.0000      -6.000783      -163.2896
  84   2.0000      -6.000013      -163.2687
  85   2.0000      -5.999048      -163.2424
  86   2.0000      -5.999000      -163.2411
  87   2.0000      -5.997830      -163.2093
  88   2.0000      -5.997282      -163.1944
  89   2.0000      -5.997019      -163.1872
  90   2.0000      -5.996119      -163.1627
  91   2.0000      -5.995706      -163.1514
  92   2.0000      -5.994884      -163.1291
  93   2.0000      -5.993930      -163.1031
  94   2.0000      -5.993328      -163.0867
  95   2.0000      -5.991754      -163.0439
  96   2.0000      -5.990649      -163.0139
  97   2.0000      -5.990624      -163.0132
  98   2.0000      -5.988998      -162.9689
  99   2.0000      -5.988452      -162.9541
 100   2.0000      -1.207200       -32.8496
 101   2.0000      -1.203960       -32.7614
 102   2.0000      -1.143095       -31.1052
 103   2.0000      -1.141950       -31.0740
 104   2.0000      -1.108604       -30.1667
 105   2.0000      -1.105549       -30.0835
 106   2.0000      -0.987671       -26.8759
 107   2.0000      -0.987410       -26.8688
 108   2.0000      -0.985014       -26.8036
 109   2.0000      -0.977936       -26.6110
 110   2.0000      -0.977381       -26.5959
 111   2.0000      -0.962613       -26.1940
 112   2.0000      -0.962277       -26.1849
 113   2.0000      -0.960351       -26.1325
 114   2.0000      -0.918569       -24.9955
 115   2.0000      -0.916462       -24.9382
 116   2.0000      -0.902508       -24.5585
 117   2.0000      -0.900973       -24.5167
 118   2.0000      -0.884726       -24.0746
 119   2.0000      -0.876498       -23.8507
 120   2.0000      -0.871224       -23.7072
 121   2.0000      -0.864955       -23.5366
 122   2.0000      -0.861658       -23.4469
 123   2.0000      -0.857899       -23.3446
 124   2.0000      -0.844483       -22.9796
 125   2.0000      -0.839265       -22.8376
 126   2.0000      -0.838184       -22.8082
 127   2.0000      -0.833360       -22.6769
 128   2.0000      -0.829724       -22.5779
 129   2.0000      -0.818963       -22.2851
 130   2.0000      -0.817389       -22.2423
 131   2.0000      -0.814924       -22.1752
 132   2.0000      -0.812949       -22.1215
 133   2.0000      -0.809850       -22.0371
 134   2.0000      -0.799167       -21.7464
 135   2.0000      -0.797123       -21.6908
 136   2.0000      -0.789336       -21.4789
 137   2.0000      -0.780987       -21.2517
 138   2.0000      -0.770459       -20.9653
 139   2.0000      -0.759111       -20.6565
 140   2.0000      -0.745211       -20.2782
 141   2.0000      -0.741254       -20.1706
 142   2.0000      -0.731878       -19.9154
 143   2.0000      -0.717186       -19.5156
 144   2.0000      -0.714865       -19.4525
 145   2.0000      -0.710023       -19.3207
 146   2.0000      -0.690275       -18.7833
 147   2.0000      -0.684917       -18.6376
 148   2.0000      -0.679016       -18.4770
 149   2.0000      -0.673315       -18.3218
 150   2.0000      -0.669685       -18.2231
 151   2.0000      -0.666736       -18.1428
 152   2.0000      -0.658711       -17.9244
 153   2.0000      -0.656481       -17.8638
 154   2.0000      -0.649929       -17.6855
 155   2.0000      -0.647098       -17.6084
 156   2.0000      -0.640702       -17.4344
 157   2.0000      -0.636257       -17.3134
 158   2.0000      -0.629622       -17.1329
 159   2.0000      -0.625034       -17.0080
 160   2.0000      -0.623293       -16.9607
 161   2.0000      -0.617858       -16.8128
 162   2.0000      -0.614347       -16.7172
 163   2.0000      -0.610326       -16.6078
 164   2.0000      -0.606448       -16.5023
 165   2.0000      -0.597281       -16.2528
 166   2.0000      -0.596420       -16.2294
 167   2.0000      -0.596198       -16.2234
 168   2.0000      -0.594280       -16.1712
 169   2.0000      -0.591104       -16.0848
 170   2.0000      -0.586065       -15.9476
 171   2.0000      -0.578888       -15.7523
 172   2.0000      -0.575673       -15.6649
 173   2.0000      -0.574139       -15.6231
 174   2.0000      -0.569644       -15.5008
 175   2.0000      -0.561677       -15.2840
 176   2.0000      -0.560480       -15.2514
 177   2.0000      -0.557095       -15.1593
 178   2.0000      -0.553200       -15.0533
 179   2.0000      -0.547317       -14.8932
 180   2.0000      -0.547027       -14.8854
 181   2.0000      -0.546550       -14.8724
 182   2.0000      -0.538226       -14.6459
 183   2.0000      -0.534356       -14.5406
 184   2.0000      -0.533585       -14.5196
 185   2.0000      -0.529115       -14.3980
 186   2.0000      -0.526469       -14.3260
 187   2.0000      -0.520684       -14.1685
 188   2.0000      -0.518295       -14.1035
 189   2.0000      -0.516323       -14.0499
 190   2.0000      -0.513059       -13.9610
 191   2.0000      -0.509974       -13.8771
 192   2.0000      -0.505365       -13.7517
 193   2.0000      -0.501796       -13.6546
 194   2.0000      -0.499957       -13.6045
 195   2.0000      -0.497638       -13.5414
 196   2.0000      -0.497012       -13.5244
 197   2.0000      -0.495021       -13.4702
 198   2.0000      -0.492617       -13.4048
 199   2.0000      -0.491642       -13.3783
 200   2.0000      -0.489440       -13.3183
 201   2.0000      -0.488479       -13.2922
 202   2.0000      -0.487895       -13.2763
 203   2.0000      -0.486050       -13.2261
 204   2.0000      -0.484441       -13.1823
 205   2.0000      -0.479686       -13.0529
 206   2.0000      -0.479347       -13.0437
 207   2.0000      -0.478521       -13.0212
 208   2.0000      -0.477632       -12.9970
 209   2.0000      -0.473456       -12.8834
 210   2.0000      -0.472203       -12.8493
 211   2.0000      -0.469715       -12.7816
 212   2.0000      -0.468878       -12.7588
 213   2.0000      -0.460875       -12.5410
 214   2.0000      -0.459753       -12.5105
 215   2.0000      -0.456368       -12.4184
 216   2.0000      -0.454087       -12.3563
 217   2.0000      -0.451526       -12.2867
 218   2.0000      -0.450512       -12.2591
 219   2.0000      -0.448757       -12.2113
 220   2.0000      -0.447689       -12.1822
 221   2.0000      -0.444775       -12.1029
 222   2.0000      -0.440854       -11.9963
 223   2.0000      -0.439425       -11.9574
 224   2.0000      -0.434274       -11.8172
 225   2.0000      -0.431080       -11.7303
 226   2.0000      -0.429313       -11.6822
 227   2.0000      -0.427460       -11.6318
 228   2.0000      -0.424202       -11.5431
 229   2.0000      -0.423631       -11.5276
 230   2.0000      -0.420775       -11.4499
 231   2.0000      -0.418961       -11.4005
 232   2.0000      -0.418487       -11.3876
 233   2.0000      -0.412885       -11.2352
 234   2.0000      -0.410759       -11.1773
 235   2.0000      -0.409898       -11.1539
 236   2.0000      -0.408071       -11.1042
 237   2.0000      -0.407586       -11.0910
 238   2.0000      -0.402349       -10.9485
 239   2.0000      -0.400848       -10.9076
 240   2.0000      -0.399008       -10.8576
 241   2.0000      -0.396656       -10.7936
 242   2.0000      -0.393875       -10.7179
 243   2.0000      -0.393462       -10.7067
 244   2.0000      -0.392001       -10.6669
 245   2.0000      -0.390020       -10.6130
 246   2.0000      -0.389133       -10.5888
 247   2.0000      -0.385707       -10.4956
 248   2.0000      -0.383464       -10.4346
 249   2.0000      -0.382825       -10.4172
 250   2.0000      -0.360070        -9.7980
 251   2.0000      -0.357591        -9.7305
 252   2.0000      -0.351070        -9.5531
 253   2.0000      -0.347274        -9.4498
 254   2.0000      -0.336756        -9.1636
 255   2.0000      -0.333773        -9.0824
 256   2.0000      -0.332779        -9.0554
 257   2.0000      -0.331409        -9.0181
 258   2.0000      -0.323373        -8.7994
 259   2.0000      -0.318209        -8.6589
 260   2.0000      -0.315159        -8.5759
 261   2.0000      -0.314956        -8.5704
 262   2.0000      -0.300709        -8.1827
 263   2.0000      -0.298314        -8.1175
 264   2.0000      -0.289426        -7.8757
 265   2.0000      -0.282100        -7.6763
 266   2.0000      -0.278098        -7.5674
 267   2.0000      -0.253308        -6.8929
 268   2.0000      -0.222902        -6.0655
 269   2.0000      -0.216956        -5.9037
 270   2.0000      -0.214149        -5.8273
 271   0.0000      -0.056202        -1.5293
 272   0.0000      -0.055618        -1.5134
 273   0.0000      -0.022348        -0.6081
 274   0.0000       0.008553         0.2327
 275   0.0000       0.009688         0.2636

MULLIKEN ATOMIC CHARGES
-----------------------
   0 C :   -0.031075
   1 C :   -0.063177
   2 C :    0.053067
   3 C :    0.029130
   4 C :   -0.068780
   5 S :    0.073575
   6 C :   -0.060917
   7 C :    0.033269
   8 C :    0.033424
   9 C :   -0.015089
  10 S :    0.086230
  11 C :   -0.031419
  12 C :   -0.180317
  13 S :    0.112345
  14 C :   -0.108948
  15 C :   -0.082558
  16 C :   -0.022670
  17 C :    0.138480
  18 C :    0.025370
  19 C :    0.034968
  20 C :    0.111542
  21 C :    0.130182
  22 O :   -0.191504
  23 O :   -0.243182
  24 C :    0.134843
  25 C :    0.011879
  26 C :   -0.012196
  27 C :   -0.097041
  28 C :    0.074630
  29 C :   -0.151709
  30 S :    0.121392
  31 C :    0.135040
  32 O :   -0.314913
  33 C :    0.187421
  34 C :    0.059994
  35 C :   -0.142979
  36 C :    0.133964
  37 O :   -0.315185
  38 C :    0.185893
  39 S :    0.140256
  40 C :   -0.048522
  41 C :   -0.100254
  42 C :   -0.142765
  43 S :    0.134984
  44 C :   -0.125785
  45 C :   -0.050429
  46 C :   -0.048177
  47 C :    0.116006
  48 C :    0.043203
  49 C :    0.042827
  50 C :    0.068131
  51 C :    0.165195
  52 O :   -0.199464
  53 O :   -0.241429
  54 C :    0.129120
  55 C :    0.016077
  56 C :   -0.033350
  57 C :   -0.017006
  58 C :    0.038792
  59 C :    0.025325
  60 C :   -0.048891
  61 S :    0.062278
  62 C :   -0.067381
  63 C :    0.027142
  64 C :    0.052013
  65 C :   -0.063414
  66 S :    0.075178
  67 C :   -0.034658
  68 H :    0.017702
  69 H :    0.020863
  70 H :   -0.013383
  71 H :   -0.012748
  72 H :   -0.016073
  73 H :   -0.013580
  74 H :   -0.004603
  75 H :    0.027722
  76 H :    0.012718
  77 H :    0.003329
  78 H :    0.003174
  79 H :    0.002352
  80 H :    0.015097
  81 H :    0.004977
  82 H :    0.024343
  83 H :    0.037020
  84 H :   -0.004607
  85 H :   -0.045314
  86 H :    0.032213
  87 H :    0.034450
  88 H :    0.024692
  89 H :    0.028736
  90 H :    0.027861
  91 H :    0.034480
  92 H :   -0.046024
  93 H :    0.020714
  94 H :    0.018471
  95 H :    0.016839
  96 H :   -0.001789
  97 H :    0.005000
  98 H :    0.020557
  99 H :    0.004571
 100 H :    0.024992
 101 H :    0.029041
 102 H :    0.010444
 103 H :   -0.013889
 104 H :   -0.014274
 105 H :   -0.015846
 106 H :   -0.012819
 107 H :   -0.013991
 108 H :    0.018062
 109 H :    0.020539
Sum of atomic charges:   -0.0000000

LOEWDIN ATOMIC CHARGES
----------------------
   0 C :   -0.079922
   1 C :   -0.138915
   2 C :   -0.032362
   3 C :   -0.026291
   4 C :   -0.179175
   5 S :    0.344985
   6 C :   -0.180411
   7 C :   -0.037607
   8 C :   -0.029460
   9 C :   -0.147346
  10 S :    0.386633
  11 C :   -0.080165
  12 C :   -0.179130
  13 S :    0.429831
  14 C :   -0.189567
  15 C :   -0.063503
  16 C :   -0.056355
  17 C :   -0.031689
  18 C :   -0.026943
  19 C :   -0.023478
  20 C :   -0.041206
  21 C :    0.101998
  22 O :   -0.161906
  23 O :   -0.039809
  24 C :    0.059300
  25 C :   -0.067080
  26 C :   -0.151685
  27 C :   -0.071014
  28 C :   -0.075599
  29 C :   -0.171947
  30 S :    0.406225
  31 C :    0.020292
  32 O :   -0.110424
  33 C :    0.077908
  34 C :   -0.074678
  35 C :   -0.174848
  36 C :    0.020942
  37 O :   -0.110620
  38 C :    0.077913
  39 S :    0.407259
  40 C :   -0.170661
  41 C :   -0.069508
  42 C :   -0.196229
  43 S :    0.439862
  44 C :   -0.190454
  45 C :   -0.061465
  46 C :   -0.052810
  47 C :   -0.027918
  48 C :   -0.026365
  49 C :   -0.021045
  50 C :   -0.044268
  51 C :    0.106308
  52 O :   -0.160271
  53 O :   -0.043235
  54 C :    0.062077
  55 C :   -0.059754
  56 C :   -0.057298
  57 C :   -0.145551
  58 C :   -0.033375
  59 C :   -0.031924
  60 C :   -0.178987
  61 S :    0.353929
  62 C :   -0.180739
  63 C :   -0.026616
  64 C :   -0.033981
  65 C :   -0.138672
  66 S :    0.346425
  67 C :   -0.081837
  68 H :    0.027858
  69 H :    0.025820
  70 H :    0.032805
  71 H :    0.031887
  72 H :    0.030767
  73 H :    0.032590
  74 H :    0.033137
  75 H :    0.024707
  76 H :    0.033729
  77 H :    0.006678
  78 H :    0.026374
  79 H :    0.022803
  80 H :    0.023516
  81 H :    0.025609
  82 H :    0.046041
  83 H :    0.019953
  84 H :    0.037536
  85 H :    0.022488
  86 H :    0.016469
  87 H :    0.029891
  88 H :    0.015118
  89 H :    0.015138
  90 H :    0.016438
  91 H :    0.029546
  92 H :    0.023185
  93 H :    0.021835
  94 H :    0.029355
  95 H :    0.032294
  96 H :    0.024761
  97 H :    0.023045
  98 H :    0.027665
  99 H :    0.026281
 100 H :    0.041168
 101 H :    0.024523
 102 H :    0.029886
 103 H :    0.032492
 104 H :    0.032765
 105 H :    0.030746
 106 H :    0.031559
 107 H :    0.032425
 108 H :    0.027695
 109 H :    0.025630

  Mayer bond orders larger than 0.100000
B(  0-C ,  1-C ) :   1.8682 B(  0-C , 68-H ) :   0.9504 B(  0-C , 69-H ) :   0.9420
B(  1-C ,  2-C ) :   1.0771 B(  1-C ,  5-S ) :   1.0075 B(  2-C ,  3-C ) :   1.6694
B(  2-C , 70-H ) :   0.9923 B(  3-C ,  4-C ) :   1.1454 B(  3-C , 71-H ) :   0.9916
B(  4-C ,  5-S ) :   1.0368 B(  4-C ,  6-C ) :   1.5836 B(  6-C ,  7-C ) :   1.1493
B(  6-C , 10-S ) :   1.0359 B(  7-C ,  8-C ) :   1.6375 B(  7-C , 72-H ) :   0.9911
B(  8-C ,  9-C ) :   1.1068 B(  8-C , 73-H ) :   0.9962 B(  9-C , 10-S ) :   1.0237
B(  9-C , 11-C ) :   1.6980 B( 11-C , 12-C ) :   1.0761 B( 11-C , 74-H ) :   0.9426
B( 12-C , 13-S ) :   1.1289 B( 12-C , 16-C ) :   1.5317 B( 13-S , 14-C ) :   1.1571
B( 14-C , 15-C ) :   1.5859 B( 14-C , 75-H ) :   0.9520 B( 15-C , 16-C ) :   1.2941
B( 15-C , 20-C ) :   0.9623 B( 16-C , 17-C ) :   1.0624 B( 17-C , 18-C ) :   1.0913
B( 17-C , 76-H ) :   0.9085 B( 17-C , 77-H ) :   0.8903 B( 18-C , 19-C ) :   1.0784
B( 18-C , 78-H ) :   0.9336 B( 18-C , 79-H ) :   0.9401 B( 19-C , 20-C ) :   1.0560
B( 19-C , 80-H ) :   0.9336 B( 19-C , 81-H ) :   0.9378 B( 20-C , 21-C ) :   0.9315
B( 20-C , 82-H ) :   0.8684 B( 21-C , 22-O ) :   2.1163 B( 21-C , 23-O ) :   1.1263
B( 23-O , 24-C ) :   1.0093 B( 24-C , 25-C ) :   1.7405 B( 24-C , 83-H ) :   0.9684
B( 25-C , 26-C ) :   1.1137 B( 25-C , 84-H ) :   0.9744 B( 26-C , 27-C ) :   1.5893
B( 26-C , 30-S ) :   1.0558 B( 27-C , 28-C ) :   1.1303 B( 27-C , 85-H ) :   1.0023
B( 28-C , 29-C ) :   1.3288 B( 28-C , 36-C ) :   1.2191 B( 29-C , 30-S ) :   1.0402
B( 29-C , 31-C ) :   1.4214 B( 31-C , 32-O ) :   1.2460 B( 31-C , 34-C ) :   1.2099
B( 32-O , 33-C ) :   0.9570 B( 33-C , 86-H ) :   0.9679 B( 33-C , 87-H ) :   0.9736
B( 33-C , 88-H ) :   0.9684 B( 34-C , 35-C ) :   1.3342 B( 34-C , 41-C ) :   1.1354
B( 35-C , 36-C ) :   1.4110 B( 35-C , 39-S ) :   1.0379 B( 36-C , 37-O ) :   1.2456
B( 37-O , 38-C ) :   0.9571 B( 38-C , 89-H ) :   0.9688 B( 38-C , 90-H ) :   0.9688
B( 38-C , 91-H ) :   0.9746 B( 39-S , 40-C ) :   1.0694 B( 40-C , 41-C ) :   1.6102
B( 40-C , 42-C ) :   1.0574 B( 41-C , 92-H ) :   0.9961 B( 42-C , 43-S ) :   1.1419
B( 42-C , 46-C ) :   1.5714 B( 43-S , 44-C ) :   1.1595 B( 44-C , 45-C ) :   1.5630
B( 44-C , 93-H ) :   0.9647 B( 45-C , 46-C ) :   1.3144 B( 45-C , 50-C ) :   0.9713
B( 46-C , 47-C ) :   1.0627 B( 47-C , 48-C ) :   1.0819 B( 47-C , 94-H ) :   0.9025
B( 47-C , 95-H ) :   0.9119 B( 48-C , 49-C ) :   1.0885 B( 48-C , 96-H ) :   0.9322
B( 48-C , 97-H ) :   0.9399 B( 49-C , 50-C ) :   1.0646 B( 49-C , 98-H ) :   0.9263
B( 49-C , 99-H ) :   0.9339 B( 50-C , 51-C ) :   0.9075 B( 50-C ,100-H ) :   0.8824
B( 51-C , 52-O ) :   2.1252 B( 51-C , 53-O ) :   1.1080 B( 53-O , 54-C ) :   1.0001
B( 54-C , 55-C ) :   1.7283 B( 54-C ,101-H ) :   0.9761 B( 55-C , 56-C ) :   1.1075
B( 55-C ,102-H ) :   0.9618 B( 56-C , 57-C ) :   1.6458 B( 56-C ,103-H ) :   0.9764
B( 57-C , 58-C ) :   1.1147 B( 57-C , 61-S ) :   1.0206 B( 58-C , 59-C ) :   1.6297
B( 58-C ,104-H ) :   0.9984 B( 59-C , 60-C ) :   1.1595 B( 59-C ,105-H ) :   0.9927
B( 60-C , 61-S ) :   1.0336 B( 60-C , 62-C ) :   1.5753 B( 62-C , 63-C ) :   1.1474
B( 62-C , 66-S ) :   1.0381 B( 63-C , 64-C ) :   1.6666 B( 63-C ,106-H ) :   0.9919
B( 64-C , 65-C ) :   1.0777 B( 64-C ,107-H ) :   0.9930 B( 65-C , 66-S ) :   1.0084
B( 65-C , 67-C ) :   1.8675 B( 67-C ,108-H ) :   0.9504 B( 67-C ,109-H ) :   0.9417

-----------------------------------------------------------------------------
         ABSORPTION SPECTRUM VIA TRANSITION ELECTRIC DIPOLE MOMENTS
-----------------------------------------------------------------------------
State   Energy  Wavelength   fosc         T2         TX        TY        TZ
        (cm-1)    (nm)                  (au**2)     (au)      (au)      (au)
-----------------------------------------------------------------------------
   0   21289.0    469.7   1.805473830  27.91973  -3.78474  -0.97032   3.55724
   1   21460.3    466.0   1.101597246  16.89909   1.40765  -2.26663   3.12730
   2   26519.6    377.1   0.477877156   5.93232  -0.81620  -1.24836   1.92555
   3   28691.5    348.5   0.000577758   0.00663  -0.04019   0.01031   0.07006
   4   28788.2    347.4   0.001304150   0.01491  -0.10105   0.03171  -0.06080
   5   30631.6    326.5   0.011292745   0.12137  -0.05187  -0.24580  -0.24137
   6   30821.8    324.4   0.000412988   0.00441  -0.00597  -0.05796   0.03187
   7   30833.5    324.3   0.001814162   0.01937  -0.02107  -0.11628   0.07351
   8   31551.5    316.9   0.000021859   0.00023   0.00944   0.00332  -0.01131
   9   32940.2    303.6   1.020214145  10.19626   2.50096   0.96748  -1.73362
  10   33152.7    301.6   0.133014311   1.32085  -0.89782  -0.34821   0.62732
  11   33563.7    297.9   0.049569647   0.48621  -0.57676  -0.13327   0.36851
  12   33819.3    295.7   0.168367377   1.63896  -0.99015  -0.51721   0.62534
  13   34340.7    291.2   0.050761502   0.48663   0.19280   0.38465   0.54910
  14   34389.8    290.8   0.189860233   1.81752   0.20235   0.63518   1.17180
  15   34459.0    290.2   0.094149581   0.89948  -0.55249  -0.70929  -0.30190
  16   34739.4    287.9   0.000274123   0.00260  -0.01121  -0.04096  -0.02818
  17   35039.2    285.4   0.023510247   0.22089  -0.12114  -0.33934  -0.30176
  18   35242.6    283.7   0.003993558   0.03731  -0.14946   0.05320   0.11016
  19   35680.0    280.3   0.024867903   0.22945   0.07993  -0.39735  -0.25529
  20   37328.5    267.9   0.016059215   0.14163   0.28471  -0.23846   0.06089
  21   38230.7    261.6   0.227926419   1.96272  -0.61155  -1.15569   0.50309
  22   39013.6    256.3   0.052333228   0.44161   0.53335   0.27874   0.28187

FINAL SINGLE POINT ENERGY     -5715.661402677409

DIPOLE MOMENT
-------------
                                X             Y             Z
Electronic contribution:     -2.05542      -2.85397       4.58534
Nuclear contribution   :      3.01795       2.75837      -3.70157
                        -----------------------------------------
Total Dipole Moment    :      0.96253      -0.09561       0.88377
                        -----------------------------------------
Magnitude (a.u.)       :      1.31021
Magnitude (Debye)      :      3.33029

Rotational constants in cm-1:     0.002668     0.000129     0.000126
Rotational constants in MHz :    79.991948     3.872666     3.792065

                             ****ORCA TERMINATED NORMALLY****
TOTAL RUN TIME: 0 days 0 hours 7 minutes 43 seconds 397 msec
