                         Program Version 4.2.0 -  RELEASE  -
|  1> # ORCA input file
|  2> # SCF done       -149.351037606446          0.000675703146
|  3> ! CAM-B3LYP def2-SVP def2/J RIJCOSX Grid4 TightSCF
|  4> %maxcore 5000
|  5> %tddft
|  6>     Mode sTDDFT
|  7>     Ethresh 5.0
|  8>     maxcore 5000
|  9> end
| 10>
| 11> %pal
| 12>   nprocs 6
| 13>   end
| 14> * xyz 0 1
| 15>    C        9.72087        -3.84703         5.52938
| 16>    C       10.45413        -4.41587         6.50056
| 17>    C       11.02322        -3.80188         7.65825
| 18>    C       11.66006        -4.66868         8.49264
| 19>    C       11.69001        -5.99878         8.02910
| 20>    S       10.85991        -6.13676         6.49670
| 21>    C       12.22225        -7.11943         8.66120
| 22>    C       12.91719        -7.19675         9.87114
| 23>    C       13.28541        -8.48156        10.20342
| 24>    C       12.89209        -9.45850         9.28259
| 25>    S       12.06300        -8.70666         7.94780
| 26>    C       13.11152       -10.83230         9.49035
| 27>    C       12.69373       -11.97593         8.86515
| 28>    C       11.91990       -12.26858         7.72300
| 29>    C       11.44113       -13.55351         7.46413
| 30>    C       10.68726       -13.66446         6.31240
| 31>    C       10.57926       -12.47070         5.60913
| 32>    S       11.43036       -11.19510         6.43793
| 33>    C        9.89304       -12.25092         4.39759
| 34>    C        9.06436       -13.13773         3.71733
| 35>    C        8.53481       -12.61456         2.55391
| 36>    C        8.96659       -11.32101         2.26026
| 37>    S       10.01959       -10.74909         3.52909
| 38>    C        8.50741       -10.54254         1.18517
| 39>    C        9.00391        -9.35691         0.69677
| 40>    S        7.93409        -8.30192        -0.24238
| 41>    C        9.10736        -6.98272        -0.21198
| 42>    C       10.35657        -7.49569         0.23037
| 43>    C       10.28789        -8.76715         0.76080
| 44>    S       11.74493        -9.56312         1.31996
| 45>    C       12.44759        -8.08793         2.14578
| 46>    C       13.00264        -7.09419         1.15861
| 47>    S       11.86133        -6.72535        -0.23792
| 48>    C        8.73052        -5.68170        -0.45736
| 49>    C        9.33843        -4.55936         0.13023
| 50>    C        9.05933        -3.20684        -0.05814
| 51>    C        9.71231        -2.35949         0.82546
| 52>    C       10.50995        -3.02914         1.74319
| 53>    S       10.43745        -4.74372         1.46804
| 54>    C       11.29795        -2.60354         2.83130
| 55>    C       11.41506        -1.38455         3.48269
| 56>    C       12.18235        -1.44672         4.63854
| 57>    C       12.69558        -2.70870         4.91596
| 58>    S       12.21921        -3.82575         3.66285
| 59>    C       13.42227        -3.16996         6.02546
| 60>    C       13.84920        -4.47014         6.12563
| 61>    C       14.51090        -5.05648         7.20157
| 62>    C       14.90726        -6.39821         7.28928
| 63>    C       15.53010        -6.72669         8.46407
| 64>    C       15.67448        -5.64288         9.35072
| 65>    S       14.98263        -4.19297         8.64805
| 66>    C       16.24710        -5.64732        10.60855
| 67>    C       16.82668        -6.75104        11.28174
| 68>    C       17.31194        -6.46340        12.51419
| 69>    C       17.15000        -5.09665        12.90816
| 70>    S       16.33210        -4.21249        11.60904
| 71>    C       17.53485        -4.51533        14.05500
| 72>    H        9.49340        -2.79591         5.55624
| 73>    H        9.33362        -4.41900         4.70612
| 74>    H       10.89211        -2.75162         7.84682
| 75>    H       12.11704        -4.38466         9.42368
| 76>    H       13.11853        -6.33554        10.48196
| 77>    H       13.81732        -8.73225        11.10508
| 78>    H       13.69378       -11.00830        10.38944
| 79>    H       12.98271       -12.88627         9.38130
| 80>    H       11.63658       -14.37723         8.12851
| 81>    H       10.23806       -14.58117         5.97616
| 82>    H        8.85145       -14.12724         4.07921
| 83>    H        7.86564       -13.15038         1.90403
| 84>    H        7.58759       -10.89277         0.73130
| 85>    H       13.23734        -8.45947         2.79714
| 86>    H       11.65224        -7.65235         2.75129
| 87>    H       13.20168        -6.14026         1.65052
| 88>    H       13.91281        -7.46671         0.68952
| 89>    H        7.81495        -5.51151        -1.00768
| 90>    H        8.39336        -2.86555        -0.83121
| 91>    H        9.61604        -1.28831         0.81183
| 92>    H       10.92754        -0.49202         3.13221
| 93>    H       12.36360        -0.60250         5.28089
| 94>    H       13.65459        -2.46386         6.81095
| 95>    H       13.62107        -5.14172         5.30557
| 96>    H       14.70653        -7.09663         6.49556
| 97>    H       15.89140        -7.71135         8.69886
| 98>    H       16.86619        -7.72495        10.82666
| 99>    H       17.78669        -7.17151        13.16988
|100>    H       18.03102        -5.08623        14.81962
|101>    H       17.36351        -3.47189        14.24505
|102> *
|103>
|104>                          ****END OF INPUT****

CARTESIAN COORDINATES (ANGSTROEM)
---------------------------------
  C      9.720870   -3.847030    5.529380
  C     10.454130   -4.415870    6.500560
  C     11.023220   -3.801880    7.658250
  C     11.660060   -4.668680    8.492640
  C     11.690010   -5.998780    8.029100
  S     10.859910   -6.136760    6.496700
  C     12.222250   -7.119430    8.661200
  C     12.917190   -7.196750    9.871140
  C     13.285410   -8.481560   10.203420
  C     12.892090   -9.458500    9.282590
  S     12.063000   -8.706660    7.947800
  C     13.111520  -10.832300    9.490350
  C     12.693730  -11.975930    8.865150
  C     11.919900  -12.268580    7.723000
  C     11.441130  -13.553510    7.464130
  C     10.687260  -13.664460    6.312400
  C     10.579260  -12.470700    5.609130
  S     11.430360  -11.195100    6.437930
  C      9.893040  -12.250920    4.397590
  C      9.064360  -13.137730    3.717330
  C      8.534810  -12.614560    2.553910
  C      8.966590  -11.321010    2.260260
  S     10.019590  -10.749090    3.529090
  C      8.507410  -10.542540    1.185170
  C      9.003910   -9.356910    0.696770
  S      7.934090   -8.301920   -0.242380
  C      9.107360   -6.982720   -0.211980
  C     10.356570   -7.495690    0.230370
  C     10.287890   -8.767150    0.760800
  S     11.744930   -9.563120    1.319960
  C     12.447590   -8.087930    2.145780
  C     13.002640   -7.094190    1.158610
  S     11.861330   -6.725350   -0.237920
  C      8.730520   -5.681700   -0.457360
  C      9.338430   -4.559360    0.130230
  C      9.059330   -3.206840   -0.058140
  C      9.712310   -2.359490    0.825460
  C     10.509950   -3.029140    1.743190
  S     10.437450   -4.743720    1.468040
  C     11.297950   -2.603540    2.831300
  C     11.415060   -1.384550    3.482690
  C     12.182350   -1.446720    4.638540
  C     12.695580   -2.708700    4.915960
  S     12.219210   -3.825750    3.662850
  C     13.422270   -3.169960    6.025460
  C     13.849200   -4.470140    6.125630
  C     14.510900   -5.056480    7.201570
  C     14.907260   -6.398210    7.289280
  C     15.530100   -6.726690    8.464070
  C     15.674480   -5.642880    9.350720
  S     14.982630   -4.192970    8.648050
  C     16.247100   -5.647320   10.608550
  C     16.826680   -6.751040   11.281740
  C     17.311940   -6.463400   12.514190
  C     17.150000   -5.096650   12.908160
  S     16.332100   -4.212490   11.609040
  C     17.534850   -4.515330   14.055000
  H      9.493400   -2.795910    5.556240
  H      9.333620   -4.419000    4.706120
  H     10.892110   -2.751620    7.846820
  H     12.117040   -4.384660    9.423680
  H     13.118530   -6.335540   10.481960
  H     13.817320   -8.732250   11.105080
  H     13.693780  -11.008300   10.389440
  H     12.982710  -12.886270    9.381300
  H     11.636580  -14.377230    8.128510
  H     10.238060  -14.581170    5.976160
  H      8.851450  -14.127240    4.079210
  H      7.865640  -13.150380    1.904030
  H      7.587590  -10.892770    0.731300
  H     13.237340   -8.459470    2.797140
  H     11.652240   -7.652350    2.751290
  H     13.201680   -6.140260    1.650520
  H     13.912810   -7.466710    0.689520
  H      7.814950   -5.511510   -1.007680
  H      8.393360   -2.865550   -0.831210
  H      9.616040   -1.288310    0.811830
  H     10.927540   -0.492020    3.132210
  H     12.363600   -0.602500    5.280890
  H     13.654590   -2.463860    6.810950
  H     13.621070   -5.141720    5.305570
  H     14.706530   -7.096630    6.495560
  H     15.891400   -7.711350    8.698860
  H     16.866190   -7.724950   10.826660
  H     17.786690   -7.171510   13.169880
  H     18.031020   -5.086230   14.819620
  H     17.363510   -3.471890   14.245050

 Total Charge           Charge          ....    0
 Multiplicity           Mult            ....    1
 Number of Electrons    NEL             ....  482
 Basis Dimension        Dim             ....  992

ORBITAL ENERGIES
----------------

  NO   OCC          E(Eh)            E(eV)
   0   2.0000     -88.951682     -2420.4983
   1   2.0000     -88.950324     -2420.4614
   2   2.0000     -88.947652     -2420.3887
   3   2.0000     -88.945464     -2420.3291
   4   2.0000     -88.943349     -2420.2716
   5   2.0000     -88.940309     -2420.1888
   6   2.0000     -88.938329     -2420.1350
   7   2.0000     -88.933115     -2419.9931
   8   2.0000     -88.929555     -2419.8962
   9   2.0000     -88.926808     -2419.8215
  10   2.0000     -88.924340     -2419.7543
  11   2.0000     -10.308493      -280.5084
  12   2.0000     -10.305363      -280.4232
  13   2.0000     -10.304724      -280.4058
  14   2.0000     -10.304487      -280.3993
  15   2.0000     -10.304003      -280.3862
  16   2.0000     -10.303377      -280.3691
  17   2.0000     -10.302093      -280.3342
  18   2.0000     -10.300890      -280.3015
  19   2.0000     -10.300642      -280.2947
  20   2.0000     -10.300623      -280.2942
  21   2.0000     -10.300406      -280.2883
  22   2.0000     -10.299177      -280.2548
  23   2.0000     -10.298387      -280.2334
  24   2.0000     -10.298140      -280.2266
  25   2.0000     -10.297108      -280.1986
  26   2.0000     -10.296890      -280.1926
  27   2.0000     -10.296790      -280.1899
  28   2.0000     -10.296785      -280.1898
  29   2.0000     -10.295833      -280.1639
  30   2.0000     -10.295626      -280.1582
  31   2.0000     -10.294882      -280.1380
  32   2.0000     -10.293233      -280.0931
  33   2.0000     -10.280273      -279.7404
  34   2.0000     -10.279923      -279.7309
  35   2.0000     -10.279564      -279.7212
  36   2.0000     -10.279308      -279.7142
  37   2.0000     -10.278420      -279.6900
  38   2.0000     -10.278378      -279.6889
  39   2.0000     -10.277379      -279.6617
  40   2.0000     -10.274711      -279.5891
  41   2.0000     -10.274210      -279.5755
  42   2.0000     -10.273463      -279.5551
  43   2.0000     -10.272670      -279.5336
  44   2.0000     -10.272343      -279.5247
  45   2.0000     -10.272121      -279.5186
  46   2.0000     -10.271774      -279.5092
  47   2.0000     -10.271511      -279.5020
  48   2.0000     -10.270580      -279.4767
  49   2.0000     -10.270575      -279.4765
  50   2.0000     -10.269887      -279.4578
  51   2.0000     -10.268053      -279.4079
  52   2.0000     -10.267526      -279.3936
  53   2.0000     -10.267308      -279.3877
  54   2.0000     -10.266692      -279.3709
  55   2.0000     -10.263934      -279.2959
  56   2.0000     -10.258132      -279.1380
  57   2.0000      -8.046927      -218.9680
  58   2.0000      -8.045586      -218.9315
  59   2.0000      -8.042532      -218.8484
  60   2.0000      -8.040718      -218.7990
  61   2.0000      -8.038501      -218.7387
  62   2.0000      -8.035880      -218.6674
  63   2.0000      -8.034432      -218.6280
  64   2.0000      -8.029496      -218.4937
  65   2.0000      -8.026193      -218.4038
  66   2.0000      -8.022197      -218.2951
  67   2.0000      -8.019552      -218.2231
  68   2.0000      -6.016261      -163.7108
  69   2.0000      -6.014993      -163.6763
  70   2.0000      -6.012107      -163.5978
  71   2.0000      -6.011824      -163.5901
  72   2.0000      -6.010857      -163.5637
  73   2.0000      -6.010041      -163.5415
  74   2.0000      -6.008942      -163.5116
  75   2.0000      -6.007850      -163.4819
  76   2.0000      -6.007775      -163.4799
  77   2.0000      -6.007394      -163.4695
  78   2.0000      -6.005897      -163.4288
  79   2.0000      -6.005489      -163.4177
  80   2.0000      -6.004674      -163.3955
  81   2.0000      -6.004087      -163.3795
  82   2.0000      -6.003654      -163.3677
  83   2.0000      -6.002712      -163.3421
  84   2.0000      -6.001590      -163.3116
  85   2.0000      -6.000550      -163.2833
  86   2.0000      -6.000190      -163.2735
  87   2.0000      -5.999465      -163.2537
  88   2.0000      -5.997097      -163.1893
  89   2.0000      -5.995984      -163.1590
  90   2.0000      -5.995588      -163.1482
  91   2.0000      -5.995409      -163.1434
  92   2.0000      -5.992509      -163.0645
  93   2.0000      -5.992120      -163.0539
  94   2.0000      -5.990100      -162.9989
  95   2.0000      -5.989774      -162.9900
  96   2.0000      -5.988719      -162.9613
  97   2.0000      -5.986789      -162.9088
  98   2.0000      -5.985982      -162.8868
  99   2.0000      -5.981700      -162.7703
 100   2.0000      -5.978962      -162.6958
 101   2.0000      -0.995062       -27.0770
 102   2.0000      -0.990233       -26.9456
 103   2.0000      -0.988187       -26.8899
 104   2.0000      -0.984516       -26.7900
 105   2.0000      -0.981907       -26.7191
 106   2.0000      -0.967586       -26.3293
 107   2.0000      -0.962890       -26.2016
 108   2.0000      -0.962011       -26.1777
 109   2.0000      -0.959220       -26.1017
 110   2.0000      -0.926220       -25.2037
 111   2.0000      -0.902816       -24.5669
 112   2.0000      -0.896513       -24.3954
 113   2.0000      -0.890999       -24.2453
 114   2.0000      -0.870090       -23.6764
 115   2.0000      -0.866995       -23.5921
 116   2.0000      -0.856655       -23.3108
 117   2.0000      -0.854319       -23.2472
 118   2.0000      -0.842056       -22.9135
 119   2.0000      -0.839311       -22.8388
 120   2.0000      -0.837926       -22.8011
 121   2.0000      -0.834326       -22.7032
 122   2.0000      -0.833687       -22.6858
 123   2.0000      -0.827920       -22.5288
 124   2.0000      -0.826115       -22.4797
 125   2.0000      -0.818583       -22.2748
 126   2.0000      -0.812759       -22.1163
 127   2.0000      -0.809839       -22.0369
 128   2.0000      -0.808247       -21.9935
 129   2.0000      -0.802190       -21.8287
 130   2.0000      -0.789850       -21.4929
 131   2.0000      -0.777122       -21.1466
 132   2.0000      -0.760811       -20.7027
 133   2.0000      -0.744039       -20.2463
 134   2.0000      -0.739119       -20.1124
 135   2.0000      -0.733324       -19.9548
 136   2.0000      -0.721878       -19.6433
 137   2.0000      -0.699765       -19.0416
 138   2.0000      -0.698113       -18.9966
 139   2.0000      -0.680468       -18.5165
 140   2.0000      -0.677899       -18.4466
 141   2.0000      -0.666036       -18.1238
 142   2.0000      -0.664763       -18.0891
 143   2.0000      -0.660895       -17.9839
 144   2.0000      -0.647605       -17.6222
 145   2.0000      -0.638869       -17.3845
 146   2.0000      -0.633090       -17.2272
 147   2.0000      -0.625869       -17.0308
 148   2.0000      -0.620143       -16.8749
 149   2.0000      -0.618008       -16.8169
 150   2.0000      -0.615895       -16.7594
 151   2.0000      -0.613993       -16.7076
 152   2.0000      -0.609377       -16.5820
 153   2.0000      -0.606612       -16.5067
 154   2.0000      -0.602581       -16.3971
 155   2.0000      -0.601338       -16.3632
 156   2.0000      -0.597346       -16.2546
 157   2.0000      -0.591145       -16.0859
 158   2.0000      -0.587105       -15.9759
 159   2.0000      -0.583265       -15.8714
 160   2.0000      -0.575119       -15.6498
 161   2.0000      -0.568724       -15.4758
 162   2.0000      -0.559812       -15.2333
 163   2.0000      -0.550719       -14.9858
 164   2.0000      -0.544159       -14.8073
 165   2.0000      -0.540999       -14.7213
 166   2.0000      -0.535688       -14.5768
 167   2.0000      -0.531963       -14.4754
 168   2.0000      -0.526348       -14.3227
 169   2.0000      -0.521355       -14.1868
 170   2.0000      -0.517559       -14.0835
 171   2.0000      -0.511075       -13.9070
 172   2.0000      -0.509761       -13.8713
 173   2.0000      -0.507990       -13.8231
 174   2.0000      -0.504544       -13.7293
 175   2.0000      -0.502609       -13.6767
 176   2.0000      -0.496423       -13.5084
 177   2.0000      -0.493945       -13.4409
 178   2.0000      -0.489746       -13.3267
 179   2.0000      -0.489357       -13.3161
 180   2.0000      -0.487530       -13.2664
 181   2.0000      -0.485619       -13.2144
 182   2.0000      -0.483716       -13.1626
 183   2.0000      -0.483097       -13.1458
 184   2.0000      -0.478867       -13.0306
 185   2.0000      -0.476441       -12.9646
 186   2.0000      -0.475321       -12.9342
 187   2.0000      -0.471909       -12.8413
 188   2.0000      -0.471118       -12.8198
 189   2.0000      -0.470091       -12.7918
 190   2.0000      -0.467808       -12.7297
 191   2.0000      -0.466122       -12.6838
 192   2.0000      -0.460654       -12.5350
 193   2.0000      -0.459847       -12.5131
 194   2.0000      -0.454903       -12.3785
 195   2.0000      -0.453323       -12.3356
 196   2.0000      -0.450739       -12.2652
 197   2.0000      -0.448250       -12.1975
 198   2.0000      -0.447066       -12.1653
 199   2.0000      -0.442458       -12.0399
 200   2.0000      -0.440621       -11.9899
 201   2.0000      -0.433034       -11.7834
 202   2.0000      -0.430212       -11.7067
 203   2.0000      -0.427698       -11.6383
 204   2.0000      -0.427395       -11.6300
 205   2.0000      -0.422559       -11.4984
 206   2.0000      -0.420480       -11.4418
 207   2.0000      -0.419712       -11.4209
 208   2.0000      -0.415529       -11.3071
 209   2.0000      -0.412586       -11.2270
 210   2.0000      -0.411932       -11.2092
 211   2.0000      -0.408132       -11.1058
 212   2.0000      -0.402791       -10.9605
 213   2.0000      -0.396595       -10.7919
 214   2.0000      -0.393170       -10.6987
 215   2.0000      -0.391505       -10.6534
 216   2.0000      -0.388968       -10.5844
 217   2.0000      -0.383677       -10.4404
 218   2.0000      -0.379781       -10.3344
 219   2.0000      -0.376056       -10.2330
 220   2.0000      -0.374336       -10.1862
 221   2.0000      -0.350212        -9.5298
 222   2.0000      -0.349106        -9.4996
 223   2.0000      -0.339773        -9.2457
 224   2.0000      -0.332773        -9.0552
 225   2.0000      -0.331925        -9.0321
 226   2.0000      -0.329663        -8.9706
 227   2.0000      -0.325313        -8.8522
 228   2.0000      -0.322520        -8.7762
 229   2.0000      -0.315575        -8.5872
 230   2.0000      -0.315019        -8.5721
 231   2.0000      -0.311709        -8.4820
 232   2.0000      -0.307084        -8.3562
 233   2.0000      -0.287123        -7.8130
 234   2.0000      -0.284872        -7.7518
 235   2.0000      -0.269248        -7.3266
 236   2.0000      -0.263447        -7.1688
 237   2.0000      -0.257459        -7.0058
 238   2.0000      -0.227549        -6.1919
 239   2.0000      -0.200828        -5.4648
 240   2.0000      -0.177790        -4.8379
 241   0.0000      -0.089278        -2.4294
 242   0.0000      -0.073909        -2.0112
 243   0.0000      -0.043009        -1.1703
 244   0.0000      -0.020391        -0.5549
 245   0.0000      -0.002300        -0.0626

MULLIKEN ATOMIC CHARGES
-----------------------
   0 C :    0.005330
   1 C :   -0.089876
   2 C :    0.085361
   3 C :    0.023614
   4 C :   -0.060497
   5 S :    0.073898
   6 C :   -0.050897
   7 C :    0.071404
   8 C :   -0.016352
   9 C :   -0.033199
  10 S :    0.084142
  11 C :   -0.003968
  12 C :   -0.001736
  13 C :   -0.049749
  14 C :    0.018038
  15 C :    0.015147
  16 C :   -0.033376
  17 S :    0.104766
  18 C :   -0.061022
  19 C :    0.011737
  20 C :    0.021571
  21 C :   -0.064087
  22 S :    0.145691
  23 C :    0.003529
  24 C :   -0.112489
  25 S :    0.084458
  26 C :   -0.118411
  27 C :   -0.083720
  28 C :   -0.015230
  29 S :    0.031529
  30 C :   -0.086122
  31 C :    0.003664
  32 S :    0.027661
  33 C :    0.050320
  34 C :   -0.051231
  35 C :    0.020740
  36 C :    0.009178
  37 C :   -0.030860
  38 S :    0.080957
  39 C :   -0.028559
  40 C :    0.008677
  41 C :    0.003841
  42 C :   -0.047385
  43 S :    0.058520
  44 C :    0.049597
  45 C :   -0.021952
  46 C :   -0.044677
  47 C :    0.060031
  48 C :    0.029980
  49 C :   -0.071093
  50 S :    0.070852
  51 C :   -0.076181
  52 C :    0.025565
  53 C :    0.039999
  54 C :   -0.059134
  55 S :    0.064141
  56 C :   -0.038563
  57 H :    0.024787
  58 H :    0.020061
  59 H :   -0.017186
  60 H :   -0.008924
  61 H :   -0.004744
  62 H :   -0.019468
  63 H :   -0.014214
  64 H :   -0.009662
  65 H :   -0.019075
  66 H :   -0.020465
  67 H :   -0.023484
  68 H :   -0.019255
  69 H :   -0.005393
  70 H :    0.061303
  71 H :    0.065915
  72 H :    0.057921
  73 H :    0.058362
  74 H :   -0.009346
  75 H :   -0.020545
  76 H :   -0.023662
  77 H :   -0.022347
  78 H :   -0.023165
  79 H :   -0.012429
  80 H :   -0.004700
  81 H :   -0.021099
  82 H :   -0.018000
  83 H :   -0.017883
  84 H :   -0.018077
  85 H :    0.014996
  86 H :    0.016205
Sum of atomic charges:    0.0000000

LOEWDIN ATOMIC CHARGES
----------------------
   0 C :   -0.064293
   1 C :   -0.148891
   2 C :   -0.028873
   3 C :   -0.039095
   4 C :   -0.164670
   5 S :    0.367676
   6 C :   -0.185827
   7 C :   -0.032530
   8 C :   -0.051802
   9 C :   -0.170109
  10 S :    0.414213
  11 C :   -0.063994
  12 C :   -0.053594
  13 C :   -0.177568
  14 C :   -0.047287
  15 C :   -0.054969
  16 C :   -0.182002
  17 S :    0.422949
  18 C :   -0.188939
  19 C :   -0.058668
  20 C :   -0.048804
  21 C :   -0.174944
  22 S :    0.435150
  23 C :   -0.076871
  24 C :   -0.167391
  25 S :    0.359729
  26 C :   -0.174103
  27 C :   -0.222512
  28 C :   -0.206046
  29 S :    0.310553
  30 C :   -0.133560
  31 C :   -0.140994
  32 S :    0.310475
  33 C :   -0.074863
  34 C :   -0.169066
  35 C :   -0.051101
  36 C :   -0.062798
  37 C :   -0.186828
  38 S :    0.432197
  39 C :   -0.183492
  40 C :   -0.055731
  41 C :   -0.061565
  42 C :   -0.155673
  43 S :    0.432047
  44 C :   -0.047734
  45 C :   -0.060073
  46 C :   -0.158512
  47 C :   -0.034221
  48 C :   -0.040900
  49 C :   -0.177743
  50 S :    0.380882
  51 C :   -0.197336
  52 C :   -0.030394
  53 C :   -0.045955
  54 C :   -0.138414
  55 S :    0.341419
  56 C :   -0.091428
  57 H :    0.029892
  58 H :    0.022407
  59 H :    0.030988
  60 H :    0.026395
  61 H :    0.033421
  62 H :    0.029174
  63 H :    0.038254
  64 H :    0.039679
  65 H :    0.029499
  66 H :    0.029189
  67 H :    0.027435
  68 H :    0.029684
  69 H :    0.035973
  70 H :    0.034340
  71 H :    0.027914
  72 H :    0.018963
  73 H :    0.027439
  74 H :    0.034453
  75 H :    0.029236
  76 H :    0.028080
  77 H :    0.029059
  78 H :    0.028577
  79 H :    0.027765
  80 H :    0.019208
  81 H :    0.028682
  82 H :    0.029023
  83 H :    0.030127
  84 H :    0.030419
  85 H :    0.026158
  86 H :    0.023440

  Mayer bond orders larger than 0.100000
B(  0-C ,  1-C ) :   1.8080 B(  0-C , 57-H ) :   0.9484 B(  0-C , 58-H ) :   0.9324
B(  1-C ,  2-C ) :   1.1143 B(  1-C ,  5-S ) :   1.0122 B(  2-C ,  3-C ) :   1.5200
B(  2-C , 59-H ) :   0.9903 B(  3-C ,  4-C ) :   1.2716 B(  3-C , 60-H ) :   0.9913
B(  4-C ,  5-S ) :   1.0675 B(  4-C ,  6-C ) :   1.3087 B(  6-C ,  7-C ) :   1.3842
B(  6-C , 10-S ) :   1.0859 B(  7-C ,  8-C ) :   1.3366 B(  7-C , 61-H ) :   0.9836
B(  8-C ,  9-C ) :   1.3789 B(  8-C , 62-H ) :   1.0035 B(  9-C , 10-S ) :   1.0825
B(  9-C , 11-C ) :   1.2199 B( 11-C , 12-C ) :   1.6095 B( 11-C , 63-H ) :   0.9493
B( 12-C , 13-C ) :   1.2069 B( 12-C , 64-H ) :   0.9482 B( 13-C , 14-C ) :   1.4072
B( 13-C , 17-S ) :   1.0887 B( 14-C , 15-C ) :   1.3257 B( 14-C , 65-H ) :   0.9992
B( 15-C , 16-C ) :   1.4454 B( 15-C , 66-H ) :   0.9941 B( 16-C , 17-S ) :   1.1217
B( 16-C , 18-C ) :   1.1684 B( 18-C , 19-C ) :   1.4336 B( 18-C , 22-S ) :   1.1303
B( 19-C , 20-C ) :   1.3311 B( 19-C , 67-H ) :   0.9945 B( 20-C , 21-C ) :   1.3937
B( 20-C , 68-H ) :   0.9995 B( 21-C , 22-S ) :   1.1115 B( 21-C , 23-C ) :   1.2394
B( 23-C , 24-C ) :   1.5327 B( 23-C , 69-H ) :   0.9440 B( 24-C , 25-S ) :   1.0349
B( 24-C , 28-C ) :   1.2303 B( 25-S , 26-C ) :   1.0291 B( 26-C , 27-C ) :   1.1977
B( 26-C , 33-C ) :   1.5321 B( 27-C , 28-C ) :   1.4957 B( 27-C , 32-S ) :   1.0802
B( 28-C , 29-S ) :   1.0572 B( 29-S , 30-C ) :   1.0042 B( 30-C , 31-C ) :   1.0531
B( 30-C , 70-H ) :   0.9476 B( 30-C , 71-H ) :   0.9401 B( 31-C , 32-S ) :   0.9715
B( 31-C , 72-H ) :   0.9316 B( 31-C , 73-H ) :   0.9459 B( 33-C , 34-C ) :   1.2321
B( 33-C , 74-H ) :   0.9552 B( 34-C , 35-C ) :   1.4096 B( 34-C , 38-S ) :   1.1001
B( 35-C , 36-C ) :   1.3209 B( 35-C , 75-H ) :   0.9963 B( 36-C , 37-C ) :   1.4453
B( 36-C , 76-H ) :   0.9977 B( 37-C , 38-S ) :   1.1230 B( 37-C , 39-C ) :   1.1559
B( 39-C , 40-C ) :   1.4617 B( 39-C , 43-S ) :   1.1090 B( 40-C , 41-C ) :   1.2981
B( 40-C , 77-H ) :   0.9986 B( 41-C , 42-C ) :   1.4009 B( 41-C , 78-H ) :   1.0020
B( 42-C , 43-S ) :   1.0867 B( 42-C , 44-C ) :   1.2596 B( 44-C , 45-C ) :   1.4108
B( 44-C , 79-H ) :   0.9724 B( 45-C , 46-C ) :   1.3652 B( 45-C , 80-H ) :   0.9594
B( 46-C , 47-C ) :   1.2469 B( 46-C , 50-S ) :   1.0409 B( 47-C , 48-C ) :   1.4943
B( 47-C , 81-H ) :   0.9992 B( 48-C , 49-C ) :   1.2075 B( 48-C , 82-H ) :   0.9941
B( 49-C , 50-S ) :   1.0488 B( 49-C , 51-C ) :   1.4950 B( 51-C , 52-C ) :   1.1842
B( 51-C , 55-S ) :   1.0386 B( 52-C , 53-C ) :   1.6209 B( 52-C , 83-H ) :   0.9940
B( 53-C , 54-C ) :   1.0940 B( 53-C , 84-H ) :   0.9936 B( 54-C , 55-S ) :   1.0085
B( 54-C , 56-C ) :   1.8455 B( 56-C , 85-H ) :   0.9502 B( 56-C , 86-H ) :   0.9415

-----------------------------------------------------------------------------
         ABSORPTION SPECTRUM VIA TRANSITION ELECTRIC DIPOLE MOMENTS
-----------------------------------------------------------------------------
State   Energy  Wavelength   fosc         T2         TX        TY        TZ
        (cm-1)    (nm)                  (au**2)     (au)      (au)      (au)
-----------------------------------------------------------------------------
   0    5702.7   1753.5   0.115433940   6.66388  -2.05351  -1.49322  -0.46613
   1    9266.9   1079.1   0.045972608   1.63321   0.58227   0.65540   0.92985
   2   11920.9    838.9   0.769778149  21.25851  -2.30481  -2.21734  -3.32111
   3   13001.2    769.2   0.045987693   1.16448   0.59591  -0.15875   0.88553
   4   13353.4    748.9   0.227206295   5.60149   0.03759  -0.96713   2.15980
   5   18363.2    544.6   1.963698570  35.20473  -1.76994   4.21909  -3.77774
   6   19056.9    524.7   0.013354472   0.23070  -0.13293  -0.39013   0.24664
   7   19893.4    502.7   0.154608336   2.55858   0.37068   1.01639   1.17819
   8   21619.8    462.5   0.354066651   5.39148  -0.50269  -1.10464  -1.97954
   9   22548.6    443.5   0.169468863   2.47427   0.15638  -1.37763   0.74294
  10   22952.1    435.7   0.153334881   2.19934  -0.86183   0.66645  -1.00620
  11   23188.8    431.2   0.086332064   1.22566  -0.23089   0.98834  -0.44220
  12   24779.1    403.6   0.036568118   0.48584   0.35475  -0.49191   0.34354
  13   24972.1    400.4   0.018034588   0.23775   0.29047  -0.10986   0.37591
  14   25303.8    395.2   0.106449014   1.38494   0.25137   0.96945  -0.61799
  15   25792.9    387.7   0.066960604   0.85466  -0.47646  -0.14075  -0.77964
  16   25897.1    386.1   0.082377446   1.04721   0.45962  -0.69897   0.58940
  17   25983.2    384.9   0.127084873   1.61019   0.05016  -1.26305   0.11126
  18   27707.6    360.9   0.164982671   1.96026  -0.60338  -0.90506  -0.88151
  19   28197.7    354.6   0.024813065   0.28970   0.26343   0.01600   0.46909
  20   28372.3    352.5   0.035863263   0.41613  -0.22467   0.03039  -0.60393
  21   28462.2    351.3   0.143632203   1.66134   0.61776   0.12347   1.12449
  22   29139.9    343.2   0.140343540   1.58555   0.73822  -0.75441   0.68662
  23   29512.6    338.8   0.021405742   0.23878   0.29169  -0.39180  -0.01383
  24   29991.4    333.4   0.006095497   0.06691   0.08946  -0.22967   0.07847
  25   30681.8    325.9   0.050378817   0.54056   0.24106   0.07003   0.69105
  26   31069.2    321.9   0.021262444   0.22530  -0.22226  -0.07768  -0.41215
  27   31362.9    318.8   0.012927418   0.13570  -0.19676  -0.19427   0.24340
  28   31511.3    317.3   0.026767726   0.27965  -0.32459  -0.22791  -0.34979
  29   32064.8    311.9   0.006446834   0.06619  -0.17939   0.10504  -0.15158
  30   32480.4    307.9   0.032529116   0.32971   0.46244  -0.26759   0.21036
  31   32984.6    303.2   0.071526990   0.71389   0.34607  -0.29933   0.71030
  32   33258.8    300.7   0.117016720   1.15829   0.63006  -0.86449   0.11820
  33   33453.4    298.9   0.038477585   0.37865  -0.51338  -0.24202  -0.23774
  34   34071.5    293.5   0.038707761   0.37401  -0.19141  -0.42349  -0.39753
  35   34223.0    292.2   0.061039373   0.58717   0.73968  -0.09102  -0.17822
  36   34319.0    291.4   0.004920204   0.04720  -0.03009  -0.19863  -0.08270
  37   34447.5    290.3   0.064446657   0.61591  -0.05642  -0.78209  -0.03255
  38   34586.9    289.1   0.058760469   0.55931   0.32906  -0.45524   0.49375
  39   34682.2    288.3   0.019635958   0.18639  -0.21875  -0.15476  -0.33851
  40   35325.9    283.1   0.010391854   0.09684   0.30067  -0.06807  -0.04249
  41   35412.9    282.4   0.006934379   0.06446  -0.18115   0.12045   0.13092
  42   35522.4    281.5   0.039703427   0.36796   0.51172  -0.32021  -0.05974
  43   35931.9    278.3   0.026160547   0.23969  -0.40322   0.25980  -0.09800
  44   36269.1    275.7   0.027195618   0.24685  -0.25874   0.40318   0.13172
  45   36456.7    274.3   0.049916351   0.45075   0.04107  -0.66605   0.07382
  46   36511.8    273.9   0.004115853   0.03711  -0.07569  -0.04560  -0.17118
  47   36768.5    272.0   0.023189237   0.20763  -0.19880  -0.40508   0.06334
  48   36966.8    270.5   0.062246661   0.55435  -0.17768  -0.68221  -0.23952
  49   37001.0    270.3   0.032721127   0.29113   0.09847   0.21528   0.48486
  50   37222.0    268.7   0.000251923   0.00223   0.02934   0.03264  -0.01738
  51   37482.1    266.8   0.033375454   0.29314  -0.05992  -0.02501  -0.53752
  52   37552.9    266.3   0.022376444   0.19617   0.19509  -0.23343   0.32189
  53   38034.8    262.9   0.009887974   0.08559  -0.19050  -0.10888  -0.19350
  54   38068.7    262.7   0.161921701   1.40027   0.32493   0.50106   1.02158
  55   38314.6    261.0   0.011039390   0.09485  -0.29686   0.06543   0.04947
  56   38594.4    259.1   0.032905442   0.28068  -0.19183  -0.46494  -0.16648
  57   38636.2    258.8   0.005920606   0.05045  -0.12144   0.18057  -0.05563
  58   38854.3    257.4   0.004111912   0.03484  -0.07763   0.16245   0.04923
  59   38976.4    256.6   0.006262181   0.05289   0.14497   0.04039   0.17392
  60   39108.6    255.7   0.018362144   0.15457   0.38672   0.02704   0.06550
  61   39502.9    253.1   0.071622179   0.59689   0.48510   0.28860   0.52752
  62   39697.7    251.9   0.005874840   0.04872  -0.16981   0.10320   0.09611
  63   39773.0    251.4   0.004437685   0.03673  -0.13134  -0.06949  -0.12104
  64   40076.6    249.5   0.017889641   0.14696  -0.15518   0.25516  -0.24035
  65   40199.7    248.8   0.027901778   0.22850  -0.42660   0.20211  -0.07525

FINAL SINGLE POINT ENERGY     -6147.221492556148

DIPOLE MOMENT
-------------
                                X             Y             Z
Electronic contribution:    -11.24733      -5.39607     -24.03451
Nuclear contribution   :     11.27587       5.07574      24.79635
                        -----------------------------------------
Total Dipole Moment    :      0.02855      -0.32033       0.76184
                        -----------------------------------------
Magnitude (a.u.)       :      0.82694
Magnitude (Debye)      :      2.10191

Rotational constants in cm-1:     0.001536     0.000852     0.000599
Rotational constants in MHz :    46.047975    25.546262    17.950541

                             ****ORCA TERMINATED NORMALLY****
TOTAL RUN TIME: 0 days 0 hours 9 minutes 15 seconds 112 msec
