                         Program Version 4.2.0 -  RELEASE  -
|  1> # ORCA input file
|  2> # SCF done       -178.738312259642          0.000911762016
|  3> ! CAM-B3LYP def2-SVP def2/J RIJCOSX Grid4 TightSCF
|  4> %maxcore 5000
|  5> %tddft
|  6>     Mode sTDDFT
|  7>     Ethresh 5.0
|  8>     maxcore 5000
|  9> end
| 10>
| 11> %pal
| 12>   nprocs 6
| 13>   end
| 14> * xyz 0 1
| 15>    C        5.99465       -26.33158         3.68507
| 16>    C        6.46696       -25.33605         2.92006
| 17>    C        6.72941       -25.35593         1.51184
| 18>    C        7.20780       -24.18990         1.01675
| 19>    C        7.36092       -23.16245         1.98292
| 20>    S        6.86975       -23.73540         3.56238
| 21>    C        7.83191       -21.88073         1.77561
| 22>    C        8.26110       -21.29830         0.56561
| 23>    C        8.68500       -20.00557         0.69526
| 24>    C        8.61621       -19.50134         2.00748
| 25>    S        7.97969       -20.72697         3.08543
| 26>    C        8.99583       -18.23784         2.43316
| 27>    C        8.91664       -17.79076         3.73725
| 28>    C        9.33080       -16.54128         4.17314
| 29>    C        9.28922       -16.04880         5.48862
| 30>    C        9.79815       -14.78655         5.63540
| 31>    C       10.26606       -14.22170         4.43572
| 32>    S       10.03086       -15.33851         3.10850
| 33>    C       10.86065       -12.98355         4.25177
| 34>    C       11.16446       -12.01002         5.22379
| 35>    C       11.79178       -10.90235         4.73537
| 36>    C       12.01908       -10.93767         3.33809
| 37>    S       11.37836       -12.44137         2.66885
| 38>    C       12.64984        -9.99372         2.57969
| 39>    N       12.83427       -10.13562         1.23953
| 40>    C       13.43232        -9.29029         0.36393
| 41>    S       13.95593        -9.96167        -1.15819
| 42>    C       14.63366        -8.42259        -1.59229
| 43>    N       15.23988        -8.30954        -2.83674
| 44>    O       15.72562        -7.23012        -3.14147
| 45>    O       15.24659        -9.31123        -3.54155
| 46>    C       14.45847        -7.46765        -0.62259
| 47>    C       13.76025        -7.93413         0.50236
| 48>    C       13.37587        -7.08672         1.61161
| 49>    C       14.08994        -6.02040         2.00447
| 50>    C       13.78463        -5.11853         3.09344
| 51>    C       14.71549        -4.11170         3.39374
| 52>    C       14.48468        -3.25417         4.43976
| 53>    C       13.31928        -3.37111         5.21630
| 54>    C       12.38362        -4.35236         4.92137
| 55>    C       12.62237        -5.21360         3.86872
| 56>    C       13.35425        -2.36136         6.25300
| 57>    C       14.54076        -1.62061         6.11502
| 58>    C       15.34877        -2.12142         4.94058
| 59>    C       15.51466        -1.02884         3.86773
| 60>    C       14.18294        -0.46903         3.38261
| 61>    C       16.73471        -2.62459         5.38355
| 62>    C       16.65501        -3.70997         6.45031
| 63>    C       14.84237        -0.60235         6.98384
| 64>    C       13.95827        -0.29392         8.02900
| 65>    C       12.77645        -1.03940         8.14764
| 66>    C       12.46584        -2.06322         7.27558
| 67>    C       14.21912         0.75013         8.99373
| 68>    C       15.28886         1.56630         9.02142
| 69>    C       15.53278         2.58543         9.99941
| 70>    C       16.63738         3.42857        10.00700
| 71>    C       16.54487         4.30371        11.12695
| 72>    C       17.36835         5.30865        11.57799
| 73>    C       16.98258         5.99396        12.74138
| 74>    C       17.57865         7.03705        13.44349
| 75>    C       16.76932         7.36824        14.56897
| 76>    C       15.66791         6.52641        14.56392
| 77>    C       15.76262         5.65282        13.43844
| 78>    C       14.93884         4.64971        12.98782
| 79>    C       15.32388         3.96325        11.82280
| 80>    C       14.72236         2.92124        11.12591
| 81>    C       17.09968         8.41206        15.51084
| 82>    C       16.37972         8.75031        16.57668
| 83>    H        5.76169       -27.28996         3.25522
| 84>    H        5.83442       -26.20696         4.74019
| 85>    H        6.54884       -26.24327         0.93156
| 86>    H        7.45922       -24.02935        -0.01658
| 87>    H        8.24871       -21.83868        -0.36363
| 88>    H        9.04775       -19.40240        -0.11864
| 89>    H        9.38758       -17.56506         1.68007
| 90>    H        8.51377       -18.46033         4.48699
| 91>    H        8.89097       -16.63847         6.29568
| 92>    H        9.84754       -14.26070         6.57189
| 93>    H       10.91903       -12.15424         6.26037
| 94>    H       12.10263       -10.06344         5.33172
| 95>    H       13.05725        -9.11195         3.04579
| 96>    H       12.56644       -11.03970         0.86383
| 97>    H       14.79443        -6.45560        -0.75447
| 98>    H       12.44976        -7.34196         2.10588
| 99>    H       15.02211        -5.81350         1.49440
|100>    H       15.61306        -4.02580         2.79746
|101>    H       11.48105        -4.44567         5.50730
|102>    H       11.89114        -5.97500         3.64225
|103>    H       16.06095        -1.44984         3.02084
|104>    H       16.11722        -0.21884         4.28434
|105>    H       13.57204        -1.25543         2.94481
|106>    H       14.35096         0.29666         2.62868
|107>    H       13.63040        -0.02496         4.20771
|108>    H       17.30687        -1.77878         5.77053
|109>    H       17.26303        -3.01223         4.50978
|110>    H       16.14945        -3.33751         7.33851
|111>    H       17.65463        -4.03278         6.73238
|112>    H       16.10568        -4.57277         6.07975
|113>    H       15.75892        -0.04527         6.86635
|114>    H       12.09236        -0.80206         8.95060
|115>    H       11.54904        -2.62251         7.39176
|116>    H       13.46216         0.85960         9.75946
|117>    H       16.05537         1.48210         8.26261
|118>    H       17.43635         3.42711         9.28760
|119>    H       18.28284         5.56812        11.06253
|120>    H       18.50298         7.52508        13.18791
|121>    H       14.86562         6.51730        15.27793
|122>    H       14.02480         4.38947        13.50373
|123>    H       13.79721         2.44424        11.39386
|124>    H       18.01998         8.94317        15.29942
|125>    H       15.45957         8.25100        16.82724
|126>    H       16.68786         9.54191        17.23747
|127> *
|128>
|129>                          ****END OF INPUT****

CARTESIAN COORDINATES (ANGSTROEM)
---------------------------------
  C      5.994650  -26.331580    3.685070
  C      6.466960  -25.336050    2.920060
  C      6.729410  -25.355930    1.511840
  C      7.207800  -24.189900    1.016750
  C      7.360920  -23.162450    1.982920
  S      6.869750  -23.735400    3.562380
  C      7.831910  -21.880730    1.775610
  C      8.261100  -21.298300    0.565610
  C      8.685000  -20.005570    0.695260
  C      8.616210  -19.501340    2.007480
  S      7.979690  -20.726970    3.085430
  C      8.995830  -18.237840    2.433160
  C      8.916640  -17.790760    3.737250
  C      9.330800  -16.541280    4.173140
  C      9.289220  -16.048800    5.488620
  C      9.798150  -14.786550    5.635400
  C     10.266060  -14.221700    4.435720
  S     10.030860  -15.338510    3.108500
  C     10.860650  -12.983550    4.251770
  C     11.164460  -12.010020    5.223790
  C     11.791780  -10.902350    4.735370
  C     12.019080  -10.937670    3.338090
  S     11.378360  -12.441370    2.668850
  C     12.649840   -9.993720    2.579690
  N     12.834270  -10.135620    1.239530
  C     13.432320   -9.290290    0.363930
  S     13.955930   -9.961670   -1.158190
  C     14.633660   -8.422590   -1.592290
  N     15.239880   -8.309540   -2.836740
  O     15.725620   -7.230120   -3.141470
  O     15.246590   -9.311230   -3.541550
  C     14.458470   -7.467650   -0.622590
  C     13.760250   -7.934130    0.502360
  C     13.375870   -7.086720    1.611610
  C     14.089940   -6.020400    2.004470
  C     13.784630   -5.118530    3.093440
  C     14.715490   -4.111700    3.393740
  C     14.484680   -3.254170    4.439760
  C     13.319280   -3.371110    5.216300
  C     12.383620   -4.352360    4.921370
  C     12.622370   -5.213600    3.868720
  C     13.354250   -2.361360    6.253000
  C     14.540760   -1.620610    6.115020
  C     15.348770   -2.121420    4.940580
  C     15.514660   -1.028840    3.867730
  C     14.182940   -0.469030    3.382610
  C     16.734710   -2.624590    5.383550
  C     16.655010   -3.709970    6.450310
  C     14.842370   -0.602350    6.983840
  C     13.958270   -0.293920    8.029000
  C     12.776450   -1.039400    8.147640
  C     12.465840   -2.063220    7.275580
  C     14.219120    0.750130    8.993730
  C     15.288860    1.566300    9.021420
  C     15.532780    2.585430    9.999410
  C     16.637380    3.428570   10.007000
  C     16.544870    4.303710   11.126950
  C     17.368350    5.308650   11.577990
  C     16.982580    5.993960   12.741380
  C     17.578650    7.037050   13.443490
  C     16.769320    7.368240   14.568970
  C     15.667910    6.526410   14.563920
  C     15.762620    5.652820   13.438440
  C     14.938840    4.649710   12.987820
  C     15.323880    3.963250   11.822800
  C     14.722360    2.921240   11.125910
  C     17.099680    8.412060   15.510840
  C     16.379720    8.750310   16.576680
  H      5.761690  -27.289960    3.255220
  H      5.834420  -26.206960    4.740190
  H      6.548840  -26.243270    0.931560
  H      7.459220  -24.029350   -0.016580
  H      8.248710  -21.838680   -0.363630
  H      9.047750  -19.402400   -0.118640
  H      9.387580  -17.565060    1.680070
  H      8.513770  -18.460330    4.486990
  H      8.890970  -16.638470    6.295680
  H      9.847540  -14.260700    6.571890
  H     10.919030  -12.154240    6.260370
  H     12.102630  -10.063440    5.331720
  H     13.057250   -9.111950    3.045790
  H     12.566440  -11.039700    0.863830
  H     14.794430   -6.455600   -0.754470
  H     12.449760   -7.341960    2.105880
  H     15.022110   -5.813500    1.494400
  H     15.613060   -4.025800    2.797460
  H     11.481050   -4.445670    5.507300
  H     11.891140   -5.975000    3.642250
  H     16.060950   -1.449840    3.020840
  H     16.117220   -0.218840    4.284340
  H     13.572040   -1.255430    2.944810
  H     14.350960    0.296660    2.628680
  H     13.630400   -0.024960    4.207710
  H     17.306870   -1.778780    5.770530
  H     17.263030   -3.012230    4.509780
  H     16.149450   -3.337510    7.338510
  H     17.654630   -4.032780    6.732380
  H     16.105680   -4.572770    6.079750
  H     15.758920   -0.045270    6.866350
  H     12.092360   -0.802060    8.950600
  H     11.549040   -2.622510    7.391760
  H     13.462160    0.859600    9.759460
  H     16.055370    1.482100    8.262610
  H     17.436350    3.427110    9.287600
  H     18.282840    5.568120   11.062530
  H     18.502980    7.525080   13.187910
  H     14.865620    6.517300   15.277930
  H     14.024800    4.389470   13.503730
  H     13.797210    2.444240   11.393860
  H     18.019980    8.943170   15.299420
  H     15.459570    8.251000   16.827240
  H     16.687860    9.541910   17.237470

 Total Charge           Charge          ....    0
 Multiplicity           Mult            ....    1
 Number of Electrons    NEL             ....  508
 Basis Dimension        Dim             .... 1192

ORBITAL ENERGIES
----------------

  NO   OCC          E(Eh)            E(eV)
   0   2.0000     -88.975178     -2421.1377
   1   2.0000     -88.948475     -2420.4111
   2   2.0000     -88.939861     -2420.1767
   3   2.0000     -88.937594     -2420.1150
   4   2.0000     -88.933705     -2420.0091
   5   2.0000     -19.224462      -523.1242
   6   2.0000     -19.223673      -523.1027
   7   2.0000     -14.635867      -398.2622
   8   2.0000     -14.485446      -394.1690
   9   2.0000     -10.364041      -282.0199
  10   2.0000     -10.331481      -281.1339
  11   2.0000     -10.330900      -281.1181
  12   2.0000     -10.310226      -280.5555
  13   2.0000     -10.307561      -280.4830
  14   2.0000     -10.304602      -280.4025
  15   2.0000     -10.303794      -280.3805
  16   2.0000     -10.303046      -280.3601
  17   2.0000     -10.301313      -280.3130
  18   2.0000     -10.300429      -280.2889
  19   2.0000     -10.299956      -280.2760
  20   2.0000     -10.299305      -280.2583
  21   2.0000     -10.298384      -280.2333
  22   2.0000     -10.296428      -280.1800
  23   2.0000     -10.292476      -280.0725
  24   2.0000     -10.287426      -279.9351
  25   2.0000     -10.284688      -279.8606
  26   2.0000     -10.283886      -279.8388
  27   2.0000     -10.282297      -279.7955
  28   2.0000     -10.281448      -279.7724
  29   2.0000     -10.281079      -279.7624
  30   2.0000     -10.280225      -279.7391
  31   2.0000     -10.280012      -279.7333
  32   2.0000     -10.278469      -279.6914
  33   2.0000     -10.278137      -279.6823
  34   2.0000     -10.277773      -279.6724
  35   2.0000     -10.277740      -279.6715
  36   2.0000     -10.277334      -279.6605
  37   2.0000     -10.274162      -279.5742
  38   2.0000     -10.273347      -279.5520
  39   2.0000     -10.272892      -279.5396
  40   2.0000     -10.272417      -279.5267
  41   2.0000     -10.271034      -279.4891
  42   2.0000     -10.270707      -279.4801
  43   2.0000     -10.270252      -279.4678
  44   2.0000     -10.270249      -279.4677
  45   2.0000     -10.268774      -279.4276
  46   2.0000     -10.268563      -279.4218
  47   2.0000     -10.266976      -279.3786
  48   2.0000     -10.266740      -279.3722
  49   2.0000     -10.265257      -279.3318
  50   2.0000     -10.265170      -279.3295
  51   2.0000     -10.264775      -279.3187
  52   2.0000     -10.264732      -279.3176
  53   2.0000     -10.264136      -279.3013
  54   2.0000     -10.263331      -279.2794
  55   2.0000     -10.263246      -279.2771
  56   2.0000     -10.262668      -279.2614
  57   2.0000     -10.262581      -279.2590
  58   2.0000     -10.262342      -279.2525
  59   2.0000     -10.260575      -279.2044
  60   2.0000     -10.260485      -279.2020
  61   2.0000     -10.260252      -279.1957
  62   2.0000     -10.260202      -279.1943
  63   2.0000     -10.258515      -279.1484
  64   2.0000     -10.258176      -279.1392
  65   2.0000     -10.253671      -279.0166
  66   2.0000     -10.244045      -278.7546
  67   2.0000     -10.242920      -278.7240
  68   2.0000      -8.070993      -219.6229
  69   2.0000      -8.044812      -218.9105
  70   2.0000      -8.036224      -218.6768
  71   2.0000      -8.033937      -218.6145
  72   2.0000      -8.030286      -218.5152
  73   2.0000      -6.040783      -164.3781
  74   2.0000      -6.036374      -164.2581
  75   2.0000      -6.032194      -164.1443
  76   2.0000      -6.014658      -163.6672
  77   2.0000      -6.010694      -163.5593
  78   2.0000      -6.005899      -163.4288
  79   2.0000      -6.005524      -163.4186
  80   2.0000      -6.003624      -163.3669
  81   2.0000      -6.001966      -163.3218
  82   2.0000      -6.000100      -163.2710
  83   2.0000      -5.999679      -163.2596
  84   2.0000      -5.997185      -163.1917
  85   2.0000      -5.996175      -163.1642
  86   2.0000      -5.994876      -163.1289
  87   2.0000      -5.990904      -163.0208
  88   2.0000      -1.302364       -35.4391
  89   2.0000      -1.121177       -30.5088
  90   2.0000      -1.089127       -29.6367
  91   2.0000      -0.999127       -27.1876
  92   2.0000      -0.989783       -26.9334
  93   2.0000      -0.986655       -26.8482
  94   2.0000      -0.984277       -26.7835
  95   2.0000      -0.982654       -26.7394
  96   2.0000      -0.969172       -26.3725
  97   2.0000      -0.963389       -26.2152
  98   2.0000      -0.956894       -26.0384
  99   2.0000      -0.943726       -25.6801
 100   2.0000      -0.920196       -25.0398
 101   2.0000      -0.905044       -24.6275
 102   2.0000      -0.900017       -24.4907
 103   2.0000      -0.896106       -24.3843
 104   2.0000      -0.889619       -24.2078
 105   2.0000      -0.879395       -23.9296
 106   2.0000      -0.869721       -23.6663
 107   2.0000      -0.861690       -23.4478
 108   2.0000      -0.859188       -23.3797
 109   2.0000      -0.854892       -23.2628
 110   2.0000      -0.844947       -22.9922
 111   2.0000      -0.841214       -22.8906
 112   2.0000      -0.838373       -22.8133
 113   2.0000      -0.834388       -22.7049
 114   2.0000      -0.831713       -22.6321
 115   2.0000      -0.830628       -22.6025
 116   2.0000      -0.828200       -22.5365
 117   2.0000      -0.821859       -22.3639
 118   2.0000      -0.818259       -22.2659
 119   2.0000      -0.812198       -22.1010
 120   2.0000      -0.798748       -21.7350
 121   2.0000      -0.794509       -21.6197
 122   2.0000      -0.791716       -21.5437
 123   2.0000      -0.773826       -21.0569
 124   2.0000      -0.764390       -20.8001
 125   2.0000      -0.758188       -20.6314
 126   2.0000      -0.756495       -20.5853
 127   2.0000      -0.743762       -20.2388
 128   2.0000      -0.736925       -20.0527
 129   2.0000      -0.731129       -19.8950
 130   2.0000      -0.714981       -19.4556
 131   2.0000      -0.707675       -19.2568
 132   2.0000      -0.702374       -19.1126
 133   2.0000      -0.686300       -18.6752
 134   2.0000      -0.680285       -18.5115
 135   2.0000      -0.676798       -18.4166
 136   2.0000      -0.671404       -18.2698
 137   2.0000      -0.670405       -18.2426
 138   2.0000      -0.666458       -18.1352
 139   2.0000      -0.664925       -18.0935
 140   2.0000      -0.661051       -17.9881
 141   2.0000      -0.652213       -17.7476
 142   2.0000      -0.649298       -17.6683
 143   2.0000      -0.634146       -17.2560
 144   2.0000      -0.632854       -17.2208
 145   2.0000      -0.628927       -17.1140
 146   2.0000      -0.623796       -16.9744
 147   2.0000      -0.620426       -16.8826
 148   2.0000      -0.618779       -16.8378
 149   2.0000      -0.617532       -16.8039
 150   2.0000      -0.616714       -16.7816
 151   2.0000      -0.615784       -16.7563
 152   2.0000      -0.612767       -16.6742
 153   2.0000      -0.608136       -16.5482
 154   2.0000      -0.602647       -16.3989
 155   2.0000      -0.592204       -16.1147
 156   2.0000      -0.589841       -16.0504
 157   2.0000      -0.588642       -16.0178
 158   2.0000      -0.581280       -15.8174
 159   2.0000      -0.576937       -15.6992
 160   2.0000      -0.575528       -15.6609
 161   2.0000      -0.574262       -15.6265
 162   2.0000      -0.571480       -15.5507
 163   2.0000      -0.561970       -15.2920
 164   2.0000      -0.551771       -15.0145
 165   2.0000      -0.550905       -14.9909
 166   2.0000      -0.547236       -14.8911
 167   2.0000      -0.539965       -14.6932
 168   2.0000      -0.539212       -14.6727
 169   2.0000      -0.535953       -14.5840
 170   2.0000      -0.532386       -14.4870
 171   2.0000      -0.531247       -14.4560
 172   2.0000      -0.526081       -14.3154
 173   2.0000      -0.524213       -14.2646
 174   2.0000      -0.516659       -14.0590
 175   2.0000      -0.514686       -14.0053
 176   2.0000      -0.514042       -13.9878
 177   2.0000      -0.513491       -13.9728
 178   2.0000      -0.508612       -13.8400
 179   2.0000      -0.507151       -13.8003
 180   2.0000      -0.502775       -13.6812
 181   2.0000      -0.499458       -13.5910
 182   2.0000      -0.495238       -13.4761
 183   2.0000      -0.494014       -13.4428
 184   2.0000      -0.491241       -13.3673
 185   2.0000      -0.490231       -13.3399
 186   2.0000      -0.489919       -13.3314
 187   2.0000      -0.488858       -13.3025
 188   2.0000      -0.487890       -13.2762
 189   2.0000      -0.484943       -13.1960
 190   2.0000      -0.482705       -13.1351
 191   2.0000      -0.477055       -12.9813
 192   2.0000      -0.476402       -12.9636
 193   2.0000      -0.475529       -12.9398
 194   2.0000      -0.469574       -12.7778
 195   2.0000      -0.467648       -12.7253
 196   2.0000      -0.466699       -12.6995
 197   2.0000      -0.464508       -12.6399
 198   2.0000      -0.463529       -12.6133
 199   2.0000      -0.461553       -12.5595
 200   2.0000      -0.459815       -12.5122
 201   2.0000      -0.456707       -12.4276
 202   2.0000      -0.455040       -12.3823
 203   2.0000      -0.453856       -12.3500
 204   2.0000      -0.451761       -12.2930
 205   2.0000      -0.449820       -12.2402
 206   2.0000      -0.446947       -12.1620
 207   2.0000      -0.444684       -12.1005
 208   2.0000      -0.441598       -12.0165
 209   2.0000      -0.438920       -11.9436
 210   2.0000      -0.435587       -11.8529
 211   2.0000      -0.434913       -11.8346
 212   2.0000      -0.431123       -11.7315
 213   2.0000      -0.428207       -11.6521
 214   2.0000      -0.423388       -11.5210
 215   2.0000      -0.422578       -11.4989
 216   2.0000      -0.421902       -11.4805
 217   2.0000      -0.417493       -11.3606
 218   2.0000      -0.416427       -11.3316
 219   2.0000      -0.415026       -11.2934
 220   2.0000      -0.413766       -11.2591
 221   2.0000      -0.406521       -11.0620
 222   2.0000      -0.404359       -11.0032
 223   2.0000      -0.401079       -10.9139
 224   2.0000      -0.400756       -10.9051
 225   2.0000      -0.399578       -10.8731
 226   2.0000      -0.390167       -10.6170
 227   2.0000      -0.389498       -10.5988
 228   2.0000      -0.387364       -10.5407
 229   2.0000      -0.383634       -10.4392
 230   2.0000      -0.378508       -10.2997
 231   2.0000      -0.373439       -10.1618
 232   2.0000      -0.373245       -10.1565
 233   2.0000      -0.368929       -10.0391
 234   2.0000      -0.363782        -9.8990
 235   2.0000      -0.361642        -9.8408
 236   2.0000      -0.352729        -9.5983
 237   2.0000      -0.345473        -9.4008
 238   2.0000      -0.344534        -9.3753
 239   2.0000      -0.337365        -9.1802
 240   2.0000      -0.331070        -9.0089
 241   2.0000      -0.324464        -8.8291
 242   2.0000      -0.322222        -8.7681
 243   2.0000      -0.319102        -8.6832
 244   2.0000      -0.316441        -8.6108
 245   2.0000      -0.310814        -8.4577
 246   2.0000      -0.307808        -8.3759
 247   2.0000      -0.292592        -7.9618
 248   2.0000      -0.277302        -7.5458
 249   2.0000      -0.262382        -7.1398
 250   2.0000      -0.257060        -6.9950
 251   2.0000      -0.236730        -6.4417
 252   2.0000      -0.224668        -6.1135
 253   2.0000      -0.186629        -5.0784
 254   0.0000      -0.093511        -2.5446
 255   0.0000      -0.086037        -2.3412
 256   0.0000      -0.047942        -1.3046
 257   0.0000      -0.039535        -1.0758
 258   0.0000      -0.025958        -0.7063

MULLIKEN ATOMIC CHARGES
-----------------------
   0 C :   -0.030879
   1 C :   -0.064698
   2 C :    0.048793
   3 C :    0.026379
   4 C :   -0.065569
   5 S :    0.078470
   6 C :   -0.042809
   7 C :    0.016689
   8 C :    0.032684
   9 C :   -0.026006
  10 S :    0.072528
  11 C :   -0.014020
  12 C :   -0.013297
  13 C :   -0.025124
  14 C :    0.032511
  15 C :    0.013023
  16 C :   -0.042520
  17 S :    0.066390
  18 C :   -0.048278
  19 C :    0.021173
  20 C :    0.033537
  21 C :   -0.048149
  22 S :    0.039632
  23 C :    0.021369
  24 N :   -0.015267
  25 C :   -0.116772
  26 S :    0.160753
  27 C :   -0.013419
  28 N :    0.279754
  29 O :   -0.262529
  30 O :   -0.276317
  31 C :   -0.002011
  32 C :    0.090402
  33 C :   -0.027006
  34 C :   -0.009390
  35 C :    0.127074
  36 C :   -0.112827
  37 C :    0.021297
  38 C :    0.107389
  39 C :   -0.042793
  40 C :   -0.023062
  41 C :    0.103046
  42 C :    0.016391
  43 C :   -0.142462
  44 C :    0.072531
  45 C :    0.021118
  46 C :    0.066163
  47 C :    0.029005
  48 C :   -0.094780
  49 C :    0.137794
  50 C :   -0.028279
  51 C :   -0.045322
  52 C :   -0.026335
  53 C :    0.037079
  54 C :    0.078789
  55 C :   -0.039367
  56 C :    0.060274
  57 C :   -0.000559
  58 C :    0.048876
  59 C :   -0.025087
  60 C :    0.060793
  61 C :   -0.026494
  62 C :    0.044620
  63 C :    0.002943
  64 C :    0.043822
  65 C :   -0.026568
  66 C :    0.008434
  67 C :   -0.018862
  68 H :    0.017989
  69 H :    0.020513
  70 H :   -0.013380
  71 H :   -0.012793
  72 H :   -0.016982
  73 H :   -0.015167
  74 H :   -0.010296
  75 H :   -0.008431
  76 H :   -0.014800
  77 H :   -0.017418
  78 H :   -0.014308
  79 H :   -0.011830
  80 H :    0.024799
  81 H :    0.142503
  82 H :    0.009673
  83 H :    0.003559
  84 H :   -0.022138
  85 H :   -0.042177
  86 H :   -0.038583
  87 H :   -0.036082
  88 H :   -0.003756
  89 H :   -0.004181
  90 H :    0.021150
  91 H :    0.009909
  92 H :    0.023812
  93 H :   -0.003332
  94 H :   -0.003694
  95 H :    0.022657
  96 H :    0.006977
  97 H :    0.018011
  98 H :   -0.047753
  99 H :   -0.032874
 100 H :   -0.040589
 101 H :   -0.037994
 102 H :   -0.031750
 103 H :   -0.029713
 104 H :   -0.028754
 105 H :   -0.026216
 106 H :   -0.030154
 107 H :   -0.027283
 108 H :   -0.025462
 109 H :   -0.023150
 110 H :    0.006689
 111 H :    0.018126
Sum of atomic charges:   -0.0000000

LOEWDIN ATOMIC CHARGES
----------------------
   0 C :   -0.080199
   1 C :   -0.139144
   2 C :   -0.035794
   3 C :   -0.027259
   4 C :   -0.180400
   5 S :    0.351910
   6 C :   -0.179472
   7 C :   -0.037334
   8 C :   -0.036882
   9 C :   -0.146775
  10 S :    0.370282
  11 C :   -0.065288
  12 C :   -0.063989
  13 C :   -0.147665
  14 C :   -0.037781
  15 C :   -0.038954
  16 C :   -0.184182
  17 S :    0.366625
  18 C :   -0.176340
  19 C :   -0.042238
  20 C :   -0.034195
  21 C :   -0.188373
  22 S :    0.338469
  23 C :   -0.006833
  24 N :    0.045369
  25 C :   -0.101659
  26 S :    0.441504
  27 C :   -0.215853
  28 N :    0.274782
  29 O :   -0.228686
  30 O :   -0.242533
  31 C :    0.005666
  32 C :   -0.104489
  33 C :   -0.037664
  34 C :   -0.014378
  35 C :   -0.029333
  36 C :   -0.020727
  37 C :    0.003017
  38 C :   -0.014774
  39 C :   -0.018586
  40 C :   -0.019262
  41 C :   -0.024304
  42 C :    0.005419
  43 C :   -0.035714
  44 C :   -0.011151
  45 C :   -0.058189
  46 C :   -0.012084
  47 C :   -0.057577
  48 C :   -0.020841
  49 C :   -0.018471
  50 C :   -0.023468
  51 C :   -0.019649
  52 C :   -0.033810
  53 C :   -0.015838
  54 C :   -0.063932
  55 C :    0.013511
  56 C :   -0.067546
  57 C :    0.074267
  58 C :   -0.073938
  59 C :    0.041623
  60 C :   -0.066724
  61 C :    0.022528
  62 C :   -0.061968
  63 C :    0.077084
  64 C :   -0.067451
  65 C :    0.044071
  66 C :   -0.024632
  67 C :   -0.050279
  68 H :    0.027849
  69 H :    0.025480
  70 H :    0.032437
  71 H :    0.031944
  72 H :    0.030140
  73 H :    0.032893
  74 H :    0.027179
  75 H :    0.027966
  76 H :    0.033067
  77 H :    0.030097
  78 H :    0.032301
  79 H :    0.033129
  80 H :    0.039038
  81 H :    0.083550
  82 H :    0.044466
  83 H :    0.025536
  84 H :    0.027261
  85 H :    0.023382
  86 H :    0.026152
  87 H :    0.022792
  88 H :    0.019303
  89 H :    0.019363
  90 H :    0.025293
  91 H :    0.024035
  92 H :    0.026303
  93 H :    0.019529
  94 H :    0.019183
  95 H :    0.026152
  96 H :    0.023228
  97 H :    0.024377
  98 H :    0.021296
  99 H :    0.024134
 100 H :    0.025143
 101 H :    0.021720
 102 H :    0.024954
 103 H :    0.022423
 104 H :    0.033663
 105 H :    0.024072
 106 H :    0.022396
 107 H :    0.033958
 108 H :    0.023244
 109 H :    0.026534
 110 H :    0.018207
 111 H :    0.023313

  Mayer bond orders larger than 0.100000
B(  0-C ,  1-C ) :   1.8557 B(  0-C , 68-H ) :   0.9501 B(  0-C , 69-H ) :   0.9417
B(  1-C ,  2-C ) :   1.0854 B(  1-C ,  5-S ) :   1.0095 B(  2-C ,  3-C ) :   1.6450
B(  2-C , 70-H ) :   0.9934 B(  3-C ,  4-C ) :   1.1691 B(  3-C , 71-H ) :   0.9926
B(  4-C ,  5-S ) :   1.0475 B(  4-C ,  6-C ) :   1.5144 B(  6-C ,  7-C ) :   1.2029
B(  6-C , 10-S ) :   1.0436 B(  7-C ,  8-C ) :   1.5565 B(  7-C , 72-H ) :   0.9943
B(  8-C ,  9-C ) :   1.1815 B(  8-C , 73-H ) :   0.9996 B(  9-C , 10-S ) :   1.0426
B(  9-C , 11-C ) :   1.5147 B( 11-C , 12-C ) :   1.2220 B( 11-C , 74-H ) :   0.9706
B( 12-C , 13-C ) :   1.5095 B( 12-C , 75-H ) :   0.9709 B( 13-C , 14-C ) :   1.1903
B( 13-C , 17-S ) :   1.0415 B( 14-C , 15-C ) :   1.5428 B( 14-C , 76-H ) :   0.9998
B( 15-C , 16-C ) :   1.2182 B( 15-C , 77-H ) :   0.9948 B( 16-C , 17-S ) :   1.0438
B( 16-C , 18-C ) :   1.4840 B( 18-C , 19-C ) :   1.2026 B( 18-C , 22-S ) :   1.0431
B( 19-C , 20-C ) :   1.5971 B( 19-C , 78-H ) :   0.9931 B( 20-C , 21-C ) :   1.1581
B( 20-C , 79-H ) :   0.9947 B( 21-C , 22-S ) :   1.0054 B( 21-C , 23-C ) :   1.5977
B( 23-C , 24-N ) :   1.1501 B( 23-C , 80-H ) :   0.9560 B( 24-N , 25-C ) :   1.2067
B( 24-N , 81-H ) :   0.9005 B( 25-C , 26-S ) :   1.1314 B( 25-C , 32-C ) :   1.3675
B( 26-S , 27-C ) :   1.0731 B( 27-C , 28-N ) :   0.9902 B( 27-C , 31-C ) :   1.4612
B( 28-N , 29-O ) :   1.5207 B( 28-N , 30-O ) :   1.4974 B( 29-O , 30-O ) :   0.2510
B( 31-C , 32-C ) :   1.2605 B( 31-C , 82-H ) :   1.0029 B( 32-C , 33-C ) :   1.0369
B( 33-C , 34-C ) :   1.7459 B( 33-C , 83-H ) :   0.9520 B( 34-C , 35-C ) :   1.0636
B( 34-C , 84-H ) :   0.9840 B( 35-C , 36-C ) :   1.2881 B( 35-C , 40-C ) :   1.3461
B( 36-C , 37-C ) :   1.3756 B( 36-C , 85-H ) :   1.0141 B( 37-C , 38-C ) :   1.3709
B( 37-C , 43-C ) :   0.9143 B( 38-C , 39-C ) :   1.3348 B( 38-C , 41-C ) :   0.9932
B( 39-C , 40-C ) :   1.3971 B( 39-C , 86-H ) :   0.9890 B( 40-C , 87-H ) :   0.9839
B( 41-C , 42-C ) :   1.3542 B( 41-C , 51-C ) :   1.3477 B( 42-C , 43-C ) :   0.9183
B( 42-C , 48-C ) :   1.4108 B( 43-C , 44-C ) :   1.0364 B( 43-C , 46-C ) :   1.0402
B( 44-C , 45-C ) :   1.1010 B( 44-C , 88-H ) :   0.9391 B( 44-C , 89-H ) :   0.9388
B( 45-C , 90-H ) :   0.9647 B( 45-C , 91-H ) :   0.9639 B( 45-C , 92-H ) :   0.9645
B( 46-C , 47-C ) :   1.1024 B( 46-C , 93-H ) :   0.9383 B( 46-C , 94-H ) :   0.9385
B( 47-C , 95-H ) :   0.9641 B( 47-C , 96-H ) :   0.9636 B( 47-C , 97-H ) :   0.9640
B( 48-C , 49-C ) :   1.2987 B( 48-C , 98-H ) :   1.0005 B( 49-C , 50-C ) :   1.3363
B( 49-C , 52-C ) :   1.0619 B( 50-C , 51-C ) :   1.3733 B( 50-C , 99-H ) :   0.9926
B( 51-C ,100-H ) :   0.9898 B( 52-C , 53-C ) :   1.6904 B( 52-C ,101-H ) :   0.9835
B( 53-C , 54-C ) :   1.0855 B( 53-C ,102-H ) :   0.9706 B( 54-C , 55-C ) :   1.4523
B( 54-C , 65-C ) :   1.1738 B( 55-C , 56-C ) :   1.1057 B( 55-C ,103-H ) :   1.0178
B( 56-C , 57-C ) :   1.4207 B( 56-C , 64-C ) :   1.1458 B( 57-C , 58-C ) :   1.1548
B( 57-C ,104-H ) :   1.0052 B( 58-C , 59-C ) :   1.3801 B( 58-C , 62-C ) :   1.1438
B( 59-C , 60-C ) :   1.1771 B( 59-C ,105-H ) :   1.0124 B( 60-C , 61-C ) :   1.4852
B( 60-C , 66-C ) :   1.0719 B( 61-C , 62-C ) :   1.1168 B( 61-C ,106-H ) :   1.0103
B( 62-C , 63-C ) :   1.4281 B( 63-C , 64-C ) :   1.1438 B( 63-C ,107-H ) :   1.0040
B( 64-C , 65-C ) :   1.3980 B( 65-C ,108-H ) :   1.0081 B( 66-C , 67-C ) :   1.9477
B( 66-C ,109-H ) :   0.9660 B( 67-C ,110-H ) :   0.9525 B( 67-C ,111-H ) :   0.9491

-----------------------------------------------------------------------------
         ABSORPTION SPECTRUM VIA TRANSITION ELECTRIC DIPOLE MOMENTS
-----------------------------------------------------------------------------
State   Energy  Wavelength   fosc         T2         TX        TY        TZ
        (cm-1)    (nm)                  (au**2)     (au)      (au)      (au)
-----------------------------------------------------------------------------
   0    7562.3   1322.4   0.001711899   0.07452   0.12611   0.22245   0.09560
   1   10476.0    954.6   2.011370990  63.20773  -3.02044  -7.35419   0.02287
   2   15561.6    642.6   0.000828583   0.01753   0.03783   0.09867   0.07976
   3   17695.7    565.1   0.026355655   0.49032   0.17000  -0.22290  -0.64167
   4   19905.9    502.4   0.213960501   3.53856   0.57279  -0.30720  -1.76525
   5   21661.7    461.6   0.031216825   0.47443   0.42344  -0.11399  -0.53117
   6   21911.7    456.4   0.264945422   3.98067  -0.40705  -1.60241  -1.11681
   7   22359.0    447.2   0.266037046   3.91710   0.49124   1.39734   1.31272
   8   23151.3    431.9   0.006060117   0.08617  -0.14103   0.00609   0.25739
   9   24442.8    409.1   0.227154859   3.05947  -0.10205  -1.31630  -1.14735
  10   26139.8    382.6   1.305242011  16.43858  -0.49760  -2.77938  -2.90965
  11   26659.6    375.1   1.121915343  13.85421   0.73293   2.59272   2.56804
  12   27308.0    366.2   0.113300915   1.36590  -0.48051  -0.90082   0.56880
  13   28213.1    354.4   0.127900440   1.49244  -0.56753  -1.05849   0.22352
  14   28373.6    352.4   0.000293530   0.00341   0.03821   0.03023  -0.03213
  15   28949.4    345.4   0.008319676   0.09461   0.27759  -0.02571  -0.12999
  16   29588.6    338.0   0.128611179   1.43097   0.69755   0.96005   0.15064
  17   30363.1    329.3   0.178304190   1.93326  -0.04549  -0.07459   1.38767
  18   30952.0    323.1   0.057574443   0.61237   0.09018  -0.00660  -0.77730
  19   31372.0    318.8   0.200914782   2.10836  -0.73561  -0.44934   1.16848
  20   32166.8    310.9   0.012426035   0.12717  -0.23802   0.25250  -0.08223
  21   32263.5    309.9   0.000074336   0.00076  -0.02248  -0.01563  -0.00301
  22   32404.3    308.6   0.005447469   0.05534  -0.16635   0.16453  -0.02450
  23   32649.6    306.3   0.000477400   0.00481  -0.01714  -0.02799   0.06113
  24   33379.5    299.6   0.043578165   0.42980   0.36023   0.12357  -0.53363
  25   33622.4    297.4   0.057287618   0.56093  -0.24077  -0.59232  -0.39002
  26   33841.3    295.5   0.020557895   0.19999   0.12104   0.32482   0.28254
  27   34053.3    293.7   0.104878276   1.01392  -0.22237   0.34480   0.91955
  28   34129.4    293.0   0.249078171   2.40261   0.74537   1.14852   0.72659
  29   34812.2    287.3   0.063566873   0.60114   0.13758  -0.01615  -0.76286
  30   34894.1    286.6   0.017653024   0.16655  -0.15491  -0.08016   0.36895
  31   34987.1    285.8   0.003419937   0.03218   0.10206  -0.04116  -0.14167
  32   35377.5    282.7   0.001642897   0.01529   0.03353   0.07452  -0.09279
  33   35738.7    279.8   0.007385199   0.06803  -0.11284   0.15054   0.18065
  34   35913.9    278.4   0.127123522   1.16530   0.10369   0.78841   0.73004
  35   36009.2    277.7   0.090516556   0.82754  -0.04257  -0.46281  -0.78201
  36   36901.9    271.0   0.048978975   0.43695   0.40777   0.49750  -0.15222
  37   37039.2    270.0   0.006064258   0.05390  -0.04550  -0.05875   0.21995
  38   37271.9    268.3   0.038520634   0.34024  -0.29516  -0.12555   0.48720
  39   37419.8    267.2   0.075429901   0.66362  -0.10653  -0.07453   0.80419
  40   37557.8    266.3   0.094343944   0.82697  -0.27117  -0.83771  -0.22734
  41   38579.3    259.2   0.104482428   0.89159   0.02997  -0.75280  -0.56919
  42   38969.7    256.6   0.012132539   0.10249   0.00259  -0.20129  -0.24894
  43   39129.8    255.6   0.028547775   0.24018  -0.10171   0.21116   0.43041
  44   39181.8    255.2   0.013935902   0.11709   0.19218  -0.00270  -0.28311
  45   39620.5    252.4   0.083624294   0.69485  -0.37648  -0.35609   0.65292
  46   39822.3    251.1   0.004239674   0.03505  -0.00162  -0.18462  -0.03103
  47   40118.4    249.3   0.011067499   0.09082  -0.12537   0.10548   0.25293

FINAL SINGLE POINT ENERGY     -4521.553031822454

DIPOLE MOMENT
-------------
                                X             Y             Z
Electronic contribution:    -28.31818     -98.46828     -49.12398
Nuclear contribution   :     27.67551      98.69342      51.43839
                        -----------------------------------------
Total Dipole Moment    :     -0.64267       0.22514       2.31441
                        -----------------------------------------
Magnitude (a.u.)       :      2.41252
Magnitude (Debye)      :      6.13213

Rotational constants in cm-1:     0.001438     0.000152     0.000139
Rotational constants in MHz :    43.097064     4.557306     4.154333

                             ****ORCA TERMINATED NORMALLY****
TOTAL RUN TIME: 0 days 0 hours 14 minutes 28 seconds 365 msec
