                         Program Version 4.2.0 -  RELEASE  -
|  1> # ORCA input file
|  2> # SCF done       -192.470630065051          0.000615533498
|  3> ! CAM-B3LYP def2-SVP def2/J RIJCOSX Grid4 TightSCF
|  4> %maxcore 5000
|  5> %tddft
|  6>     Mode sTDDFT
|  7>     Ethresh 5.0
|  8>     maxcore 5000
|  9> end
| 10>
| 11> %pal
| 12>   nprocs 6
| 13>   end
| 14> * xyz 0 1
| 15>    C        1.02633        -6.99903        -9.05778
| 16>    C        1.64958        -6.13719        -8.24354
| 17>    C        2.23612        -4.87268        -8.58731
| 18>    C        2.79818        -4.21867        -7.54833
| 19>    C        2.70295        -4.90422        -6.30242
| 20>    S        1.86741        -6.42637        -6.50862
| 21>    C        3.17225        -4.47814        -5.08255
| 22>    C        3.85601        -3.27136        -4.78823
| 23>    C        4.17536        -3.12770        -3.47666
| 24>    C        3.76132        -4.20739        -2.65078
| 25>    S        2.96493        -5.42890        -3.61923
| 26>    C        3.93010        -4.27128        -1.29190
| 27>    C        3.50774        -5.28967        -0.42975
| 28>    S        2.73516        -6.76546        -0.92497
| 29>    C        2.57210        -7.31083         0.73100
| 30>    C        3.07720        -6.35646         1.62467
| 31>    C        3.61522        -5.26054         0.95892
| 32>    S        4.41972        -3.89320         1.77933
| 33>    O        3.53757        -2.75682         1.75087
| 34>    O        5.72831        -3.71476         1.20511
| 35>    C        4.56284        -4.50016         3.48160
| 36>    C        3.21748        -5.10762         3.81495
| 37>    C        3.00665        -6.45059         3.11685
| 38>    C        1.96837        -8.57072         0.93678
| 39>    C        1.83617        -9.22750         2.11889
| 40>    C        1.15331       -10.45029         2.29125
| 41>    S        0.57221       -11.47458         1.01939
| 42>    C       -0.10317       -12.61526         2.16615
| 43>    C        0.13811       -12.20496         3.47851
| 44>    C        0.83749       -10.99966         3.52411
| 45>    S        1.25752       -10.14085         5.03152
| 46>    O        0.72578        -8.80267         4.97141
| 47>    O        2.67528       -10.25877         5.25031
| 48>    C        0.37017       -11.10728         6.28463
| 49>    C        0.58658       -12.56354         5.93027
| 50>    C       -0.23003       -12.97732         4.70570
| 51>    C       -0.75770       -13.75671         1.64683
| 52>    C       -1.60065       -14.59194         2.30984
| 53>    C       -2.18282       -15.73400         1.71110
| 54>    O       -1.85054       -16.14315         0.46077
| 55>    C       -3.12373       -16.61697         2.22024
| 56>    C       -3.94971       -16.92003         3.38868
| 57>    O       -4.05367       -16.36575         4.45262
| 58>    N       -4.64407       -18.06848         3.00748
| 59>    C       -4.35657       -18.54483         1.72989
| 60>    O       -4.84632       -19.51918         1.22519
| 61>    C       -3.36152       -17.58857         1.22393
| 62>    C       -2.55178       -17.27174         0.14637
| 63>    C       -2.35849       -17.92639        -1.09158
| 64>    C       -1.45469       -17.50865        -2.01958
| 65>    C       -1.24634       -18.20208        -3.23157
| 66>    C       -0.31777       -17.85303        -4.17342
| 67>    C       -0.04053       -18.54007        -5.42139
| 68>    C       -0.70170       -19.62815        -5.93078
| 69>    C       -0.38234       -20.24469        -7.15908
| 70>    N       -0.17303       -20.79046        -8.14716
| 71>    C       -1.79458       -20.28673        -5.32878
| 72>    N       -2.68705       -20.87913        -4.91536
| 73>    C        1.07562       -17.85634        -6.06683
| 74>    C        1.46468       -16.75699        -5.26347
| 75>    C        0.61256       -16.70081        -4.06025
| 76>    O        0.68018       -15.87540        -3.17377
| 77>    C        2.49281       -15.91282        -5.60634
| 78>    C        3.17476       -16.16696        -6.80043
| 79>    C        2.78301       -17.27036        -7.59573
| 80>    C        1.74142       -18.12205        -7.24954
| 81>    S        3.75957       -17.40529        -9.02660
| 82>    C        4.66792       -15.99726        -8.54351
| 83>    C        4.26300       -15.45245        -7.37169
| 84>   Br        6.06431       -15.37922        -9.63212
| 85>    H        0.91543        -6.78263       -10.10568
| 86>    H        0.61969        -7.92542        -8.69594
| 87>    H        2.20774        -4.51232        -9.60021
| 88>    H        3.28047        -3.26062        -7.62384
| 89>    H        4.08701        -2.54849        -5.54963
| 90>    H        4.69041        -2.28154        -3.05836
| 91>    H        4.42837        -3.44048        -0.81095
| 92>    H        4.80174        -3.64073         4.10205
| 93>    H        5.37796        -5.21794         3.50021
| 94>    H        3.12123        -5.25883         4.89194
| 95>    H        2.44493        -4.40145         3.50056
| 96>    H        2.02684        -6.83694         3.40799
| 97>    H        3.75740        -7.16425         3.47287
| 98>    H        1.57218        -9.04326         0.04500
| 99>    H        2.23514        -8.82737         3.03408
|100>    H       -0.67222       -10.80445         6.24171
|101>    H        0.79993       -10.84283         7.24690
|102>    H        1.65164       -12.70714         5.73190
|103>    H        0.30826       -13.20215         6.77131
|104>    H       -1.29432       -12.83493         4.92066
|105>    H       -0.07280       -14.04134         4.51366
|106>    H       -0.57816       -13.95555         0.59770
|107>    H       -1.91271       -14.41785         3.32554
|108>    H       -5.30715       -18.52631         3.61661
|109>    H       -2.96587       -18.80636        -1.25408
|110>    H       -0.86170       -16.62751        -1.82308
|111>    H       -1.86316       -19.07561        -3.39915
|112>    H        2.76304       -15.08363        -4.97138
|113>    H        1.48362       -18.94818        -7.89054
|114>    H        4.71140       -14.58291        -6.92694
|115> *
|116>
|117>                          ****END OF INPUT****

CARTESIAN COORDINATES (ANGSTROEM)
---------------------------------
  C      1.026330   -6.999030   -9.057780
  C      1.649580   -6.137190   -8.243540
  C      2.236120   -4.872680   -8.587310
  C      2.798180   -4.218670   -7.548330
  C      2.702950   -4.904220   -6.302420
  S      1.867410   -6.426370   -6.508620
  C      3.172250   -4.478140   -5.082550
  C      3.856010   -3.271360   -4.788230
  C      4.175360   -3.127700   -3.476660
  C      3.761320   -4.207390   -2.650780
  S      2.964930   -5.428900   -3.619230
  C      3.930100   -4.271280   -1.291900
  C      3.507740   -5.289670   -0.429750
  S      2.735160   -6.765460   -0.924970
  C      2.572100   -7.310830    0.731000
  C      3.077200   -6.356460    1.624670
  C      3.615220   -5.260540    0.958920
  S      4.419720   -3.893200    1.779330
  O      3.537570   -2.756820    1.750870
  O      5.728310   -3.714760    1.205110
  C      4.562840   -4.500160    3.481600
  C      3.217480   -5.107620    3.814950
  C      3.006650   -6.450590    3.116850
  C      1.968370   -8.570720    0.936780
  C      1.836170   -9.227500    2.118890
  C      1.153310  -10.450290    2.291250
  S      0.572210  -11.474580    1.019390
  C     -0.103170  -12.615260    2.166150
  C      0.138110  -12.204960    3.478510
  C      0.837490  -10.999660    3.524110
  S      1.257520  -10.140850    5.031520
  O      0.725780   -8.802670    4.971410
  O      2.675280  -10.258770    5.250310
  C      0.370170  -11.107280    6.284630
  C      0.586580  -12.563540    5.930270
  C     -0.230030  -12.977320    4.705700
  C     -0.757700  -13.756710    1.646830
  C     -1.600650  -14.591940    2.309840
  C     -2.182820  -15.734000    1.711100
  O     -1.850540  -16.143150    0.460770
  C     -3.123730  -16.616970    2.220240
  C     -3.949710  -16.920030    3.388680
  O     -4.053670  -16.365750    4.452620
  N     -4.644070  -18.068480    3.007480
  C     -4.356570  -18.544830    1.729890
  O     -4.846320  -19.519180    1.225190
  C     -3.361520  -17.588570    1.223930
  C     -2.551780  -17.271740    0.146370
  C     -2.358490  -17.926390   -1.091580
  C     -1.454690  -17.508650   -2.019580
  C     -1.246340  -18.202080   -3.231570
  C     -0.317770  -17.853030   -4.173420
  C     -0.040530  -18.540070   -5.421390
  C     -0.701700  -19.628150   -5.930780
  C     -0.382340  -20.244690   -7.159080
  N     -0.173030  -20.790460   -8.147160
  C     -1.794580  -20.286730   -5.328780
  N     -2.687050  -20.879130   -4.915360
  C      1.075620  -17.856340   -6.066830
  C      1.464680  -16.756990   -5.263470
  C      0.612560  -16.700810   -4.060250
  O      0.680180  -15.875400   -3.173770
  C      2.492810  -15.912820   -5.606340
  C      3.174760  -16.166960   -6.800430
  C      2.783010  -17.270360   -7.595730
  C      1.741420  -18.122050   -7.249540
  S      3.759570  -17.405290   -9.026600
  C      4.667920  -15.997260   -8.543510
  C      4.263000  -15.452450   -7.371690
  Br     6.064310  -15.379220   -9.632120
  H      0.915430   -6.782630  -10.105680
  H      0.619690   -7.925420   -8.695940
  H      2.207740   -4.512320   -9.600210
  H      3.280470   -3.260620   -7.623840
  H      4.087010   -2.548490   -5.549630
  H      4.690410   -2.281540   -3.058360
  H      4.428370   -3.440480   -0.810950
  H      4.801740   -3.640730    4.102050
  H      5.377960   -5.217940    3.500210
  H      3.121230   -5.258830    4.891940
  H      2.444930   -4.401450    3.500560
  H      2.026840   -6.836940    3.407990
  H      3.757400   -7.164250    3.472870
  H      1.572180   -9.043260    0.045000
  H      2.235140   -8.827370    3.034080
  H     -0.672220  -10.804450    6.241710
  H      0.799930  -10.842830    7.246900
  H      1.651640  -12.707140    5.731900
  H      0.308260  -13.202150    6.771310
  H     -1.294320  -12.834930    4.920660
  H     -0.072800  -14.041340    4.513660
  H     -0.578160  -13.955550    0.597700
  H     -1.912710  -14.417850    3.325540
  H     -5.307150  -18.526310    3.616610
  H     -2.965870  -18.806360   -1.254080
  H     -0.861700  -16.627510   -1.823080
  H     -1.863160  -19.075610   -3.399150
  H      2.763040  -15.083630   -4.971380
  H      1.483620  -18.948180   -7.890540
  H      4.711400  -14.582910   -6.926940

 Total Charge           Charge          ....    0
 Multiplicity           Mult            ....    1
 Number of Electrons    NEL             ....  568
 Basis Dimension        Dim             .... 1176

ORBITAL ENERGIES
----------------

  NO   OCC          E(Eh)            E(eV)
   0   2.0000    -482.887973    -13140.0498
   1   2.0000     -89.146456     -2425.7984
   2   2.0000     -89.131911     -2425.4026
   3   2.0000     -88.978359     -2421.2242
   4   2.0000     -88.974592     -2421.1217
   5   2.0000     -88.964711     -2420.8528
   6   2.0000     -88.950321     -2420.4613
   7   2.0000     -88.945557     -2420.3316
   8   2.0000     -62.565693     -1702.4991
   9   2.0000     -56.399650     -1534.7125
  10   2.0000     -56.396922     -1534.6383
  11   2.0000     -56.396891     -1534.6374
  12   2.0000     -19.320241      -525.7305
  13   2.0000     -19.221622      -523.0469
  14   2.0000     -19.218194      -522.9537
  15   2.0000     -19.216948      -522.9197
  16   2.0000     -19.196510      -522.3636
  17   2.0000     -19.196280      -522.3573
  18   2.0000     -19.181794      -521.9631
  19   2.0000     -19.181642      -521.9590
  20   2.0000     -14.460611      -393.4932
  21   2.0000     -14.418650      -392.3514
  22   2.0000     -14.417445      -392.3186
  23   2.0000     -10.407625      -283.2059
  24   2.0000     -10.406306      -283.1700
  25   2.0000     -10.374691      -282.3097
  26   2.0000     -10.371978      -282.2359
  27   2.0000     -10.368843      -282.1506
  28   2.0000     -10.361765      -281.9580
  29   2.0000     -10.345570      -281.5173
  30   2.0000     -10.344309      -281.4829
  31   2.0000     -10.330088      -281.0960
  32   2.0000     -10.328725      -281.0589
  33   2.0000     -10.321095      -280.8513
  34   2.0000     -10.320258      -280.8285
  35   2.0000     -10.319300      -280.8024
  36   2.0000     -10.318750      -280.7874
  37   2.0000     -10.318672      -280.7853
  38   2.0000     -10.318158      -280.7713
  39   2.0000     -10.315514      -280.6994
  40   2.0000     -10.314094      -280.6608
  41   2.0000     -10.313213      -280.6368
  42   2.0000     -10.313192      -280.6362
  43   2.0000     -10.313084      -280.6333
  44   2.0000     -10.312816      -280.6260
  45   2.0000     -10.311697      -280.5955
  46   2.0000     -10.311411      -280.5878
  47   2.0000     -10.310758      -280.5700
  48   2.0000     -10.308287      -280.5028
  49   2.0000     -10.306298      -280.4486
  50   2.0000     -10.305002      -280.4133
  51   2.0000     -10.304161      -280.3905
  52   2.0000     -10.303235      -280.3653
  53   2.0000     -10.302926      -280.3569
  54   2.0000     -10.300822      -280.2996
  55   2.0000     -10.300120      -280.2805
  56   2.0000     -10.299406      -280.2611
  57   2.0000     -10.299376      -280.2603
  58   2.0000     -10.299307      -280.2584
  59   2.0000     -10.298667      -280.2410
  60   2.0000     -10.298124      -280.2262
  61   2.0000     -10.297094      -280.1982
  62   2.0000     -10.295594      -280.1574
  63   2.0000     -10.295271      -280.1486
  64   2.0000     -10.294002      -280.1140
  65   2.0000     -10.292226      -280.0657
  66   2.0000     -10.291390      -280.0430
  67   2.0000     -10.290645      -280.0227
  68   2.0000     -10.285621      -279.8860
  69   2.0000     -10.285324      -279.8779
  70   2.0000     -10.281623      -279.7772
  71   2.0000     -10.281191      -279.7654
  72   2.0000     -10.279821      -279.7282
  73   2.0000     -10.278027      -279.6793
  74   2.0000      -8.795131      -239.3277
  75   2.0000      -8.211637      -223.4500
  76   2.0000      -8.197121      -223.0550
  77   2.0000      -8.074338      -219.7139
  78   2.0000      -8.070161      -219.6002
  79   2.0000      -8.059862      -219.3200
  80   2.0000      -8.046431      -218.9545
  81   2.0000      -8.042339      -218.8432
  82   2.0000      -6.631467      -180.4514
  83   2.0000      -6.616853      -180.0537
  84   2.0000      -6.616637      -180.0478
  85   2.0000      -6.180546      -168.1812
  86   2.0000      -6.180510      -168.1802
  87   2.0000      -6.179667      -168.1573
  88   2.0000      -6.166083      -167.7877
  89   2.0000      -6.165972      -167.7846
  90   2.0000      -6.165138      -167.7619
  91   2.0000      -6.044032      -164.4665
  92   2.0000      -6.039748      -164.3499
  93   2.0000      -6.039333      -164.3386
  94   2.0000      -6.035554      -164.2358
  95   2.0000      -6.035446      -164.2328
  96   2.0000      -6.032188      -164.1442
  97   2.0000      -6.029041      -164.0586
  98   2.0000      -6.025128      -163.9521
  99   2.0000      -6.021955      -163.8657
 100   2.0000      -6.016204      -163.7092
 101   2.0000      -6.012165      -163.5993
 102   2.0000      -6.012084      -163.5971
 103   2.0000      -6.008216      -163.4919
 104   2.0000      -6.007336      -163.4679
 105   2.0000      -6.002863      -163.3462
 106   2.0000      -2.747287       -74.7575
 107   2.0000      -2.743255       -74.6478
 108   2.0000      -2.743093       -74.6433
 109   2.0000      -2.731470       -74.3271
 110   2.0000      -2.731454       -74.3266
 111   2.0000      -1.236144       -33.6372
 112   2.0000      -1.203626       -32.7523
 113   2.0000      -1.189397       -32.3651
 114   2.0000      -1.162015       -31.6200
 115   2.0000      -1.141507       -31.0620
 116   2.0000      -1.136059       -30.9137
 117   2.0000      -1.079970       -29.3875
 118   2.0000      -1.066085       -29.0097
 119   2.0000      -1.049451       -28.5570
 120   2.0000      -1.025777       -27.9128
 121   2.0000      -1.016207       -27.6524
 122   2.0000      -1.012150       -27.5420
 123   2.0000      -1.002275       -27.2733
 124   2.0000      -0.996673       -27.1209
 125   2.0000      -0.995285       -27.0831
 126   2.0000      -0.992493       -27.0071
 127   2.0000      -0.974287       -26.5117
 128   2.0000      -0.951347       -25.8875
 129   2.0000      -0.943303       -25.6686
 130   2.0000      -0.942350       -25.6427
 131   2.0000      -0.933349       -25.3977
 132   2.0000      -0.926627       -25.2148
 133   2.0000      -0.925950       -25.1964
 134   2.0000      -0.912430       -24.8285
 135   2.0000      -0.911205       -24.7952
 136   2.0000      -0.898072       -24.4378
 137   2.0000      -0.888851       -24.1869
 138   2.0000      -0.888224       -24.1698
 139   2.0000      -0.876893       -23.8615
 140   2.0000      -0.866944       -23.5907
 141   2.0000      -0.860600       -23.4181
 142   2.0000      -0.855114       -23.2688
 143   2.0000      -0.851489       -23.1702
 144   2.0000      -0.846513       -23.0348
 145   2.0000      -0.838911       -22.8279
 146   2.0000      -0.832640       -22.6573
 147   2.0000      -0.827705       -22.5230
 148   2.0000      -0.824276       -22.4297
 149   2.0000      -0.811208       -22.0741
 150   2.0000      -0.801485       -21.8095
 151   2.0000      -0.788069       -21.4444
 152   2.0000      -0.776977       -21.1426
 153   2.0000      -0.770552       -20.9678
 154   2.0000      -0.764909       -20.8142
 155   2.0000      -0.760756       -20.7012
 156   2.0000      -0.745030       -20.2733
 157   2.0000      -0.737785       -20.0762
 158   2.0000      -0.732250       -19.9255
 159   2.0000      -0.725229       -19.7345
 160   2.0000      -0.718469       -19.5505
 161   2.0000      -0.717134       -19.5142
 162   2.0000      -0.708900       -19.2901
 163   2.0000      -0.697009       -18.9666
 164   2.0000      -0.695175       -18.9167
 165   2.0000      -0.690093       -18.7784
 166   2.0000      -0.681915       -18.5558
 167   2.0000      -0.670334       -18.2407
 168   2.0000      -0.667398       -18.1608
 169   2.0000      -0.659701       -17.9514
 170   2.0000      -0.658502       -17.9187
 171   2.0000      -0.639142       -17.3919
 172   2.0000      -0.638665       -17.3790
 173   2.0000      -0.630570       -17.1587
 174   2.0000      -0.629155       -17.1202
 175   2.0000      -0.627919       -17.0865
 176   2.0000      -0.622251       -16.9323
 177   2.0000      -0.612722       -16.6730
 178   2.0000      -0.605750       -16.4833
 179   2.0000      -0.603821       -16.4308
 180   2.0000      -0.603383       -16.4189
 181   2.0000      -0.600706       -16.3460
 182   2.0000      -0.599947       -16.3254
 183   2.0000      -0.597990       -16.2721
 184   2.0000      -0.593994       -16.1634
 185   2.0000      -0.593228       -16.1426
 186   2.0000      -0.581082       -15.8120
 187   2.0000      -0.577677       -15.7194
 188   2.0000      -0.573710       -15.6114
 189   2.0000      -0.569695       -15.5022
 190   2.0000      -0.565170       -15.3791
 191   2.0000      -0.560421       -15.2498
 192   2.0000      -0.557861       -15.1802
 193   2.0000      -0.556172       -15.1342
 194   2.0000      -0.552391       -15.0313
 195   2.0000      -0.550916       -14.9912
 196   2.0000      -0.550302       -14.9745
 197   2.0000      -0.546708       -14.8767
 198   2.0000      -0.543542       -14.7905
 199   2.0000      -0.541373       -14.7315
 200   2.0000      -0.538915       -14.6646
 201   2.0000      -0.537637       -14.6298
 202   2.0000      -0.531904       -14.4739
 203   2.0000      -0.528170       -14.3722
 204   2.0000      -0.527977       -14.3670
 205   2.0000      -0.522636       -14.2216
 206   2.0000      -0.522531       -14.2188
 207   2.0000      -0.520775       -14.1710
 208   2.0000      -0.517408       -14.0794
 209   2.0000      -0.514827       -14.0091
 210   2.0000      -0.513870       -13.9831
 211   2.0000      -0.513001       -13.9595
 212   2.0000      -0.511760       -13.9257
 213   2.0000      -0.509125       -13.8540
 214   2.0000      -0.505956       -13.7678
 215   2.0000      -0.503996       -13.7144
 216   2.0000      -0.499769       -13.5994
 217   2.0000      -0.497548       -13.5390
 218   2.0000      -0.496631       -13.5140
 219   2.0000      -0.493896       -13.4396
 220   2.0000      -0.492179       -13.3929
 221   2.0000      -0.489358       -13.3161
 222   2.0000      -0.487793       -13.2735
 223   2.0000      -0.485353       -13.2071
 224   2.0000      -0.482308       -13.1243
 225   2.0000      -0.479633       -13.0515
 226   2.0000      -0.479478       -13.0473
 227   2.0000      -0.474786       -12.9196
 228   2.0000      -0.472929       -12.8691
 229   2.0000      -0.468945       -12.7606
 230   2.0000      -0.465961       -12.6794
 231   2.0000      -0.463844       -12.6218
 232   2.0000      -0.461069       -12.5463
 233   2.0000      -0.460660       -12.5352
 234   2.0000      -0.457596       -12.4518
 235   2.0000      -0.452282       -12.3072
 236   2.0000      -0.450952       -12.2710
 237   2.0000      -0.450853       -12.2683
 238   2.0000      -0.445966       -12.1353
 239   2.0000      -0.445327       -12.1180
 240   2.0000      -0.443427       -12.0663
 241   2.0000      -0.441617       -12.0170
 242   2.0000      -0.439624       -11.9628
 243   2.0000      -0.435574       -11.8526
 244   2.0000      -0.431823       -11.7505
 245   2.0000      -0.430518       -11.7150
 246   2.0000      -0.429545       -11.6885
 247   2.0000      -0.427893       -11.6436
 248   2.0000      -0.426299       -11.6002
 249   2.0000      -0.422475       -11.4961
 250   2.0000      -0.415804       -11.3146
 251   2.0000      -0.413467       -11.2510
 252   2.0000      -0.410107       -11.1596
 253   2.0000      -0.407540       -11.0897
 254   2.0000      -0.404749       -11.0138
 255   2.0000      -0.397454       -10.8153
 256   2.0000      -0.395940       -10.7741
 257   2.0000      -0.391042       -10.6408
 258   2.0000      -0.390568       -10.6279
 259   2.0000      -0.388989       -10.5849
 260   2.0000      -0.386429       -10.5153
 261   2.0000      -0.381591       -10.3836
 262   2.0000      -0.377357       -10.2684
 263   2.0000      -0.376546       -10.2463
 264   2.0000      -0.376285       -10.2392
 265   2.0000      -0.369647       -10.0586
 266   2.0000      -0.366178        -9.9642
 267   2.0000      -0.361171        -9.8280
 268   2.0000      -0.358515        -9.7557
 269   2.0000      -0.352284        -9.5861
 270   2.0000      -0.352054        -9.5799
 271   2.0000      -0.343995        -9.3606
 272   2.0000      -0.343581        -9.3493
 273   2.0000      -0.340425        -9.2634
 274   2.0000      -0.337376        -9.1805
 275   2.0000      -0.334824        -9.1110
 276   2.0000      -0.329071        -8.9545
 277   2.0000      -0.319330        -8.6894
 278   2.0000      -0.318568        -8.6687
 279   2.0000      -0.309202        -8.4138
 280   2.0000      -0.296581        -8.0704
 281   2.0000      -0.281804        -7.6683
 282   2.0000      -0.256166        -6.9706
 283   2.0000      -0.218074        -5.9341
 284   0.0000      -0.108105        -2.9417
 285   0.0000      -0.086797        -2.3619
 286   0.0000      -0.068095        -1.8529
 287   0.0000      -0.062179        -1.6920
 288   0.0000      -0.031474        -0.8565

MULLIKEN ATOMIC CHARGES
-----------------------
   0 C :   -0.024582
   1 C :   -0.065335
   2 C :    0.055128
   3 C :    0.032196
   4 C :   -0.064176
   5 S :    0.086527
   6 C :   -0.040497
   7 C :    0.034703
   8 C :    0.033573
   9 C :   -0.027543
  10 S :    0.068964
  11 C :   -0.023260
  12 C :   -0.087012
  13 S :    0.126637
  14 C :   -0.138408
  15 C :   -0.025784
  16 C :   -0.052663
  17 S :    0.727985
  18 O :   -0.464507
  19 O :   -0.466182
  20 C :   -0.005516
  21 C :   -0.015528
  22 C :    0.068649
  23 C :    0.057489
  24 C :   -0.034934
  25 C :   -0.070073
  26 S :    0.154140
  27 C :   -0.148820
  28 C :   -0.017924
  29 C :   -0.060603
  30 S :    0.725491
  31 O :   -0.464358
  32 O :   -0.463464
  33 C :    0.000235
  34 C :   -0.020884
  35 C :    0.078890
  36 C :    0.062549
  37 C :   -0.058025
  38 C :    0.103292
  39 O :   -0.209985
  40 C :   -0.044848
  41 C :    0.165710
  42 O :   -0.146488
  43 N :   -0.167710
  44 C :    0.165672
  45 O :   -0.130671
  46 C :   -0.014703
  47 C :    0.087553
  48 C :    0.000123
  49 C :    0.009403
  50 C :   -0.038418
  51 C :   -0.058144
  52 C :    0.327803
  53 C :   -0.352051
  54 C :   -0.186005
  55 N :    0.152827
  56 C :   -0.189437
  57 N :    0.152910
  58 C :    0.014539
  59 C :   -0.013512
  60 C :    0.141844
  61 O :   -0.152186
  62 C :   -0.070058
  63 C :    0.119729
  64 C :   -0.092395
  65 C :   -0.021134
  66 S :    0.188991
  67 C :   -0.123478
  68 C :    0.038974
  69 Br:    0.025924
  70 H :    0.024447
  71 H :    0.024550
  72 H :   -0.007433
  73 H :   -0.008216
  74 H :   -0.010951
  75 H :   -0.000105
  76 H :    0.012751
  77 H :    0.067048
  78 H :    0.054138
  79 H :    0.032777
  80 H :    0.046825
  81 H :    0.056994
  82 H :    0.045869
  83 H :   -0.014969
  84 H :    0.005382
  85 H :    0.055779
  86 H :    0.070018
  87 H :    0.048929
  88 H :    0.032493
  89 H :    0.044466
  90 H :    0.037323
  91 H :    0.016822
  92 H :    0.005286
  93 H :    0.140749
  94 H :    0.032146
  95 H :    0.034801
  96 H :    0.014477
  97 H :   -0.010752
  98 H :   -0.006614
  99 H :   -0.002174
Sum of atomic charges:   -0.0000000

LOEWDIN ATOMIC CHARGES
----------------------
   0 C :   -0.067759
   1 C :   -0.139676
   2 C :   -0.024446
   3 C :   -0.025731
   4 C :   -0.167987
   5 S :    0.357123
   6 C :   -0.182484
   7 C :   -0.028573
   8 C :   -0.027219
   9 C :   -0.136799
  10 S :    0.367576
  11 C :   -0.078263
  12 C :   -0.151555
  13 S :    0.448665
  14 C :   -0.185289
  15 C :   -0.041125
  16 C :   -0.225381
  17 S :    1.171691
  18 O :   -0.515757
  19 O :   -0.514707
  20 C :   -0.132117
  21 C :   -0.045474
  22 C :   -0.030467
  23 C :   -0.019103
  24 C :   -0.061683
  25 C :   -0.139474
  26 S :    0.457455
  27 C :   -0.184911
  28 C :   -0.042644
  29 C :   -0.229880
  30 S :    1.172908
  31 O :   -0.515134
  32 O :   -0.516066
  33 C :   -0.130388
  34 C :   -0.045185
  35 C :   -0.028958
  36 C :   -0.001934
  37 C :   -0.061298
  38 C :    0.084214
  39 O :    0.017802
  40 C :   -0.107017
  41 C :    0.084770
  42 O :   -0.163344
  43 N :   -0.005820
  44 C :    0.084290
  45 O :   -0.148947
  46 C :   -0.073997
  47 C :    0.054869
  48 C :    0.011501
  49 C :   -0.018153
  50 C :    0.065191
  51 C :   -0.087734
  52 C :    0.073566
  53 C :   -0.137036
  54 C :   -0.017758
  55 N :   -0.051684
  56 C :   -0.021690
  57 N :   -0.047698
  58 C :   -0.020296
  59 C :   -0.051384
  60 C :    0.085031
  61 O :   -0.145113
  62 C :    0.022311
  63 C :   -0.032031
  64 C :   -0.143068
  65 C :   -0.009576
  66 S :    0.433990
  67 C :   -0.270690
  68 C :   -0.070180
  69 Br:    0.138467
  70 H :    0.030654
  71 H :    0.027711
  72 H :    0.035281
  73 H :    0.033880
  74 H :    0.032937
  75 H :    0.039120
  76 H :    0.038453
  77 H :    0.043030
  78 H :    0.033480
  79 H :    0.038956
  80 H :    0.032079
  81 H :    0.047290
  82 H :    0.040967
  83 H :    0.024980
  84 H :    0.027404
  85 H :    0.034591
  86 H :    0.044693
  87 H :    0.033212
  88 H :    0.038484
  89 H :    0.039507
  90 H :    0.042816
  91 H :    0.038956
  92 H :    0.042104
  93 H :    0.095993
  94 H :    0.052555
  95 H :    0.035465
  96 H :    0.043272
  97 H :    0.040868
  98 H :    0.041190
  99 H :    0.039336

  Mayer bond orders larger than 0.100000
B(  0-C ,  1-C ) :   1.8661 B(  0-C , 70-H ) :   0.9509 B(  0-C , 71-H ) :   0.9415
B(  1-C ,  2-C ) :   1.0790 B(  1-C ,  5-S ) :   1.0054 B(  2-C ,  3-C ) :   1.6633
B(  2-C , 72-H ) :   0.9932 B(  3-C ,  4-C ) :   1.1498 B(  3-C , 73-H ) :   0.9916
B(  4-C ,  5-S ) :   1.0520 B(  4-C ,  6-C ) :   1.5576 B(  6-C ,  7-C ) :   1.1687
B(  6-C , 10-S ) :   1.0293 B(  7-C ,  8-C ) :   1.6017 B(  7-C , 74-H ) :   0.9920
B(  8-C ,  9-C ) :   1.1418 B(  8-C , 75-H ) :   1.0012 B(  9-C , 10-S ) :   1.0452
B(  9-C , 11-C ) :   1.5596 B( 11-C , 12-C ) :   1.2139 B( 11-C , 76-H ) :   0.9405
B( 12-C , 13-S ) :   1.1360 B( 12-C , 16-C ) :   1.4870 B( 13-S , 14-C ) :   1.0887
B( 14-C , 15-C ) :   1.4558 B( 14-C , 23-C ) :   1.1837 B( 15-C , 16-C ) :   1.3762
B( 15-C , 22-C ) :   1.0512 B( 16-C , 17-S ) :   0.8171 B( 17-S , 18-O ) :   1.6903
B( 17-S , 19-O ) :   1.6890 B( 17-S , 20-C ) :   0.8727 B( 20-C , 21-C ) :   1.0213
B( 20-C , 77-H ) :   0.9331 B( 20-C , 78-H ) :   0.9365 B( 21-C , 22-C ) :   1.0779
B( 21-C , 79-H ) :   0.9308 B( 21-C , 80-H ) :   0.9442 B( 22-C , 81-H ) :   0.9079
B( 22-C , 82-H ) :   0.9045 B( 23-C , 24-C ) :   1.6190 B( 23-C , 83-H ) :   0.9515
B( 24-C , 25-C ) :   1.1874 B( 24-C , 84-H ) :   0.9353 B( 25-C , 26-S ) :   1.1503
B( 25-C , 29-C ) :   1.5107 B( 26-S , 27-C ) :   1.0924 B( 27-C , 28-C ) :   1.4912
B( 27-C , 36-C ) :   1.1382 B( 28-C , 29-C ) :   1.3370 B( 28-C , 35-C ) :   1.0564
B( 29-C , 30-S ) :   0.8213 B( 30-S , 31-O ) :   1.6940 B( 30-S , 32-O ) :   1.6749
B( 30-S , 33-C ) :   0.8672 B( 33-C , 34-C ) :   1.0280 B( 33-C , 85-H ) :   0.9359
B( 33-C , 86-H ) :   0.9327 B( 34-C , 35-C ) :   1.0782 B( 34-C , 87-H ) :   0.9451
B( 34-C , 88-H ) :   0.9314 B( 35-C , 89-H ) :   0.9068 B( 35-C , 90-H ) :   0.9128
B( 36-C , 37-C ) :   1.6044 B( 36-C , 91-H ) :   0.9605 B( 37-C , 38-C ) :   1.2040
B( 37-C , 92-H ) :   0.9512 B( 38-C , 39-O ) :   1.1696 B( 38-C , 40-C ) :   1.3607
B( 39-O , 47-C ) :   1.1312 B( 40-C , 41-C ) :   0.8847 B( 40-C , 46-C ) :   1.2895
B( 41-C , 42-O ) :   2.2607 B( 41-C , 43-N ) :   1.0767 B( 43-N , 44-C ) :   1.0819
B( 43-N , 93-H ) :   0.9135 B( 44-C , 45-O ) :   2.2776 B( 44-C , 46-C ) :   0.8685
B( 46-C , 47-C ) :   1.3896 B( 47-C , 48-C ) :   1.1663 B( 48-C , 49-C ) :   1.5314
B( 48-C , 94-H ) :   0.9724 B( 49-C , 50-C ) :   1.1408 B( 49-C , 95-H ) :   0.9903
B( 50-C , 51-C ) :   1.5435 B( 50-C , 96-H ) :   0.9642 B( 51-C , 52-C ) :   1.0632
B( 51-C , 60-C ) :   0.9442 B( 52-C , 53-C ) :   1.6310 B( 52-C , 58-C ) :   1.0042
B( 53-C , 54-C ) :   1.1418 B( 53-C , 56-C ) :   1.1466 B( 54-C , 55-N ) :   2.9675
B( 56-C , 57-N ) :   2.9618 B( 58-C , 59-C ) :   1.2757 B( 58-C , 65-C ) :   1.4055
B( 59-C , 60-C ) :   0.9452 B( 59-C , 62-C ) :   1.4226 B( 60-C , 61-O ) :   2.1993
B( 62-C , 63-C ) :   1.2454 B( 62-C , 97-H ) :   1.0170 B( 63-C , 64-C ) :   1.3036
B( 63-C , 68-C ) :   1.1625 B( 64-C , 65-C ) :   1.3342 B( 64-C , 66-S ) :   1.0874
B( 65-C , 98-H ) :   0.9793 B( 66-S , 67-C ) :   1.0862 B( 67-C , 68-C ) :   1.6174
B( 67-C , 69-Br) :   1.0199 B( 68-C , 99-H ) :   1.0008

-----------------------------------------------------------------------------
         ABSORPTION SPECTRUM VIA TRANSITION ELECTRIC DIPOLE MOMENTS
-----------------------------------------------------------------------------
State   Energy  Wavelength   fosc         T2         TX        TY        TZ
        (cm-1)    (nm)                  (au**2)     (au)      (au)      (au)
-----------------------------------------------------------------------------
   0   13156.8    760.1   0.601842920  15.05939   0.69026   3.54873  -1.41047
   1   16587.5    602.9   0.959824360  19.04965   0.38955   0.77853  -4.27689
   2   19222.9    520.2   0.883281323  15.12712  -0.44487   1.56122   3.53438
   3   21904.9    456.5   0.511050523   7.68065   1.31876   1.45425   1.95619
   4   23636.6    423.1   0.022661223   0.31563   0.03281  -0.23160  -0.51079
   5   24051.9    415.8   0.830972810  11.37401  -2.21741  -2.54038   0.05967
   6   25496.8    392.2   0.057875267   0.74728  -0.03446  -0.44151  -0.74241
   7   26232.7    381.2   0.346542728   4.34900  -1.39535  -0.49347   1.46918
   8   27314.3    366.1   0.000239088   0.00288   0.03324   0.04105   0.00958
   9   27648.9    361.7   0.001958565   0.02332  -0.10843   0.00489   0.10743
  10   28374.5    352.4   0.349726021   4.05766   1.42666   1.25284  -0.67284
  11   28955.3    345.4   0.036721078   0.41751   0.44305   0.46058  -0.09527
  12   29205.0    342.4   0.065468629   0.73799  -0.15868  -0.70444  -0.46538
  13   30692.3    325.8   0.084036121   0.90139  -0.12896  -0.88986  -0.30482
  14   31395.0    318.5   0.047999679   0.50333  -0.50220  -0.43532   0.24824
  15   31695.5    315.5   0.126789472   1.31693   0.86122   0.61189  -0.44813
  16   32162.6    310.9   0.010307222   0.10550  -0.23415  -0.11968   0.19067
  17   32450.2    308.2   0.266309080   2.70174   1.11278   0.50813  -1.09785
  18   32554.8    307.2   0.168401174   1.70296  -1.00598  -0.70659   0.43783
  19   32628.7    306.5   0.420053312   4.23819   1.56199   1.27852  -0.40470
  20   32972.9    303.3   0.010885272   0.10868  -0.06291   0.07511   0.31477
  21   34135.9    292.9   0.013683945   0.13197   0.00174  -0.29640  -0.21003
  22   34322.2    291.4   0.000586284   0.00562   0.06137  -0.03003   0.03091
  23   34661.1    288.5   0.093911860   0.89198   0.66881   0.62476  -0.23311
  24   35298.2    283.3   0.001355479   0.01264   0.09000   0.06608   0.01327
  25   35817.8    279.2   0.001649269   0.01516   0.01051   0.10216   0.06791
  26   36034.7    277.5   0.034715803   0.31716  -0.15708  -0.10106   0.53130
  27   36381.8    274.9   0.020489120   0.18540  -0.16720  -0.17068  -0.35821
  28   36585.2    273.3   0.054797073   0.49309  -0.32576  -0.34126   0.52011
  29   37177.9    269.0   0.036708643   0.32506   0.36160   0.43778  -0.05151
  30   37379.0    267.5   0.077958375   0.68661  -0.24046  -0.42777  -0.66768
  31   37840.9    264.3   0.063785149   0.55492  -0.28703  -0.17049   0.66594
  32   38105.2    262.4   0.004896076   0.04230  -0.13522  -0.02788   0.15244
  33   38414.9    260.3   0.207108609   1.77490  -0.01460   0.97662   0.90603
  34   38759.9    258.0   0.117206388   0.99551  -0.15220  -0.14749  -0.97498
  35   39129.5    255.6   0.000734153   0.00618   0.02886  -0.07141  -0.01561
  36   39384.3    253.9   0.038099628   0.31847  -0.34985  -0.42109  -0.13699
  37   40024.9    249.8   0.017854278   0.14685   0.18119   0.33767   0.00203
  38   40198.7    248.8   0.013326261   0.10914  -0.22829  -0.08553   0.22295

FINAL SINGLE POINT ENERGY     -8084.393708228930

DIPOLE MOMENT
-------------
                                X             Y             Z
Electronic contribution:     46.00486     -78.30782    -123.19761
Nuclear contribution   :    -45.32244      79.47795     123.33268
                        -----------------------------------------
Total Dipole Moment    :      0.68242       1.17013       0.13508
                        -----------------------------------------
Magnitude (a.u.)       :      1.36130
Magnitude (Debye)      :      3.46016

Rotational constants in cm-1:     0.000558     0.000396     0.000253
Rotational constants in MHz :    16.726498    11.857962     7.578541

                             ****ORCA TERMINATED NORMALLY****
TOTAL RUN TIME: 0 days 0 hours 13 minutes 5 seconds 490 msec
