                         Program Version 4.2.0 -  RELEASE  -
|  1> # ORCA input file
|  2> # SCF done       -175.701230723296          0.000887192225
|  3> ! CAM-B3LYP def2-SVP def2/J RIJCOSX Grid4 TightSCF
|  4> %maxcore 5000
|  5> %tddft
|  6>     Mode sTDDFT
|  7>     Ethresh 5.0
|  8>     maxcore 5000
|  9> end
| 10>
| 11> %pal
| 12>   nprocs 6
| 13>   end
| 14> * xyz 0 1
| 15>    C       -6.47834         0.43519        -2.69683
| 16>    C       -6.65332        -0.28184        -1.57819
| 17>    C       -7.15704         0.16670        -0.31150
| 18>    C       -7.22782        -0.79362         0.63778
| 19>    C       -6.79260        -2.07697         0.20947
| 20>    S       -6.27251        -2.00793        -1.46698
| 21>    C       -6.75952        -3.24442         0.93074
| 22>    C       -7.12716        -3.46152         2.28130
| 23>    C       -6.97461        -4.74591         2.69430
| 24>    C       -6.47975        -5.64435         1.70763
| 25>    S       -6.22051        -4.74977         0.21159
| 26>    C       -6.22363        -6.96843         1.93459
| 27>    C       -5.72600        -7.97038         1.05802
| 28>    C       -5.35896        -9.23632         1.59918
| 29>    O       -5.56291        -9.39631         2.93699
| 30>    C       -5.24451       -10.63312         3.53967
| 31>    C       -5.62445       -10.53895         5.00948
| 32>    C       -4.81079       -10.19662         0.77942
| 33>    C       -4.62494        -9.98807        -0.59651
| 34>    C       -5.06205        -8.74988        -1.15317
| 35>    C       -5.57962        -7.78072        -0.32413
| 36>    O       -4.89852        -8.61208        -2.49316
| 37>    C       -5.26147        -7.41308        -3.15310
| 38>    C       -6.75840        -7.30277        -3.42206
| 39>    C       -3.97611       -10.91165        -1.46063
| 40>    C       -3.40673       -12.11749        -1.16548
| 41>    C       -2.63752       -12.88792        -2.05897
| 42>    C       -2.14002       -12.52139        -3.29128
| 43>    C       -1.32910       -13.32072        -4.13657
| 44>    C       -0.90975       -12.70788        -5.28260
| 45>    C       -1.37131       -11.38323        -5.41493
| 46>    S       -2.35440       -10.94906        -4.03366
| 47>    C       -1.20104       -10.44314        -6.41179
| 48>    C       -0.51131       -10.50274        -7.64109
| 49>    C       -0.59523        -9.35969        -8.37721
| 50>    C       -1.36953        -8.32415        -7.78213
| 51>    S       -1.94103        -8.86811        -6.20778
| 52>    C       -1.73817        -7.14253        -8.35801
| 53>    C       -2.58770        -6.16661        -7.72635
| 54>    C       -3.63018        -5.45663        -8.36440
| 55>    O       -4.01308        -5.51927        -9.67839
| 56>    C       -3.09265        -5.61752       -10.74345
| 57>    C       -1.99721        -4.55825       -10.69615
| 58>    C       -4.50178        -4.70533        -7.58791
| 59>    C       -4.39732        -4.57923        -6.20331
| 60>    C       -3.28685        -5.20951        -5.57801
| 61>    C       -2.42961        -5.96862        -6.34033
| 62>    O       -3.14739        -4.99798        -4.24443
| 63>    C       -2.07412        -5.60468        -3.55038
| 64>    C       -2.15323        -5.15566        -2.09871
| 65>    C       -5.34024        -3.86696        -5.39846
| 66>    C       -6.35469        -3.07459        -5.83805
| 67>    C       -7.24667        -2.43616        -4.95746
| 68>    C       -8.22762        -1.55744        -5.32952
| 69>    C       -9.13240        -0.88375        -4.46887
| 70>    C       -9.98755        -0.03928        -5.10117
| 71>    C       -9.81726         0.00858        -6.50832
| 72>    S       -8.52432        -1.07044        -6.99547
| 73>    C      -10.51801         0.76674        -7.41485
| 74>    C      -11.57452         1.67954        -7.14579
| 75>    C      -12.07699         2.29314        -8.24043
| 76>    C      -11.45293         1.91085        -9.47429
| 77>    S      -10.18634         0.71988        -9.13821
| 78>    C      -11.73795         2.34905       -10.70845
| 79>    H       -6.72560         1.48184        -2.71985
| 80>    H       -6.09367        -0.00554        -3.59833
| 81>    H       -7.44506         1.19358        -0.17028
| 82>    H       -7.58307        -0.63085         1.64049
| 83>    H       -7.48707        -2.66293         2.90502
| 84>    H       -7.20075        -5.09245         3.68774
| 85>    H       -6.39921        -7.30240         2.94884
| 86>    H       -4.16924       -10.83690         3.43876
| 87>    H       -5.80421       -11.44498         3.05479
| 88>    H       -5.07027        -9.73445         5.48598
| 89>    H       -5.39640       -11.47513         5.51121
| 90>    H       -6.68731       -10.33269         5.10500
| 91>    H       -4.49803       -11.14385         1.18667
| 92>    H       -5.90188        -6.84234        -0.73837
| 93>    H       -4.72422        -7.46229        -4.10484
| 94>    H       -4.90632        -6.53778        -2.59887
| 95>    H       -7.09683        -8.16678        -3.98798
| 96>    H       -6.95154        -6.40332        -4.00076
| 97>    H       -7.32276        -7.25462        -2.49421
| 98>    H       -3.93492       -10.56651        -2.48020
| 99>    H       -3.53053       -12.53996        -0.17642
|100>    H       -2.35291       -13.87881        -1.72515
|101>    H       -1.07381       -14.33149        -3.86763
|102>    H       -0.28342       -13.17136        -6.02453
|103>    H        0.01598       -11.38781        -7.95167
|104>    H       -0.14086        -9.22781        -9.34412
|105>    H       -1.39450        -6.98911        -9.36910
|106>    H       -3.71438        -5.46763       -11.63164
|107>    H       -2.66621        -6.62748       -10.80381
|108>    H       -2.44410        -3.56687       -10.68900
|109>    H       -1.35829        -4.65144       -11.57047
|110>    H       -1.38960        -4.66547        -9.80026
|111>    H       -5.32176        -4.23584        -8.10710
|112>    H       -1.56953        -6.42396        -5.87790
|113>    H       -1.11703        -5.28720        -3.98699
|114>    H       -2.14852        -6.69830        -3.62021
|115>    H       -2.11405        -4.07103        -2.04450
|116>    H       -1.32117        -5.57300        -1.53947
|117>    H       -3.08298        -5.48804        -1.64562
|118>    H       -5.20548        -3.97307        -4.33023
|119>    H       -6.49823        -2.89295        -6.89476
|120>    H       -7.14448        -2.64237        -3.90013
|121>    H       -9.11108        -1.04881        -3.40584
|122>    H      -10.73551         0.55076        -4.60231
|123>    H      -11.92479         1.84861        -6.14262
|124>    H      -12.87650         3.01283        -8.23072
|125>    H      -12.51602         3.07475       -10.86687
|126>    H      -11.20509         1.99490       -11.57152
|127> *
|128>
|129>                          ****END OF INPUT****

CARTESIAN COORDINATES (ANGSTROEM)
---------------------------------
  C     -6.478340    0.435190   -2.696830
  C     -6.653320   -0.281840   -1.578190
  C     -7.157040    0.166700   -0.311500
  C     -7.227820   -0.793620    0.637780
  C     -6.792600   -2.076970    0.209470
  S     -6.272510   -2.007930   -1.466980
  C     -6.759520   -3.244420    0.930740
  C     -7.127160   -3.461520    2.281300
  C     -6.974610   -4.745910    2.694300
  C     -6.479750   -5.644350    1.707630
  S     -6.220510   -4.749770    0.211590
  C     -6.223630   -6.968430    1.934590
  C     -5.726000   -7.970380    1.058020
  C     -5.358960   -9.236320    1.599180
  O     -5.562910   -9.396310    2.936990
  C     -5.244510  -10.633120    3.539670
  C     -5.624450  -10.538950    5.009480
  C     -4.810790  -10.196620    0.779420
  C     -4.624940   -9.988070   -0.596510
  C     -5.062050   -8.749880   -1.153170
  C     -5.579620   -7.780720   -0.324130
  O     -4.898520   -8.612080   -2.493160
  C     -5.261470   -7.413080   -3.153100
  C     -6.758400   -7.302770   -3.422060
  C     -3.976110  -10.911650   -1.460630
  C     -3.406730  -12.117490   -1.165480
  C     -2.637520  -12.887920   -2.058970
  C     -2.140020  -12.521390   -3.291280
  C     -1.329100  -13.320720   -4.136570
  C     -0.909750  -12.707880   -5.282600
  C     -1.371310  -11.383230   -5.414930
  S     -2.354400  -10.949060   -4.033660
  C     -1.201040  -10.443140   -6.411790
  C     -0.511310  -10.502740   -7.641090
  C     -0.595230   -9.359690   -8.377210
  C     -1.369530   -8.324150   -7.782130
  S     -1.941030   -8.868110   -6.207780
  C     -1.738170   -7.142530   -8.358010
  C     -2.587700   -6.166610   -7.726350
  C     -3.630180   -5.456630   -8.364400
  O     -4.013080   -5.519270   -9.678390
  C     -3.092650   -5.617520  -10.743450
  C     -1.997210   -4.558250  -10.696150
  C     -4.501780   -4.705330   -7.587910
  C     -4.397320   -4.579230   -6.203310
  C     -3.286850   -5.209510   -5.578010
  C     -2.429610   -5.968620   -6.340330
  O     -3.147390   -4.997980   -4.244430
  C     -2.074120   -5.604680   -3.550380
  C     -2.153230   -5.155660   -2.098710
  C     -5.340240   -3.866960   -5.398460
  C     -6.354690   -3.074590   -5.838050
  C     -7.246670   -2.436160   -4.957460
  C     -8.227620   -1.557440   -5.329520
  C     -9.132400   -0.883750   -4.468870
  C     -9.987550   -0.039280   -5.101170
  C     -9.817260    0.008580   -6.508320
  S     -8.524320   -1.070440   -6.995470
  C    -10.518010    0.766740   -7.414850
  C    -11.574520    1.679540   -7.145790
  C    -12.076990    2.293140   -8.240430
  C    -11.452930    1.910850   -9.474290
  S    -10.186340    0.719880   -9.138210
  C    -11.737950    2.349050  -10.708450
  H     -6.725600    1.481840   -2.719850
  H     -6.093670   -0.005540   -3.598330
  H     -7.445060    1.193580   -0.170280
  H     -7.583070   -0.630850    1.640490
  H     -7.487070   -2.662930    2.905020
  H     -7.200750   -5.092450    3.687740
  H     -6.399210   -7.302400    2.948840
  H     -4.169240  -10.836900    3.438760
  H     -5.804210  -11.444980    3.054790
  H     -5.070270   -9.734450    5.485980
  H     -5.396400  -11.475130    5.511210
  H     -6.687310  -10.332690    5.105000
  H     -4.498030  -11.143850    1.186670
  H     -5.901880   -6.842340   -0.738370
  H     -4.724220   -7.462290   -4.104840
  H     -4.906320   -6.537780   -2.598870
  H     -7.096830   -8.166780   -3.987980
  H     -6.951540   -6.403320   -4.000760
  H     -7.322760   -7.254620   -2.494210
  H     -3.934920  -10.566510   -2.480200
  H     -3.530530  -12.539960   -0.176420
  H     -2.352910  -13.878810   -1.725150
  H     -1.073810  -14.331490   -3.867630
  H     -0.283420  -13.171360   -6.024530
  H      0.015980  -11.387810   -7.951670
  H     -0.140860   -9.227810   -9.344120
  H     -1.394500   -6.989110   -9.369100
  H     -3.714380   -5.467630  -11.631640
  H     -2.666210   -6.627480  -10.803810
  H     -2.444100   -3.566870  -10.689000
  H     -1.358290   -4.651440  -11.570470
  H     -1.389600   -4.665470   -9.800260
  H     -5.321760   -4.235840   -8.107100
  H     -1.569530   -6.423960   -5.877900
  H     -1.117030   -5.287200   -3.986990
  H     -2.148520   -6.698300   -3.620210
  H     -2.114050   -4.071030   -2.044500
  H     -1.321170   -5.573000   -1.539470
  H     -3.082980   -5.488040   -1.645620
  H     -5.205480   -3.973070   -4.330230
  H     -6.498230   -2.892950   -6.894760
  H     -7.144480   -2.642370   -3.900130
  H     -9.111080   -1.048810   -3.405840
  H    -10.735510    0.550760   -4.602310
  H    -11.924790    1.848610   -6.142620
  H    -12.876500    3.012830   -8.230720
  H    -12.516020    3.074750  -10.866870
  H    -11.205090    1.994900  -11.571520

 Total Charge           Charge          ....    0
 Multiplicity           Mult            ....    1
 Number of Electrons    NEL             ....  500
 Basis Dimension        Dim             .... 1160

ORBITAL ENERGIES
----------------

  NO   OCC          E(Eh)            E(eV)
   0   2.0000     -88.937525     -2420.1131
   1   2.0000     -88.933910     -2420.0147
   2   2.0000     -88.931019     -2419.9361
   3   2.0000     -88.930148     -2419.9124
   4   2.0000     -88.927247     -2419.8334
   5   2.0000     -88.924295     -2419.7531
   6   2.0000     -19.235889      -523.4352
   7   2.0000     -19.231881      -523.3261
   8   2.0000     -19.227264      -523.2005
   9   2.0000     -19.222005      -523.0574
  10   2.0000     -10.319731      -280.8142
  11   2.0000     -10.319058      -280.7958
  12   2.0000     -10.316647      -280.7302
  13   2.0000     -10.315326      -280.6943
  14   2.0000     -10.315193      -280.6907
  15   2.0000     -10.312772      -280.6248
  16   2.0000     -10.310477      -280.5623
  17   2.0000     -10.304217      -280.3920
  18   2.0000     -10.301088      -280.3069
  19   2.0000     -10.300649      -280.2949
  20   2.0000     -10.299228      -280.2563
  21   2.0000     -10.296530      -280.1828
  22   2.0000     -10.296082      -280.1706
  23   2.0000     -10.295530      -280.1556
  24   2.0000     -10.295478      -280.1542
  25   2.0000     -10.294511      -280.1279
  26   2.0000     -10.293910      -280.1115
  27   2.0000     -10.293556      -280.1019
  28   2.0000     -10.290512      -280.0191
  29   2.0000     -10.288950      -279.9766
  30   2.0000     -10.283068      -279.8165
  31   2.0000     -10.278778      -279.6998
  32   2.0000     -10.277522      -279.6656
  33   2.0000     -10.277121      -279.6547
  34   2.0000     -10.276862      -279.6476
  35   2.0000     -10.276107      -279.6271
  36   2.0000     -10.276044      -279.6254
  37   2.0000     -10.273729      -279.5624
  38   2.0000     -10.273324      -279.5514
  39   2.0000     -10.272867      -279.5389
  40   2.0000     -10.272394      -279.5261
  41   2.0000     -10.271420      -279.4996
  42   2.0000     -10.270883      -279.4849
  43   2.0000     -10.270084      -279.4632
  44   2.0000     -10.269166      -279.4382
  45   2.0000     -10.266542      -279.3668
  46   2.0000     -10.265659      -279.3428
  47   2.0000     -10.265569      -279.3403
  48   2.0000     -10.263640      -279.2878
  49   2.0000     -10.261175      -279.2208
  50   2.0000     -10.259965      -279.1878
  51   2.0000     -10.259284      -279.1693
  52   2.0000     -10.259102      -279.1643
  53   2.0000     -10.258989      -279.1613
  54   2.0000     -10.258146      -279.1383
  55   2.0000     -10.257133      -279.1108
  56   2.0000     -10.256652      -279.0977
  57   2.0000     -10.255943      -279.0784
  58   2.0000     -10.255114      -279.0558
  59   2.0000     -10.254739      -279.0456
  60   2.0000     -10.253371      -279.0084
  61   2.0000     -10.251936      -278.9694
  62   2.0000     -10.247630      -278.8522
  63   2.0000     -10.242307      -278.7074
  64   2.0000      -8.032767      -218.5827
  65   2.0000      -8.029811      -218.5023
  66   2.0000      -8.026678      -218.4170
  67   2.0000      -8.025855      -218.3946
  68   2.0000      -8.023466      -218.3296
  69   2.0000      -8.020986      -218.2621
  70   2.0000      -6.002604      -163.3392
  71   2.0000      -5.999685      -163.2597
  72   2.0000      -5.998518      -163.2280
  73   2.0000      -5.996534      -163.1740
  74   2.0000      -5.995705      -163.1514
  75   2.0000      -5.995592      -163.1483
  76   2.0000      -5.993744      -163.0981
  77   2.0000      -5.993228      -163.0840
  78   2.0000      -5.992374      -163.0608
  79   2.0000      -5.991430      -163.0351
  80   2.0000      -5.990813      -163.0183
  81   2.0000      -5.990452      -163.0085
  82   2.0000      -5.989322      -162.9777
  83   2.0000      -5.987495      -162.9280
  84   2.0000      -5.986950      -162.9132
  85   2.0000      -5.986912      -162.9121
  86   2.0000      -5.984237      -162.8394
  87   2.0000      -5.981469      -162.7640
  88   2.0000      -1.140793       -31.0426
  89   2.0000      -1.136892       -30.9364
  90   2.0000      -1.132379       -30.8136
  91   2.0000      -1.125906       -30.6375
  92   2.0000      -0.984037       -26.7770
  93   2.0000      -0.982935       -26.7470
  94   2.0000      -0.977207       -26.5912
  95   2.0000      -0.961384       -26.1606
  96   2.0000      -0.960742       -26.1431
  97   2.0000      -0.954472       -25.9725
  98   2.0000      -0.940330       -25.5877
  99   2.0000      -0.939072       -25.5535
 100   2.0000      -0.899334       -24.4721
 101   2.0000      -0.895132       -24.3578
 102   2.0000      -0.882306       -24.0088
 103   2.0000      -0.874899       -23.8072
 104   2.0000      -0.866323       -23.5738
 105   2.0000      -0.859124       -23.3779
 106   2.0000      -0.855233       -23.2721
 107   2.0000      -0.852225       -23.1902
 108   2.0000      -0.845306       -23.0019
 109   2.0000      -0.837870       -22.7996
 110   2.0000      -0.834699       -22.7133
 111   2.0000      -0.833684       -22.6857
 112   2.0000      -0.830403       -22.5964
 113   2.0000      -0.828716       -22.5505
 114   2.0000      -0.826228       -22.4828
 115   2.0000      -0.812573       -22.1112
 116   2.0000      -0.808970       -22.0132
 117   2.0000      -0.807650       -21.9773
 118   2.0000      -0.803525       -21.8650
 119   2.0000      -0.797656       -21.7053
 120   2.0000      -0.794808       -21.6278
 121   2.0000      -0.790621       -21.5139
 122   2.0000      -0.777348       -21.1527
 123   2.0000      -0.762947       -20.7608
 124   2.0000      -0.750456       -20.4209
 125   2.0000      -0.738784       -20.1033
 126   2.0000      -0.728086       -19.8122
 127   2.0000      -0.722540       -19.6613
 128   2.0000      -0.715571       -19.4717
 129   2.0000      -0.706745       -19.2315
 130   2.0000      -0.703447       -19.1418
 131   2.0000      -0.692032       -18.8311
 132   2.0000      -0.683205       -18.5910
 133   2.0000      -0.679216       -18.4824
 134   2.0000      -0.669805       -18.2263
 135   2.0000      -0.669212       -18.2102
 136   2.0000      -0.664009       -18.0686
 137   2.0000      -0.649312       -17.6687
 138   2.0000      -0.646546       -17.5934
 139   2.0000      -0.642614       -17.4864
 140   2.0000      -0.630531       -17.1576
 141   2.0000      -0.627751       -17.0820
 142   2.0000      -0.625942       -17.0327
 143   2.0000      -0.620724       -16.8907
 144   2.0000      -0.617656       -16.8073
 145   2.0000      -0.613310       -16.6890
 146   2.0000      -0.605820       -16.4852
 147   2.0000      -0.603138       -16.4122
 148   2.0000      -0.601445       -16.3662
 149   2.0000      -0.598054       -16.2739
 150   2.0000      -0.593978       -16.1630
 151   2.0000      -0.592329       -16.1181
 152   2.0000      -0.590308       -16.0631
 153   2.0000      -0.588509       -16.0141
 154   2.0000      -0.584274       -15.8989
 155   2.0000      -0.573002       -15.5922
 156   2.0000      -0.570814       -15.5326
 157   2.0000      -0.568217       -15.4620
 158   2.0000      -0.564017       -15.3477
 159   2.0000      -0.562428       -15.3045
 160   2.0000      -0.555259       -15.1094
 161   2.0000      -0.544398       -14.8138
 162   2.0000      -0.543276       -14.7833
 163   2.0000      -0.538719       -14.6593
 164   2.0000      -0.533942       -14.5293
 165   2.0000      -0.529184       -14.3998
 166   2.0000      -0.525582       -14.3018
 167   2.0000      -0.523467       -14.2443
 168   2.0000      -0.517891       -14.0925
 169   2.0000      -0.516192       -14.0463
 170   2.0000      -0.513313       -13.9680
 171   2.0000      -0.510078       -13.8799
 172   2.0000      -0.507960       -13.8223
 173   2.0000      -0.501727       -13.6527
 174   2.0000      -0.501032       -13.6338
 175   2.0000      -0.497578       -13.5398
 176   2.0000      -0.496403       -13.5078
 177   2.0000      -0.490537       -13.3482
 178   2.0000      -0.488622       -13.2961
 179   2.0000      -0.487668       -13.2701
 180   2.0000      -0.485231       -13.2038
 181   2.0000      -0.483271       -13.1505
 182   2.0000      -0.481443       -13.1007
 183   2.0000      -0.480803       -13.0833
 184   2.0000      -0.479546       -13.0491
 185   2.0000      -0.478362       -13.0169
 186   2.0000      -0.476799       -12.9744
 187   2.0000      -0.475088       -12.9278
 188   2.0000      -0.472559       -12.8590
 189   2.0000      -0.471065       -12.8183
 190   2.0000      -0.470366       -12.7993
 191   2.0000      -0.469043       -12.7633
 192   2.0000      -0.467141       -12.7115
 193   2.0000      -0.461328       -12.5534
 194   2.0000      -0.460078       -12.5194
 195   2.0000      -0.455311       -12.3896
 196   2.0000      -0.454382       -12.3644
 197   2.0000      -0.453189       -12.3319
 198   2.0000      -0.451191       -12.2775
 199   2.0000      -0.450699       -12.2641
 200   2.0000      -0.447915       -12.1884
 201   2.0000      -0.446362       -12.1461
 202   2.0000      -0.444841       -12.1047
 203   2.0000      -0.442221       -12.0335
 204   2.0000      -0.439817       -11.9680
 205   2.0000      -0.438553       -11.9336
 206   2.0000      -0.436123       -11.8675
 207   2.0000      -0.434453       -11.8221
 208   2.0000      -0.429428       -11.6853
 209   2.0000      -0.426120       -11.5953
 210   2.0000      -0.421941       -11.4816
 211   2.0000      -0.421600       -11.4723
 212   2.0000      -0.418144       -11.3783
 213   2.0000      -0.413495       -11.2518
 214   2.0000      -0.412657       -11.2290
 215   2.0000      -0.410714       -11.1761
 216   2.0000      -0.409793       -11.1510
 217   2.0000      -0.407129       -11.0786
 218   2.0000      -0.405544       -11.0354
 219   2.0000      -0.401798       -10.9335
 220   2.0000      -0.397241       -10.8095
 221   2.0000      -0.395044       -10.7497
 222   2.0000      -0.392913       -10.6917
 223   2.0000      -0.388772       -10.5790
 224   2.0000      -0.385214       -10.4822
 225   2.0000      -0.384716       -10.4686
 226   2.0000      -0.379555       -10.3282
 227   2.0000      -0.376521       -10.2457
 228   2.0000      -0.372763       -10.1434
 229   2.0000      -0.368427       -10.0254
 230   2.0000      -0.367878       -10.0105
 231   2.0000      -0.360635        -9.8134
 232   2.0000      -0.355331        -9.6691
 233   2.0000      -0.346915        -9.4400
 234   2.0000      -0.333770        -9.0824
 235   2.0000      -0.330752        -9.0002
 236   2.0000      -0.327404        -8.9091
 237   2.0000      -0.323626        -8.8063
 238   2.0000      -0.319739        -8.7005
 239   2.0000      -0.315945        -8.5973
 240   2.0000      -0.308110        -8.3841
 241   2.0000      -0.306785        -8.3480
 242   2.0000      -0.295954        -8.0533
 243   2.0000      -0.280980        -7.6459
 244   2.0000      -0.274879        -7.4798
 245   2.0000      -0.261582        -7.1180
 246   2.0000      -0.248995        -6.7755
 247   2.0000      -0.218993        -5.9591
 248   2.0000      -0.201319        -5.4782
 249   2.0000      -0.188686        -5.1344
 250   0.0000      -0.075897        -2.0653
 251   0.0000      -0.055118        -1.4998
 252   0.0000      -0.045935        -1.2499
 253   0.0000      -0.006985        -0.1901
 254   0.0000       0.008298         0.2258

MULLIKEN ATOMIC CHARGES
-----------------------
   0 C :   -0.024204
   1 C :   -0.076750
   2 C :    0.047948
   3 C :    0.030488
   4 C :   -0.069513
   5 S :    0.069062
   6 C :   -0.027270
   7 C :    0.026758
   8 C :    0.036664
   9 C :   -0.000417
  10 S :    0.029825
  11 C :   -0.037274
  12 C :    0.045818
  13 C :    0.238234
  14 O :   -0.321419
  15 C :    0.135304
  16 C :    0.026300
  17 C :   -0.168251
  18 C :    0.058497
  19 C :    0.235136
  20 C :   -0.157947
  21 O :   -0.316173
  22 C :    0.143404
  23 C :   -0.012417
  24 C :   -0.034879
  25 C :    0.021907
  26 C :    0.001573
  27 C :   -0.022783
  28 C :    0.036977
  29 C :    0.020942
  30 C :   -0.032523
  31 S :    0.043637
  32 C :   -0.043634
  33 C :    0.034048
  34 C :    0.030049
  35 C :   -0.031591
  36 S :    0.054363
  37 C :   -0.031075
  38 C :    0.046610
  39 C :    0.172398
  40 O :   -0.316761
  41 C :    0.180423
  42 C :   -0.032545
  43 C :   -0.090382
  44 C :    0.067299
  45 C :    0.224013
  46 C :   -0.183476
  47 O :   -0.321051
  48 C :    0.122350
  49 C :    0.029517
  50 C :   -0.010106
  51 C :    0.017601
  52 C :   -0.020354
  53 C :   -0.033726
  54 C :    0.054762
  55 C :    0.013279
  56 C :   -0.041613
  57 S :    0.062645
  58 C :   -0.073417
  59 C :    0.031586
  60 C :    0.043310
  61 C :   -0.059544
  62 S :    0.071455
  63 C :   -0.036957
  64 H :    0.017760
  65 H :    0.034149
  66 H :   -0.014797
  67 H :   -0.014087
  68 H :   -0.018587
  69 H :   -0.015087
  70 H :   -0.010062
  71 H :    0.015556
  72 H :    0.015542
  73 H :    0.025664
  74 H :    0.014325
  75 H :    0.025037
  76 H :   -0.044777
  77 H :   -0.023797
  78 H :    0.031717
  79 H :    0.022511
  80 H :    0.023890
  81 H :    0.026854
  82 H :    0.021075
  83 H :    0.027884
  84 H :   -0.028698
  85 H :   -0.025306
  86 H :   -0.018514
  87 H :   -0.019552
  88 H :   -0.017882
  89 H :   -0.017176
  90 H :   -0.021389
  91 H :    0.015950
  92 H :    0.006756
  93 H :    0.027982
  94 H :    0.019440
  95 H :    0.031766
  96 H :   -0.033144
  97 H :   -0.007806
  98 H :    0.016667
  99 H :    0.027992
 100 H :    0.027034
 101 H :    0.015370
 102 H :    0.020391
 103 H :   -0.006732
 104 H :   -0.003002
 105 H :   -0.018651
 106 H :   -0.007315
 107 H :   -0.020634
 108 H :   -0.016279
 109 H :   -0.015910
 110 H :    0.014974
 111 H :    0.016771
Sum of atomic charges:   -0.0000000

LOEWDIN ATOMIC CHARGES
----------------------
   0 C :   -0.072152
   1 C :   -0.144429
   2 C :   -0.037633
   3 C :   -0.027503
   4 C :   -0.184862
   5 S :    0.357625
   6 C :   -0.177810
   7 C :   -0.044730
   8 C :   -0.025272
   9 C :   -0.148657
  10 S :    0.370256
  11 C :   -0.039820
  12 C :   -0.044858
  13 C :    0.053982
  14 O :   -0.105615
  15 C :    0.080750
  16 C :   -0.060634
  17 C :   -0.061660
  18 C :   -0.039254
  19 C :    0.058738
  20 C :   -0.069614
  21 O :   -0.094178
  22 C :    0.078376
  23 C :   -0.069073
  24 C :   -0.023411
  25 C :   -0.043826
  26 C :   -0.057463
  27 C :   -0.149897
  28 C :   -0.031595
  29 C :   -0.046184
  30 C :   -0.182171
  31 S :    0.399776
  32 C :   -0.182438
  33 C :   -0.034560
  34 C :   -0.036042
  35 C :   -0.141852
  36 S :    0.379540
  37 C :   -0.055504
  38 C :   -0.060345
  39 C :    0.047710
  40 O :   -0.112427
  41 C :    0.076338
  42 C :   -0.075173
  43 C :   -0.023676
  44 C :   -0.045721
  45 C :    0.049659
  46 C :   -0.079835
  47 O :   -0.100150
  48 C :    0.080265
  49 C :   -0.059081
  50 C :   -0.013558
  51 C :   -0.029236
  52 C :   -0.056954
  53 C :   -0.150434
  54 C :   -0.026970
  55 C :   -0.039883
  56 C :   -0.176671
  57 S :    0.356447
  58 C :   -0.185333
  59 C :   -0.026512
  60 C :   -0.039555
  61 C :   -0.138369
  62 S :    0.344120
  63 C :   -0.088017
  64 H :    0.028242
  65 H :    0.029329
  66 H :    0.032115
  67 H :    0.031831
  68 H :    0.029739
  69 H :    0.032724
  70 H :    0.034744
  71 H :    0.012523
  72 H :    0.012796
  73 H :    0.029296
  74 H :    0.029954
  75 H :    0.029154
  76 H :    0.025334
  77 H :    0.008383
  78 H :    0.027221
  79 H :    0.009776
  80 H :    0.029555
  81 H :    0.034877
  82 H :    0.023589
  83 H :    0.008884
  84 H :    0.021562
  85 H :    0.030216
  86 H :    0.030583
  87 H :    0.029369
  88 H :    0.030962
  89 H :    0.030387
  90 H :    0.026238
  91 H :    0.025255
  92 H :    0.006645
  93 H :    0.032009
  94 H :    0.031303
  95 H :    0.027272
  96 H :    0.031053
  97 H :    0.020447
  98 H :    0.013476
  99 H :    0.013499
 100 H :    0.030232
 101 H :    0.031355
 102 H :    0.024583
 103 H :    0.027962
 104 H :    0.019286
 105 H :    0.017744
 106 H :    0.034826
 107 H :    0.028805
 108 H :    0.030567
 109 H :    0.031077
 110 H :    0.026189
 111 H :    0.024046

  Mayer bond orders larger than 0.100000
B(  0-C ,  1-C ) :   1.8648 B(  0-C , 64-H ) :   0.9498 B(  0-C , 65-H ) :   0.9373
B(  1-C ,  2-C ) :   1.0791 B(  1-C ,  5-S ) :   1.0070 B(  2-C ,  3-C ) :   1.6572
B(  2-C , 66-H ) :   0.9929 B(  3-C ,  4-C ) :   1.1545 B(  3-C , 67-H ) :   0.9911
B(  4-C ,  5-S ) :   1.0359 B(  4-C ,  6-C ) :   1.5593 B(  6-C ,  7-C ) :   1.1644
B(  6-C , 10-S ) :   1.0363 B(  7-C ,  8-C ) :   1.6100 B(  7-C , 68-H ) :   0.9908
B(  8-C ,  9-C ) :   1.1374 B(  8-C , 69-H ) :   0.9984 B(  9-C , 10-S ) :   1.0179
B(  9-C , 11-C ) :   1.5720 B( 11-C , 12-C ) :   1.1583 B( 11-C , 70-H ) :   0.9610
B( 12-C , 13-C ) :   1.2840 B( 12-C , 20-C ) :   1.2855 B( 13-C , 14-O ) :   1.1445
B( 13-C , 17-C ) :   1.3420 B( 14-O , 15-C ) :   0.9525 B( 15-C , 16-C ) :   1.0953
B( 15-C , 71-H ) :   0.9494 B( 15-C , 72-H ) :   0.9492 B( 16-C , 73-H ) :   0.9683
B( 16-C , 74-H ) :   0.9612 B( 16-C , 75-H ) :   0.9685 B( 17-C , 18-C ) :   1.2604
B( 17-C , 76-H ) :   0.9968 B( 18-C , 19-C ) :   1.2869 B( 18-C , 24-C ) :   1.1887
B( 19-C , 20-C ) :   1.3447 B( 19-C , 21-O ) :   1.1436 B( 20-C , 77-H ) :   0.9714
B( 21-O , 22-C ) :   0.9365 B( 22-C , 23-C ) :   1.1152 B( 22-C , 78-H ) :   0.9508
B( 22-C , 79-H ) :   0.9407 B( 23-C , 80-H ) :   0.9602 B( 23-C , 81-H ) :   0.9611
B( 23-C , 82-H ) :   0.9634 B( 24-C , 25-C ) :   1.5627 B( 24-C , 83-H ) :   0.9364
B( 25-C , 26-C ) :   1.2190 B( 25-C , 84-H ) :   0.9631 B( 26-C , 27-C ) :   1.5525
B( 26-C , 85-H ) :   0.9612 B( 27-C , 28-C ) :   1.1587 B( 27-C , 31-S ) :   1.0404
B( 28-C , 29-C ) :   1.5801 B( 28-C , 86-H ) :   0.9968 B( 29-C , 30-C ) :   1.1916
B( 29-C , 87-H ) :   0.9940 B( 30-C , 31-S ) :   1.0384 B( 30-C , 32-C ) :   1.5033
B( 32-C , 33-C ) :   1.1855 B( 32-C , 36-S ) :   1.0351 B( 33-C , 34-C ) :   1.6049
B( 33-C , 88-H ) :   0.9942 B( 34-C , 35-C ) :   1.1287 B( 34-C , 89-H ) :   0.9933
B( 35-C , 36-S ) :   1.0247 B( 35-C , 37-C ) :   1.6752 B( 37-C , 38-C ) :   1.0162
B( 37-C , 90-H ) :   0.9532 B( 38-C , 39-C ) :   1.3104 B( 38-C , 46-C ) :   1.2507
B( 39-C , 40-O ) :   1.1538 B( 39-C , 43-C ) :   1.3658 B( 40-O , 41-C ) :   0.9665
B( 41-C , 42-C ) :   1.0985 B( 41-C , 91-H ) :   0.9539 B( 41-C , 92-H ) :   0.9505
B( 42-C , 93-H ) :   0.9617 B( 42-C , 94-H ) :   0.9623 B( 42-C , 95-H ) :   0.9661
B( 43-C , 44-C ) :   1.3256 B( 43-C , 96-H ) :   0.9932 B( 44-C , 45-C ) :   1.2848
B( 44-C , 50-C ) :   1.1044 B( 45-C , 46-C ) :   1.3519 B( 45-C , 47-O ) :   1.1546
B( 46-C , 97-H ) :   0.9722 B( 47-O , 48-C ) :   0.9331 B( 48-C , 49-C ) :   1.0963
B( 48-C , 98-H ) :   0.9486 B( 48-C , 99-H ) :   0.9491 B( 49-C ,100-H ) :   0.9643
B( 49-C ,101-H ) :   0.9582 B( 49-C ,102-H ) :   0.9673 B( 50-C , 51-C ) :   1.6269
B( 50-C ,103-H ) :   0.9812 B( 51-C , 52-C ) :   1.1497 B( 51-C ,104-H ) :   0.9669
B( 52-C , 53-C ) :   1.5705 B( 52-C ,105-H ) :   0.9769 B( 53-C , 54-C ) :   1.1333
B( 53-C , 57-S ) :   1.0204 B( 54-C , 55-C ) :   1.6067 B( 54-C ,106-H ) :   0.9961
B( 55-C , 56-C ) :   1.1665 B( 55-C ,107-H ) :   0.9944 B( 56-C , 57-S ) :   1.0384
B( 56-C , 58-C ) :   1.5578 B( 58-C , 59-C ) :   1.1574 B( 58-C , 62-S ) :   1.0355
B( 59-C , 60-C ) :   1.6560 B( 59-C ,108-H ) :   0.9916 B( 60-C , 61-C ) :   1.0820
B( 60-C ,109-H ) :   0.9934 B( 61-C , 62-S ) :   1.0095 B( 61-C , 63-C ) :   1.8602
B( 63-C ,110-H ) :   0.9508 B( 63-C ,111-H ) :   0.9417

-----------------------------------------------------------------------------
         ABSORPTION SPECTRUM VIA TRANSITION ELECTRIC DIPOLE MOMENTS
-----------------------------------------------------------------------------
State   Energy  Wavelength   fosc         T2         TX        TY        TZ
        (cm-1)    (nm)                  (au**2)     (au)      (au)      (au)
-----------------------------------------------------------------------------
   0   10970.1    911.6   0.300685821   9.02353   0.24890   0.15424  -2.98961
   1   15488.9    645.6   0.401656157   8.53708   1.72483  -2.35409   0.14242
   2   17040.6    586.8   2.045511134  39.51783   3.57245  -5.15418   0.43574
   3   18484.5    541.0   0.639072975  11.38201   1.20157  -2.71381   1.60421
   4   18907.2    528.9   0.029933548   0.52120   0.56035  -0.33111  -0.31236
   5   20104.4    497.4   0.643546455  10.53816   1.51967   2.58687  -1.23971
   6   21304.2    469.4   0.078760392   1.21708   0.32001  -0.15668   1.04409
   7   23385.9    427.6   0.286916092   4.03902  -0.42335   1.31615  -1.45861
   8   23901.8    418.4   0.380867994   5.24590  -0.56026  -0.79372   2.07413
   9   25307.3    395.1   0.011815202   0.15370  -0.34722   0.15369   0.09757
  10   25887.0    386.3   0.010036029   0.12763   0.16744  -0.06051  -0.30973
  11   26149.8    382.4   0.054070607   0.68072   0.47527  -0.35195  -0.57530
  12   27997.6    357.2   0.017045060   0.20043   0.08629  -0.28371   0.33539
  13   29081.9    343.9   0.032033211   0.36262   0.32692  -0.37266  -0.34186
  14   29182.0    342.7   0.505144785   5.69871  -1.02562   1.34387   1.68547
  15   30095.5    332.3   0.015849177   0.17337   0.03904   0.07285   0.40810
  16   30346.3    329.5   0.096288398   1.04458  -0.21514  -0.15859   0.98648
  17   30935.1    323.3   0.028525762   0.30357  -0.10120  -0.37993   0.38598
  18   31674.3    315.7   0.013602592   0.14138   0.33063  -0.13766  -0.11452
  19   31817.0    314.3   0.053500586   0.55357  -0.25349  -0.04653   0.69796
  20   32376.4    308.9   0.007473485   0.07599   0.00358   0.25390   0.10731
  21   32871.9    304.2   0.030992328   0.31039  -0.33908   0.39583   0.19679
  22   33089.4    302.2   0.105797939   1.05260  -0.14099   0.80192  -0.62422
  23   33356.8    299.8   0.069564616   0.68656  -0.33018   0.14464   0.74607
  24   34074.1    293.5   0.066157805   0.63919  -0.17489   0.00528   0.78012
  25   34236.8    292.1   0.022740599   0.21867   0.31058  -0.30201  -0.17605
  26   34323.7    291.3   0.015215688   0.14594  -0.14079   0.13887  -0.32686
  27   34406.0    290.6   0.004869925   0.04660  -0.00307   0.00364   0.21581
  28   34614.2    288.9   0.004878036   0.04639   0.05801   0.18790  -0.08787
  29   35148.1    284.5   0.010446031   0.09784   0.07698  -0.22642  -0.20162
  30   35235.2    283.8   0.060905484   0.56906   0.49264  -0.35164  -0.45023
  31   35828.5    279.1   0.069093291   0.63487   0.40971  -0.45257  -0.51204
  32   36041.9    277.5   0.015065082   0.13761  -0.14775   0.08004   0.33071
  33   36580.8    273.4   0.009441816   0.08497   0.14404   0.14206  -0.20986
  34   36904.3    271.0   0.029406313   0.26232   0.13534  -0.13822  -0.47424
  35   37177.6    269.0   0.029499306   0.26122  -0.03776   0.47813   0.17658
  36   37934.2    263.6   0.091139481   0.79095   0.33667  -0.03744  -0.82232
  37   38184.2    261.9   0.038247832   0.32976  -0.07585   0.39851  -0.40645
  38   38697.1    258.4   0.038690403   0.32915   0.21239  -0.52818   0.07122
  39   38847.6    257.4   0.021674030   0.18368  -0.26689   0.28871  -0.17058
  40   39147.6    255.4   0.005003346   0.04208   0.02814   0.04344   0.19849
  41   39840.0    251.0   0.109517947   0.90498   0.19260  -0.56756   0.73876
  42   39965.0    250.2   0.016612500   0.13685   0.32698  -0.10700  -0.13594
  43   40217.0    248.7   0.019278863   0.15781   0.01581  -0.03692  -0.39522

FINAL SINGLE POINT ENERGY     -4772.734993511044

DIPOLE MOMENT
-------------
                                X             Y             Z
Electronic contribution:    -10.54829      10.70061     -12.51485
Nuclear contribution   :     11.16679     -10.92574      13.76430
                        -----------------------------------------
Total Dipole Moment    :      0.61850      -0.22513       1.24945
                        -----------------------------------------
Magnitude (a.u.)       :      1.41221
Magnitude (Debye)      :      3.58956

Rotational constants in cm-1:     0.001084     0.000615     0.000426
Rotational constants in MHz :    32.504964    18.436377    12.766932

                             ****ORCA TERMINATED NORMALLY****
TOTAL RUN TIME: 0 days 0 hours 10 minutes 42 seconds 363 msec
