                         Program Version 4.2.0 -  RELEASE  -
|  1> # ORCA input file
|  2> # SCF done       -128.426581861164          0.000452919581
|  3> ! CAM-B3LYP def2-SVP def2/J RIJCOSX Grid4 TightSCF
|  4> %maxcore 5000
|  5> %tddft
|  6>     Mode sTDDFT
|  7>     Ethresh 5.0
|  8>     maxcore 5000
|  9> end
| 10>
| 11> %pal
| 12>   nprocs 6
| 13>   end
| 14> * xyz 0 1
| 15>    C        4.77995         2.70145        -1.67044
| 16>    C        5.66167         1.76159        -1.30727
| 17>    C        7.07600         1.91711        -1.10690
| 18>    C        7.71461         0.78573        -0.74399
| 19>    C        6.86614        -0.35606        -0.63100
| 20>    S        5.21148         0.07620        -0.99819
| 21>    C        7.23536        -1.63336        -0.29500
| 22>    C        8.53506        -2.11513         0.01572
| 23>    C        8.58003        -3.43985         0.28966
| 24>    C        7.31886        -4.10524         0.19843
| 25>    S        6.07079        -2.94312        -0.21345
| 26>    C        7.12094        -5.42203         0.48482
| 27>    C        5.91336        -6.17974         0.38248
| 28>    C        5.63059        -7.21232         1.27352
| 29>    C        6.43124        -7.60989         2.34136
| 30>    N        7.10624        -7.93359         3.21324
| 31>    S        4.10939        -7.98815         0.96817
| 32>    C        3.85767        -6.98242        -0.41275
| 33>    C        4.88113        -6.07413        -0.60062
| 34>    C        4.86698        -5.20747        -1.70987
| 35>    N        4.80386        -4.53539        -2.63649
| 36>    C        2.69699        -7.16373        -1.25716
| 37>    C        1.40304        -7.27066        -0.78498
| 38>    C        0.99489        -7.16436         0.54706
| 39>    N        0.66763        -7.06799         1.64256
| 40>    S        0.24904        -7.51914        -2.05544
| 41>    C        1.50477        -7.49526        -3.24191
| 42>    C        2.74955        -7.29346        -2.67350
| 43>    C        3.95314        -7.42383        -3.39270
| 44>    N        4.93087        -7.63800        -3.95067
| 45>    C        1.21434        -7.69579        -4.64148
| 46>    C        1.81851        -6.98722        -5.66750
| 47>    C        2.69316        -5.90454        -5.56094
| 48>    N        3.36994        -4.97907        -5.51021
| 49>    S        1.24981        -7.48072        -7.23619
| 50>    C        0.18381        -8.65972        -6.52957
| 51>    C        0.28096        -8.64179        -5.13232
| 52>    C       -0.45196        -9.51625        -4.31980
| 53>    N       -1.05079       -10.24241        -3.66142
| 54>    C       -0.65646        -9.50679        -7.26944
| 55>    C       -0.81170        -9.53083        -8.63078
| 56>    C       -1.68638       -10.39694        -9.34348
| 57>    C       -1.68191       -10.21234       -10.68789
| 58>    C       -0.80248        -9.18987       -11.12480
| 59>    S        0.02798        -8.47878        -9.74854
| 60>    C       -0.57990        -8.75235       -12.40774
| 61>    C       -1.19519        -9.23569       -13.60110
| 62>    C       -0.78991        -8.60927       -14.72528
| 63>    C        0.18520        -7.57649       -14.50995
| 64>    S        0.54223        -7.46560       -12.77786
| 65>    C        0.76407        -6.79230       -15.42763
| 66>    H        5.09744         3.71359        -1.84996
| 67>    H        3.73684         2.47785        -1.79837
| 68>    H        7.54753         2.87350        -1.24812
| 69>    H        8.77103         0.71787        -0.55429
| 70>    H        9.39209        -1.46592         0.02456
| 71>    H        9.47233        -3.98415         0.54348
| 72>    H        7.95936        -5.95439         0.91763
| 73>    H       -1.24737       -10.20572        -6.69079
| 74>    H       -2.28845       -11.12304        -8.82686
| 75>    H       -2.28359       -10.77667       -11.37716
| 76>    H       -1.91815       -10.03118       -13.57493
| 77>    H       -1.14146        -8.83261       -15.71679
| 78>    H        0.51696        -6.89126       -16.47004
| 79>    H        1.48621        -6.04382       -15.15746
| 80> *
| 81>
| 82>                          ****END OF INPUT****

CARTESIAN COORDINATES (ANGSTROEM)
---------------------------------
  C      4.779950    2.701450   -1.670440
  C      5.661670    1.761590   -1.307270
  C      7.076000    1.917110   -1.106900
  C      7.714610    0.785730   -0.743990
  C      6.866140   -0.356060   -0.631000
  S      5.211480    0.076200   -0.998190
  C      7.235360   -1.633360   -0.295000
  C      8.535060   -2.115130    0.015720
  C      8.580030   -3.439850    0.289660
  C      7.318860   -4.105240    0.198430
  S      6.070790   -2.943120   -0.213450
  C      7.120940   -5.422030    0.484820
  C      5.913360   -6.179740    0.382480
  C      5.630590   -7.212320    1.273520
  C      6.431240   -7.609890    2.341360
  N      7.106240   -7.933590    3.213240
  S      4.109390   -7.988150    0.968170
  C      3.857670   -6.982420   -0.412750
  C      4.881130   -6.074130   -0.600620
  C      4.866980   -5.207470   -1.709870
  N      4.803860   -4.535390   -2.636490
  C      2.696990   -7.163730   -1.257160
  C      1.403040   -7.270660   -0.784980
  C      0.994890   -7.164360    0.547060
  N      0.667630   -7.067990    1.642560
  S      0.249040   -7.519140   -2.055440
  C      1.504770   -7.495260   -3.241910
  C      2.749550   -7.293460   -2.673500
  C      3.953140   -7.423830   -3.392700
  N      4.930870   -7.638000   -3.950670
  C      1.214340   -7.695790   -4.641480
  C      1.818510   -6.987220   -5.667500
  C      2.693160   -5.904540   -5.560940
  N      3.369940   -4.979070   -5.510210
  S      1.249810   -7.480720   -7.236190
  C      0.183810   -8.659720   -6.529570
  C      0.280960   -8.641790   -5.132320
  C     -0.451960   -9.516250   -4.319800
  N     -1.050790  -10.242410   -3.661420
  C     -0.656460   -9.506790   -7.269440
  C     -0.811700   -9.530830   -8.630780
  C     -1.686380  -10.396940   -9.343480
  C     -1.681910  -10.212340  -10.687890
  C     -0.802480   -9.189870  -11.124800
  S      0.027980   -8.478780   -9.748540
  C     -0.579900   -8.752350  -12.407740
  C     -1.195190   -9.235690  -13.601100
  C     -0.789910   -8.609270  -14.725280
  C      0.185200   -7.576490  -14.509950
  S      0.542230   -7.465600  -12.777860
  C      0.764070   -6.792300  -15.427630
  H      5.097440    3.713590   -1.849960
  H      3.736840    2.477850   -1.798370
  H      7.547530    2.873500   -1.248120
  H      8.771030    0.717870   -0.554290
  H      9.392090   -1.465920    0.024560
  H      9.472330   -3.984150    0.543480
  H      7.959360   -5.954390    0.917630
  H     -1.247370  -10.205720   -6.690790
  H     -2.288450  -11.123040   -8.826860
  H     -2.283590  -10.776670  -11.377160
  H     -1.918150  -10.031180  -13.574930
  H     -1.141460   -8.832610  -15.716790
  H      0.516960   -6.891260  -16.470040
  H      1.486210   -6.043820  -15.157460

 Total Charge           Charge          ....    0
 Multiplicity           Mult            ....    1
 Number of Electrons    NEL             ....  396
 Basis Dimension        Dim             ....  812

ORBITAL ENERGIES
----------------

  NO   OCC          E(Eh)            E(eV)
   0   2.0000     -89.004432     -2421.9337
   1   2.0000     -88.994712     -2421.6692
   2   2.0000     -88.991360     -2421.5780
   3   2.0000     -88.970026     -2420.9975
   4   2.0000     -88.962866     -2420.8027
   5   2.0000     -88.939810     -2420.1753
   6   2.0000     -88.937654     -2420.1166
   7   2.0000     -14.423629      -392.4869
   8   2.0000     -14.416989      -392.3062
   9   2.0000     -14.411074      -392.1453
  10   2.0000     -14.409059      -392.0904
  11   2.0000     -14.408029      -392.0624
  12   2.0000     -14.402725      -391.9181
  13   2.0000     -10.356866      -281.8247
  14   2.0000     -10.355574      -281.7895
  15   2.0000     -10.347415      -281.5675
  16   2.0000     -10.347238      -281.5627
  17   2.0000     -10.344988      -281.5014
  18   2.0000     -10.340424      -281.3772
  19   2.0000     -10.340107      -281.3686
  20   2.0000     -10.339384      -281.3489
  21   2.0000     -10.336959      -281.2830
  22   2.0000     -10.336790      -281.2784
  23   2.0000     -10.334073      -281.2044
  24   2.0000     -10.328815      -281.0613
  25   2.0000     -10.328763      -281.0599
  26   2.0000     -10.327071      -281.0139
  27   2.0000     -10.326790      -281.0062
  28   2.0000     -10.324723      -280.9500
  29   2.0000     -10.319440      -280.8062
  30   2.0000     -10.317787      -280.7613
  31   2.0000     -10.313808      -280.6530
  32   2.0000     -10.312348      -280.6133
  33   2.0000     -10.311486      -280.5898
  34   2.0000     -10.310897      -280.5738
  35   2.0000     -10.310695      -280.5683
  36   2.0000     -10.310443      -280.5614
  37   2.0000     -10.309844      -280.5451
  38   2.0000     -10.308880      -280.5189
  39   2.0000     -10.305951      -280.4392
  40   2.0000     -10.305499      -280.4269
  41   2.0000     -10.302160      -280.3360
  42   2.0000     -10.301378      -280.3147
  43   2.0000     -10.301156      -280.3087
  44   2.0000     -10.296129      -280.1719
  45   2.0000     -10.289326      -279.9868
  46   2.0000     -10.288829      -279.9733
  47   2.0000     -10.286205      -279.9019
  48   2.0000     -10.280907      -279.7577
  49   2.0000     -10.279219      -279.7118
  50   2.0000     -10.271327      -279.4970
  51   2.0000      -8.099035      -220.3860
  52   2.0000      -8.089403      -220.1239
  53   2.0000      -8.085987      -220.0309
  54   2.0000      -8.066059      -219.4886
  55   2.0000      -8.059619      -219.3134
  56   2.0000      -8.036101      -218.6734
  57   2.0000      -8.034318      -218.6249
  58   2.0000      -6.068403      -165.1296
  59   2.0000      -6.063917      -165.0076
  60   2.0000      -6.061296      -164.9362
  61   2.0000      -6.058799      -164.8683
  62   2.0000      -6.055335      -164.7740
  63   2.0000      -6.054457      -164.7501
  64   2.0000      -6.051452      -164.6684
  65   2.0000      -6.050982      -164.6556
  66   2.0000      -6.048204      -164.5800
  67   2.0000      -6.035817      -164.2429
  68   2.0000      -6.031696      -164.1308
  69   2.0000      -6.029397      -164.0682
  70   2.0000      -6.027000      -164.0030
  71   2.0000      -6.025445      -163.9607
  72   2.0000      -6.020208      -163.8182
  73   2.0000      -6.005926      -163.4295
  74   2.0000      -6.004159      -163.3815
  75   2.0000      -6.001848      -163.3186
  76   2.0000      -6.000197      -163.2737
  77   2.0000      -5.996739      -163.1796
  78   2.0000      -5.994835      -163.1277
  79   2.0000      -1.049676       -28.5631
  80   2.0000      -1.032103       -28.0850
  81   2.0000      -1.020039       -27.7567
  82   2.0000      -1.015545       -27.6344
  83   2.0000      -1.004153       -27.3244
  84   2.0000      -0.999527       -27.1985
  85   2.0000      -0.993699       -27.0399
  86   2.0000      -0.992695       -27.0126
  87   2.0000      -0.991250       -26.9733
  88   2.0000      -0.989068       -26.9139
  89   2.0000      -0.984583       -26.7919
  90   2.0000      -0.980038       -26.6682
  91   2.0000      -0.968534       -26.3551
  92   2.0000      -0.931163       -25.3382
  93   2.0000      -0.916055       -24.9271
  94   2.0000      -0.903566       -24.5873
  95   2.0000      -0.898216       -24.4417
  96   2.0000      -0.893052       -24.3012
  97   2.0000      -0.880369       -23.9561
  98   2.0000      -0.875294       -23.8180
  99   2.0000      -0.868343       -23.6288
 100   2.0000      -0.862203       -23.4617
 101   2.0000      -0.848331       -23.0843
 102   2.0000      -0.844238       -22.9729
 103   2.0000      -0.841953       -22.9107
 104   2.0000      -0.832644       -22.6574
 105   2.0000      -0.816941       -22.2301
 106   2.0000      -0.807098       -21.9622
 107   2.0000      -0.781518       -21.2662
 108   2.0000      -0.767264       -20.8783
 109   2.0000      -0.763506       -20.7761
 110   2.0000      -0.752979       -20.4896
 111   2.0000      -0.743289       -20.2259
 112   2.0000      -0.721695       -19.6383
 113   2.0000      -0.720379       -19.6025
 114   2.0000      -0.711668       -19.3655
 115   2.0000      -0.710926       -19.3453
 116   2.0000      -0.691232       -18.8094
 117   2.0000      -0.683378       -18.5956
 118   2.0000      -0.658564       -17.9204
 119   2.0000      -0.653019       -17.7696
 120   2.0000      -0.647303       -17.6140
 121   2.0000      -0.635137       -17.2830
 122   2.0000      -0.624629       -16.9970
 123   2.0000      -0.623592       -16.9688
 124   2.0000      -0.618602       -16.8330
 125   2.0000      -0.615344       -16.7444
 126   2.0000      -0.605728       -16.4827
 127   2.0000      -0.602371       -16.3914
 128   2.0000      -0.597576       -16.2609
 129   2.0000      -0.587917       -15.9980
 130   2.0000      -0.579006       -15.7556
 131   2.0000      -0.574441       -15.6313
 132   2.0000      -0.568356       -15.4658
 133   2.0000      -0.557786       -15.1781
 134   2.0000      -0.554220       -15.0811
 135   2.0000      -0.543778       -14.7970
 136   2.0000      -0.542941       -14.7742
 137   2.0000      -0.535987       -14.5850
 138   2.0000      -0.529274       -14.4023
 139   2.0000      -0.523140       -14.2354
 140   2.0000      -0.522992       -14.2313
 141   2.0000      -0.518881       -14.1195
 142   2.0000      -0.516104       -14.0439
 143   2.0000      -0.514214       -13.9925
 144   2.0000      -0.506480       -13.7820
 145   2.0000      -0.504987       -13.7414
 146   2.0000      -0.501916       -13.6578
 147   2.0000      -0.500430       -13.6174
 148   2.0000      -0.493140       -13.4190
 149   2.0000      -0.490171       -13.3382
 150   2.0000      -0.489153       -13.3105
 151   2.0000      -0.484002       -13.1704
 152   2.0000      -0.482084       -13.1182
 153   2.0000      -0.477818       -13.0021
 154   2.0000      -0.473843       -12.8939
 155   2.0000      -0.464634       -12.6433
 156   2.0000      -0.462490       -12.5850
 157   2.0000      -0.460682       -12.5358
 158   2.0000      -0.460469       -12.5300
 159   2.0000      -0.458135       -12.4665
 160   2.0000      -0.451915       -12.2972
 161   2.0000      -0.451273       -12.2798
 162   2.0000      -0.449271       -12.2253
 163   2.0000      -0.445863       -12.1325
 164   2.0000      -0.440919       -11.9980
 165   2.0000      -0.438680       -11.9371
 166   2.0000      -0.438381       -11.9290
 167   2.0000      -0.436857       -11.8875
 168   2.0000      -0.435626       -11.8540
 169   2.0000      -0.431486       -11.7413
 170   2.0000      -0.430692       -11.7197
 171   2.0000      -0.428572       -11.6620
 172   2.0000      -0.426284       -11.5998
 173   2.0000      -0.422826       -11.5057
 174   2.0000      -0.420374       -11.4390
 175   2.0000      -0.416802       -11.3418
 176   2.0000      -0.415292       -11.3007
 177   2.0000      -0.413190       -11.2435
 178   2.0000      -0.407970       -11.1014
 179   2.0000      -0.406114       -11.0509
 180   2.0000      -0.404638       -11.0108
 181   2.0000      -0.398964       -10.8564
 182   2.0000      -0.395479       -10.7615
 183   2.0000      -0.388205       -10.5636
 184   2.0000      -0.377427       -10.2703
 185   2.0000      -0.362840        -9.8734
 186   2.0000      -0.361595        -9.8395
 187   2.0000      -0.355421        -9.6715
 188   2.0000      -0.349278        -9.5043
 189   2.0000      -0.347135        -9.4460
 190   2.0000      -0.335390        -9.1264
 191   2.0000      -0.326217        -8.8768
 192   2.0000      -0.320901        -8.7322
 193   2.0000      -0.316350        -8.6083
 194   2.0000      -0.307348        -8.3634
 195   2.0000      -0.296952        -8.0805
 196   2.0000      -0.245061        -6.6684
 197   2.0000      -0.224914        -6.1202
 198   0.0000      -0.097144        -2.6434
 199   0.0000      -0.071308        -1.9404
 200   0.0000      -0.066048        -1.7973
 201   0.0000      -0.046261        -1.2588
 202   0.0000      -0.028198        -0.7673

MULLIKEN ATOMIC CHARGES
-----------------------
   0 C :   -0.022653
   1 C :   -0.068473
   2 C :    0.058334
   3 C :    0.029093
   4 C :   -0.060227
   5 S :    0.100455
   6 C :   -0.063344
   7 C :    0.050145
   8 C :    0.025276
   9 C :    0.002934
  10 S :    0.109758
  11 C :   -0.118806
  12 C :    0.212079
  13 C :   -0.291040
  14 C :   -0.187539
  15 N :    0.140736
  16 S :    0.272442
  17 C :   -0.195207
  18 C :    0.020218
  19 C :   -0.324467
  20 N :    0.236632
  21 C :    0.240107
  22 C :   -0.316027
  23 C :   -0.207289
  24 N :    0.184598
  25 S :    0.288536
  26 C :   -0.175587
  27 C :    0.042618
  28 C :   -0.339895
  29 N :    0.232707
  30 C :    0.297541
  31 C :   -0.304832
  32 C :   -0.242718
  33 N :    0.201753
  34 S :    0.208632
  35 C :   -0.032798
  36 C :   -0.103907
  37 C :   -0.273234
  38 N :    0.168330
  39 C :   -0.047865
  40 C :   -0.016704
  41 C :    0.024481
  42 C :    0.050124
  43 C :   -0.050202
  44 S :    0.076522
  45 C :   -0.052257
  46 C :    0.025620
  47 C :    0.069354
  48 C :   -0.073798
  49 S :    0.106916
  50 C :   -0.013054
  51 H :    0.022064
  52 H :    0.027102
  53 H :   -0.008854
  54 H :   -0.008521
  55 H :   -0.010579
  56 H :   -0.006587
  57 H :    0.013397
  58 H :    0.014248
  59 H :    0.000746
  60 H :   -0.004695
  61 H :   -0.001291
  62 H :   -0.000071
  63 H :    0.032838
  64 H :    0.036187
Sum of atomic charges:   -0.0000000

LOEWDIN ATOMIC CHARGES
----------------------
   0 C :   -0.066124
   1 C :   -0.139907
   2 C :   -0.022829
   3 C :   -0.026800
   4 C :   -0.164020
   5 S :    0.366503
   6 C :   -0.184991
   7 C :   -0.017179
   8 C :   -0.035827
   9 C :   -0.117715
  10 S :    0.403164
  11 C :   -0.087910
  12 C :    0.000061
  13 C :   -0.227763
  14 C :   -0.056227
  15 N :   -0.046224
  16 S :    0.530143
  17 C :   -0.140382
  18 C :   -0.088527
  19 C :   -0.058927
  20 N :   -0.014922
  21 C :   -0.024650
  22 C :   -0.213569
  23 C :   -0.067415
  24 N :   -0.024997
  25 S :    0.550855
  26 C :   -0.128456
  27 C :   -0.077859
  28 C :   -0.035645
  29 N :   -0.021940
  30 C :   -0.031456
  31 C :   -0.212109
  32 C :   -0.070220
  33 N :   -0.009429
  34 S :    0.497523
  35 C :   -0.118220
  36 C :   -0.123101
  37 C :   -0.052950
  38 N :   -0.052672
  39 C :   -0.097319
  40 C :   -0.122377
  41 C :   -0.037419
  42 C :   -0.014001
  43 C :   -0.191070
  44 S :    0.377271
  45 C :   -0.151937
  46 C :   -0.027991
  47 C :   -0.010307
  48 C :   -0.142513
  49 S :    0.373135
  50 C :   -0.046373
  51 H :    0.029835
  52 H :    0.028705
  53 H :    0.034691
  54 H :    0.033208
  55 H :    0.033357
  56 H :    0.035412
  57 H :    0.043458
  58 H :    0.048455
  59 H :    0.038737
  60 H :    0.035947
  61 H :    0.035876
  62 H :    0.038601
  63 H :    0.034523
  64 H :    0.032805

  Mayer bond orders larger than 0.100000
B(  0-C ,  1-C ) :   1.8712 B(  0-C , 51-H ) :   0.9506 B(  0-C , 52-H ) :   0.9412
B(  1-C ,  2-C ) :   1.0739 B(  1-C ,  5-S ) :   1.0076 B(  2-C ,  3-C ) :   1.6734
B(  2-C , 53-H ) :   0.9929 B(  3-C ,  4-C ) :   1.1407 B(  3-C , 54-H ) :   0.9920
B(  4-C ,  5-S ) :   1.0578 B(  4-C ,  6-C ) :   1.5723 B(  6-C ,  7-C ) :   1.1558
B(  6-C , 10-S ) :   1.0458 B(  7-C ,  8-C ) :   1.6299 B(  7-C , 55-H ) :   0.9914
B(  8-C ,  9-C ) :   1.1114 B(  8-C , 56-H ) :   0.9994 B(  9-C , 10-S ) :   1.0584
B(  9-C , 11-C ) :   1.6393 B( 11-C , 12-C ) :   1.1006 B( 11-C , 57-H ) :   0.9463
B( 12-C , 13-C ) :   1.4484 B( 12-C , 18-C ) :   1.2315 B( 13-C , 14-C ) :   1.2128
B( 13-C , 16-S ) :   1.1180 B( 13-C , 17-C ) :   0.1308 B( 14-C , 15-N ) :   2.9914
B( 16-S , 17-C ) :   1.1920 B( 17-C , 18-C ) :   1.5342 B( 17-C , 21-C ) :   0.9872
B( 18-C , 19-C ) :   1.1013 B( 19-C , 20-N ) :   3.0079 B( 21-C , 22-C ) :   1.5106
B( 21-C , 27-C ) :   1.2970 B( 22-C , 23-C ) :   1.2341 B( 22-C , 25-S ) :   1.1386
B( 22-C , 26-C ) :   0.1301 B( 23-C , 24-N ) :   3.0051 B( 25-S , 26-C ) :   1.1916
B( 26-C , 27-C ) :   1.5119 B( 26-C , 30-C ) :   0.9936 B( 27-C , 28-C ) :   1.1251
B( 28-C , 29-N ) :   3.0083 B( 30-C , 31-C ) :   1.4905 B( 30-C , 36-C ) :   1.3045
B( 31-C , 32-C ) :   1.2444 B( 31-C , 34-S ) :   1.1250 B( 32-C , 33-N ) :   2.9875
B( 34-S , 35-C ) :   1.1146 B( 35-C , 36-C ) :   1.4175 B( 35-C , 39-C ) :   1.2270
B( 36-C , 37-C ) :   1.1309 B( 37-C , 38-N ) :   2.9956 B( 39-C , 40-C ) :   1.5435
B( 39-C , 58-H ) :   0.9609 B( 40-C , 41-C ) :   1.1380 B( 40-C , 44-S ) :   1.0654
B( 41-C , 42-C ) :   1.6047 B( 41-C , 59-H ) :   1.0009 B( 42-C , 43-C ) :   1.1709
B( 42-C , 60-H ) :   0.9918 B( 43-C , 44-S ) :   1.0240 B( 43-C , 45-C ) :   1.5556
B( 45-C , 46-C ) :   1.1413 B( 45-C , 49-S ) :   1.0703 B( 46-C , 47-C ) :   1.6701
B( 46-C , 61-H ) :   0.9933 B( 47-C , 48-C ) :   1.0753 B( 47-C , 62-H ) :   0.9933
B( 48-C , 49-S ) :   1.0031 B( 48-C , 50-C ) :   1.8675 B( 50-C , 63-H ) :   0.9518
B( 50-C , 64-H ) :   0.9424

-----------------------------------------------------------------------------
         ABSORPTION SPECTRUM VIA TRANSITION ELECTRIC DIPOLE MOMENTS
-----------------------------------------------------------------------------
State   Energy  Wavelength   fosc         T2         TX        TY        TZ
        (cm-1)    (nm)                  (au**2)     (au)      (au)      (au)
-----------------------------------------------------------------------------
   0   18302.3    546.4   1.275821171  22.94875   0.48674   0.34010   4.75354
   1   18893.4    529.3   0.149864285   2.61134   0.23867  -1.44360   0.68585
   2   19726.8    506.9   0.330993308   5.52379  -0.13118   2.16667  -0.90118
   3   20977.3    476.7   0.735934730  11.54958   0.01367  -3.27558   0.90553
   4   24200.0    413.2   0.075526543   1.02745   0.22087  -0.95631  -0.25324
   5   24281.9    411.8   0.150147131   2.03568   0.20967   0.89565  -1.09066
   6   28835.1    346.8   0.003624804   0.04138  -0.10654  -0.01046  -0.17299
   7   29674.5    337.0   0.013335315   0.14794  -0.11207  -0.32551   0.17155
   8   30907.4    323.5   0.042168847   0.44916  -0.43489   0.40373  -0.31151
   9   31669.2    315.8   0.005355297   0.05567  -0.02063   0.10974   0.20785
  10   32361.8    309.0   0.250030667   2.54353   0.95618   1.12972  -0.59413
  11   32564.8    307.1   0.003376244   0.03413   0.17380  -0.00585  -0.06238
  12   32630.2    306.5   0.139935828   1.41184  -0.76385  -0.73382  -0.53840
  13   32736.9    305.5   0.062075055   0.62424  -0.76806   0.18045  -0.04204
  14   33571.1    297.9   0.060298683   0.59131  -0.68025   0.35122   0.07219
  15   34094.8    293.3   0.006865377   0.06629   0.06554   0.24771   0.02518
  16   35124.1    284.7   0.092859458   0.87036   0.86450   0.32937  -0.12047
  17   35446.9    282.1   0.181406983   1.68481   0.80369   0.39364   0.94018
  18   35709.9    280.0   0.120555829   1.11141   0.23527   0.19236   1.00949
  19   36059.8    277.3   0.267122760   2.43873  -0.95765  -0.39264  -1.16939
  20   36240.3    275.9   0.180381532   1.63861   0.95414   0.63769   0.56707
  21   36517.6    273.8   0.185797572   1.67499  -0.08723  -0.29529   1.25706
  22   36597.4    273.2   0.053032017   0.47705   0.56591  -0.18587   0.34963
  23   37131.2    269.3   0.186729807   1.65558   1.05650   0.72116   0.13899
  24   37872.3    264.0   0.021329112   0.18541   0.33814  -0.07601   0.25552
  25   38185.5    261.9   0.014756703   0.12722   0.05310  -0.30769   0.17243
  26   38316.9    261.0   0.068177627   0.58577  -0.05832  -0.04589  -0.76175
  27   38488.5    259.8   0.129612951   1.10865  -0.35619  -0.74887   0.64882
  28   38665.7    258.6   0.003744675   0.03188   0.10029   0.10085   0.10795
  29   39021.9    256.3   0.181228919   1.52896   0.98906   0.01453   0.74196
  30   39543.0    252.9   0.019403008   0.16154   0.14183   0.36045   0.10723
  31   39627.0    252.4   0.001418161   0.01178  -0.00353   0.02636   0.10524
  32   39698.4    251.9   0.058513984   0.48525  -0.57010   0.35123  -0.19203
  33   40275.8    248.3   0.014607350   0.11940   0.01622   0.00882   0.34505

FINAL SINGLE POINT ENERGY     -4568.975116449141

DIPOLE MOMENT
-------------
                                X             Y             Z
Electronic contribution:     -5.98443     -18.31990      26.07279
Nuclear contribution   :      4.38077      18.80305     -31.28945
                        -----------------------------------------
Total Dipole Moment    :     -1.60366       0.48315      -5.21666
                        -----------------------------------------
Magnitude (a.u.)       :      5.47893
Magnitude (Debye)      :     13.92634

Rotational constants in cm-1:     0.002135     0.000600     0.000507
Rotational constants in MHz :    64.012978    17.978380    15.195726

                             ****ORCA TERMINATED NORMALLY****
TOTAL RUN TIME: 0 days 0 hours 4 minutes 56 seconds 656 msec
