                         Program Version 4.2.0 -  RELEASE  -
|  1> # ORCA input file
|  2> # SCF done       -170.803498490277          0.000470472731
|  3> ! CAM-B3LYP def2-SVP def2/J RIJCOSX Grid4 TightSCF
|  4> %maxcore 5000
|  5> %tddft
|  6>     Mode sTDDFT
|  7>     Ethresh 5.0
|  8>     maxcore 5000
|  9> end
| 10>
| 11> %pal
| 12>   nprocs 6
| 13>   end
| 14> * xyz 0 1
| 15>    C        2.91110        -1.99082        -7.05013
| 16>    C        3.61680        -1.97823        -5.91294
| 17>    C        4.41409        -0.90559        -5.38594
| 18>    C        5.03258        -1.18795        -4.22082
| 19>    C        4.77472        -2.50062        -3.72529
| 20>    S        3.70083        -3.36184        -4.80632
| 21>    C        5.27285        -3.05935        -2.57500
| 22>    C        6.16803        -2.48715        -1.63506
| 23>    C        6.48249        -3.30457        -0.60033
| 24>    C        5.86248        -4.58792        -0.64585
| 25>    S        4.84143        -4.68698        -2.07514
| 26>    C        5.96403        -5.53889         0.32809
| 27>    C        5.35487        -6.82243         0.38252
| 28>    S        4.71551        -7.32087         1.93142
| 29>    C        4.07412        -8.77499         1.23608
| 30>    C        4.40598        -8.89199        -0.10688
| 31>    C        5.14352        -7.79856        -0.58370
| 32>    C        5.78751        -7.81503        -1.93827
| 33>    C        5.12064        -8.82009        -2.88174
| 34>    C        3.80885        -8.25083        -3.41205
| 35>    F        3.01013        -7.73756        -2.47050
| 36>    F        4.02927        -7.26409        -4.29736
| 37>    F        3.08073        -9.17593        -4.06351
| 38>    C        4.92143       -10.17012        -2.19077
| 39>    C        4.01970       -10.05409        -0.96443
| 40>    C        3.30908        -9.66194         2.02873
| 41>    O        2.59240       -10.65064         1.43202
| 42>    C        3.11496        -9.75018         3.39504
| 43>    C        3.46396        -9.14900         4.67868
| 44>    O        4.15698        -8.20197         4.95357
| 45>    N        2.78744        -9.94424         5.60447
| 46>    C        2.03852       -10.98849         5.06160
| 47>    O        1.39091       -11.77885         5.70069
| 48>    C        2.25644       -10.85588         3.62207
| 49>    C        1.93998       -11.38830         2.38409
| 50>    C        1.11925       -12.45845         1.97190
| 51>    C        0.83820       -12.65671         0.64858
| 52>    C        0.07937       -13.69989         0.10923
| 53>    C       -0.22647       -13.77524        -1.23106
| 54>    C       -0.89118       -14.82111        -1.91200
| 55>    C       -1.02911       -14.61802        -3.25320
| 56>    C       -0.50973       -13.38359        -3.70231
| 57>    S        0.19031       -12.50027        -2.36731
| 58>    C       -0.52121       -12.86964        -4.98641
| 59>    C       -0.91595       -13.52888        -6.17254
| 60>    C       -0.78021       -12.76886        -7.29330
| 61>    C       -0.29934       -11.45739        -7.04808
| 62>    S       -0.00517       -11.23237        -5.33759
| 63>    C       -0.08083       -10.48175        -7.98749
| 64>    C        0.31349        -9.16752        -7.69021
| 65>    O        0.42795        -8.74510        -6.39871
| 66>    C        0.60706        -8.09607        -8.52095
| 67>    C        0.70219        -7.66862        -9.90899
| 68>    O        0.53015        -8.25878       -10.94635
| 69>    N        1.05755        -6.31761        -9.81078
| 70>    C        1.19378        -5.83191        -8.51652
| 71>    O        1.47655        -4.69365        -8.23318
| 72>    C        0.90657        -6.99532        -7.67633
| 73>    C        0.77756        -7.43247        -6.37640
| 74>    C        0.90058        -6.72449        -5.13562
| 75>    C        0.57109        -7.25246        -3.95745
| 76>    H        2.89434        -1.12223        -7.68622
| 77>    H        2.35478        -2.85306        -7.36947
| 78>    H        4.48887         0.02985        -5.91218
| 79>    H        5.66903        -0.50390        -3.68795
| 80>    H        6.55185        -1.48999        -1.75516
| 81>    H        7.14456        -3.04111         0.20546
| 82>    H        6.46355        -5.22941         1.23819
| 83>    H        6.83660        -8.10159        -1.81405
| 84>    H        5.77725        -6.82595        -2.39530
| 85>    H        5.75072        -8.95530        -3.76797
| 86>    H        5.90506       -10.53306        -1.88690
| 87>    H        4.49520       -10.89026        -2.89095
| 88>    H        4.07060       -10.97889        -0.38780
| 89>    H        2.97762        -9.93048        -1.27386
| 90>    H        2.83061        -9.77235         6.59848
| 91>    H        0.71113       -13.08880         2.74650
| 92>    H        1.23767       -11.93789        -0.05669
| 93>    H       -0.27262       -14.48999         0.75811
| 94>    H       -1.23652       -15.69667        -1.39104
| 95>    H       -1.50480       -15.31118        -3.92342
| 96>    H       -1.26689       -14.54528        -6.16994
| 97>    H       -1.01556       -13.09787        -8.28966
| 98>    H       -0.22732       -10.70946        -9.03218
| 99>    H        1.19516        -5.73659       -10.62515
|100>    H        1.26363        -5.71116        -5.22919
|101>    H        0.21817        -8.26781        -3.88106
|102>    H        0.66205        -6.69048        -3.04542
|103> *
|104>
|105>                          ****END OF INPUT****

CARTESIAN COORDINATES (ANGSTROEM)
---------------------------------
  C      2.911100   -1.990820   -7.050130
  C      3.616800   -1.978230   -5.912940
  C      4.414090   -0.905590   -5.385940
  C      5.032580   -1.187950   -4.220820
  C      4.774720   -2.500620   -3.725290
  S      3.700830   -3.361840   -4.806320
  C      5.272850   -3.059350   -2.575000
  C      6.168030   -2.487150   -1.635060
  C      6.482490   -3.304570   -0.600330
  C      5.862480   -4.587920   -0.645850
  S      4.841430   -4.686980   -2.075140
  C      5.964030   -5.538890    0.328090
  C      5.354870   -6.822430    0.382520
  S      4.715510   -7.320870    1.931420
  C      4.074120   -8.774990    1.236080
  C      4.405980   -8.891990   -0.106880
  C      5.143520   -7.798560   -0.583700
  C      5.787510   -7.815030   -1.938270
  C      5.120640   -8.820090   -2.881740
  C      3.808850   -8.250830   -3.412050
  F      3.010130   -7.737560   -2.470500
  F      4.029270   -7.264090   -4.297360
  F      3.080730   -9.175930   -4.063510
  C      4.921430  -10.170120   -2.190770
  C      4.019700  -10.054090   -0.964430
  C      3.309080   -9.661940    2.028730
  O      2.592400  -10.650640    1.432020
  C      3.114960   -9.750180    3.395040
  C      3.463960   -9.149000    4.678680
  O      4.156980   -8.201970    4.953570
  N      2.787440   -9.944240    5.604470
  C      2.038520  -10.988490    5.061600
  O      1.390910  -11.778850    5.700690
  C      2.256440  -10.855880    3.622070
  C      1.939980  -11.388300    2.384090
  C      1.119250  -12.458450    1.971900
  C      0.838200  -12.656710    0.648580
  C      0.079370  -13.699890    0.109230
  C     -0.226470  -13.775240   -1.231060
  C     -0.891180  -14.821110   -1.912000
  C     -1.029110  -14.618020   -3.253200
  C     -0.509730  -13.383590   -3.702310
  S      0.190310  -12.500270   -2.367310
  C     -0.521210  -12.869640   -4.986410
  C     -0.915950  -13.528880   -6.172540
  C     -0.780210  -12.768860   -7.293300
  C     -0.299340  -11.457390   -7.048080
  S     -0.005170  -11.232370   -5.337590
  C     -0.080830  -10.481750   -7.987490
  C      0.313490   -9.167520   -7.690210
  O      0.427950   -8.745100   -6.398710
  C      0.607060   -8.096070   -8.520950
  C      0.702190   -7.668620   -9.908990
  O      0.530150   -8.258780  -10.946350
  N      1.057550   -6.317610   -9.810780
  C      1.193780   -5.831910   -8.516520
  O      1.476550   -4.693650   -8.233180
  C      0.906570   -6.995320   -7.676330
  C      0.777560   -7.432470   -6.376400
  C      0.900580   -6.724490   -5.135620
  C      0.571090   -7.252460   -3.957450
  H      2.894340   -1.122230   -7.686220
  H      2.354780   -2.853060   -7.369470
  H      4.488870    0.029850   -5.912180
  H      5.669030   -0.503900   -3.687950
  H      6.551850   -1.489990   -1.755160
  H      7.144560   -3.041110    0.205460
  H      6.463550   -5.229410    1.238190
  H      6.836600   -8.101590   -1.814050
  H      5.777250   -6.825950   -2.395300
  H      5.750720   -8.955300   -3.767970
  H      5.905060  -10.533060   -1.886900
  H      4.495200  -10.890260   -2.890950
  H      4.070600  -10.978890   -0.387800
  H      2.977620   -9.930480   -1.273860
  H      2.830610   -9.772350    6.598480
  H      0.711130  -13.088800    2.746500
  H      1.237670  -11.937890   -0.056690
  H     -0.272620  -14.489990    0.758110
  H     -1.236520  -15.696670   -1.391040
  H     -1.504800  -15.311180   -3.923420
  H     -1.266890  -14.545280   -6.169940
  H     -1.015560  -13.097870   -8.289660
  H     -0.227320  -10.709460   -9.032180
  H      1.195160   -5.736590  -10.625150
  H      1.263630   -5.711160   -5.229190
  H      0.218170   -8.267810   -3.881060
  H      0.662050   -6.690480   -3.045420

 Total Charge           Charge          ....    0
 Multiplicity           Mult            ....    1
 Number of Electrons    NEL             ....  466
 Basis Dimension        Dim             .... 1009

ORBITAL ENERGIES
----------------

  NO   OCC          E(Eh)            E(eV)
   0   2.0000     -88.951961     -2420.5059
   1   2.0000     -88.950676     -2420.4710
   2   2.0000     -88.946590     -2420.3598
   3   2.0000     -88.939177     -2420.1580
   4   2.0000     -88.933362     -2419.9998
   5   2.0000     -24.796175      -674.7382
   6   2.0000     -24.790140      -674.5740
   7   2.0000     -24.786715      -674.4808
   8   2.0000     -19.301825      -525.2294
   9   2.0000     -19.300449      -525.1919
  10   2.0000     -19.204461      -522.5800
  11   2.0000     -19.199797      -522.4530
  12   2.0000     -19.197779      -522.3981
  13   2.0000     -19.197455      -522.3893
  14   2.0000     -14.445472      -393.0813
  15   2.0000     -14.441874      -392.9834
  16   2.0000     -10.501286      -285.7545
  17   2.0000     -10.393208      -282.8136
  18   2.0000     -10.389098      -282.7017
  19   2.0000     -10.387601      -282.6610
  20   2.0000     -10.386729      -282.6373
  21   2.0000     -10.358305      -281.8638
  22   2.0000     -10.352723      -281.7119
  23   2.0000     -10.350426      -281.6494
  24   2.0000     -10.349431      -281.6223
  25   2.0000     -10.319577      -280.8100
  26   2.0000     -10.318235      -280.7735
  27   2.0000     -10.315315      -280.6940
  28   2.0000     -10.314527      -280.6725
  29   2.0000     -10.307305      -280.4760
  30   2.0000     -10.305481      -280.4264
  31   2.0000     -10.300597      -280.2935
  32   2.0000     -10.298307      -280.2312
  33   2.0000     -10.297456      -280.2080
  34   2.0000     -10.296817      -280.1906
  35   2.0000     -10.295920      -280.1662
  36   2.0000     -10.294765      -280.1348
  37   2.0000     -10.292716      -280.0790
  38   2.0000     -10.292290      -280.0674
  39   2.0000     -10.289889      -280.0021
  40   2.0000     -10.287804      -279.9454
  41   2.0000     -10.286876      -279.9201
  42   2.0000     -10.286039      -279.8974
  43   2.0000     -10.285415      -279.8804
  44   2.0000     -10.283439      -279.8266
  45   2.0000     -10.283341      -279.8239
  46   2.0000     -10.280955      -279.7590
  47   2.0000     -10.280490      -279.7463
  48   2.0000     -10.279619      -279.7226
  49   2.0000     -10.278475      -279.6915
  50   2.0000     -10.277806      -279.6733
  51   2.0000     -10.277512      -279.6653
  52   2.0000     -10.277043      -279.6525
  53   2.0000     -10.276595      -279.6404
  54   2.0000     -10.276232      -279.6305
  55   2.0000     -10.273994      -279.5696
  56   2.0000     -10.273792      -279.5641
  57   2.0000     -10.273403      -279.5535
  58   2.0000     -10.269310      -279.4421
  59   2.0000     -10.268392      -279.4171
  60   2.0000     -10.258978      -279.1610
  61   2.0000      -8.048253      -219.0041
  62   2.0000      -8.046324      -218.9516
  63   2.0000      -8.041902      -218.8313
  64   2.0000      -8.034915      -218.6412
  65   2.0000      -8.029652      -218.4979
  66   2.0000      -6.017925      -163.7561
  67   2.0000      -6.016144      -163.7076
  68   2.0000      -6.013978      -163.6487
  69   2.0000      -6.011887      -163.5918
  70   2.0000      -6.011290      -163.5755
  71   2.0000      -6.009187      -163.5183
  72   2.0000      -6.007261      -163.4659
  73   2.0000      -6.007117      -163.4620
  74   2.0000      -6.004712      -163.3965
  75   2.0000      -6.003753      -163.3704
  76   2.0000      -6.000631      -163.2855
  77   2.0000      -5.999465      -163.2537
  78   2.0000      -5.995783      -163.1535
  79   2.0000      -5.995590      -163.1483
  80   2.0000      -5.990237      -163.0026
  81   2.0000      -1.381073       -37.5809
  82   2.0000      -1.285555       -34.9817
  83   2.0000      -1.278964       -34.8024
  84   2.0000      -1.218007       -33.1437
  85   2.0000      -1.216480       -33.1021
  86   2.0000      -1.146076       -31.1863
  87   2.0000      -1.141860       -31.0716
  88   2.0000      -1.124859       -30.6090
  89   2.0000      -1.121089       -30.5064
  90   2.0000      -1.032959       -28.1082
  91   2.0000      -1.029492       -28.0139
  92   2.0000      -1.002187       -27.2709
  93   2.0000      -0.989963       -26.9383
  94   2.0000      -0.984027       -26.7767
  95   2.0000      -0.980854       -26.6904
  96   2.0000      -0.962463       -26.1899
  97   2.0000      -0.932451       -25.3733
  98   2.0000      -0.924681       -25.1618
  99   2.0000      -0.916865       -24.9492
 100   2.0000      -0.912462       -24.8293
 101   2.0000      -0.910729       -24.7822
 102   2.0000      -0.898126       -24.4393
 103   2.0000      -0.884603       -24.0713
 104   2.0000      -0.873763       -23.7763
 105   2.0000      -0.863651       -23.5011
 106   2.0000      -0.855225       -23.2719
 107   2.0000      -0.845704       -23.0128
 108   2.0000      -0.841061       -22.8864
 109   2.0000      -0.838662       -22.8212
 110   2.0000      -0.832041       -22.6410
 111   2.0000      -0.829320       -22.5669
 112   2.0000      -0.819685       -22.3048
 113   2.0000      -0.812684       -22.1142
 114   2.0000      -0.799117       -21.7451
 115   2.0000      -0.784798       -21.3554
 116   2.0000      -0.774303       -21.0699
 117   2.0000      -0.767651       -20.8888
 118   2.0000      -0.760510       -20.6945
 119   2.0000      -0.756551       -20.5868
 120   2.0000      -0.752936       -20.4884
 121   2.0000      -0.746425       -20.3112
 122   2.0000      -0.735043       -20.0015
 123   2.0000      -0.722657       -19.6645
 124   2.0000      -0.715727       -19.4759
 125   2.0000      -0.707178       -19.2433
 126   2.0000      -0.695184       -18.9169
 127   2.0000      -0.691468       -18.8158
 128   2.0000      -0.687695       -18.7131
 129   2.0000      -0.679025       -18.4772
 130   2.0000      -0.677990       -18.4490
 131   2.0000      -0.669113       -18.2075
 132   2.0000      -0.666164       -18.1273
 133   2.0000      -0.661529       -18.0011
 134   2.0000      -0.653057       -17.7706
 135   2.0000      -0.645801       -17.5731
 136   2.0000      -0.642358       -17.4795
 137   2.0000      -0.627148       -17.0656
 138   2.0000      -0.624012       -16.9802
 139   2.0000      -0.622212       -16.9313
 140   2.0000      -0.617779       -16.8106
 141   2.0000      -0.612253       -16.6602
 142   2.0000      -0.609948       -16.5975
 143   2.0000      -0.592810       -16.1312
 144   2.0000      -0.590267       -16.0620
 145   2.0000      -0.588126       -16.0037
 146   2.0000      -0.583755       -15.8848
 147   2.0000      -0.582091       -15.8395
 148   2.0000      -0.580700       -15.8016
 149   2.0000      -0.577080       -15.7031
 150   2.0000      -0.575642       -15.6640
 151   2.0000      -0.575046       -15.6478
 152   2.0000      -0.565120       -15.3777
 153   2.0000      -0.561948       -15.2914
 154   2.0000      -0.554916       -15.1000
 155   2.0000      -0.553665       -15.0660
 156   2.0000      -0.544217       -14.8089
 157   2.0000      -0.542259       -14.7556
 158   2.0000      -0.541554       -14.7364
 159   2.0000      -0.539386       -14.6774
 160   2.0000      -0.537243       -14.6191
 161   2.0000      -0.534691       -14.5497
 162   2.0000      -0.532091       -14.4789
 163   2.0000      -0.530166       -14.4266
 164   2.0000      -0.524776       -14.2799
 165   2.0000      -0.522948       -14.2301
 166   2.0000      -0.522356       -14.2140
 167   2.0000      -0.515836       -14.0366
 168   2.0000      -0.513255       -13.9664
 169   2.0000      -0.509617       -13.8674
 170   2.0000      -0.507500       -13.8098
 171   2.0000      -0.504615       -13.7313
 172   2.0000      -0.503105       -13.6902
 173   2.0000      -0.502214       -13.6659
 174   2.0000      -0.498693       -13.5701
 175   2.0000      -0.496443       -13.5089
 176   2.0000      -0.495442       -13.4817
 177   2.0000      -0.493726       -13.4350
 178   2.0000      -0.492617       -13.4048
 179   2.0000      -0.489743       -13.3266
 180   2.0000      -0.488727       -13.2989
 181   2.0000      -0.487445       -13.2641
 182   2.0000      -0.483545       -13.1579
 183   2.0000      -0.482178       -13.1207
 184   2.0000      -0.477016       -12.9803
 185   2.0000      -0.475404       -12.9364
 186   2.0000      -0.473721       -12.8906
 187   2.0000      -0.472452       -12.8561
 188   2.0000      -0.471279       -12.8241
 189   2.0000      -0.470138       -12.7931
 190   2.0000      -0.467179       -12.7126
 191   2.0000      -0.465629       -12.6704
 192   2.0000      -0.462985       -12.5985
 193   2.0000      -0.456291       -12.4163
 194   2.0000      -0.454858       -12.3773
 195   2.0000      -0.450831       -12.2677
 196   2.0000      -0.447686       -12.1821
 197   2.0000      -0.442363       -12.0373
 198   2.0000      -0.439703       -11.9649
 199   2.0000      -0.434409       -11.8209
 200   2.0000      -0.424547       -11.5525
 201   2.0000      -0.423280       -11.5180
 202   2.0000      -0.422542       -11.4980
 203   2.0000      -0.418518       -11.3884
 204   2.0000      -0.411744       -11.2041
 205   2.0000      -0.407458       -11.0875
 206   2.0000      -0.403340       -10.9754
 207   2.0000      -0.401282       -10.9194
 208   2.0000      -0.399316       -10.8659
 209   2.0000      -0.397439       -10.8149
 210   2.0000      -0.389052       -10.5866
 211   2.0000      -0.385854       -10.4996
 212   2.0000      -0.378194       -10.2912
 213   2.0000      -0.368938       -10.0393
 214   2.0000      -0.365689        -9.9509
 215   2.0000      -0.361565        -9.8387
 216   2.0000      -0.356459        -9.6997
 217   2.0000      -0.354664        -9.6509
 218   2.0000      -0.350119        -9.5272
 219   2.0000      -0.347535        -9.4569
 220   2.0000      -0.342939        -9.3318
 221   2.0000      -0.337474        -9.1831
 222   2.0000      -0.334093        -9.0911
 223   2.0000      -0.331938        -9.0325
 224   2.0000      -0.331504        -9.0207
 225   2.0000      -0.326120        -8.8742
 226   2.0000      -0.316594        -8.6150
 227   2.0000      -0.306014        -8.3271
 228   2.0000      -0.301477        -8.2036
 229   2.0000      -0.281771        -7.6674
 230   2.0000      -0.257640        -7.0107
 231   2.0000      -0.220038        -5.9875
 232   2.0000      -0.207646        -5.6503
 233   0.0000      -0.095018        -2.5856
 234   0.0000      -0.061906        -1.6846
 235   0.0000      -0.038818        -1.0563
 236   0.0000      -0.027343        -0.7440
 237   0.0000      -0.024855        -0.6763

MULLIKEN ATOMIC CHARGES
-----------------------
   0 C :   -0.022671
   1 C :   -0.075582
   2 C :    0.058610
   3 C :    0.021378
   4 C :   -0.054994
   5 S :    0.086202
   6 C :   -0.072791
   7 C :    0.040436
   8 C :    0.029222
   9 C :   -0.021526
  10 S :    0.089922
  11 C :   -0.033223
  12 C :   -0.139182
  13 S :    0.181061
  14 C :   -0.179554
  15 C :   -0.065898
  16 C :   -0.068814
  17 C :    0.156317
  18 C :   -0.154104
  19 C :    0.489932
  20 F :   -0.162861
  21 F :   -0.167468
  22 F :   -0.174385
  23 C :    0.058723
  24 C :    0.113657
  25 C :    0.135240
  26 O :   -0.233161
  27 C :   -0.085116
  28 C :    0.158282
  29 O :   -0.150405
  30 N :   -0.166924
  31 C :    0.152905
  32 O :   -0.148918
  33 C :   -0.024353
  34 C :    0.087719
  35 C :   -0.028473
  36 C :    0.011604
  37 C :    0.001186
  38 C :   -0.022375
  39 C :    0.038421
  40 C :    0.031106
  41 C :   -0.047442
  42 S :    0.076153
  43 C :   -0.052356
  44 C :    0.034658
  45 C :    0.027014
  46 C :   -0.002844
  47 S :    0.117978
  48 C :   -0.057584
  49 C :    0.093460
  50 O :   -0.226541
  51 C :   -0.035698
  52 C :    0.158066
  53 O :   -0.151938
  54 N :   -0.168107
  55 C :    0.176328
  56 O :   -0.146611
  57 C :   -0.043333
  58 C :    0.079207
  59 C :   -0.037923
  60 C :    0.031938
  61 H :    0.015953
  62 H :    0.034684
  63 H :   -0.011588
  64 H :   -0.012503
  65 H :   -0.015932
  66 H :   -0.013327
  67 H :   -0.001115
  68 H :    0.024388
  69 H :    0.020745
  70 H :    0.029670
  71 H :    0.011290
  72 H :    0.017990
  73 H :    0.019347
  74 H :    0.036789
  75 H :    0.134164
  76 H :    0.006953
  77 H :    0.016307
  78 H :   -0.009270
  79 H :   -0.007644
  80 H :   -0.009765
  81 H :   -0.010465
  82 H :   -0.005957
  83 H :    0.008799
  84 H :    0.134562
  85 H :    0.006941
  86 H :    0.030275
  87 H :    0.035138
Sum of atomic charges:   -0.0000000

LOEWDIN ATOMIC CHARGES
----------------------
   0 C :   -0.053157
   1 C :   -0.147944
   2 C :   -0.022119
   3 C :   -0.033946
   4 C :   -0.168180
   5 S :    0.357993
   6 C :   -0.192366
   7 C :   -0.028669
   8 C :   -0.039624
   9 C :   -0.136478
  10 S :    0.392423
  11 C :   -0.097862
  12 C :   -0.162572
  13 S :    0.468815
  14 C :   -0.209404
  15 C :   -0.033872
  16 C :   -0.071761
  17 C :   -0.022705
  18 C :   -0.062392
  19 C :    0.163337
  20 F :   -0.042568
  21 F :   -0.061834
  22 F :   -0.063980
  23 C :   -0.020627
  24 C :   -0.034176
  25 C :    0.063678
  26 O :    0.012990
  27 C :   -0.117133
  28 C :    0.079932
  29 O :   -0.168112
  30 N :   -0.008503
  31 C :    0.082185
  32 O :   -0.167948
  33 C :   -0.095308
  34 C :    0.063078
  35 C :   -0.037900
  36 C :   -0.018605
  37 C :   -0.052538
  38 C :   -0.137381
  39 C :   -0.030734
  40 C :   -0.028889
  41 C :   -0.171533
  42 S :    0.378653
  43 C :   -0.183384
  44 C :   -0.024773
  45 C :   -0.034370
  46 C :   -0.130131
  47 S :    0.399125
  48 C :   -0.079500
  49 C :    0.065249
  50 O :    0.008018
  51 C :   -0.105907
  52 C :    0.083795
  53 O :   -0.168704
  54 N :   -0.007074
  55 C :    0.094697
  56 O :   -0.170486
  57 C :   -0.102434
  58 C :    0.077267
  59 C :   -0.048512
  60 C :   -0.003628
  61 H :    0.027907
  62 H :    0.027892
  63 H :    0.033673
  64 H :    0.031408
  65 H :    0.031258
  66 H :    0.032593
  67 H :    0.034484
  68 H :    0.040382
  69 H :    0.010553
  70 H :    0.044060
  71 H :    0.028892
  72 H :    0.029169
  73 H :    0.032344
  74 H :    0.032751
  75 H :    0.092168
  76 H :    0.044133
  77 H :    0.024135
  78 H :    0.035103
  79 H :    0.035650
  80 H :    0.033186
  81 H :    0.032852
  82 H :    0.035828
  83 H :    0.049939
  84 H :    0.092214
  85 H :    0.041365
  86 H :    0.024212
  87 H :    0.030336

  Mayer bond orders larger than 0.100000
B(  0-C ,  1-C ) :   1.8731 B(  0-C , 61-H ) :   0.9508 B(  0-C , 62-H ) :   0.9184
B(  1-C ,  2-C ) :   1.0731 B(  1-C ,  5-S ) :   0.9994 B(  2-C ,  3-C ) :   1.6686
B(  2-C , 63-H ) :   0.9933 B(  3-C ,  4-C ) :   1.1421 B(  3-C , 64-H ) :   0.9928
B(  4-C ,  5-S ) :   1.0540 B(  4-C ,  6-C ) :   1.5664 B(  6-C ,  7-C ) :   1.1610
B(  6-C , 10-S ) :   1.0288 B(  7-C ,  8-C ) :   1.6248 B(  7-C , 65-H ) :   0.9909
B(  8-C ,  9-C ) :   1.1201 B(  8-C , 66-H ) :   0.9967 B(  9-C , 10-S ) :   1.0370
B(  9-C , 11-C ) :   1.6644 B( 11-C , 12-C ) :   1.0866 B( 11-C , 67-H ) :   0.9446
B( 12-C , 13-S ) :   1.1129 B( 12-C , 14-C ) :   0.1200 B( 12-C , 16-C ) :   1.4997
B( 13-S , 14-C ) :   1.1321 B( 14-C , 15-C ) :   1.4772 B( 14-C , 25-C ) :   1.1458
B( 15-C , 16-C ) :   1.3062 B( 15-C , 24-C ) :   1.0609 B( 16-C , 17-C ) :   1.0436
B( 17-C , 18-C ) :   1.0466 B( 17-C , 68-H ) :   0.9089 B( 17-C , 69-H ) :   0.8898
B( 18-C , 19-C ) :   0.9811 B( 18-C , 23-C ) :   1.0411 B( 18-C , 70-H ) :   0.9017
B( 19-C , 20-F ) :   1.1032 B( 19-C , 21-F ) :   1.1326 B( 19-C , 22-F ) :   1.1190
B( 23-C , 24-C ) :   1.0762 B( 23-C , 71-H ) :   0.9419 B( 23-C , 72-H ) :   0.9310
B( 24-C , 73-H ) :   0.9078 B( 24-C , 74-H ) :   0.9014 B( 25-C , 26-O ) :   1.1595
B( 25-C , 27-C ) :   1.4177 B( 26-O , 34-C ) :   1.1136 B( 27-C , 28-C ) :   0.8853
B( 27-C , 33-C ) :   1.2611 B( 28-C , 29-O ) :   2.2534 B( 28-C , 30-N ) :   1.0787
B( 30-N , 31-C ) :   1.0773 B( 30-N , 75-H ) :   0.9152 B( 31-C , 32-O ) :   2.2680
B( 31-C , 33-C ) :   0.8837 B( 33-C , 34-C ) :   1.3769 B( 34-C , 35-C ) :   1.1973
B( 35-C , 36-C ) :   1.5738 B( 35-C , 76-H ) :   0.9724 B( 36-C , 37-C ) :   1.1637
B( 36-C , 77-H ) :   0.9737 B( 37-C , 38-C ) :   1.5405 B( 37-C , 78-H ) :   0.9856
B( 38-C , 39-C ) :   1.1546 B( 38-C , 42-S ) :   1.0369 B( 39-C , 40-C ) :   1.5779
B( 39-C , 79-H ) :   0.9991 B( 40-C , 41-C ) :   1.1955 B( 40-C , 80-H ) :   0.9938
B( 41-C , 42-S ) :   1.0552 B( 41-C , 43-C ) :   1.4957 B( 43-C , 44-C ) :   1.1930
B( 43-C , 47-S ) :   1.0325 B( 44-C , 45-C ) :   1.5840 B( 44-C , 81-H ) :   0.9944
B( 45-C , 46-C ) :   1.1413 B( 45-C , 82-H ) :   1.0027 B( 46-C , 47-S ) :   1.0598
B( 46-C , 48-C ) :   1.5305 B( 48-C , 49-C ) :   1.2169 B( 48-C , 83-H ) :   0.9638
B( 49-C , 50-O ) :   1.1257 B( 49-C , 51-C ) :   1.3815 B( 50-O , 58-C ) :   1.1410
B( 51-C , 52-C ) :   0.9006 B( 51-C , 57-C ) :   1.2647 B( 52-C , 53-O ) :   2.2597
B( 52-C , 54-N ) :   1.0599 B( 54-N , 55-C ) :   1.1003 B( 54-N , 84-H ) :   0.9148
B( 55-C , 56-O ) :   2.1656 B( 55-C , 57-C ) :   0.8872 B( 57-C , 58-C ) :   1.4328
B( 58-C , 59-C ) :   1.1549 B( 59-C , 60-C ) :   1.8865 B( 59-C , 85-H ) :   0.9507
B( 60-C , 86-H ) :   0.9564 B( 60-C , 87-H ) :   0.9415

-----------------------------------------------------------------------------
         ABSORPTION SPECTRUM VIA TRANSITION ELECTRIC DIPOLE MOMENTS
-----------------------------------------------------------------------------
State   Energy  Wavelength   fosc         T2         TX        TY        TZ
        (cm-1)    (nm)                  (au**2)     (au)      (au)      (au)
-----------------------------------------------------------------------------
   0   11501.3    869.5   0.428782436  12.27340  -1.12566  -0.39258  -3.29426
   1   15653.1    638.9   0.442050506   9.29712   0.19116   1.84221  -2.42215
   2   18759.0    533.1   1.687074318  29.60741  -0.06121  -3.50267   4.16353
   3   21051.1    475.0   0.093960836   1.46943   0.01783  -0.97326   0.72240
   4   22275.1    448.9   0.147231322   2.17599   0.91756   0.20080   1.13743
   5   23616.7    423.4   0.737382666  10.27898  -1.63907  -2.60029  -0.91155
   6   24992.0    400.1   0.044080863   0.58066  -0.13555   0.00211   0.74986
   7   25863.0    386.7   0.150974948   1.92177  -1.05088  -0.10773  -0.89767
   8   26644.3    375.3   0.132227787   1.63378  -0.11544  -0.92076  -0.87901
   9   27300.3    366.3   0.075940926   0.91577   0.43384   0.70799  -0.47571
  10   27348.4    365.7   0.145609458   1.75280   0.25859   0.70953   1.08743
  11   28622.6    349.4   0.050016097   0.57528   0.42186   0.15415  -0.61119
  12   30031.1    333.0   0.143331210   1.57125   1.10964   0.39173   0.43185
  13   30929.5    323.3   0.003479518   0.03704   0.01427  -0.16449  -0.09887
  14   31823.6    314.2   0.040680934   0.42084  -0.11807   0.31826   0.55282
  15   31883.6    313.6   0.006405530   0.06614   0.06144   0.23270   0.09064
  16   32546.1    307.3   0.047389832   0.47936   0.33551   0.35694   0.48927
  17   33290.5    300.4   0.020661603   0.20432  -0.21200  -0.29060  -0.27374
  18   34036.2    293.8   0.010010842   0.09683   0.00458   0.05694   0.30589
  19   34073.3    293.5   0.024733440   0.23897  -0.32261  -0.36646   0.02449
  20   34905.5    286.5   0.019739872   0.18618  -0.26870  -0.33760  -0.00248
  21   35064.7    285.2   0.044331806   0.41622   0.29085   0.56950  -0.08538
  22   35105.4    284.9   0.003936588   0.03692   0.02190   0.15290  -0.11427
  23   35489.9    281.8   0.047257604   0.43837   0.10445   0.64192  -0.12408
  24   35673.0    280.3   0.006082963   0.05614   0.10285   0.20354  -0.06427
  25   35769.2    279.6   0.004179122   0.03846  -0.14712  -0.09924   0.08350
  26   35941.9    278.2   0.021381208   0.19584   0.15055  -0.24387  -0.33721
  27   36253.0    275.8   0.008299919   0.07537  -0.02296  -0.19866  -0.18809
  28   36533.9    273.7   0.347423802   3.13068   0.23129   0.11227  -1.75059
  29   36536.0    273.7   0.030918558   0.27860   0.08677   0.34330   0.39143
  30   36967.8    270.5   0.007477050   0.06659  -0.16418  -0.02003  -0.19806
  31   38312.7    261.0   0.019259874   0.16550   0.10692   0.37588   0.11305
  32   39023.8    256.3   0.003023220   0.02550  -0.13512  -0.06537  -0.05452
  33   39390.3    253.9   0.026361194   0.22032   0.14341  -0.30730   0.32453
  34   39635.8    252.3   0.002144670   0.01781  -0.04395   0.10261  -0.07316
  35   39952.9    250.3   0.126830225   1.04508   0.01439  -0.50251   0.89015
  36   40303.2    248.1   0.017674606   0.14437  -0.10990  -0.17435  -0.31922

FINAL SINGLE POINT ENERGY     -4578.606841192576

DIPOLE MOMENT
-------------
                                X             Y             Z
Electronic contribution:     -3.30471      -0.09615       5.32599
Nuclear contribution   :      3.70321      -0.74083      -6.28719
                        -----------------------------------------
Total Dipole Moment    :      0.39850      -0.83698      -0.96121
                        -----------------------------------------
Magnitude (a.u.)       :      1.33538
Magnitude (Debye)      :      3.39428

Rotational constants in cm-1:     0.001210     0.000954     0.000562
Rotational constants in MHz :    36.267647    28.589702    16.837467

                             ****ORCA TERMINATED NORMALLY****
TOTAL RUN TIME: 0 days 0 hours 8 minutes 31 seconds 171 msec
