                         Program Version 4.2.0 -  RELEASE  -
|  1> # ORCA input file
|  2> # SCF done       -187.117439279187          0.000924395647
|  3> ! CAM-B3LYP def2-SVP def2/J RIJCOSX Grid4 TightSCF
|  4> %maxcore 5000
|  5> %tddft
|  6>     Mode sTDDFT
|  7>     Ethresh 5.0
|  8>     maxcore 5000
|  9> end
| 10>
| 11> %pal
| 12>   nprocs 6
| 13>   end
| 14> * xyz 0 1
| 15>    C       -3.14261       -13.16782         0.15418
| 16>    C       -1.94690       -12.59649         0.35824
| 17>    C       -0.97488       -12.92281         1.36068
| 18>    C        0.14375       -12.16354         1.31725
| 19>    C        0.14408       -11.18392         0.28617
| 20>    S       -1.33372       -11.26378        -0.63541
| 21>    C        1.13949       -10.26370         0.01269
| 22>    C        2.37127       -10.09895         0.68563
| 23>    C        3.14395        -9.08812         0.19466
| 24>    C        2.56732        -8.39248        -0.88894
| 25>    S        1.00123        -9.09215        -1.27344
| 26>    C        2.96756        -7.30009        -1.63529
| 27>    C        4.08895        -6.46254        -1.58921
| 28>    C        4.07072        -5.31903        -2.46338
| 29>    C        5.09638        -4.31465        -2.45964
| 30>    N        5.10580        -3.36092        -3.39869
| 31>    C        4.11412        -3.28338        -4.25112
| 32>    C        3.00901        -4.18412        -4.15408
| 33>    N        3.03651        -5.18213        -3.29757
| 34>    C        1.88407        -4.04214        -5.00227
| 35>    N        0.98691        -3.91213        -5.70289
| 36>    C        4.18097        -2.32984        -5.29889
| 37>    N        4.22213        -1.59558        -6.17638
| 38>    C        6.15560        -4.34604        -1.52006
| 39>    C        6.25785        -5.52823        -0.75857
| 40>    C        5.25775        -6.56970        -0.78192
| 41>    N        5.60081        -7.56984         0.02344
| 42>    S        7.00980        -7.24861         0.73399
| 43>    N        7.26680        -5.80715         0.06167
| 44>    C        7.06789        -3.28415        -1.33761
| 45>    S        8.54102        -3.51023        -0.42393
| 46>    C        9.04787        -1.83968        -0.57905
| 47>    C        8.07811        -1.13685        -1.30779
| 48>    C        6.98999        -1.95085        -1.71866
| 49>    O        6.05724        -1.21648        -2.34462
| 50>    C        6.53930         0.05081        -2.36045
| 51>    N        5.72117         1.05264        -2.94052
| 52>    O        6.19457         2.17055        -2.99923
| 53>    O        4.61487         0.72815        -3.31162
| 54>    C        7.76302         0.17091        -1.75157
| 55>    C       10.22757        -1.33437        -0.01375
| 56>    S       10.65445         0.33466        -0.24151
| 57>    C       12.11509         0.14855         0.68317
| 58>    C       12.25860        -1.18537         1.12459
| 59>    C       11.20166        -2.01929         0.72507
| 60>    C       11.07859        -3.46168         0.97064
| 61>    C       11.89380        -4.36290         0.44556
| 62>    O       13.33081        -1.47660         1.87663
| 63>    C       13.39100        -2.64543         2.66370
| 64>    C       12.92799         1.26841         0.92117
| 65>    C       14.08332         1.28335         1.65568
| 66>    C       14.79394         2.47357         1.87477
| 67>    C       15.92652         2.57424         2.64636
| 68>    C       16.69548         3.77282         2.90100
| 69>    C       16.42377         5.04459         2.45927
| 70>    C       17.21630         6.17196         2.75674
| 71>    N       17.81674         7.12907         2.96264
| 72>    C       15.32383         5.42335         1.66298
| 73>    N       14.45961         5.81990         1.01846
| 74>    C       17.83257         3.40284         3.74016
| 75>    C       17.76067         2.01648         4.01678
| 76>    C       16.56524         1.44701         3.36094
| 77>    O       16.20308         0.28880         3.42424
| 78>    C       18.69211         1.36396         4.78624
| 79>    C       19.74938         2.11572         5.30942
| 80>    C       19.81378         3.50042         5.02814
| 81>    C       18.87052         4.16032         4.24975
| 82>    S       21.19967         4.23984         5.77223
| 83>    C       21.66604         2.69920         6.44171
| 84>    C       20.82988         1.68224         6.12576
| 85>   Br       23.21340         2.57760         7.49535
| 86>    H       -3.47965       -13.97561         0.77965
| 87>    H       -3.79722       -12.84270        -0.63364
| 88>    H       -1.15821       -13.71026         2.06958
| 89>    H        0.97366       -12.26851         1.99278
| 90>    H        2.65801       -10.72470         1.51156
| 91>    H        4.11341        -8.81939         0.57002
| 92>    H        2.25531        -6.98849        -2.39167
| 93>    H        8.32599         1.07463        -1.64457
| 94>    H       10.24222        -3.76794         1.58758
| 95>    H       12.70898        -4.08155        -0.20127
| 96>    H       11.76475        -5.41468         0.63123
| 97>    H       12.44156        -2.84305         3.16594
| 98>    H       14.16674        -2.44389         3.40258
| 99>    H       13.67184        -3.51708         2.06730
|100>    H       12.57502         2.19987         0.49280
|101>    H       14.45864         0.37376         2.09358
|102>    H       14.41038         3.36702         1.39873
|103>    H       18.60852         0.30575         4.97843
|104>    H       18.96648         5.21694         4.06518
|105>    H       20.96743         0.66813         6.45369
|106> *
|107>
|108>                          ****END OF INPUT****

CARTESIAN COORDINATES (ANGSTROEM)
---------------------------------
  C     -3.142610  -13.167820    0.154180
  C     -1.946900  -12.596490    0.358240
  C     -0.974880  -12.922810    1.360680
  C      0.143750  -12.163540    1.317250
  C      0.144080  -11.183920    0.286170
  S     -1.333720  -11.263780   -0.635410
  C      1.139490  -10.263700    0.012690
  C      2.371270  -10.098950    0.685630
  C      3.143950   -9.088120    0.194660
  C      2.567320   -8.392480   -0.888940
  S      1.001230   -9.092150   -1.273440
  C      2.967560   -7.300090   -1.635290
  C      4.088950   -6.462540   -1.589210
  C      4.070720   -5.319030   -2.463380
  C      5.096380   -4.314650   -2.459640
  N      5.105800   -3.360920   -3.398690
  C      4.114120   -3.283380   -4.251120
  C      3.009010   -4.184120   -4.154080
  N      3.036510   -5.182130   -3.297570
  C      1.884070   -4.042140   -5.002270
  N      0.986910   -3.912130   -5.702890
  C      4.180970   -2.329840   -5.298890
  N      4.222130   -1.595580   -6.176380
  C      6.155600   -4.346040   -1.520060
  C      6.257850   -5.528230   -0.758570
  C      5.257750   -6.569700   -0.781920
  N      5.600810   -7.569840    0.023440
  S      7.009800   -7.248610    0.733990
  N      7.266800   -5.807150    0.061670
  C      7.067890   -3.284150   -1.337610
  S      8.541020   -3.510230   -0.423930
  C      9.047870   -1.839680   -0.579050
  C      8.078110   -1.136850   -1.307790
  C      6.989990   -1.950850   -1.718660
  O      6.057240   -1.216480   -2.344620
  C      6.539300    0.050810   -2.360450
  N      5.721170    1.052640   -2.940520
  O      6.194570    2.170550   -2.999230
  O      4.614870    0.728150   -3.311620
  C      7.763020    0.170910   -1.751570
  C     10.227570   -1.334370   -0.013750
  S     10.654450    0.334660   -0.241510
  C     12.115090    0.148550    0.683170
  C     12.258600   -1.185370    1.124590
  C     11.201660   -2.019290    0.725070
  C     11.078590   -3.461680    0.970640
  C     11.893800   -4.362900    0.445560
  O     13.330810   -1.476600    1.876630
  C     13.391000   -2.645430    2.663700
  C     12.927990    1.268410    0.921170
  C     14.083320    1.283350    1.655680
  C     14.793940    2.473570    1.874770
  C     15.926520    2.574240    2.646360
  C     16.695480    3.772820    2.901000
  C     16.423770    5.044590    2.459270
  C     17.216300    6.171960    2.756740
  N     17.816740    7.129070    2.962640
  C     15.323830    5.423350    1.662980
  N     14.459610    5.819900    1.018460
  C     17.832570    3.402840    3.740160
  C     17.760670    2.016480    4.016780
  C     16.565240    1.447010    3.360940
  O     16.203080    0.288800    3.424240
  C     18.692110    1.363960    4.786240
  C     19.749380    2.115720    5.309420
  C     19.813780    3.500420    5.028140
  C     18.870520    4.160320    4.249750
  S     21.199670    4.239840    5.772230
  C     21.666040    2.699200    6.441710
  C     20.829880    1.682240    6.125760
  Br    23.213400    2.577600    7.495350
  H     -3.479650  -13.975610    0.779650
  H     -3.797220  -12.842700   -0.633640
  H     -1.158210  -13.710260    2.069580
  H      0.973660  -12.268510    1.992780
  H      2.658010  -10.724700    1.511560
  H      4.113410   -8.819390    0.570020
  H      2.255310   -6.988490   -2.391670
  H      8.325990    1.074630   -1.644570
  H     10.242220   -3.767940    1.587580
  H     12.708980   -4.081550   -0.201270
  H     11.764750   -5.414680    0.631230
  H     12.441560   -2.843050    3.165940
  H     14.166740   -2.443890    3.402580
  H     13.671840   -3.517080    2.067300
  H     12.575020    2.199870    0.492800
  H     14.458640    0.373760    2.093580
  H     14.410380    3.367020    1.398730
  H     18.608520    0.305750    4.978430
  H     18.966480    5.216940    4.065180
  H     20.967430    0.668130    6.453690

 Total Charge           Charge          ....    0
 Multiplicity           Mult            ....    1
 Number of Electrons    NEL             ....  554
 Basis Dimension        Dim             .... 1136

ORBITAL ENERGIES
----------------

  NO   OCC          E(Eh)            E(eV)
   0   2.0000    -482.880628    -13139.8499
   1   2.0000     -89.048133     -2423.1229
   2   2.0000     -88.979242     -2421.2483
   3   2.0000     -88.973089     -2421.0809
   4   2.0000     -88.968788     -2420.9638
   5   2.0000     -88.967040     -2420.9162
   6   2.0000     -88.965297     -2420.8688
   7   2.0000     -62.558341     -1702.2990
   8   2.0000     -56.392283     -1534.5120
   9   2.0000     -56.389584     -1534.4386
  10   2.0000     -56.389546     -1534.4375
  11   2.0000     -19.311668      -525.4972
  12   2.0000     -19.267783      -524.3030
  13   2.0000     -19.242387      -523.6120
  14   2.0000     -19.240096      -523.5496
  15   2.0000     -19.205474      -522.6075
  16   2.0000     -14.653857      -398.7517
  17   2.0000     -14.464223      -393.5915
  18   2.0000     -14.457913      -393.4198
  19   2.0000     -14.456826      -393.3902
  20   2.0000     -14.450091      -393.2070
  21   2.0000     -14.420164      -392.3926
  22   2.0000     -14.419091      -392.3634
  23   2.0000     -14.404559      -391.9680
  24   2.0000     -14.403060      -391.9272
  25   2.0000     -10.387503      -282.6583
  26   2.0000     -10.373629      -282.2808
  27   2.0000     -10.371283      -282.2170
  28   2.0000     -10.361447      -281.9493
  29   2.0000     -10.355924      -281.7990
  30   2.0000     -10.355310      -281.7823
  31   2.0000     -10.352581      -281.7081
  32   2.0000     -10.351058      -281.6666
  33   2.0000     -10.346707      -281.5482
  34   2.0000     -10.346243      -281.5356
  35   2.0000     -10.345510      -281.5156
  36   2.0000     -10.342918      -281.4451
  37   2.0000     -10.334781      -281.2237
  38   2.0000     -10.333664      -281.1933
  39   2.0000     -10.332100      -281.1507
  40   2.0000     -10.331394      -281.1315
  41   2.0000     -10.329537      -281.0810
  42   2.0000     -10.329492      -281.0798
  43   2.0000     -10.329008      -281.0666
  44   2.0000     -10.327856      -281.0352
  45   2.0000     -10.327513      -281.0259
  46   2.0000     -10.323514      -280.9171
  47   2.0000     -10.317488      -280.7531
  48   2.0000     -10.314410      -280.6694
  49   2.0000     -10.313905      -280.6556
  50   2.0000     -10.313314      -280.6396
  51   2.0000     -10.312976      -280.6303
  52   2.0000     -10.312395      -280.6145
  53   2.0000     -10.312123      -280.6071
  54   2.0000     -10.310380      -280.5597
  55   2.0000     -10.308757      -280.5155
  56   2.0000     -10.308067      -280.4968
  57   2.0000     -10.306876      -280.4644
  58   2.0000     -10.304071      -280.3880
  59   2.0000     -10.303711      -280.3782
  60   2.0000     -10.303543      -280.3737
  61   2.0000     -10.300613      -280.2939
  62   2.0000     -10.300219      -280.2832
  63   2.0000     -10.299742      -280.2702
  64   2.0000     -10.298400      -280.2337
  65   2.0000     -10.298158      -280.2271
  66   2.0000     -10.296332      -280.1774
  67   2.0000     -10.295243      -280.1478
  68   2.0000     -10.292591      -280.0756
  69   2.0000     -10.290718      -280.0247
  70   2.0000     -10.290182      -280.0101
  71   2.0000     -10.287994      -279.9505
  72   2.0000     -10.282387      -279.7980
  73   2.0000     -10.281066      -279.7620
  74   2.0000     -10.267251      -279.3861
  75   2.0000      -8.787766      -239.1273
  76   2.0000      -8.139479      -221.4865
  77   2.0000      -8.072024      -219.6509
  78   2.0000      -8.068473      -219.5543
  79   2.0000      -8.064736      -219.4526
  80   2.0000      -8.063787      -219.4268
  81   2.0000      -8.061638      -219.3683
  82   2.0000      -6.624031      -180.2490
  83   2.0000      -6.609500      -179.8536
  84   2.0000      -6.609343      -179.8494
  85   2.0000      -6.110738      -166.2816
  86   2.0000      -6.103025      -166.0718
  87   2.0000      -6.101811      -166.0387
  88   2.0000      -6.041634      -164.4012
  89   2.0000      -6.037868      -164.2987
  90   2.0000      -6.037055      -164.2766
  91   2.0000      -6.034433      -164.2053
  92   2.0000      -6.034026      -164.1942
  93   2.0000      -6.033904      -164.1909
  94   2.0000      -6.033500      -164.1799
  95   2.0000      -6.031221      -164.1179
  96   2.0000      -6.030179      -164.0895
  97   2.0000      -6.030161      -164.0890
  98   2.0000      -6.029547      -164.0723
  99   2.0000      -6.027190      -164.0082
 100   2.0000      -6.025963      -163.9748
 101   2.0000      -6.024509      -163.9352
 102   2.0000      -6.022821      -163.8893
 103   2.0000      -2.739915       -74.5569
 104   2.0000      -2.735839       -74.4460
 105   2.0000      -2.735685       -74.4418
 106   2.0000      -2.724161       -74.1282
 107   2.0000      -2.724143       -74.1277
 108   2.0000      -1.325696       -36.0740
 109   2.0000      -1.235270       -33.6134
 110   2.0000      -1.173628       -31.9360
 111   2.0000      -1.147557       -31.2266
 112   2.0000      -1.142536       -31.0900
 113   2.0000      -1.119135       -30.4532
 114   2.0000      -1.115027       -30.3414
 115   2.0000      -1.040514       -28.3138
 116   2.0000      -1.017348       -27.6834
 117   2.0000      -1.016810       -27.6688
 118   2.0000      -1.013836       -27.5879
 119   2.0000      -1.005475       -27.3604
 120   2.0000      -1.004898       -27.3447
 121   2.0000      -1.003335       -27.3021
 122   2.0000      -0.993952       -27.0468
 123   2.0000      -0.993512       -27.0348
 124   2.0000      -0.989072       -26.9140
 125   2.0000      -0.982960       -26.7477
 126   2.0000      -0.978888       -26.6369
 127   2.0000      -0.972736       -26.4695
 128   2.0000      -0.936638       -25.4872
 129   2.0000      -0.935120       -25.4459
 130   2.0000      -0.922713       -25.1083
 131   2.0000      -0.914863       -24.8947
 132   2.0000      -0.906935       -24.6789
 133   2.0000      -0.901738       -24.5375
 134   2.0000      -0.899334       -24.4721
 135   2.0000      -0.897844       -24.4316
 136   2.0000      -0.887398       -24.1473
 137   2.0000      -0.882238       -24.0069
 138   2.0000      -0.877504       -23.8781
 139   2.0000      -0.869642       -23.6642
 140   2.0000      -0.867813       -23.6144
 141   2.0000      -0.859589       -23.3906
 142   2.0000      -0.846132       -23.0244
 143   2.0000      -0.841853       -22.9080
 144   2.0000      -0.835167       -22.7260
 145   2.0000      -0.828421       -22.5425
 146   2.0000      -0.821050       -22.3419
 147   2.0000      -0.807143       -21.9635
 148   2.0000      -0.804364       -21.8878
 149   2.0000      -0.798897       -21.7391
 150   2.0000      -0.792132       -21.5550
 151   2.0000      -0.774465       -21.0743
 152   2.0000      -0.763318       -20.7709
 153   2.0000      -0.750332       -20.4176
 154   2.0000      -0.746885       -20.3238
 155   2.0000      -0.735889       -20.0246
 156   2.0000      -0.721790       -19.6409
 157   2.0000      -0.719417       -19.5763
 158   2.0000      -0.709919       -19.3179
 159   2.0000      -0.707166       -19.2430
 160   2.0000      -0.700504       -19.0617
 161   2.0000      -0.693386       -18.8680
 162   2.0000      -0.683757       -18.6060
 163   2.0000      -0.681115       -18.5341
 164   2.0000      -0.680748       -18.5241
 165   2.0000      -0.674869       -18.3641
 166   2.0000      -0.660856       -17.9828
 167   2.0000      -0.657950       -17.9037
 168   2.0000      -0.654983       -17.8230
 169   2.0000      -0.649845       -17.6832
 170   2.0000      -0.647725       -17.6255
 171   2.0000      -0.643791       -17.5184
 172   2.0000      -0.642343       -17.4790
 173   2.0000      -0.641269       -17.4498
 174   2.0000      -0.639035       -17.3890
 175   2.0000      -0.627008       -17.0618
 176   2.0000      -0.622045       -16.9267
 177   2.0000      -0.618612       -16.8333
 178   2.0000      -0.615477       -16.7480
 179   2.0000      -0.611165       -16.6306
 180   2.0000      -0.604846       -16.4587
 181   2.0000      -0.596861       -16.2414
 182   2.0000      -0.589993       -16.0545
 183   2.0000      -0.587899       -15.9975
 184   2.0000      -0.586031       -15.9467
 185   2.0000      -0.582105       -15.8399
 186   2.0000      -0.579829       -15.7780
 187   2.0000      -0.575455       -15.6589
 188   2.0000      -0.573344       -15.6015
 189   2.0000      -0.568686       -15.4747
 190   2.0000      -0.566588       -15.4176
 191   2.0000      -0.558473       -15.1968
 192   2.0000      -0.556346       -15.1389
 193   2.0000      -0.554002       -15.0752
 194   2.0000      -0.552227       -15.0269
 195   2.0000      -0.543499       -14.7894
 196   2.0000      -0.540983       -14.7209
 197   2.0000      -0.537057       -14.6141
 198   2.0000      -0.534389       -14.5415
 199   2.0000      -0.532052       -14.4779
 200   2.0000      -0.529951       -14.4207
 201   2.0000      -0.529550       -14.4098
 202   2.0000      -0.521903       -14.2017
 203   2.0000      -0.520489       -14.1632
 204   2.0000      -0.518638       -14.1128
 205   2.0000      -0.518073       -14.0975
 206   2.0000      -0.512748       -13.9526
 207   2.0000      -0.509878       -13.8745
 208   2.0000      -0.503912       -13.7122
 209   2.0000      -0.500731       -13.6256
 210   2.0000      -0.500414       -13.6170
 211   2.0000      -0.497834       -13.5468
 212   2.0000      -0.495325       -13.4785
 213   2.0000      -0.488804       -13.3010
 214   2.0000      -0.486787       -13.2461
 215   2.0000      -0.485558       -13.2127
 216   2.0000      -0.484799       -13.1920
 217   2.0000      -0.482940       -13.1415
 218   2.0000      -0.479371       -13.0444
 219   2.0000      -0.476497       -12.9661
 220   2.0000      -0.473242       -12.8776
 221   2.0000      -0.471289       -12.8244
 222   2.0000      -0.467102       -12.7105
 223   2.0000      -0.465698       -12.6723
 224   2.0000      -0.462556       -12.5868
 225   2.0000      -0.456850       -12.4315
 226   2.0000      -0.451871       -12.2960
 227   2.0000      -0.449967       -12.2442
 228   2.0000      -0.449132       -12.2215
 229   2.0000      -0.446832       -12.1589
 230   2.0000      -0.446267       -12.1436
 231   2.0000      -0.445489       -12.1224
 232   2.0000      -0.443697       -12.0736
 233   2.0000      -0.440059       -11.9746
 234   2.0000      -0.438523       -11.9328
 235   2.0000      -0.435272       -11.8444
 236   2.0000      -0.433380       -11.7929
 237   2.0000      -0.433177       -11.7874
 238   2.0000      -0.431363       -11.7380
 239   2.0000      -0.427408       -11.6304
 240   2.0000      -0.427183       -11.6242
 241   2.0000      -0.423771       -11.5314
 242   2.0000      -0.423083       -11.5127
 243   2.0000      -0.420600       -11.4451
 244   2.0000      -0.416009       -11.3202
 245   2.0000      -0.414168       -11.2701
 246   2.0000      -0.413332       -11.2473
 247   2.0000      -0.411390       -11.1945
 248   2.0000      -0.410237       -11.1631
 249   2.0000      -0.404093       -10.9959
 250   2.0000      -0.399927       -10.8826
 251   2.0000      -0.398376       -10.8404
 252   2.0000      -0.396101       -10.7785
 253   2.0000      -0.391288       -10.6475
 254   2.0000      -0.387890       -10.5550
 255   2.0000      -0.381748       -10.3879
 256   2.0000      -0.379640       -10.3305
 257   2.0000      -0.377445       -10.2708
 258   2.0000      -0.370146       -10.0722
 259   2.0000      -0.370061       -10.0699
 260   2.0000      -0.367939       -10.0121
 261   2.0000      -0.361324        -9.8321
 262   2.0000      -0.358690        -9.7604
 263   2.0000      -0.353767        -9.6265
 264   2.0000      -0.352628        -9.5955
 265   2.0000      -0.348512        -9.4835
 266   2.0000      -0.344378        -9.3710
 267   2.0000      -0.338274        -9.2049
 268   2.0000      -0.326180        -8.8758
 269   2.0000      -0.324347        -8.8259
 270   2.0000      -0.314641        -8.5618
 271   2.0000      -0.313790        -8.5387
 272   2.0000      -0.307666        -8.3720
 273   2.0000      -0.290377        -7.9016
 274   2.0000      -0.284477        -7.7410
 275   2.0000      -0.254200        -6.9171
 276   2.0000      -0.218765        -5.9529
 277   0.0000      -0.134392        -3.6570
 278   0.0000      -0.093170        -2.5353
 279   0.0000      -0.072162        -1.9636
 280   0.0000      -0.065689        -1.7875
 281   0.0000      -0.048655        -1.3240

MULLIKEN ATOMIC CHARGES
-----------------------
   0 C :   -0.009033
   1 C :   -0.074330
   2 C :    0.064742
   3 C :    0.029592
   4 C :   -0.050534
   5 S :    0.116285
   6 C :   -0.048983
   7 C :    0.019312
   8 C :    0.044520
   9 C :   -0.052787
  10 S :    0.119734
  11 C :   -0.045544
  12 C :    0.099345
  13 C :   -0.045990
  14 C :   -0.109964
  15 N :    0.049859
  16 C :   -0.116141
  17 C :   -0.144673
  18 N :    0.044689
  19 C :   -0.204416
  20 N :    0.225138
  21 C :   -0.206760
  22 N :    0.239786
  23 C :    0.188205
  24 C :   -0.019451
  25 C :    0.048147
  26 N :   -0.297952
  27 S :    0.527183
  28 N :   -0.324893
  29 C :   -0.278375
  30 S :    0.162267
  31 C :   -0.091496
  32 C :    0.075364
  33 C :    0.220994
  34 O :   -0.157716
  35 C :    0.250993
  36 N :    0.272728
  37 O :   -0.244403
  38 O :   -0.222726
  39 C :   -0.106890
  40 C :   -0.064767
  41 S :    0.139234
  42 C :   -0.119404
  43 C :    0.200476
  44 C :   -0.042636
  45 C :   -0.098580
  46 C :    0.018850
  47 O :   -0.293291
  48 C :    0.199718
  49 C :    0.065651
  50 C :   -0.029400
  51 C :   -0.026242
  52 C :   -0.081846
  53 C :    0.335879
  54 C :   -0.361797
  55 C :   -0.183771
  56 N :    0.139567
  57 C :   -0.190360
  58 N :    0.137819
  59 C :    0.011325
  60 C :   -0.009012
  61 C :    0.140810
  62 O :   -0.164133
  63 C :   -0.076730
  64 C :    0.117666
  65 C :   -0.093475
  66 C :   -0.022079
  67 S :    0.182803
  68 C :   -0.123180
  69 C :    0.037947
  70 Br:    0.017097
  71 H :    0.033664
  72 H :    0.036584
  73 H :    0.001080
  74 H :   -0.001871
  75 H :   -0.012313
  76 H :   -0.012592
  77 H :    0.008058
  78 H :    0.020267
  79 H :    0.036980
  80 H :    0.037462
  81 H :    0.031426
  82 H :    0.025655
  83 H :    0.052901
  84 H :    0.022800
  85 H :   -0.000150
  86 H :    0.038334
  87 H :    0.003466
  88 H :   -0.016944
  89 H :   -0.007797
  90 H :   -0.006976
Sum of atomic charges:   -0.0000000

LOEWDIN ATOMIC CHARGES
----------------------
   0 C :   -0.041916
   1 C :   -0.143127
   2 C :   -0.012067
   3 C :   -0.027742
   4 C :   -0.152159
   5 S :    0.383738
   6 C :   -0.191833
   7 C :   -0.015875
   8 C :   -0.041091
   9 C :   -0.114608
  10 S :    0.407462
  11 C :   -0.053128
  12 C :   -0.021666
  13 C :   -0.007508
  14 C :   -0.003103
  15 N :    0.000666
  16 C :   -0.018208
  17 C :   -0.036880
  18 N :    0.000546
  19 C :   -0.037503
  20 N :   -0.012729
  21 C :   -0.033880
  22 N :   -0.002781
  23 C :   -0.075320
  24 C :   -0.041472
  25 C :   -0.038493
  26 N :   -0.261066
  27 S :    0.645488
  28 N :   -0.308749
  29 C :   -0.183674
  30 S :    0.524281
  31 C :   -0.191303
  32 C :   -0.078627
  33 C :    0.028503
  34 O :    0.027517
  35 C :    0.030208
  36 N :    0.271673
  37 O :   -0.205137
  38 O :   -0.186963
  39 C :   -0.022317
  40 C :   -0.155773
  41 S :    0.458451
  42 C :   -0.209895
  43 C :    0.050939
  44 C :   -0.098044
  45 C :   -0.045884
  46 C :   -0.020971
  47 O :   -0.067885
  48 C :    0.087118
  49 C :    0.014139
  50 C :   -0.043131
  51 C :    0.067140
  52 C :   -0.108808
  53 C :    0.075572
  54 C :   -0.149865
  55 C :   -0.018160
  56 N :   -0.063086
  57 C :   -0.020212
  58 N :   -0.060699
  59 C :   -0.019095
  60 C :   -0.049310
  61 C :    0.083875
  62 O :   -0.157416
  63 C :    0.017027
  64 C :   -0.034960
  65 C :   -0.145183
  66 C :   -0.011790
  67 S :    0.429653
  68 C :   -0.273696
  69 C :   -0.071515
  70 Br:    0.131838
  71 H :    0.034917
  72 H :    0.032976
  73 H :    0.038663
  74 H :    0.035987
  75 H :    0.032713
  76 H :    0.023290
  77 H :    0.035677
  78 H :    0.040157
  79 H :    0.026794
  80 H :    0.029089
  81 H :    0.027789
  82 H :    0.018786
  83 H :    0.034187
  84 H :    0.017842
  85 H :    0.035511
  86 H :    0.030635
  87 H :    0.039458
  88 H :    0.038111
  89 H :    0.040596
  90 H :    0.037293

  Mayer bond orders larger than 0.100000
B(  0-C ,  1-C ) :   1.8535 B(  0-C , 71-H ) :   0.9523 B(  0-C , 72-H ) :   0.9423
B(  1-C ,  2-C ) :   1.0827 B(  1-C ,  5-S ) :   1.0052 B(  2-C ,  3-C ) :   1.6478
B(  2-C , 73-H ) :   0.9938 B(  3-C ,  4-C ) :   1.1655 B(  3-C , 74-H ) :   0.9925
B(  4-C ,  5-S ) :   1.0828 B(  4-C ,  6-C ) :   1.4783 B(  6-C ,  7-C ) :   1.2079
B(  6-C , 10-S ) :   1.0530 B(  7-C ,  8-C ) :   1.5432 B(  7-C , 75-H ) :   0.9945
B(  8-C ,  9-C ) :   1.2103 B(  8-C , 76-H ) :   0.9664 B(  9-C , 10-S ) :   1.0923
B(  9-C , 11-C ) :   1.3944 B( 11-C , 12-C ) :   1.3841 B( 11-C , 77-H ) :   0.9126
B( 12-C , 13-C ) :   1.1802 B( 12-C , 23-C ) :   0.1050 B( 12-C , 25-C ) :   1.1268
B( 13-C , 14-C ) :   1.1123 B( 13-C , 18-N ) :   1.4803 B( 14-C , 15-N ) :   1.4837
B( 14-C , 23-C ) :   1.2204 B( 15-N , 16-C ) :   1.7014 B( 16-C , 17-C ) :   1.2210
B( 16-C , 21-C ) :   1.1523 B( 17-C , 18-N ) :   1.7028 B( 17-C , 19-C ) :   1.1505
B( 19-C , 20-N ) :   3.0486 B( 21-C , 22-N ) :   3.0485 B( 23-C , 24-C ) :   1.1982
B( 23-C , 29-C ) :   1.1710 B( 24-C , 25-C ) :   1.1132 B( 24-C , 28-N ) :   1.5056
B( 25-C , 26-N ) :   1.5098 B( 26-N , 27-S ) :   1.2595 B( 26-N , 28-N ) :   0.1409
B( 27-S , 28-N ) :   1.2371 B( 29-C , 30-S ) :   1.1293 B( 29-C , 31-C ) :   0.1133
B( 29-C , 33-C ) :   1.3925 B( 30-S , 31-C ) :   1.0936 B( 31-C , 32-C ) :   1.3230
B( 31-C , 40-C ) :   1.2446 B( 32-C , 33-C ) :   1.2581 B( 32-C , 39-C ) :   1.0940
B( 33-C , 34-O ) :   1.1443 B( 34-O , 35-C ) :   1.1319 B( 35-C , 36-N ) :   0.9121
B( 35-C , 39-C ) :   1.5561 B( 36-N , 37-O ) :   1.5311 B( 36-N , 38-O ) :   1.5178
B( 37-O , 38-O ) :   0.2819 B( 39-C , 78-H ) :   1.0162 B( 40-C , 41-S ) :   1.1435
B( 40-C , 42-C ) :   0.1021 B( 40-C , 44-C ) :   1.4145 B( 41-S , 42-C ) :   1.0869
B( 42-C , 43-C ) :   1.3529 B( 42-C , 49-C ) :   1.1894 B( 43-C , 44-C ) :   1.2877
B( 43-C , 47-O ) :   1.2179 B( 44-C , 45-C ) :   1.0077 B( 45-C , 46-C ) :   2.0014
B( 45-C , 79-H ) :   0.9293 B( 46-C , 80-H ) :   0.9540 B( 46-C , 81-H ) :   0.9553
B( 47-O , 48-C ) :   0.9273 B( 48-C , 82-H ) :   0.9633 B( 48-C , 83-H ) :   0.9740
B( 48-C , 84-H ) :   0.9708 B( 49-C , 50-C ) :   1.5059 B( 49-C , 85-H ) :   0.9625
B( 50-C , 51-C ) :   1.2034 B( 50-C , 86-H ) :   0.9747 B( 51-C , 52-C ) :   1.4703
B( 51-C , 87-H ) :   0.9628 B( 52-C , 53-C ) :   1.0881 B( 52-C , 61-C ) :   0.9611
B( 53-C , 54-C ) :   1.6039 B( 53-C , 59-C ) :   0.9950 B( 54-C , 55-C ) :   1.1445
B( 54-C , 57-C ) :   1.1506 B( 55-C , 56-N ) :   2.9628 B( 57-C , 58-N ) :   2.9580
B( 59-C , 60-C ) :   1.2778 B( 59-C , 66-C ) :   1.4141 B( 60-C , 61-C ) :   0.9413
B( 60-C , 63-C ) :   1.4265 B( 61-C , 62-O ) :   2.1827 B( 63-C , 64-C ) :   1.2423
B( 63-C , 88-H ) :   1.0157 B( 64-C , 65-C ) :   1.3116 B( 64-C , 69-C ) :   1.1617
B( 65-C , 66-C ) :   1.3268 B( 65-C , 67-S ) :   1.0837 B( 66-C , 89-H ) :   0.9784
B( 67-S , 68-C ) :   1.0864 B( 68-C , 69-C ) :   1.6198 B( 68-C , 70-Br) :   1.0147
B( 69-C , 90-H ) :   0.9997

-----------------------------------------------------------------------------
         ABSORPTION SPECTRUM VIA TRANSITION ELECTRIC DIPOLE MOMENTS
-----------------------------------------------------------------------------
State   Energy  Wavelength   fosc         T2         TX        TY        TZ
        (cm-1)    (nm)                  (au**2)     (au)      (au)      (au)
-----------------------------------------------------------------------------
   0    5439.9   1838.3   0.685337652  41.47509   4.69343   4.40819   0.12114
   1   14010.9    713.7   0.050395046   1.18413   0.61629   0.67395  -0.59170
   2   14473.5    690.9   1.206370136  27.43991   4.11291   2.33275   2.25437
   3   18707.3    534.5   0.425365573   7.48559   1.28752   2.02003  -1.32187
   4   20618.1    485.0   0.135838887   2.16896   0.84219   1.15467   0.35553
   5   20855.6    479.5   0.376958833   5.95040  -1.81281  -1.63207   0.02137
   6   22336.8    447.7   0.007281794   0.10732  -0.20530  -0.14329  -0.21128
   7   22905.1    436.6   0.034890057   0.50147  -0.14860  -0.57884   0.37991
   8   23306.2    429.1   0.093153190   1.31584  -0.98761  -0.24383  -0.53011
   9   24452.0    409.0   0.049179030   0.66213   0.78768  -0.08430   0.18595
  10   24600.7    406.5   0.003327610   0.04453  -0.06979   0.09424   0.17544
  11   25437.8    393.1   0.128368900   1.66133   1.07242  -0.05177   0.71314
  12   26421.2    378.5   0.007043407   0.08776   0.09854   0.27590  -0.04394
  13   26842.4    372.5   0.058527136   0.71781  -0.77938  -0.22125  -0.24783
  14   27532.4    363.2   0.063594488   0.76042   0.51750  -0.52220   0.46896
  15   27657.4    361.6   0.007484071   0.08908  -0.18947   0.16492  -0.16120
  16   28343.4    352.8   0.031462113   0.36544   0.33202   0.49482   0.10177
  17   28518.8    350.6   0.088763217   1.02465  -0.35945   0.92287  -0.20920
  18   28604.8    349.6   0.045913183   0.52841  -0.53248  -0.27318  -0.41261
  19   29061.9    344.1   0.009096244   0.10304   0.11677   0.06610   0.29161
  20   29281.8    341.5   0.008409802   0.09455   0.23621   0.13667   0.14169
  21   29436.4    339.7   0.110801065   1.23918   0.88221  -0.35321   0.57976
  22   30251.3    330.6   0.130645144   1.42175   0.81031  -0.30869   0.81845
  23   31130.2    321.2   0.072288458   0.76447  -0.44301   0.51321  -0.55211
  24   31236.9    320.1   0.243535846   2.56667  -0.87390   0.56369  -1.21870
  25   31445.1    318.0   0.086228274   0.90276  -0.34346   0.57089  -0.67741
  26   31950.9    313.0   0.009926853   0.10228   0.25139  -0.09295   0.17449
  27   32084.6    311.7   0.045527875   0.46715  -0.50741   0.12892  -0.43939
  28   32231.6    310.3   0.245242481   2.50490   1.27177  -0.37115   0.86588
  29   32612.3    306.6   0.032945004   0.33257   0.22266  -0.43382   0.30788
  30   32981.2    303.2   0.184936320   1.84600  -0.90485   0.53946  -0.85803
  31   33199.1    301.2   0.012947715   0.12839   0.25047   0.25412  -0.03286
  32   33218.5    301.0   0.023756289   0.23544  -0.08403  -0.11010  -0.46503
  33   33462.3    298.8   0.008962752   0.08818   0.01601   0.27851  -0.10177
  34   34066.8    293.5   0.028832501   0.27863  -0.22946  -0.47378   0.03889
  35   34167.2    292.7   0.270988809   2.61107  -0.58431   1.37923  -0.60611
  36   34362.7    291.0   0.024284095   0.23265  -0.42306   0.22461  -0.05674
  37   34571.9    289.3   0.238549710   2.27160   0.65228  -0.96705   0.95443
  38   34595.5    289.1   0.139576863   1.32822  -0.53178   0.75958  -0.68444
  39   34679.0    288.4   0.010663317   0.10123   0.16679  -0.20359   0.17878
  40   35655.6    280.5   0.035356041   0.32645  -0.24071  -0.48495   0.18257
  41   36440.1    274.4   0.024788833   0.22395  -0.42083  -0.20540  -0.06832
  42   36750.6    272.1   0.129685778   1.16172  -0.67941   0.62627  -0.55490
  43   36799.2    271.7   0.033586945   0.30047  -0.38897   0.32838  -0.20333
  44   36928.8    270.8   0.000805555   0.00718   0.08032  -0.02173   0.01605
  45   37145.9    269.2   0.092537429   0.82013   0.58681  -0.35117   0.59369
  46   37767.0    264.8   0.007226604   0.06299  -0.23220  -0.08673  -0.03945
  47   37938.1    263.6   0.087617703   0.76031   0.00905   0.83336  -0.25639
  48   38091.2    262.5   0.002064251   0.01784  -0.05192   0.01523   0.12212
  49   38545.5    259.4   0.013595370   0.11612   0.25011   0.03937   0.22806
  50   39427.4    253.6   0.025958976   0.21675   0.31917  -0.02039   0.33833
  51   39494.4    253.2   0.020513882   0.17100  -0.19452  -0.35387  -0.08907
  52   39512.3    253.1   0.020750058   0.17289  -0.02188   0.41508  -0.01081
  53   39534.3    252.9   0.027658083   0.23032   0.00036   0.47953  -0.01904
  54   39634.3    252.3   0.033080453   0.27477  -0.33335  -0.39486  -0.08798
  55   39769.3    251.5   0.055241421   0.45729   0.47774   0.45448   0.15004
  56   39935.8    250.4   0.219339000   1.80813  -0.04375  -1.30201   0.33315
  57   40240.4    248.5   0.007026215   0.05748  -0.03110  -0.23115  -0.05555
  58   40274.9    248.3   0.027709618   0.22650   0.39359  -0.25629   0.07684

FINAL SINGLE POINT ENERGY     -7744.837608554682

DIPOLE MOMENT
-------------
                                X             Y             Z
Electronic contribution:    134.73999      76.23963      50.89988
Nuclear contribution   :   -135.73112     -85.14613     -46.60781
                        -----------------------------------------
Total Dipole Moment    :     -0.99113      -8.90650       4.29207
                        -----------------------------------------
Magnitude (a.u.)       :      9.93629
Magnitude (Debye)      :     25.25605

Rotational constants in cm-1:     0.001523     0.000185     0.000167
Rotational constants in MHz :    45.666971     5.554107     5.016113

                             ****ORCA TERMINATED NORMALLY****
TOTAL RUN TIME: 0 days 0 hours 9 minutes 39 seconds 168 msec
