                         Program Version 4.2.0 -  RELEASE  -
|  1> # ORCA input file
|  2> # SCF done       -169.202411686594          0.000257612307
|  3> ! CAM-B3LYP def2-SVP def2/J RIJCOSX Grid4 TightSCF
|  4> %maxcore 5000
|  5> %tddft
|  6>     Mode sTDDFT
|  7>     Ethresh 5.0
|  8>     maxcore 5000
|  9> end
| 10>
| 11> %pal
| 12>   nprocs 6
| 13>   end
| 14> * xyz 0 1
| 15>    C       10.76063        -3.22797        -7.39001
| 16>    C       10.64822        -3.45204        -6.07347
| 17>    C       11.30914        -2.75739        -5.00574
| 18>    C       10.99579        -3.20496        -3.76992
| 19>    C       10.06705        -4.28257        -3.75150
| 20>    S        9.60631        -4.71052        -5.39003
| 21>    C        9.55789        -4.92898        -2.65269
| 22>    C        9.83736        -4.67189        -1.28585
| 23>    C        9.15571        -5.46989        -0.42660
| 24>    C        8.28943        -6.40789        -1.05255
| 25>    S        8.39838        -6.24046        -2.79656
| 26>    C        7.47373        -7.28471        -0.39428
| 27>    C        6.57356        -8.21738        -0.94177
| 28>    C        5.69862        -9.00633        -0.18826
| 29>    C        4.92093        -9.82995        -1.01737
| 30>    C        5.20156        -9.66720        -2.38988
| 31>    S        6.44149        -8.50427        -2.67029
| 32>    C        4.32073       -10.50445        -3.08129
| 33>    C        3.54765       -11.14243        -2.13413
| 34>    N        3.89665       -10.73243        -0.87621
| 35>    C        3.37597       -11.26379         0.35527
| 36>    C        3.90411       -12.67241         0.62448
| 37>    C        2.45624       -12.01973        -2.63911
| 38>    C        2.80008       -12.26970        -4.11329
| 39>    S        3.90481       -10.92015        -4.72929
| 40>    C        5.61441        -8.84858         1.25879
| 41>    C        6.26015        -9.58383         2.22430
| 42>    C        6.05913        -9.01933         3.51321
| 43>    C        5.19431        -7.91587         3.50714
| 44>    S        4.67772        -7.50865         1.91001
| 45>    C        5.10036        -7.47088         4.83447
| 46>    C        5.92396        -8.28110         5.58098
| 47>    N        6.51085        -9.23510         4.79191
| 48>    C        7.68816        -9.98108         5.16224
| 49>    C        8.95599        -9.15877         4.93929
| 50>    C        6.04498        -7.97432         7.03222
| 51>    C        4.89189        -7.00606         7.33463
| 52>    S        4.29698        -6.22526         5.76619
| 53>    C        6.93081       -10.83794         1.94533
| 54>    C        6.63891       -12.03321         2.58655
| 55>    C        7.42788       -13.08835         2.04479
| 56>    C        8.31166       -12.64209         1.04701
| 57>    S        8.18113       -10.94841         0.73915
| 58>    C        8.95876       -13.77254         0.53527
| 59>    C        8.44394       -14.85835         1.20518
| 60>    N        7.50478       -14.45890         2.11954
| 61>    C        6.58743       -15.34546         2.79656
| 62>    C        7.27322       -16.30958         3.76217
| 63>    C        8.91564       -16.20154         0.76875
| 64>    C       10.11149       -15.93966        -0.16017
| 65>    S       10.12823       -14.17113        -0.70018
| 66>    C        5.60979       -12.06901         3.60011
| 67>    C        5.68069       -12.65382         4.82005
| 68>    C        4.65623       -12.65795         5.81466
| 69>    C        4.99831       -13.27156         6.97130
| 70>    C        6.31744       -13.80200         6.98380
| 71>    S        7.12133       -13.45144         5.46223
| 72>    C        6.93920       -14.49952         7.98414
| 73>    C        6.41675       -14.83787         9.26551
| 74>    C        7.26333       -15.54410        10.04419
| 75>    C        8.53605       -15.82481         9.44097
| 76>    S        8.57305       -15.12435         7.81477
| 77>    C        9.56401       -16.49873         9.97143
| 78>    H       11.40516        -2.45116        -7.76202
| 79>    H       10.21611        -3.81005        -8.11036
| 80>    H       11.99001        -1.95114        -5.21494
| 81>    H       11.39767        -2.79853        -2.85837
| 82>    H       10.52747        -3.90492        -0.98252
| 83>    H        9.23313        -5.41888         0.64566
| 84>    H        7.50648        -7.24969         0.68793
| 85>    H        2.28204       -11.27851         0.30084
| 86>    H        3.67688       -10.58894         1.15953
| 87>    H        3.57024       -13.36151        -0.14682
| 88>    H        3.54692       -13.02983         1.58663
| 89>    H        4.99078       -12.66775         0.63322
| 90>    H        1.49207       -11.50610        -2.54855
| 91>    H        2.38203       -12.96837        -2.10379
| 92>    H        1.92233       -12.29393        -4.75432
| 93>    H        3.35607       -13.19992        -4.23319
| 94>    H        7.74053       -10.88626         4.55764
| 95>    H        7.59772       -10.26273         6.21468
| 96>    H        9.05126        -8.90082         3.88701
| 97>    H        9.82671        -9.73649         5.23614
| 98>    H        8.92828        -8.23996         5.52046
| 99>    H        7.01025        -7.50298         7.24719
|100>    H        5.96195        -8.86926         7.65357
|101>    H        5.18185        -6.20237         8.00710
|102>    H        4.03592        -7.53225         7.75735
|103>    H        6.03374       -15.91921         2.04209
|104>    H        5.87173       -14.72341         3.33415
|105>    H        7.78150       -17.10702         3.22874
|106>    H        6.52793       -16.75855         4.41344
|107>    H        7.99747       -15.78324         4.37737
|108>    H        8.11762       -16.73053         0.23570
|109>    H        9.23347       -16.82483         1.60618
|110>    H       10.08595       -16.55139        -1.05900
|111>    H       11.05563       -16.10929         0.35676
|112>    H        4.72866       -11.47227         3.39853
|113>    H        3.70144       -12.20099         5.62151
|114>    H        4.34654       -13.36860         7.82123
|115>    H        5.42540       -14.54144         9.56022
|116>    H        7.04293       -15.88847        11.03910
|117>    H        9.49839       -16.90641        10.96464
|118>    H       10.47928       -16.65378         9.43030
|119> *
|120>
|121>                          ****END OF INPUT****

CARTESIAN COORDINATES (ANGSTROEM)
---------------------------------
  C     10.760630   -3.227970   -7.390010
  C     10.648220   -3.452040   -6.073470
  C     11.309140   -2.757390   -5.005740
  C     10.995790   -3.204960   -3.769920
  C     10.067050   -4.282570   -3.751500
  S      9.606310   -4.710520   -5.390030
  C      9.557890   -4.928980   -2.652690
  C      9.837360   -4.671890   -1.285850
  C      9.155710   -5.469890   -0.426600
  C      8.289430   -6.407890   -1.052550
  S      8.398380   -6.240460   -2.796560
  C      7.473730   -7.284710   -0.394280
  C      6.573560   -8.217380   -0.941770
  C      5.698620   -9.006330   -0.188260
  C      4.920930   -9.829950   -1.017370
  C      5.201560   -9.667200   -2.389880
  S      6.441490   -8.504270   -2.670290
  C      4.320730  -10.504450   -3.081290
  C      3.547650  -11.142430   -2.134130
  N      3.896650  -10.732430   -0.876210
  C      3.375970  -11.263790    0.355270
  C      3.904110  -12.672410    0.624480
  C      2.456240  -12.019730   -2.639110
  C      2.800080  -12.269700   -4.113290
  S      3.904810  -10.920150   -4.729290
  C      5.614410   -8.848580    1.258790
  C      6.260150   -9.583830    2.224300
  C      6.059130   -9.019330    3.513210
  C      5.194310   -7.915870    3.507140
  S      4.677720   -7.508650    1.910010
  C      5.100360   -7.470880    4.834470
  C      5.923960   -8.281100    5.580980
  N      6.510850   -9.235100    4.791910
  C      7.688160   -9.981080    5.162240
  C      8.955990   -9.158770    4.939290
  C      6.044980   -7.974320    7.032220
  C      4.891890   -7.006060    7.334630
  S      4.296980   -6.225260    5.766190
  C      6.930810  -10.837940    1.945330
  C      6.638910  -12.033210    2.586550
  C      7.427880  -13.088350    2.044790
  C      8.311660  -12.642090    1.047010
  S      8.181130  -10.948410    0.739150
  C      8.958760  -13.772540    0.535270
  C      8.443940  -14.858350    1.205180
  N      7.504780  -14.458900    2.119540
  C      6.587430  -15.345460    2.796560
  C      7.273220  -16.309580    3.762170
  C      8.915640  -16.201540    0.768750
  C     10.111490  -15.939660   -0.160170
  S     10.128230  -14.171130   -0.700180
  C      5.609790  -12.069010    3.600110
  C      5.680690  -12.653820    4.820050
  C      4.656230  -12.657950    5.814660
  C      4.998310  -13.271560    6.971300
  C      6.317440  -13.802000    6.983800
  S      7.121330  -13.451440    5.462230
  C      6.939200  -14.499520    7.984140
  C      6.416750  -14.837870    9.265510
  C      7.263330  -15.544100   10.044190
  C      8.536050  -15.824810    9.440970
  S      8.573050  -15.124350    7.814770
  C      9.564010  -16.498730    9.971430
  H     11.405160   -2.451160   -7.762020
  H     10.216110   -3.810050   -8.110360
  H     11.990010   -1.951140   -5.214940
  H     11.397670   -2.798530   -2.858370
  H     10.527470   -3.904920   -0.982520
  H      9.233130   -5.418880    0.645660
  H      7.506480   -7.249690    0.687930
  H      2.282040  -11.278510    0.300840
  H      3.676880  -10.588940    1.159530
  H      3.570240  -13.361510   -0.146820
  H      3.546920  -13.029830    1.586630
  H      4.990780  -12.667750    0.633220
  H      1.492070  -11.506100   -2.548550
  H      2.382030  -12.968370   -2.103790
  H      1.922330  -12.293930   -4.754320
  H      3.356070  -13.199920   -4.233190
  H      7.740530  -10.886260    4.557640
  H      7.597720  -10.262730    6.214680
  H      9.051260   -8.900820    3.887010
  H      9.826710   -9.736490    5.236140
  H      8.928280   -8.239960    5.520460
  H      7.010250   -7.502980    7.247190
  H      5.961950   -8.869260    7.653570
  H      5.181850   -6.202370    8.007100
  H      4.035920   -7.532250    7.757350
  H      6.033740  -15.919210    2.042090
  H      5.871730  -14.723410    3.334150
  H      7.781500  -17.107020    3.228740
  H      6.527930  -16.758550    4.413440
  H      7.997470  -15.783240    4.377370
  H      8.117620  -16.730530    0.235700
  H      9.233470  -16.824830    1.606180
  H     10.085950  -16.551390   -1.059000
  H     11.055630  -16.109290    0.356760
  H      4.728660  -11.472270    3.398530
  H      3.701440  -12.200990    5.621510
  H      4.346540  -13.368600    7.821230
  H      5.425400  -14.541440    9.560220
  H      7.042930  -15.888470   11.039100
  H      9.498390  -16.906410   10.964640
  H     10.479280  -16.653780    9.430300

 Total Charge           Charge          ....    0
 Multiplicity           Mult            ....    1
 Number of Electrons    NEL             ....  522
 Basis Dimension        Dim             .... 1127

ORBITAL ENERGIES
----------------

  NO   OCC          E(Eh)            E(eV)
   0   2.0000     -88.946421     -2420.3552
   1   2.0000     -88.941527     -2420.2220
   2   2.0000     -88.940960     -2420.2066
   3   2.0000     -88.939499     -2420.1668
   4   2.0000     -88.931590     -2419.9516
   5   2.0000     -88.923547     -2419.7327
   6   2.0000     -88.918971     -2419.6082
   7   2.0000     -88.907797     -2419.3042
   8   2.0000     -88.905382     -2419.2384
   9   2.0000     -88.902440     -2419.1584
  10   2.0000     -14.451799      -393.2534
  11   2.0000     -14.448312      -393.1586
  12   2.0000     -14.446325      -393.1045
  13   2.0000     -10.312109      -280.6067
  14   2.0000     -10.311571      -280.5921
  15   2.0000     -10.309064      -280.5239
  16   2.0000     -10.308766      -280.5158
  17   2.0000     -10.306433      -280.4523
  18   2.0000     -10.304549      -280.4010
  19   2.0000     -10.299229      -280.2563
  20   2.0000     -10.292767      -280.0804
  21   2.0000     -10.292655      -280.0774
  22   2.0000     -10.291553      -280.0474
  23   2.0000     -10.291213      -280.0381
  24   2.0000     -10.290033      -280.0060
  25   2.0000     -10.290028      -280.0059
  26   2.0000     -10.289635      -279.9952
  27   2.0000     -10.289377      -279.9882
  28   2.0000     -10.288583      -279.9666
  29   2.0000     -10.288457      -279.9631
  30   2.0000     -10.288414      -279.9620
  31   2.0000     -10.287565      -279.9389
  32   2.0000     -10.287474      -279.9364
  33   2.0000     -10.285503      -279.8828
  34   2.0000     -10.284722      -279.8615
  35   2.0000     -10.283680      -279.8332
  36   2.0000     -10.283591      -279.8307
  37   2.0000     -10.283066      -279.8164
  38   2.0000     -10.282768      -279.8083
  39   2.0000     -10.282055      -279.7889
  40   2.0000     -10.281823      -279.7826
  41   2.0000     -10.281696      -279.7792
  42   2.0000     -10.280617      -279.7498
  43   2.0000     -10.279714      -279.7252
  44   2.0000     -10.279097      -279.7085
  45   2.0000     -10.278672      -279.6969
  46   2.0000     -10.272323      -279.5241
  47   2.0000     -10.272119      -279.5186
  48   2.0000     -10.272116      -279.5185
  49   2.0000     -10.271263      -279.4953
  50   2.0000     -10.269898      -279.4581
  51   2.0000     -10.268156      -279.4107
  52   2.0000     -10.266754      -279.3726
  53   2.0000     -10.266275      -279.3595
  54   2.0000     -10.266090      -279.3545
  55   2.0000     -10.265905      -279.3495
  56   2.0000     -10.265637      -279.3422
  57   2.0000     -10.263485      -279.2836
  58   2.0000     -10.262997      -279.2703
  59   2.0000     -10.257308      -279.1155
  60   2.0000     -10.256832      -279.1026
  61   2.0000     -10.254638      -279.0429
  62   2.0000     -10.250799      -278.9384
  63   2.0000      -8.041644      -218.8243
  64   2.0000      -8.037603      -218.7143
  65   2.0000      -8.035641      -218.6609
  66   2.0000      -8.033788      -218.6105
  67   2.0000      -8.026003      -218.3986
  68   2.0000      -8.019489      -218.2214
  69   2.0000      -8.015569      -218.1147
  70   2.0000      -8.003316      -217.7813
  71   2.0000      -8.001037      -217.7193
  72   2.0000      -7.997915      -217.6343
  73   2.0000      -6.011511      -163.5815
  74   2.0000      -6.007541      -163.4735
  75   2.0000      -6.007425      -163.4704
  76   2.0000      -6.005265      -163.4116
  77   2.0000      -6.003573      -163.3655
  78   2.0000      -6.003445      -163.3620
  79   2.0000      -6.002347      -163.3322
  80   2.0000      -6.001086      -163.2978
  81   2.0000      -5.999327      -163.2500
  82   2.0000      -5.998081      -163.2161
  83   2.0000      -5.997353      -163.1963
  84   2.0000      -5.995724      -163.1520
  85   2.0000      -5.995373      -163.1424
  86   2.0000      -5.991592      -163.0395
  87   2.0000      -5.989331      -162.9780
  88   2.0000      -5.987394      -162.9253
  89   2.0000      -5.985415      -162.8714
  90   2.0000      -5.985237      -162.8666
  91   2.0000      -5.981521      -162.7655
  92   2.0000      -5.980269      -162.7314
  93   2.0000      -5.976072      -162.6172
  94   2.0000      -5.974105      -162.5637
  95   2.0000      -5.971817      -162.5014
  96   2.0000      -5.970011      -162.4522
  97   2.0000      -5.968693      -162.4164
  98   2.0000      -5.967726      -162.3901
  99   2.0000      -5.964593      -162.3048
 100   2.0000      -5.962322      -162.2430
 101   2.0000      -5.960010      -162.1801
 102   2.0000      -5.956959      -162.0971
 103   2.0000      -1.076063       -29.2812
 104   2.0000      -1.075233       -29.2586
 105   2.0000      -1.072272       -29.1780
 106   2.0000      -0.994599       -27.0644
 107   2.0000      -0.975817       -26.5533
 108   2.0000      -0.972795       -26.4711
 109   2.0000      -0.969824       -26.3903
 110   2.0000      -0.957818       -26.0636
 111   2.0000      -0.949776       -25.8447
 112   2.0000      -0.943348       -25.6698
 113   2.0000      -0.933238       -25.3947
 114   2.0000      -0.930924       -25.3317
 115   2.0000      -0.928140       -25.2560
 116   2.0000      -0.894974       -24.3535
 117   2.0000      -0.884355       -24.0645
 118   2.0000      -0.880309       -23.9544
 119   2.0000      -0.873163       -23.7600
 120   2.0000      -0.862124       -23.4596
 121   2.0000      -0.861775       -23.4501
 122   2.0000      -0.847976       -23.0746
 123   2.0000      -0.841198       -22.8902
 124   2.0000      -0.838582       -22.8190
 125   2.0000      -0.834462       -22.7069
 126   2.0000      -0.825920       -22.4744
 127   2.0000      -0.825415       -22.4607
 128   2.0000      -0.819916       -22.3111
 129   2.0000      -0.816900       -22.2290
 130   2.0000      -0.813351       -22.1324
 131   2.0000      -0.811151       -22.0725
 132   2.0000      -0.801098       -21.7990
 133   2.0000      -0.791117       -21.5274
 134   2.0000      -0.787360       -21.4251
 135   2.0000      -0.786139       -21.3919
 136   2.0000      -0.780690       -21.2437
 137   2.0000      -0.774880       -21.0856
 138   2.0000      -0.767153       -20.8753
 139   2.0000      -0.756431       -20.5835
 140   2.0000      -0.744568       -20.2607
 141   2.0000      -0.719839       -19.5878
 142   2.0000      -0.717197       -19.5159
 143   2.0000      -0.712095       -19.3771
 144   2.0000      -0.709699       -19.3119
 145   2.0000      -0.700323       -19.0567
 146   2.0000      -0.684298       -18.6207
 147   2.0000      -0.682204       -18.5637
 148   2.0000      -0.680631       -18.5209
 149   2.0000      -0.671838       -18.2816
 150   2.0000      -0.664035       -18.0693
 151   2.0000      -0.657433       -17.8897
 152   2.0000      -0.650082       -17.6896
 153   2.0000      -0.644618       -17.5409
 154   2.0000      -0.635871       -17.3029
 155   2.0000      -0.632283       -17.2053
 156   2.0000      -0.628978       -17.1154
 157   2.0000      -0.627231       -17.0678
 158   2.0000      -0.624056       -16.9814
 159   2.0000      -0.612339       -16.6626
 160   2.0000      -0.609224       -16.5778
 161   2.0000      -0.601524       -16.3683
 162   2.0000      -0.599390       -16.3102
 163   2.0000      -0.593942       -16.1620
 164   2.0000      -0.590974       -16.0812
 165   2.0000      -0.585273       -15.9261
 166   2.0000      -0.581553       -15.8249
 167   2.0000      -0.574970       -15.6457
 168   2.0000      -0.572354       -15.5745
 169   2.0000      -0.563185       -15.3251
 170   2.0000      -0.559218       -15.2171
 171   2.0000      -0.554287       -15.0829
 172   2.0000      -0.551862       -15.0169
 173   2.0000      -0.549710       -14.9584
 174   2.0000      -0.545538       -14.8448
 175   2.0000      -0.541953       -14.7473
 176   2.0000      -0.537667       -14.6307
 177   2.0000      -0.536546       -14.6002
 178   2.0000      -0.531133       -14.4529
 179   2.0000      -0.529225       -14.4009
 180   2.0000      -0.522873       -14.2281
 181   2.0000      -0.521092       -14.1796
 182   2.0000      -0.518030       -14.0963
 183   2.0000      -0.516751       -14.0615
 184   2.0000      -0.512678       -13.9507
 185   2.0000      -0.510524       -13.8921
 186   2.0000      -0.507667       -13.8143
 187   2.0000      -0.501819       -13.6552
 188   2.0000      -0.497265       -13.5313
 189   2.0000      -0.494211       -13.4482
 190   2.0000      -0.493224       -13.4213
 191   2.0000      -0.488797       -13.3009
 192   2.0000      -0.487230       -13.2582
 193   2.0000      -0.484754       -13.1908
 194   2.0000      -0.480629       -13.0786
 195   2.0000      -0.476703       -12.9717
 196   2.0000      -0.475743       -12.9456
 197   2.0000      -0.471911       -12.8414
 198   2.0000      -0.470840       -12.8122
 199   2.0000      -0.468813       -12.7570
 200   2.0000      -0.467512       -12.7216
 201   2.0000      -0.465974       -12.6798
 202   2.0000      -0.462014       -12.5720
 203   2.0000      -0.459486       -12.5033
 204   2.0000      -0.458694       -12.4817
 205   2.0000      -0.455981       -12.4079
 206   2.0000      -0.455023       -12.3818
 207   2.0000      -0.453920       -12.3518
 208   2.0000      -0.452879       -12.3235
 209   2.0000      -0.451816       -12.2945
 210   2.0000      -0.449547       -12.2328
 211   2.0000      -0.448715       -12.2102
 212   2.0000      -0.446048       -12.1376
 213   2.0000      -0.443896       -12.0790
 214   2.0000      -0.442103       -12.0302
 215   2.0000      -0.440359       -11.9828
 216   2.0000      -0.438938       -11.9441
 217   2.0000      -0.435910       -11.8617
 218   2.0000      -0.432442       -11.7673
 219   2.0000      -0.429759       -11.6943
 220   2.0000      -0.427184       -11.6243
 221   2.0000      -0.426284       -11.5998
 222   2.0000      -0.424710       -11.5569
 223   2.0000      -0.423064       -11.5121
 224   2.0000      -0.420523       -11.4430
 225   2.0000      -0.417173       -11.3518
 226   2.0000      -0.411913       -11.2087
 227   2.0000      -0.409768       -11.1503
 228   2.0000      -0.407655       -11.0929
 229   2.0000      -0.403102       -10.9690
 230   2.0000      -0.400479       -10.8976
 231   2.0000      -0.397531       -10.8174
 232   2.0000      -0.394870       -10.7450
 233   2.0000      -0.390852       -10.6356
 234   2.0000      -0.387382       -10.5412
 235   2.0000      -0.386498       -10.5171
 236   2.0000      -0.380765       -10.3611
 237   2.0000      -0.380142       -10.3442
 238   2.0000      -0.378721       -10.3055
 239   2.0000      -0.366637        -9.9767
 240   2.0000      -0.364534        -9.9195
 241   2.0000      -0.360520        -9.8102
 242   2.0000      -0.358321        -9.7504
 243   2.0000      -0.353706        -9.6248
 244   2.0000      -0.340269        -9.2592
 245   2.0000      -0.336248        -9.1498
 246   2.0000      -0.321333        -8.7439
 247   2.0000      -0.320461        -8.7202
 248   2.0000      -0.318375        -8.6634
 249   2.0000      -0.307939        -8.3794
 250   2.0000      -0.303362        -8.2549
 251   2.0000      -0.291731        -7.9384
 252   2.0000      -0.283160        -7.7052
 253   2.0000      -0.265988        -7.2379
 254   2.0000      -0.261845        -7.1252
 255   2.0000      -0.257994        -7.0204
 256   2.0000      -0.235126        -6.3981
 257   2.0000      -0.230297        -6.2667
 258   2.0000      -0.225125        -6.1260
 259   2.0000      -0.217682        -5.9234
 260   2.0000      -0.190371        -5.1802
 261   0.0000      -0.061058        -1.6615
 262   0.0000      -0.047715        -1.2984
 263   0.0000      -0.001725        -0.0469
 264   0.0000       0.018815         0.5120
 265   0.0000       0.023456         0.6383

MULLIKEN ATOMIC CHARGES
-----------------------
   0 C :   -0.038356
   1 C :   -0.060105
   2 C :    0.043969
   3 C :    0.031012
   4 C :   -0.075288
   5 S :    0.075177
   6 C :   -0.032392
   7 C :    0.026102
   8 C :    0.030905
   9 C :   -0.029882
  10 S :    0.064170
  11 C :   -0.032762
  12 C :   -0.115315
  13 C :    0.028809
  14 C :    0.111869
  15 C :   -0.109109
  16 S :    0.116384
  17 C :   -0.077590
  18 C :   -0.111256
  19 N :   -0.151032
  20 C :    0.108637
  21 C :   -0.000757
  22 C :    0.148697
  23 C :   -0.081409
  24 S :   -0.006534
  25 C :   -0.337378
  26 C :    0.156517
  27 C :    0.029610
  28 C :   -0.119386
  29 S :    0.158614
  30 C :   -0.082821
  31 C :   -0.128201
  32 N :   -0.154760
  33 C :    0.102307
  34 C :    0.014250
  35 C :    0.156437
  36 C :   -0.081898
  37 S :   -0.013106
  38 C :   -0.263657
  39 C :    0.058937
  40 C :    0.033874
  41 C :   -0.112013
  42 S :    0.185633
  43 C :   -0.077123
  44 C :   -0.115577
  45 N :   -0.159433
  46 C :    0.110697
  47 C :    0.003022
  48 C :    0.140316
  49 C :   -0.077036
  50 S :   -0.004780
  51 C :   -0.098445
  52 C :   -0.032549
  53 C :    0.043994
  54 C :    0.025050
  55 C :   -0.059630
  56 S :    0.065670
  57 C :   -0.068284
  58 C :    0.030219
  59 C :    0.052381
  60 C :   -0.064610
  61 S :    0.071793
  62 C :   -0.028535
  63 H :    0.013602
  64 H :    0.016935
  65 H :   -0.017721
  66 H :   -0.016508
  67 H :   -0.021400
  68 H :   -0.015522
  69 H :   -0.001339
  70 H :    0.017445
  71 H :    0.040341
  72 H :    0.008886
  73 H :    0.011453
  74 H :    0.054437
  75 H :    0.023746
  76 H :    0.010599
  77 H :    0.045724
  78 H :    0.059562
  79 H :    0.048739
  80 H :    0.015817
  81 H :    0.027939
  82 H :    0.021511
  83 H :    0.013253
  84 H :    0.019184
  85 H :    0.022220
  86 H :    0.046567
  87 H :    0.057850
  88 H :    0.016579
  89 H :    0.035218
  90 H :    0.011787
  91 H :    0.017139
  92 H :    0.030706
  93 H :    0.021197
  94 H :    0.026401
  95 H :    0.048034
  96 H :    0.059462
  97 H :    0.016031
  98 H :   -0.010249
  99 H :   -0.015819
 100 H :   -0.013150
 101 H :   -0.011926
 102 H :    0.019647
 103 H :    0.021583
Sum of atomic charges:   -0.0000000

LOEWDIN ATOMIC CHARGES
----------------------
   0 C :   -0.089345
   1 C :   -0.138248
   2 C :   -0.039985
   3 C :   -0.026285
   4 C :   -0.184856
   5 S :    0.346160
   6 C :   -0.176606
   7 C :   -0.043951
   8 C :   -0.029569
   9 C :   -0.158953
  10 S :    0.360768
  11 C :   -0.071589
  12 C :   -0.166485
  13 C :   -0.104658
  14 C :   -0.020428
  15 C :   -0.221158
  16 S :    0.413699
  17 C :   -0.222234
  18 C :   -0.041893
  19 N :    0.047444
  20 C :    0.042460
  21 C :   -0.063467
  22 C :   -0.039128
  23 C :   -0.105138
  24 S :    0.250539
  25 C :   -0.172706
  26 C :   -0.093308
  27 C :   -0.033668
  28 C :   -0.228447
  29 S :    0.414508
  30 C :   -0.227167
  31 C :   -0.044906
  32 N :    0.048598
  33 C :    0.038569
  34 C :   -0.059217
  35 C :   -0.038620
  36 C :   -0.104907
  37 S :    0.245832
  38 C :   -0.172451
  39 C :   -0.095143
  40 C :   -0.037393
  41 C :   -0.226649
  42 S :    0.449301
  43 C :   -0.223020
  44 C :   -0.044616
  45 N :    0.043560
  46 C :    0.036788
  47 C :   -0.067711
  48 C :   -0.038795
  49 C :   -0.105199
  50 S :    0.253192
  51 C :   -0.050350
  52 C :   -0.153277
  53 C :   -0.029470
  54 C :   -0.037756
  55 C :   -0.182959
  56 S :    0.386703
  57 C :   -0.181403
  58 C :   -0.027453
  59 C :   -0.031686
  60 C :   -0.139677
  61 S :    0.343476
  62 C :   -0.077330
  63 H :    0.025645
  64 H :    0.023992
  65 H :    0.030575
  66 H :    0.030444
  67 H :    0.028518
  68 H :    0.032080
  69 H :    0.038839
  70 H :    0.024850
  71 H :    0.031900
  72 H :    0.020975
  73 H :    0.023817
  74 H :    0.035944
  75 H :    0.032247
  76 H :    0.028623
  77 H :    0.023507
  78 H :    0.023381
  79 H :    0.025173
  80 H :    0.024469
  81 H :    0.028673
  82 H :    0.030340
  83 H :    0.022164
  84 H :    0.030277
  85 H :    0.032959
  86 H :    0.023933
  87 H :    0.022636
  88 H :    0.023114
  89 H :    0.027742
  90 H :    0.018499
  91 H :    0.030929
  92 H :    0.015920
  93 H :    0.030978
  94 H :    0.032214
  95 H :    0.024273
  96 H :    0.023700
  97 H :    0.037612
  98 H :    0.034994
  99 H :    0.031196
 100 H :    0.031842
 101 H :    0.033415
 102 H :    0.028819
 103 H :    0.026454

  Mayer bond orders larger than 0.100000
B(  0-C ,  1-C ) :   1.8623 B(  0-C , 63-H ) :   0.9504 B(  0-C , 64-H ) :   0.9414
B(  1-C ,  2-C ) :   1.0798 B(  1-C ,  5-S ) :   1.0104 B(  2-C ,  3-C ) :   1.6580
B(  2-C , 65-H ) :   0.9933 B(  3-C ,  4-C ) :   1.1536 B(  3-C , 66-H ) :   0.9918
B(  4-C ,  5-S ) :   1.0361 B(  4-C ,  6-C ) :   1.5636 B(  6-C ,  7-C ) :   1.1633
B(  6-C , 10-S ) :   1.0355 B(  7-C ,  8-C ) :   1.6092 B(  7-C , 67-H ) :   0.9920
B(  8-C ,  9-C ) :   1.1327 B(  8-C , 68-H ) :   0.9994 B(  9-C , 10-S ) :   1.0243
B(  9-C , 11-C ) :   1.5807 B( 11-C , 12-C ) :   1.2052 B( 11-C , 69-H ) :   0.9597
B( 12-C , 13-C ) :   1.4500 B( 12-C , 16-S ) :   1.0718 B( 13-C , 14-C ) :   1.2732
B( 13-C , 25-C ) :   0.9775 B( 14-C , 15-C ) :   1.3881 B( 14-C , 19-N ) :   1.1747
B( 15-C , 16-S ) :   1.0355 B( 15-C , 17-C ) :   1.4089 B( 17-C , 18-C ) :   1.5422
B( 17-C , 24-S ) :   0.9361 B( 18-C , 19-N ) :   1.1779 B( 18-C , 22-C ) :   1.0655
B( 19-N , 20-C ) :   0.9648 B( 20-C , 21-C ) :   1.1107 B( 20-C , 70-H ) :   0.9447
B( 20-C , 71-H ) :   0.9442 B( 21-C , 72-H ) :   0.9587 B( 21-C , 73-H ) :   0.9596
B( 21-C , 74-H ) :   0.9637 B( 22-C , 23-C ) :   1.0493 B( 22-C , 75-H ) :   0.9071
B( 22-C , 76-H ) :   0.9197 B( 23-C , 24-S ) :   0.9955 B( 23-C , 77-H ) :   0.9534
B( 23-C , 78-H ) :   0.9556 B( 25-C , 26-C ) :   1.5608 B( 25-C , 29-S ) :   1.1074
B( 26-C , 27-C ) :   1.1793 B( 26-C , 38-C ) :   0.9813 B( 27-C , 28-C ) :   1.4263
B( 27-C , 32-N ) :   1.1767 B( 28-C , 29-S ) :   1.0161 B( 28-C , 30-C ) :   1.3919
B( 30-C , 31-C ) :   1.5611 B( 30-C , 37-S ) :   0.9308 B( 31-C , 32-N ) :   1.1816
B( 31-C , 35-C ) :   1.0655 B( 32-N , 33-C ) :   0.9596 B( 33-C , 34-C ) :   1.1072
B( 33-C , 79-H ) :   0.9402 B( 33-C , 80-H ) :   0.9459 B( 34-C , 81-H ) :   0.9650
B( 34-C , 82-H ) :   0.9656 B( 34-C , 83-H ) :   0.9656 B( 35-C , 36-C ) :   1.0473
B( 35-C , 84-H ) :   0.9068 B( 35-C , 85-H ) :   0.9219 B( 36-C , 37-S ) :   0.9960
B( 36-C , 86-H ) :   0.9539 B( 36-C , 87-H ) :   0.9559 B( 38-C , 39-C ) :   1.4986
B( 38-C , 42-S ) :   1.1450 B( 39-C , 40-C ) :   1.1666 B( 39-C , 51-C ) :   1.0453
B( 40-C , 41-C ) :   1.4314 B( 40-C , 44-C ) :   0.1040 B( 40-C , 45-N ) :   1.1854
B( 41-C , 42-S ) :   1.0171 B( 41-C , 43-C ) :   1.3962 B( 43-C , 44-C ) :   1.5644
B( 43-C , 50-S ) :   0.9393 B( 44-C , 45-N ) :   1.1742 B( 44-C , 48-C ) :   1.0670
B( 45-N , 46-C ) :   0.9551 B( 46-C , 47-C ) :   1.0938 B( 46-C , 88-H ) :   0.9461
B( 46-C , 89-H ) :   0.9524 B( 47-C , 90-H ) :   0.9635 B( 47-C , 91-H ) :   0.9636
B( 47-C , 92-H ) :   0.9644 B( 48-C , 49-C ) :   1.0515 B( 48-C , 93-H ) :   0.9121
B( 48-C , 94-H ) :   0.9174 B( 49-C , 50-S ) :   0.9936 B( 49-C , 95-H ) :   0.9532
B( 49-C , 96-H ) :   0.9563 B( 51-C , 52-C ) :   1.6960 B( 51-C , 97-H ) :   0.9334
B( 52-C , 53-C ) :   1.0921 B( 52-C , 56-S ) :   1.0267 B( 53-C , 54-C ) :   1.6356
B( 53-C , 98-H ) :   1.0009 B( 54-C , 55-C ) :   1.1450 B( 54-C , 99-H ) :   0.9932
B( 55-C , 56-S ) :   1.0273 B( 55-C , 57-C ) :   1.5832 B( 57-C , 58-C ) :   1.1453
B( 57-C , 61-S ) :   1.0369 B( 58-C , 59-C ) :   1.6696 B( 58-C ,100-H ) :   0.9913
B( 59-C , 60-C ) :   1.0769 B( 59-C ,101-H ) :   0.9924 B( 60-C , 61-S ) :   1.0058
B( 60-C , 62-C ) :   1.8708 B( 62-C ,102-H ) :   0.9499 B( 62-C ,103-H ) :   0.9416

-----------------------------------------------------------------------------
         ABSORPTION SPECTRUM VIA TRANSITION ELECTRIC DIPOLE MOMENTS
-----------------------------------------------------------------------------
State   Energy  Wavelength   fosc         T2         TX        TY        TZ
        (cm-1)    (nm)                  (au**2)     (au)      (au)      (au)
-----------------------------------------------------------------------------
   0   17459.2    572.8   1.349873570  25.45329   2.49024   3.37374  -2.80533
   1   17798.5    561.8   0.278565913   5.15254   0.96575   1.51221  -1.39036
   2   18948.5    527.7   0.105742682   1.83717   0.84407  -0.28050   1.02276
   3   20880.6    478.9   0.229428448   3.61726  -0.54647   1.01749  -1.51107
   4   23827.4    419.7   0.824069180  11.38576  -1.34367   1.45310  -2.73291
   5   24017.3    416.4   0.009563271   0.13109  -0.02231  -0.19030   0.30720
   6   25191.3    397.0   0.071567196   0.93528  -0.13280  -0.18852   0.93920
   7   26408.5    378.7   0.004574685   0.05703  -0.12976  -0.10339  -0.17176
   8   26458.3    378.0   0.004155684   0.05171  -0.13776   0.04830  -0.17435
   9   26930.1    371.3   0.003141790   0.03841   0.01986   0.15216  -0.12191
  10   27751.9    360.3   0.032799084   0.38908  -0.41983   0.43904   0.14168
  11   28440.4    351.6   0.015555771   0.18007  -0.10480  -0.02908   0.41017
  12   28835.5    346.8   0.005749497   0.06564   0.00548  -0.25264   0.04222
  13   30471.2    328.2   0.029302372   0.31658  -0.20523   0.51604  -0.09039
  14   30591.9    326.9   0.079905832   0.85990   0.37954  -0.81459   0.22867
  15   31408.4    318.4   0.368428113   3.86174   0.64666   0.50596   1.78538
  16   31919.4    313.3   0.004574482   0.04718   0.13378  -0.04166   0.16597
  17   32057.9    311.9   0.102835423   1.05605   0.49185  -0.84641   0.31260
  18   32338.4    309.2   0.031990030   0.32567   0.15993  -0.50952   0.20120
  19   32547.2    307.2   0.026615813   0.26922   0.29984   0.16921   0.38818
  20   33283.8    300.4   0.078743915   0.77886   0.37195   0.53911   0.59150
  21   33667.8    297.0   0.067127355   0.65639  -0.46989  -0.59448  -0.28668
  22   33981.8    294.3   0.014718201   0.14259   0.25562  -0.06039   0.27129
  23   34265.8    291.8   0.059128263   0.56808   0.72878  -0.07782  -0.17582
  24   34350.1    291.1   0.014189364   0.13599   0.04808  -0.19186  -0.31124
  25   34785.5    287.5   0.095375818   0.90264   0.82438  -0.45661  -0.12059
  26   36040.5    277.5   0.013311250   0.12159   0.09421  -0.14298   0.30376
  27   36212.2    276.1   0.000610446   0.00555   0.03138  -0.03574  -0.05734
  28   36864.2    271.3   0.036435135   0.32538   0.00175  -0.06169  -0.56707
  29   37000.0    270.3   0.005505907   0.04899   0.01675   0.09070  -0.20120
  30   37285.3    268.2   0.007576357   0.06690   0.01334   0.25021   0.06413
  31   37814.0    264.5   0.089065171   0.77541   0.27648  -0.20879   0.80956
  32   38248.9    261.4   0.039050053   0.33611  -0.21699  -0.52753  -0.10361
  33   38420.7    260.3   0.071733828   0.61466   0.40928  -0.64051   0.19207
  34   38635.9    258.8   0.148046590   1.26149  -0.75257  -0.83065  -0.07180
  35   39111.4    255.7   0.001113001   0.00937   0.08769  -0.03419  -0.02257
  36   39596.4    252.5   0.075166317   0.62495  -0.41147   0.17991   0.65059
  37   39630.2    252.3   0.124751721   1.03633   0.78703  -0.16037  -0.62546
  38   39908.2    250.6   0.015699517   0.12951   0.12786   0.17818   0.28533

FINAL SINGLE POINT ENERGY     -6072.151077157358

DIPOLE MOMENT
-------------
                                X             Y             Z
Electronic contribution:      2.28525      37.14580     -34.29737
Nuclear contribution   :     -3.03141     -39.90601      38.06788
                        -----------------------------------------
Total Dipole Moment    :     -0.74617      -2.76021       3.77052
                        -----------------------------------------
Magnitude (a.u.)       :      4.73205
Magnitude (Debye)      :     12.02793

Rotational constants in cm-1:     0.001360     0.000556     0.000507
Rotational constants in MHz :    40.780866    16.665346    15.199280

                             ****ORCA TERMINATED NORMALLY****
TOTAL RUN TIME: 0 days 0 hours 10 minutes 36 seconds 810 msec
