                         Program Version 4.2.0 -  RELEASE  -
|  1> # ORCA input file
|  2> # SCF done       -176.783377289623          0.000346629162
|  3> ! CAM-B3LYP def2-SVP def2/J RIJCOSX Grid4 TightSCF
|  4> %maxcore 5000
|  5> %tddft
|  6>     Mode sTDDFT
|  7>     Ethresh 5.0
|  8>     maxcore 5000
|  9> end
| 10>
| 11> %pal
| 12>   nprocs 6
| 13>   end
| 14> * xyz 0 1
| 15>    C       10.96410        -7.93269         6.75853
| 16>    C       10.47408        -6.88861         6.07811
| 17>    C       10.84764        -5.50731         6.20117
| 18>    C       10.17668        -4.67078         5.38155
| 19>    C        9.21896        -5.31058         4.54282
| 20>    S        9.21249        -7.04058         4.84514
| 21>    C        8.39018        -4.72444         3.62354
| 22>    C        8.28359        -3.34678         3.29161
| 23>    C        7.35303        -3.07745         2.34712
| 24>    C        6.64422        -4.21768         1.85528
| 25>    S        7.26039        -5.66045         2.66037
| 26>    C        5.62585        -4.15701         0.95731
| 27>    C        4.81447        -5.21226         0.41631
| 28>    C        5.16752        -6.56817         0.49187
| 29>    C        4.36238        -7.57785        -0.00994
| 30>    C        3.15315        -7.20599        -0.60308
| 31>    C        2.77631        -5.85461        -0.70767
| 32>    C        3.61417        -4.86911        -0.21280
| 33>    C        1.48635        -5.69811        -1.33238
| 34>    C        0.91115        -6.93432        -1.66667
| 35>    S        1.93569        -8.28741        -1.24303
| 36>    C       -0.33114        -7.01735        -2.27330
| 37>    C       -1.00805        -5.84492        -2.54830
| 38>    C       -0.45285        -4.61093        -2.22351
| 39>    C        0.78506        -4.53111        -1.61905
| 40>    C        4.77781        -8.98282         0.10141
| 41>    C        4.61059        -9.85743        -0.97428
| 42>    C        4.98525       -11.17284        -0.83647
| 43>    C        5.54074       -11.63741         0.36557
| 44>    C        5.72608       -10.76985         1.43045
| 45>    C        5.34249        -9.44872         1.28920
| 46>    C        5.82596       -13.05196         0.22124
| 47>    C        5.43936       -13.45635        -1.06689
| 48>    C        4.87608       -12.29057        -1.84558
| 49>    C        5.71296       -11.99807        -3.10438
| 50>    C        7.18368       -11.75091        -2.79120
| 51>    C        3.40927       -12.53283        -2.24732
| 52>    C        2.50750       -12.81224        -1.05127
| 53>    C        5.59599       -14.76122        -1.46442
| 54>    C        6.15679       -15.69986        -0.58506
| 55>    C        6.53331       -15.27988         0.69591
| 56>    C        6.37208       -13.97052         1.10455
| 57>    C        6.31257       -17.06406        -1.04729
| 58>    C        6.99611       -18.04327        -0.43658
| 59>    C        7.15394       -19.40201        -0.91983
| 60>    C        6.35951       -19.93812        -1.93754
| 61>    C        6.53558       -21.22813        -2.42957
| 62>    C        7.51435       -22.02178        -1.81971
| 63>    C        8.30240       -21.52029        -0.76840
| 64>    C        8.12698       -20.21411        -0.33761
| 65>    C        9.19924       -22.51778        -0.24103
| 66>    C        9.04042       -23.75683        -0.88133
| 67>    S        7.82140       -23.71228        -2.13349
| 68>    C        9.79394       -24.86226        -0.52271
| 69>    C       10.71943       -24.72505         0.49351
| 70>    C       10.88956       -23.50422         1.13966
| 71>    C       10.13801       -22.40441         0.78001
| 72>    C        5.68041       -21.68554        -3.50751
| 73>    C        6.04807       -22.35675        -4.62373
| 74>    C        5.15910       -22.78322        -5.66240
| 75>    C        5.76619       -23.36053        -6.72208
| 76>    C        7.18436       -23.42772        -6.61431
| 77>    S        7.70701       -22.73520        -5.08858
| 78>    C        8.06859       -23.93451        -7.52793
| 79>    C        7.76874       -24.50862        -8.79816
| 80>    C        8.84953       -24.91266        -9.49731
| 81>    C       10.10460       -24.68936        -8.83504
| 82>    S        9.80402       -23.93711        -7.25992
| 83>    C       11.33039       -24.97858        -9.28957
| 84>    H       11.73037        -7.79343         7.50049
| 85>    H       10.61313        -8.93394         6.58839
| 86>    H       11.60540        -5.20614         6.90282
| 87>    H       10.32979        -3.60656         5.34288
| 88>    H        8.89595        -2.60254         3.76882
| 89>    H        7.13182        -2.09186         1.97566
| 90>    H        5.35410        -3.15845         0.63458
| 91>    H        6.11776        -6.84502         0.91805
| 92>    H        3.32498        -3.83166        -0.29107
| 93>    H       -0.75377        -7.97866        -2.52139
| 94>    H       -1.97802        -5.88738        -3.02046
| 95>    H       -0.99869        -3.70671        -2.44791
| 96>    H        1.21209        -3.57170        -1.36876
| 97>    H        4.20890        -9.49491        -1.90862
| 98>    H        6.15653       -11.11568         2.35836
| 99>    H        5.46286        -8.76581         2.11749
|100>    H        5.29610       -11.12082        -3.60398
|101>    H        5.62533       -12.84516        -3.78841
|102>    H        7.29480       -10.90265        -2.11946
|103>    H        7.73179       -11.54026        -3.70689
|104>    H        7.62698       -12.62384        -2.31723
|105>    H        3.37082       -13.37866        -2.93745
|106>    H        3.04185       -11.65087        -2.77619
|107>    H        2.85220       -13.68840        -0.50621
|108>    H        1.48807       -12.99202        -1.38525
|109>    H        2.50151       -11.96366        -0.37112
|110>    H        5.29849       -15.07538        -2.45550
|111>    H        6.94893       -15.99605         1.38806
|112>    H        6.66639       -13.66921         2.09914
|113>    H        5.83956       -17.26769        -1.99944
|114>    H        7.52037       -17.83268         0.48605
|115>    H        5.58144       -19.33416        -2.37886
|116>    H        8.74211       -19.82821         0.46172
|117>    H        9.65527       -25.80426        -1.03011
|118>    H       11.31693       -25.57435         0.78911
|119>    H       11.61898       -23.41899         1.93134
|120>    H       10.27452       -21.45913         1.28328
|121>    H        4.64005       -21.39192        -3.43590
|122>    H        4.09642       -22.64307        -5.56684
|123>    H        5.24835       -23.74095        -7.58456
|124>    H        6.75413       -24.59909        -9.14411
|125>    H        8.81862       -25.36741       -10.47179
|126>    H       11.46464       -25.43326       -10.25526
|127>    H       12.21200       -24.76764        -8.71278
|128> *
|129>
|130>                          ****END OF INPUT****

CARTESIAN COORDINATES (ANGSTROEM)
---------------------------------
  C     10.964100   -7.932690    6.758530
  C     10.474080   -6.888610    6.078110
  C     10.847640   -5.507310    6.201170
  C     10.176680   -4.670780    5.381550
  C      9.218960   -5.310580    4.542820
  S      9.212490   -7.040580    4.845140
  C      8.390180   -4.724440    3.623540
  C      8.283590   -3.346780    3.291610
  C      7.353030   -3.077450    2.347120
  C      6.644220   -4.217680    1.855280
  S      7.260390   -5.660450    2.660370
  C      5.625850   -4.157010    0.957310
  C      4.814470   -5.212260    0.416310
  C      5.167520   -6.568170    0.491870
  C      4.362380   -7.577850   -0.009940
  C      3.153150   -7.205990   -0.603080
  C      2.776310   -5.854610   -0.707670
  C      3.614170   -4.869110   -0.212800
  C      1.486350   -5.698110   -1.332380
  C      0.911150   -6.934320   -1.666670
  S      1.935690   -8.287410   -1.243030
  C     -0.331140   -7.017350   -2.273300
  C     -1.008050   -5.844920   -2.548300
  C     -0.452850   -4.610930   -2.223510
  C      0.785060   -4.531110   -1.619050
  C      4.777810   -8.982820    0.101410
  C      4.610590   -9.857430   -0.974280
  C      4.985250  -11.172840   -0.836470
  C      5.540740  -11.637410    0.365570
  C      5.726080  -10.769850    1.430450
  C      5.342490   -9.448720    1.289200
  C      5.825960  -13.051960    0.221240
  C      5.439360  -13.456350   -1.066890
  C      4.876080  -12.290570   -1.845580
  C      5.712960  -11.998070   -3.104380
  C      7.183680  -11.750910   -2.791200
  C      3.409270  -12.532830   -2.247320
  C      2.507500  -12.812240   -1.051270
  C      5.595990  -14.761220   -1.464420
  C      6.156790  -15.699860   -0.585060
  C      6.533310  -15.279880    0.695910
  C      6.372080  -13.970520    1.104550
  C      6.312570  -17.064060   -1.047290
  C      6.996110  -18.043270   -0.436580
  C      7.153940  -19.402010   -0.919830
  C      6.359510  -19.938120   -1.937540
  C      6.535580  -21.228130   -2.429570
  C      7.514350  -22.021780   -1.819710
  C      8.302400  -21.520290   -0.768400
  C      8.126980  -20.214110   -0.337610
  C      9.199240  -22.517780   -0.241030
  C      9.040420  -23.756830   -0.881330
  S      7.821400  -23.712280   -2.133490
  C      9.793940  -24.862260   -0.522710
  C     10.719430  -24.725050    0.493510
  C     10.889560  -23.504220    1.139660
  C     10.138010  -22.404410    0.780010
  C      5.680410  -21.685540   -3.507510
  C      6.048070  -22.356750   -4.623730
  C      5.159100  -22.783220   -5.662400
  C      5.766190  -23.360530   -6.722080
  C      7.184360  -23.427720   -6.614310
  S      7.707010  -22.735200   -5.088580
  C      8.068590  -23.934510   -7.527930
  C      7.768740  -24.508620   -8.798160
  C      8.849530  -24.912660   -9.497310
  C     10.104600  -24.689360   -8.835040
  S      9.804020  -23.937110   -7.259920
  C     11.330390  -24.978580   -9.289570
  H     11.730370   -7.793430    7.500490
  H     10.613130   -8.933940    6.588390
  H     11.605400   -5.206140    6.902820
  H     10.329790   -3.606560    5.342880
  H      8.895950   -2.602540    3.768820
  H      7.131820   -2.091860    1.975660
  H      5.354100   -3.158450    0.634580
  H      6.117760   -6.845020    0.918050
  H      3.324980   -3.831660   -0.291070
  H     -0.753770   -7.978660   -2.521390
  H     -1.978020   -5.887380   -3.020460
  H     -0.998690   -3.706710   -2.447910
  H      1.212090   -3.571700   -1.368760
  H      4.208900   -9.494910   -1.908620
  H      6.156530  -11.115680    2.358360
  H      5.462860   -8.765810    2.117490
  H      5.296100  -11.120820   -3.603980
  H      5.625330  -12.845160   -3.788410
  H      7.294800  -10.902650   -2.119460
  H      7.731790  -11.540260   -3.706890
  H      7.626980  -12.623840   -2.317230
  H      3.370820  -13.378660   -2.937450
  H      3.041850  -11.650870   -2.776190
  H      2.852200  -13.688400   -0.506210
  H      1.488070  -12.992020   -1.385250
  H      2.501510  -11.963660   -0.371120
  H      5.298490  -15.075380   -2.455500
  H      6.948930  -15.996050    1.388060
  H      6.666390  -13.669210    2.099140
  H      5.839560  -17.267690   -1.999440
  H      7.520370  -17.832680    0.486050
  H      5.581440  -19.334160   -2.378860
  H      8.742110  -19.828210    0.461720
  H      9.655270  -25.804260   -1.030110
  H     11.316930  -25.574350    0.789110
  H     11.618980  -23.418990    1.931340
  H     10.274520  -21.459130    1.283280
  H      4.640050  -21.391920   -3.435900
  H      4.096420  -22.643070   -5.566840
  H      5.248350  -23.740950   -7.584560
  H      6.754130  -24.599090   -9.144110
  H      8.818620  -25.367410  -10.471790
  H     11.464640  -25.433260  -10.255260
  H     12.212000  -24.767640   -8.712780

 Total Charge           Charge          ....    0
 Multiplicity           Mult            ....    1
 Number of Electrons    NEL             ....  518
 Basis Dimension        Dim             .... 1210

ORBITAL ENERGIES
----------------

  NO   OCC          E(Eh)            E(eV)
   0   2.0000     -88.938111     -2420.1290
   1   2.0000     -88.936954     -2420.0975
   2   2.0000     -88.932952     -2419.9887
   3   2.0000     -88.931450     -2419.9478
   4   2.0000     -88.931372     -2419.9457
   5   2.0000     -88.929497     -2419.8946
   6   2.0000     -10.302515      -280.3457
   7   2.0000     -10.301319      -280.3131
   8   2.0000     -10.301227      -280.3106
   9   2.0000     -10.300348      -280.2867
  10   2.0000     -10.299599      -280.2663
  11   2.0000     -10.299328      -280.2590
  12   2.0000     -10.299265      -280.2572
  13   2.0000     -10.298945      -280.2485
  14   2.0000     -10.292750      -280.0800
  15   2.0000     -10.291519      -280.0465
  16   2.0000     -10.290156      -280.0094
  17   2.0000     -10.287374      -279.9337
  18   2.0000     -10.283858      -279.8380
  19   2.0000     -10.282826      -279.8099
  20   2.0000     -10.280413      -279.7442
  21   2.0000     -10.280341      -279.7423
  22   2.0000     -10.278550      -279.6936
  23   2.0000     -10.278217      -279.6845
  24   2.0000     -10.277833      -279.6740
  25   2.0000     -10.277628      -279.6685
  26   2.0000     -10.276824      -279.6466
  27   2.0000     -10.276242      -279.6308
  28   2.0000     -10.273557      -279.5577
  29   2.0000     -10.272978      -279.5419
  30   2.0000     -10.272319      -279.5240
  31   2.0000     -10.271472      -279.5010
  32   2.0000     -10.270630      -279.4780
  33   2.0000     -10.270620      -279.4778
  34   2.0000     -10.269775      -279.4548
  35   2.0000     -10.269228      -279.4399
  36   2.0000     -10.268847      -279.4295
  37   2.0000     -10.268844      -279.4295
  38   2.0000     -10.267936      -279.4047
  39   2.0000     -10.267872      -279.4030
  40   2.0000     -10.267175      -279.3840
  41   2.0000     -10.267141      -279.3831
  42   2.0000     -10.266974      -279.3786
  43   2.0000     -10.266138      -279.3558
  44   2.0000     -10.265274      -279.3323
  45   2.0000     -10.264723      -279.3173
  46   2.0000     -10.264216      -279.3035
  47   2.0000     -10.263402      -279.2814
  48   2.0000     -10.263286      -279.2782
  49   2.0000     -10.263259      -279.2775
  50   2.0000     -10.262785      -279.2646
  51   2.0000     -10.262314      -279.2518
  52   2.0000     -10.262163      -279.2476
  53   2.0000     -10.261411      -279.2272
  54   2.0000     -10.261370      -279.2261
  55   2.0000     -10.260818      -279.2111
  56   2.0000     -10.260203      -279.1943
  57   2.0000     -10.259578      -279.1773
  58   2.0000     -10.259018      -279.1621
  59   2.0000     -10.258696      -279.1533
  60   2.0000     -10.258673      -279.1527
  61   2.0000     -10.258628      -279.1515
  62   2.0000     -10.258566      -279.1498
  63   2.0000     -10.256939      -279.1055
  64   2.0000     -10.256590      -279.0960
  65   2.0000     -10.253302      -279.0065
  66   2.0000     -10.253170      -279.0029
  67   2.0000     -10.236445      -278.5478
  68   2.0000     -10.236390      -278.5463
  69   2.0000      -8.033549      -218.6040
  70   2.0000      -8.032593      -218.5780
  71   2.0000      -8.028436      -218.4649
  72   2.0000      -8.028021      -218.4536
  73   2.0000      -8.027465      -218.4384
  74   2.0000      -8.026220      -218.4045
  75   2.0000      -6.003305      -163.3582
  76   2.0000      -6.002426      -163.3343
  77   2.0000      -5.999275      -163.2486
  78   2.0000      -5.998404      -163.2249
  79   2.0000      -5.998144      -163.2178
  80   2.0000      -5.997896      -163.2110
  81   2.0000      -5.997313      -163.1952
  82   2.0000      -5.996095      -163.1621
  83   2.0000      -5.994537      -163.1197
  84   2.0000      -5.994071      -163.1070
  85   2.0000      -5.993960      -163.1039
  86   2.0000      -5.993393      -163.0885
  87   2.0000      -5.993252      -163.0847
  88   2.0000      -5.992152      -163.0547
  89   2.0000      -5.989513      -162.9829
  90   2.0000      -5.988488      -162.9551
  91   2.0000      -5.988109      -162.9447
  92   2.0000      -5.986659      -162.9053
  93   2.0000      -0.989527       -26.9264
  94   2.0000      -0.986951       -26.8563
  95   2.0000      -0.984482       -26.7891
  96   2.0000      -0.981436       -26.7062
  97   2.0000      -0.976790       -26.5798
  98   2.0000      -0.962145       -26.1813
  99   2.0000      -0.960148       -26.1270
 100   2.0000      -0.946628       -25.7591
 101   2.0000      -0.941111       -25.6089
 102   2.0000      -0.931465       -25.3464
 103   2.0000      -0.910298       -24.7705
 104   2.0000      -0.905898       -24.6507
 105   2.0000      -0.900778       -24.5114
 106   2.0000      -0.888373       -24.1739
 107   2.0000      -0.879324       -23.9276
 108   2.0000      -0.875563       -23.8253
 109   2.0000      -0.866211       -23.5708
 110   2.0000      -0.862541       -23.4709
 111   2.0000      -0.855291       -23.2736
 112   2.0000      -0.847485       -23.0612
 113   2.0000      -0.838446       -22.8153
 114   2.0000      -0.836970       -22.7751
 115   2.0000      -0.834055       -22.6958
 116   2.0000      -0.827964       -22.5301
 117   2.0000      -0.827259       -22.5108
 118   2.0000      -0.822114       -22.3709
 119   2.0000      -0.821246       -22.3472
 120   2.0000      -0.816691       -22.2233
 121   2.0000      -0.811839       -22.0913
 122   2.0000      -0.809931       -22.0394
 123   2.0000      -0.803562       -21.8660
 124   2.0000      -0.798518       -21.7288
 125   2.0000      -0.794950       -21.6317
 126   2.0000      -0.789476       -21.4827
 127   2.0000      -0.770595       -20.9689
 128   2.0000      -0.763737       -20.7823
 129   2.0000      -0.759000       -20.6534
 130   2.0000      -0.750977       -20.4351
 131   2.0000      -0.723106       -19.6767
 132   2.0000      -0.720749       -19.6126
 133   2.0000      -0.715962       -19.4823
 134   2.0000      -0.713361       -19.4115
 135   2.0000      -0.704665       -19.1749
 136   2.0000      -0.702595       -19.1186
 137   2.0000      -0.680372       -18.5139
 138   2.0000      -0.678209       -18.4550
 139   2.0000      -0.675716       -18.3872
 140   2.0000      -0.669781       -18.2257
 141   2.0000      -0.665586       -18.1115
 142   2.0000      -0.664275       -18.0758
 143   2.0000      -0.663924       -18.0663
 144   2.0000      -0.657706       -17.8971
 145   2.0000      -0.655880       -17.8474
 146   2.0000      -0.652326       -17.7507
 147   2.0000      -0.645012       -17.5517
 148   2.0000      -0.634525       -17.2663
 149   2.0000      -0.628322       -17.0975
 150   2.0000      -0.622987       -16.9523
 151   2.0000      -0.616473       -16.7751
 152   2.0000      -0.611179       -16.6310
 153   2.0000      -0.609406       -16.5828
 154   2.0000      -0.604951       -16.4615
 155   2.0000      -0.592371       -16.1192
 156   2.0000      -0.591783       -16.1032
 157   2.0000      -0.589758       -16.0481
 158   2.0000      -0.583365       -15.8742
 159   2.0000      -0.579615       -15.7721
 160   2.0000      -0.578028       -15.7290
 161   2.0000      -0.575572       -15.6621
 162   2.0000      -0.569823       -15.5057
 163   2.0000      -0.564173       -15.3519
 164   2.0000      -0.563412       -15.3312
 165   2.0000      -0.550337       -14.9754
 166   2.0000      -0.547039       -14.8857
 167   2.0000      -0.543740       -14.7959
 168   2.0000      -0.540840       -14.7170
 169   2.0000      -0.532778       -14.4976
 170   2.0000      -0.527901       -14.3649
 171   2.0000      -0.526183       -14.3182
 172   2.0000      -0.524800       -14.2805
 173   2.0000      -0.523688       -14.2503
 174   2.0000      -0.518842       -14.1184
 175   2.0000      -0.517078       -14.0704
 176   2.0000      -0.514781       -14.0079
 177   2.0000      -0.512848       -13.9553
 178   2.0000      -0.507688       -13.8149
 179   2.0000      -0.507553       -13.8112
 180   2.0000      -0.504455       -13.7269
 181   2.0000      -0.503301       -13.6955
 182   2.0000      -0.501523       -13.6471
 183   2.0000      -0.499340       -13.5877
 184   2.0000      -0.498183       -13.5563
 185   2.0000      -0.495292       -13.4776
 186   2.0000      -0.493678       -13.4337
 187   2.0000      -0.492914       -13.4129
 188   2.0000      -0.491679       -13.3793
 189   2.0000      -0.488825       -13.3016
 190   2.0000      -0.486593       -13.2409
 191   2.0000      -0.485631       -13.2147
 192   2.0000      -0.482648       -13.1335
 193   2.0000      -0.479317       -13.0429
 194   2.0000      -0.478136       -13.0107
 195   2.0000      -0.477424       -12.9914
 196   2.0000      -0.474486       -12.9114
 197   2.0000      -0.473496       -12.8845
 198   2.0000      -0.467757       -12.7283
 199   2.0000      -0.464421       -12.6375
 200   2.0000      -0.463720       -12.6185
 201   2.0000      -0.460415       -12.5285
 202   2.0000      -0.457691       -12.4544
 203   2.0000      -0.455094       -12.3837
 204   2.0000      -0.453118       -12.3300
 205   2.0000      -0.449140       -12.2217
 206   2.0000      -0.448699       -12.2097
 207   2.0000      -0.446815       -12.1584
 208   2.0000      -0.441192       -12.0054
 209   2.0000      -0.439320       -11.9545
 210   2.0000      -0.437326       -11.9002
 211   2.0000      -0.431539       -11.7428
 212   2.0000      -0.431049       -11.7294
 213   2.0000      -0.429386       -11.6842
 214   2.0000      -0.423802       -11.5322
 215   2.0000      -0.421770       -11.4769
 216   2.0000      -0.420608       -11.4453
 217   2.0000      -0.420331       -11.4378
 218   2.0000      -0.418002       -11.3744
 219   2.0000      -0.416115       -11.3231
 220   2.0000      -0.414753       -11.2860
 221   2.0000      -0.412851       -11.2343
 222   2.0000      -0.409922       -11.1546
 223   2.0000      -0.409603       -11.1459
 224   2.0000      -0.408208       -11.1079
 225   2.0000      -0.404102       -10.9962
 226   2.0000      -0.400870       -10.9082
 227   2.0000      -0.398363       -10.8400
 228   2.0000      -0.396653       -10.7935
 229   2.0000      -0.394572       -10.7369
 230   2.0000      -0.391302       -10.6479
 231   2.0000      -0.386718       -10.5231
 232   2.0000      -0.386133       -10.5072
 233   2.0000      -0.382163       -10.3992
 234   2.0000      -0.381069       -10.3694
 235   2.0000      -0.378248       -10.2926
 236   2.0000      -0.374215       -10.1829
 237   2.0000      -0.371563       -10.1107
 238   2.0000      -0.369000       -10.0410
 239   2.0000      -0.355414        -9.6713
 240   2.0000      -0.351412        -9.5624
 241   2.0000      -0.344338        -9.3699
 242   2.0000      -0.333423        -9.0729
 243   2.0000      -0.331456        -9.0194
 244   2.0000      -0.328914        -8.9502
 245   2.0000      -0.320680        -8.7262
 246   2.0000      -0.318956        -8.6792
 247   2.0000      -0.310349        -8.4450
 248   2.0000      -0.306370        -8.3368
 249   2.0000      -0.303424        -8.2566
 250   2.0000      -0.301722        -8.2103
 251   2.0000      -0.296500        -8.0682
 252   2.0000      -0.281623        -7.6634
 253   2.0000      -0.276658        -7.5282
 254   2.0000      -0.270766        -7.3679
 255   2.0000      -0.261527        -7.1165
 256   2.0000      -0.237467        -6.4618
 257   2.0000      -0.218059        -5.9337
 258   2.0000      -0.214284        -5.8310
 259   0.0000      -0.054494        -1.4828
 260   0.0000      -0.050862        -1.3840
 261   0.0000      -0.024724        -0.6728
 262   0.0000      -0.002056        -0.0560
 263   0.0000       0.001062         0.0289

MULLIKEN ATOMIC CHARGES
-----------------------
   0 C :   -0.035822
   1 C :   -0.059876
   2 C :    0.050216
   3 C :    0.029768
   4 C :   -0.067947
   5 S :    0.073942
   6 C :   -0.043860
   7 C :    0.031604
   8 C :    0.034777
   9 C :   -0.006355
  10 S :    0.053990
  11 C :   -0.044772
  12 C :    0.141539
  13 C :   -0.100739
  14 C :    0.092577
  15 C :   -0.123801
  16 C :    0.144183
  17 C :   -0.127965
  18 C :    0.104868
  19 C :   -0.054832
  20 S :    0.113835
  21 C :   -0.017599
  22 C :    0.027301
  23 C :    0.029549
  24 C :   -0.045476
  25 C :    0.037963
  26 C :   -0.091106
  27 C :   -0.002774
  28 C :    0.119168
  29 C :   -0.055238
  30 C :   -0.005743
  31 C :    0.108289
  32 C :    0.020583
  33 C :   -0.140524
  34 C :    0.068690
  35 C :    0.025453
  36 C :    0.067979
  37 C :    0.026201
  38 C :   -0.114146
  39 C :    0.129337
  40 C :   -0.019504
  41 C :   -0.047144
  42 C :    0.004722
  43 C :    0.006274
  44 C :    0.145394
  45 C :   -0.085034
  46 C :    0.086476
  47 C :   -0.124504
  48 C :    0.141717
  49 C :   -0.120417
  50 C :    0.102563
  51 C :   -0.064555
  52 S :    0.142251
  53 C :   -0.013047
  54 C :    0.024645
  55 C :    0.024617
  56 C :   -0.040887
  57 C :   -0.092158
  58 C :   -0.021233
  59 C :    0.034613
  60 C :    0.034119
  61 C :   -0.063977
  62 S :    0.104050
  63 C :   -0.068139
  64 C :    0.026352
  65 C :    0.055766
  66 C :   -0.065806
  67 S :    0.078497
  68 C :   -0.031180
  69 H :    0.018301
  70 H :    0.019897
  71 H :   -0.013082
  72 H :   -0.012336
  73 H :   -0.016633
  74 H :   -0.015600
  75 H :   -0.023172
  76 H :   -0.013255
  77 H :   -0.039683
  78 H :   -0.024754
  79 H :   -0.013464
  80 H :   -0.018883
  81 H :   -0.030761
  82 H :   -0.025445
  83 H :   -0.037072
  84 H :   -0.022658
  85 H :   -0.002142
  86 H :   -0.003645
  87 H :    0.022045
  88 H :    0.006324
  89 H :    0.022364
  90 H :   -0.005190
  91 H :   -0.002024
  92 H :    0.020111
  93 H :    0.004322
  94 H :    0.023440
  95 H :   -0.045535
  96 H :   -0.033014
  97 H :   -0.040360
  98 H :   -0.026945
  99 H :   -0.027527
 100 H :   -0.039726
 101 H :   -0.039934
 102 H :   -0.024322
 103 H :   -0.014379
 104 H :   -0.018760
 105 H :   -0.031360
 106 H :   -0.001474
 107 H :   -0.013233
 108 H :   -0.016681
 109 H :   -0.013959
 110 H :   -0.014756
 111 H :    0.016694
 112 H :    0.020558
Sum of atomic charges:    0.0000000

LOEWDIN ATOMIC CHARGES
----------------------
   0 C :   -0.081424
   1 C :   -0.138894
   2 C :   -0.033256
   3 C :   -0.026410
   4 C :   -0.178930
   5 S :    0.344925
   6 C :   -0.180809
   7 C :   -0.036531
   8 C :   -0.029481
   9 C :   -0.143995
  10 S :    0.369603
  11 C :   -0.050943
  12 C :   -0.032130
  13 C :   -0.020407
  14 C :   -0.028444
  15 C :   -0.140089
  16 C :   -0.039420
  17 C :   -0.010946
  18 C :   -0.041734
  19 C :   -0.146041
  20 S :    0.392566
  21 C :   -0.041269
  22 C :   -0.021203
  23 C :   -0.030943
  24 C :   -0.013987
  25 C :   -0.023761
  26 C :   -0.030369
  27 C :    0.004094
  28 C :   -0.017340
  29 C :   -0.017553
  30 C :   -0.015841
  31 C :   -0.019268
  32 C :    0.002629
  33 C :   -0.035666
  34 C :   -0.011885
  35 C :   -0.057683
  36 C :   -0.011980
  37 C :   -0.057828
  38 C :   -0.023519
  39 C :   -0.022700
  40 C :   -0.017196
  41 C :   -0.017789
  42 C :   -0.019736
  43 C :   -0.018266
  44 C :   -0.028863
  45 C :   -0.005691
  46 C :   -0.048282
  47 C :   -0.151387
  48 C :   -0.037505
  49 C :   -0.011744
  50 C :   -0.043117
  51 C :   -0.145645
  52 S :    0.396834
  53 C :   -0.041514
  54 C :   -0.021658
  55 C :   -0.032778
  56 C :   -0.014155
  57 C :   -0.065517
  58 C :   -0.145642
  59 C :   -0.032126
  60 C :   -0.031604
  61 C :   -0.181930
  62 S :    0.369759
  63 C :   -0.178040
  64 C :   -0.026703
  65 C :   -0.032783
  66 C :   -0.139114
  67 S :    0.348083
  68 C :   -0.080889
  69 H :    0.027701
  70 H :    0.025393
  71 H :    0.032663
  72 H :    0.031842
  73 H :    0.030504
  74 H :    0.032000
  75 H :    0.031710
  76 H :    0.013170
  77 H :    0.024679
  78 H :    0.028839
  79 H :    0.028741
  80 H :    0.027591
  81 H :    0.026647
  82 H :    0.018376
  83 H :    0.026388
  84 H :    0.028550
  85 H :    0.019911
  86 H :    0.019124
  87 H :    0.025813
  88 H :    0.023017
  89 H :    0.025794
  90 H :    0.018401
  91 H :    0.019889
  92 H :    0.025056
  93 H :    0.022256
  94 H :    0.025460
  95 H :    0.022096
  96 H :    0.024121
  97 H :    0.025642
  98 H :    0.023990
  99 H :    0.023841
 100 H :    0.024665
 101 H :    0.024782
 102 H :    0.029066
 103 H :    0.028308
 104 H :    0.027190
 105 H :    0.026408
 106 H :    0.034763
 107 H :    0.032324
 108 H :    0.030377
 109 H :    0.031313
 110 H :    0.032338
 111 H :    0.027404
 112 H :    0.025712

  Mayer bond orders larger than 0.100000
B(  0-C ,  1-C ) :   1.8658 B(  0-C , 69-H ) :   0.9512 B(  0-C , 70-H ) :   0.9421
B(  1-C ,  2-C ) :   1.0773 B(  1-C ,  5-S ) :   1.0084 B(  2-C ,  3-C ) :   1.6683
B(  2-C , 71-H ) :   0.9930 B(  3-C ,  4-C ) :   1.1457 B(  3-C , 72-H ) :   0.9910
B(  4-C ,  5-S ) :   1.0367 B(  4-C ,  6-C ) :   1.5821 B(  6-C ,  7-C ) :   1.1518
B(  6-C , 10-S ) :   1.0279 B(  7-C ,  8-C ) :   1.6354 B(  7-C , 73-H ) :   0.9912
B(  8-C ,  9-C ) :   1.1089 B(  8-C , 74-H ) :   0.9985 B(  9-C , 10-S ) :   1.0185
B(  9-C , 11-C ) :   1.6425 B( 11-C , 12-C ) :   1.0666 B( 11-C , 75-H ) :   0.9709
B( 12-C , 13-C ) :   1.2751 B( 12-C , 17-C ) :   1.3263 B( 13-C , 14-C ) :   1.4465
B( 13-C , 76-H ) :   0.9705 B( 14-C , 15-C ) :   1.3813 B( 14-C , 25-C ) :   0.9300
B( 15-C , 16-C ) :   1.3284 B( 15-C , 20-S ) :   1.0442 B( 16-C , 17-C ) :   1.3329
B( 16-C , 18-C ) :   1.0522 B( 17-C , 77-H ) :   1.0013 B( 18-C , 19-C ) :   1.3531
B( 18-C , 24-C ) :   1.3507 B( 19-C , 20-S ) :   1.0156 B( 19-C , 21-C ) :   1.3604
B( 21-C , 22-C ) :   1.4210 B( 21-C , 78-H ) :   0.9946 B( 22-C , 23-C ) :   1.3523
B( 22-C , 79-H ) :   0.9879 B( 23-C , 24-C ) :   1.4143 B( 23-C , 80-H ) :   0.9861
B( 24-C , 81-H ) :   0.9907 B( 25-C , 26-C ) :   1.3310 B( 25-C , 30-C ) :   1.3974
B( 26-C , 27-C ) :   1.3974 B( 26-C , 82-H ) :   0.9907 B( 27-C , 28-C ) :   1.3752
B( 27-C , 33-C ) :   0.9154 B( 28-C , 29-C ) :   1.3453 B( 28-C , 31-C ) :   0.9873
B( 29-C , 30-C ) :   1.3701 B( 29-C , 83-H ) :   0.9926 B( 30-C , 84-H ) :   0.9859
B( 31-C , 32-C ) :   1.3754 B( 31-C , 41-C ) :   1.3356 B( 32-C , 33-C ) :   0.9136
B( 32-C , 38-C ) :   1.3766 B( 33-C , 34-C ) :   1.0380 B( 33-C , 36-C ) :   1.0392
B( 34-C , 35-C ) :   1.1013 B( 34-C , 85-H ) :   0.9393 B( 34-C , 86-H ) :   0.9389
B( 35-C , 87-H ) :   0.9648 B( 35-C , 88-H ) :   0.9635 B( 35-C , 89-H ) :   0.9642
B( 36-C , 37-C ) :   1.1012 B( 36-C , 90-H ) :   0.9390 B( 36-C , 91-H ) :   0.9381
B( 37-C , 92-H ) :   0.9648 B( 37-C , 93-H ) :   0.9635 B( 37-C , 94-H ) :   0.9634
B( 38-C , 39-C ) :   1.2872 B( 38-C , 95-H ) :   1.0124 B( 39-C , 40-C ) :   1.3553
B( 39-C , 42-C ) :   1.0579 B( 40-C , 41-C ) :   1.3953 B( 40-C , 96-H ) :   0.9833
B( 41-C , 97-H ) :   0.9890 B( 42-C , 43-C ) :   1.7174 B( 42-C , 98-H ) :   0.9779
B( 43-C , 44-C ) :   1.0450 B( 43-C , 99-H ) :   0.9772 B( 44-C , 45-C ) :   1.3113
B( 44-C , 49-C ) :   1.3301 B( 45-C , 46-C ) :   1.3967 B( 45-C ,100-H ) :   0.9934
B( 46-C , 47-C ) :   1.3502 B( 46-C , 57-C ) :   0.9960 B( 47-C , 48-C ) :   1.3321
B( 47-C , 52-S ) :   1.0574 B( 48-C , 49-C ) :   1.3262 B( 48-C , 50-C ) :   1.0605
B( 49-C ,101-H ) :   1.0013 B( 50-C , 51-C ) :   1.3476 B( 50-C , 56-C ) :   1.3489
B( 51-C , 52-S ) :   1.0270 B( 51-C , 53-C ) :   1.3621 B( 53-C , 54-C ) :   1.4216
B( 53-C ,102-H ) :   0.9936 B( 54-C , 55-C ) :   1.3513 B( 54-C ,103-H ) :   0.9882
B( 55-C , 56-C ) :   1.4163 B( 55-C ,104-H ) :   0.9863 B( 56-C ,105-H ) :   0.9897
B( 57-C , 58-C ) :   1.7119 B( 57-C ,106-H ) :   0.9634 B( 58-C , 59-C ) :   1.0921
B( 58-C , 62-S ) :   1.0320 B( 59-C , 60-C ) :   1.6529 B( 59-C ,107-H ) :   0.9977
B( 60-C , 61-C ) :   1.1416 B( 60-C ,108-H ) :   0.9917 B( 61-C , 62-S ) :   1.0363
B( 61-C , 63-C ) :   1.5907 B( 63-C , 64-C ) :   1.1427 B( 63-C , 67-S ) :   1.0381
B( 64-C , 65-C ) :   1.6713 B( 64-C ,109-H ) :   0.9918 B( 65-C , 66-C ) :   1.0765
B( 65-C ,110-H ) :   0.9919 B( 66-C , 67-S ) :   1.0080 B( 66-C , 68-C ) :   1.8703
B( 68-C ,111-H ) :   0.9499 B( 68-C ,112-H ) :   0.9415

-----------------------------------------------------------------------------
         ABSORPTION SPECTRUM VIA TRANSITION ELECTRIC DIPOLE MOMENTS
-----------------------------------------------------------------------------
State   Energy  Wavelength   fosc         T2         TX        TY        TZ
        (cm-1)    (nm)                  (au**2)     (au)      (au)      (au)
-----------------------------------------------------------------------------
   0   20907.3    478.3   1.430781366  22.52942  -3.30616   0.30504  -3.39200
   1   22311.2    448.2   1.372168628  20.24694   2.17040  -2.12029  -3.32275
   2   26325.2    379.9   0.057131602   0.71446  -0.69181   0.46571  -0.13776
   3   27868.4    358.8   0.092589480   1.09377  -0.37719   0.95453  -0.20090
   4   29210.1    342.3   0.263585419   2.97074   0.70001  -1.57390   0.05977
   5   29348.2    340.7   0.031604490   0.35452  -0.18627   0.54574   0.14831
   6   30224.2    330.9   0.011105205   0.12096   0.15628  -0.30554   0.05640
   7   30384.7    329.1   0.019171210   0.20772   0.13790  -0.43438   0.00361
   8   30850.0    324.1   1.119926778  11.95117  -0.68289   3.38405   0.18174
   9   31005.6    322.5   0.795246853   8.44378   0.68825  -2.82234  -0.06723
  10   31592.4    316.5   0.017322097   0.18051  -0.39537  -0.03040   0.15254
  11   32531.2    307.4   0.016592023   0.16791   0.35206   0.20653   0.03616
  12   32701.3    305.8   0.088483975   0.89079  -0.07783  -0.94059   0.00538
  13   33970.5    294.4   0.171834076   1.66526  -0.72382  -1.05741  -0.15243
  14   34375.0    290.9   0.022417972   0.21470  -0.15257  -0.38938   0.19951
  15   34965.1    286.0   0.078634980   0.74038  -0.15651   0.83167  -0.15560
  16   35111.7    284.8   0.187375346   1.75685   1.11891  -0.08088   0.70594
  17   35726.9    279.9   0.007076916   0.06521   0.16972  -0.15422   0.11234
  18   35877.3    278.7   0.054408577   0.49926   0.34767   0.59766   0.14555
  19   36308.0    275.4   0.002810407   0.02548   0.10745  -0.08808   0.07861
  20   36389.0    274.8   0.000476736   0.00431   0.03033  -0.05661   0.01372
  21   36858.2    271.3   0.006373622   0.05693  -0.01235   0.12034  -0.20565
  22   37143.6    269.2   0.029217659   0.25896  -0.13390  -0.49095   0.00054
  23   38353.5    260.7   0.005007778   0.04298  -0.14360  -0.13307  -0.06824
  24   38571.2    259.3   0.002819318   0.02406   0.14294   0.05431   0.02610
  25   38737.8    258.1   0.014784189   0.12564  -0.34366   0.08150  -0.03001
  26   39256.8    254.7   0.041355570   0.34681   0.42238   0.28010   0.29992
  27   39419.2    253.7   0.007046682   0.05885   0.16466   0.17248   0.04458
  28   39949.8    250.3   0.046423881   0.38256  -0.41487   0.08722  -0.45037

FINAL SINGLE POINT ENERGY     -4812.459943815435

DIPOLE MOMENT
-------------
                                X             Y             Z
Electronic contribution:      7.21104     -16.67844       3.89000
Nuclear contribution   :     -7.38754      17.46402      -4.25680
                        -----------------------------------------
Total Dipole Moment    :     -0.17651       0.78558      -0.36680
                        -----------------------------------------
Magnitude (a.u.)       :      0.88478
Magnitude (Debye)      :      2.24892

Rotational constants in cm-1:     0.001231     0.000245     0.000217
Rotational constants in MHz :    36.917817     7.338048     6.503201

                             ****ORCA TERMINATED NORMALLY****
TOTAL RUN TIME: 0 days 0 hours 9 minutes 16 seconds 992 msec
