                         Program Version 4.2.0 -  RELEASE  -
|  1> # ORCA input file
|  2> # SCF done       -215.227614491376          0.000378372552
|  3> ! CAM-B3LYP def2-SVP def2/J RIJCOSX Grid4 TightSCF
|  4> %maxcore 5000
|  5> %tddft
|  6>     Mode sTDDFT
|  7>     Ethresh 5.0
|  8>     maxcore 5000
|  9> end
| 10>
| 11> %pal
| 12>   nprocs 6
| 13>   end
| 14> * xyz 0 1
| 15>    C       -3.54747        -9.42484        -8.23835
| 16>    C       -2.42406        -8.69642        -8.31641
| 17>    C       -2.00236        -7.83888        -9.38459
| 18>    C       -0.80810        -7.23641        -9.17686
| 19>    C       -0.19617        -7.56490        -7.93808
| 20>    S       -1.20035        -8.67462        -7.03609
| 21>    C        1.01634        -7.11212        -7.45562
| 22>    C        1.92735        -6.23032        -8.07269
| 23>    C        3.04458        -5.98661        -7.32708
| 24>    C        3.07349        -6.65797        -6.08643
| 25>    S        1.62845        -7.62007        -5.89201
| 26>    C        4.08957        -6.57257        -5.14948
| 27>    C        4.15363        -7.20157        -3.91772
| 28>    S        2.91268        -8.25175        -3.30885
| 29>    C        3.72860        -8.51388        -1.78019
| 30>    C        4.98088        -7.84332        -1.77584
| 31>    C        5.20715        -7.09873        -2.96537
| 32>    C        6.39217        -6.37428        -3.11441
| 33>    C        7.33899        -6.40193        -2.12028
| 34>    C        8.62133        -5.63509        -2.25717
| 35>    F        8.68018        -4.93580        -3.40498
| 36>    F        8.80190        -4.73983        -1.27252
| 37>    F        9.70629        -6.42790        -2.25551
| 38>    C        7.14789        -7.17635        -0.94644
| 39>    O        8.16616        -7.14866        -0.06234
| 40>    C        8.05654        -7.88205         1.13609
| 41>    C        5.97665        -7.88920        -0.79051
| 42>    C        3.05472        -9.28228        -0.83665
| 43>    C        3.34067        -9.44473         0.50262
| 44>    C        2.60597       -10.25485         1.36028
| 45>    S        1.27225       -11.23708         0.82320
| 46>    C        0.95653       -11.86441         2.42506
| 47>    C        1.87563       -11.31660         3.35404
| 48>    C        2.80150       -10.42162         2.75558
| 49>    C        3.77723        -9.81319         3.55102
| 50>    C        3.82540       -10.08520         4.89552
| 51>    C        4.86834        -9.45078         5.76727
| 52>    F        5.69639        -8.64819         5.07134
| 53>    F        4.34580        -8.68469         6.73878
| 54>    F        5.65940       -10.35076         6.37515
| 55>    C        2.89682       -10.97165         5.50590
| 56>    O        3.05216       -11.14209         6.83634
| 57>    C        2.16726       -11.99752         7.52086
| 58>    C        1.93299       -11.57862         4.72936
| 59>    C       -0.06039       -12.77498         2.67489
| 60>    C       -0.91786       -13.28531         1.72320
| 61>    C       -1.92488       -14.20278         1.99309
| 62>    S       -2.22497       -14.81823         3.59085
| 63>    C       -3.53873       -15.85694         3.07420
| 64>    C       -3.75507       -15.69763         1.67980
| 65>    C       -2.84495       -14.78072         1.08146
| 66>    C       -2.92043       -14.51858        -0.29067
| 67>    C       -3.87840       -15.14022        -1.05086
| 68>    C       -3.98311       -14.87987        -2.52449
| 69>    F       -3.05050       -14.01575        -2.96206
| 70>    F       -3.82878       -15.99183        -3.26328
| 71>    F       -5.16720       -14.35063        -2.87866
| 72>    C       -4.80919       -16.03949        -0.46570
| 73>    O       -5.71238       -16.57345        -1.31449
| 74>    C       -6.66335       -17.48735        -0.81699
| 75>    C       -4.73985       -16.30264         0.88594
| 76>    C       -4.12843       -16.64288         4.06065
| 77>    C       -5.09164       -17.62166         3.93362
| 78>    C       -5.60817       -18.32914         5.01134
| 79>    C       -6.57210       -19.31294         4.89251
| 80>    C       -7.14858       -20.07776         5.92577
| 81>    C       -8.08553       -20.97818         5.50637
| 82>    C       -8.30126       -20.97165         4.11186
| 83>    S       -7.26873       -19.78054         3.34906
| 84>    C       -9.17482       -21.75093         3.38172
| 85>    C      -10.05912       -22.74607         3.87308
| 86>    C      -10.80399       -23.35221         2.91880
| 87>    C      -10.56203       -22.87713         1.58881
| 88>    S       -9.32470       -21.61103         1.64180
| 89>    C      -11.14360       -23.28268         0.45033
| 90>    H       -4.26657        -9.41235        -9.03818
| 91>    H       -3.76337       -10.04012        -7.38446
| 92>    H       -2.61172        -7.71232       -10.26161
| 93>    H       -0.34003        -6.56263        -9.87222
| 94>    H        1.74225        -5.80014        -9.04028
| 95>    H        3.84900        -5.34132        -7.63364
| 96>    H        4.92097        -5.93410        -5.41573
| 97>    H        6.57353        -5.79736        -4.00687
| 98>    H        8.98651        -7.70172         1.67125
| 99>    H        7.95183        -8.95355         0.94113
|100>    H        7.21681        -7.53205         1.74379
|101>    H        5.84091        -8.51003         0.07566
|102>    H        2.16137        -9.77692        -1.20177
|103>    H        4.14560        -8.88815         0.95371
|104>    H        4.49203        -9.13172         3.11864
|105>    H        1.13421       -11.64461         7.44589
|106>    H        2.48509       -11.97022         8.56123
|107>    H        2.23423       -13.02335         7.14618
|108>    H        1.21899       -12.25565         5.16657
|109>    H       -0.18320       -13.11082         3.69610
|110>    H       -0.80172       -12.95759         0.69947
|111>    H       -2.23155       -13.82968        -0.75242
|112>    H       -6.18336       -18.37024        -0.38451
|113>    H       -7.25652       -17.78472        -1.67934
|114>    H       -7.31462       -17.02153        -0.07146
|115>    H       -5.45719       -16.96420         1.33328
|116>    H       -3.75472       -16.46548         5.06330
|117>    H       -5.47344       -17.89396         2.96273
|118>    H       -5.25011       -18.10621         6.00801
|119>    H       -6.85547       -19.94273         6.95230
|120>    H       -8.62197       -21.64026         6.16192
|121>    H      -10.11259       -22.97944         4.92176
|122>    H      -11.52603       -24.12791         3.10190
|123>    H      -11.89170       -24.05538         0.46269
|124>    H      -10.88528       -22.85517        -0.50088
|125> *
|126>
|127>                          ****END OF INPUT****

CARTESIAN COORDINATES (ANGSTROEM)
---------------------------------
  C     -3.547470   -9.424840   -8.238350
  C     -2.424060   -8.696420   -8.316410
  C     -2.002360   -7.838880   -9.384590
  C     -0.808100   -7.236410   -9.176860
  C     -0.196170   -7.564900   -7.938080
  S     -1.200350   -8.674620   -7.036090
  C      1.016340   -7.112120   -7.455620
  C      1.927350   -6.230320   -8.072690
  C      3.044580   -5.986610   -7.327080
  C      3.073490   -6.657970   -6.086430
  S      1.628450   -7.620070   -5.892010
  C      4.089570   -6.572570   -5.149480
  C      4.153630   -7.201570   -3.917720
  S      2.912680   -8.251750   -3.308850
  C      3.728600   -8.513880   -1.780190
  C      4.980880   -7.843320   -1.775840
  C      5.207150   -7.098730   -2.965370
  C      6.392170   -6.374280   -3.114410
  C      7.338990   -6.401930   -2.120280
  C      8.621330   -5.635090   -2.257170
  F      8.680180   -4.935800   -3.404980
  F      8.801900   -4.739830   -1.272520
  F      9.706290   -6.427900   -2.255510
  C      7.147890   -7.176350   -0.946440
  O      8.166160   -7.148660   -0.062340
  C      8.056540   -7.882050    1.136090
  C      5.976650   -7.889200   -0.790510
  C      3.054720   -9.282280   -0.836650
  C      3.340670   -9.444730    0.502620
  C      2.605970  -10.254850    1.360280
  S      1.272250  -11.237080    0.823200
  C      0.956530  -11.864410    2.425060
  C      1.875630  -11.316600    3.354040
  C      2.801500  -10.421620    2.755580
  C      3.777230   -9.813190    3.551020
  C      3.825400  -10.085200    4.895520
  C      4.868340   -9.450780    5.767270
  F      5.696390   -8.648190    5.071340
  F      4.345800   -8.684690    6.738780
  F      5.659400  -10.350760    6.375150
  C      2.896820  -10.971650    5.505900
  O      3.052160  -11.142090    6.836340
  C      2.167260  -11.997520    7.520860
  C      1.932990  -11.578620    4.729360
  C     -0.060390  -12.774980    2.674890
  C     -0.917860  -13.285310    1.723200
  C     -1.924880  -14.202780    1.993090
  S     -2.224970  -14.818230    3.590850
  C     -3.538730  -15.856940    3.074200
  C     -3.755070  -15.697630    1.679800
  C     -2.844950  -14.780720    1.081460
  C     -2.920430  -14.518580   -0.290670
  C     -3.878400  -15.140220   -1.050860
  C     -3.983110  -14.879870   -2.524490
  F     -3.050500  -14.015750   -2.962060
  F     -3.828780  -15.991830   -3.263280
  F     -5.167200  -14.350630   -2.878660
  C     -4.809190  -16.039490   -0.465700
  O     -5.712380  -16.573450   -1.314490
  C     -6.663350  -17.487350   -0.816990
  C     -4.739850  -16.302640    0.885940
  C     -4.128430  -16.642880    4.060650
  C     -5.091640  -17.621660    3.933620
  C     -5.608170  -18.329140    5.011340
  C     -6.572100  -19.312940    4.892510
  C     -7.148580  -20.077760    5.925770
  C     -8.085530  -20.978180    5.506370
  C     -8.301260  -20.971650    4.111860
  S     -7.268730  -19.780540    3.349060
  C     -9.174820  -21.750930    3.381720
  C    -10.059120  -22.746070    3.873080
  C    -10.803990  -23.352210    2.918800
  C    -10.562030  -22.877130    1.588810
  S     -9.324700  -21.611030    1.641800
  C    -11.143600  -23.282680    0.450330
  H     -4.266570   -9.412350   -9.038180
  H     -3.763370  -10.040120   -7.384460
  H     -2.611720   -7.712320  -10.261610
  H     -0.340030   -6.562630   -9.872220
  H      1.742250   -5.800140   -9.040280
  H      3.849000   -5.341320   -7.633640
  H      4.920970   -5.934100   -5.415730
  H      6.573530   -5.797360   -4.006870
  H      8.986510   -7.701720    1.671250
  H      7.951830   -8.953550    0.941130
  H      7.216810   -7.532050    1.743790
  H      5.840910   -8.510030    0.075660
  H      2.161370   -9.776920   -1.201770
  H      4.145600   -8.888150    0.953710
  H      4.492030   -9.131720    3.118640
  H      1.134210  -11.644610    7.445890
  H      2.485090  -11.970220    8.561230
  H      2.234230  -13.023350    7.146180
  H      1.218990  -12.255650    5.166570
  H     -0.183200  -13.110820    3.696100
  H     -0.801720  -12.957590    0.699470
  H     -2.231550  -13.829680   -0.752420
  H     -6.183360  -18.370240   -0.384510
  H     -7.256520  -17.784720   -1.679340
  H     -7.314620  -17.021530   -0.071460
  H     -5.457190  -16.964200    1.333280
  H     -3.754720  -16.465480    5.063300
  H     -5.473440  -17.893960    2.962730
  H     -5.250110  -18.106210    6.008010
  H     -6.855470  -19.942730    6.952300
  H     -8.621970  -21.640260    6.161920
  H    -10.112590  -22.979440    4.921760
  H    -11.526030  -24.127910    3.101900
  H    -11.891700  -24.055380    0.462690
  H    -10.885280  -22.855170   -0.500880

 Total Charge           Charge          ....    0
 Multiplicity           Mult            ....    1
 Number of Electrons    NEL             ....  588
 Basis Dimension        Dim             .... 1253

ORBITAL ENERGIES
----------------

  NO   OCC          E(Eh)            E(eV)
   0   2.0000     -88.965786     -2420.8821
   1   2.0000     -88.958668     -2420.6884
   2   2.0000     -88.956315     -2420.6244
   3   2.0000     -88.953281     -2420.5418
   4   2.0000     -88.949824     -2420.4478
   5   2.0000     -88.934618     -2420.0340
   6   2.0000     -88.929537     -2419.8957
   7   2.0000     -24.789455      -674.5554
   8   2.0000     -24.788598      -674.5321
   9   2.0000     -24.784035      -674.4079
  10   2.0000     -24.779935      -674.2963
  11   2.0000     -24.779788      -674.2923
  12   2.0000     -24.779457      -674.2833
  13   2.0000     -24.779112      -674.2739
  14   2.0000     -24.774397      -674.1456
  15   2.0000     -24.774266      -674.1420
  16   2.0000     -19.256797      -524.0041
  17   2.0000     -19.255470      -523.9680
  18   2.0000     -19.248439      -523.7767
  19   2.0000     -10.504886      -285.8525
  20   2.0000     -10.504736      -285.8484
  21   2.0000     -10.499283      -285.7000
  22   2.0000     -10.350348      -281.6473
  23   2.0000     -10.347933      -281.5816
  24   2.0000     -10.340936      -281.3912
  25   2.0000     -10.328118      -281.0424
  26   2.0000     -10.327784      -281.0333
  27   2.0000     -10.324067      -280.9321
  28   2.0000     -10.319499      -280.8079
  29   2.0000     -10.318010      -280.7673
  30   2.0000     -10.317858      -280.7632
  31   2.0000     -10.315876      -280.7093
  32   2.0000     -10.315338      -280.6946
  33   2.0000     -10.312950      -280.6296
  34   2.0000     -10.306051      -280.4419
  35   2.0000     -10.303865      -280.3824
  36   2.0000     -10.299978      -280.2766
  37   2.0000     -10.298379      -280.2332
  38   2.0000     -10.298157      -280.2271
  39   2.0000     -10.297715      -280.2151
  40   2.0000     -10.297353      -280.2052
  41   2.0000     -10.296923      -280.1935
  42   2.0000     -10.296181      -280.1733
  43   2.0000     -10.295611      -280.1578
  44   2.0000     -10.294901      -280.1385
  45   2.0000     -10.294620      -280.1308
  46   2.0000     -10.294173      -280.1187
  47   2.0000     -10.293388      -280.0973
  48   2.0000     -10.293142      -280.0906
  49   2.0000     -10.291723      -280.0520
  50   2.0000     -10.291416      -280.0437
  51   2.0000     -10.290574      -280.0208
  52   2.0000     -10.289835      -280.0007
  53   2.0000     -10.289629      -279.9950
  54   2.0000     -10.288945      -279.9764
  55   2.0000     -10.288011      -279.9510
  56   2.0000     -10.285714      -279.8885
  57   2.0000     -10.284574      -279.8575
  58   2.0000     -10.284289      -279.8497
  59   2.0000     -10.283231      -279.8209
  60   2.0000     -10.282189      -279.7926
  61   2.0000     -10.280631      -279.7502
  62   2.0000     -10.280032      -279.7339
  63   2.0000     -10.278325      -279.6875
  64   2.0000     -10.277999      -279.6786
  65   2.0000     -10.277330      -279.6604
  66   2.0000     -10.276051      -279.6256
  67   2.0000     -10.276007      -279.6244
  68   2.0000     -10.275933      -279.6224
  69   2.0000     -10.275024      -279.5976
  70   2.0000     -10.273459      -279.5550
  71   2.0000     -10.270702      -279.4800
  72   2.0000     -10.267952      -279.4052
  73   2.0000     -10.265530      -279.3393
  74   2.0000     -10.259623      -279.1785
  75   2.0000      -8.060720      -219.3434
  76   2.0000      -8.053632      -219.1505
  77   2.0000      -8.052268      -219.1134
  78   2.0000      -8.048564      -219.0126
  79   2.0000      -8.046459      -218.9553
  80   2.0000      -8.030678      -218.5259
  81   2.0000      -8.026189      -218.4037
  82   2.0000      -6.029835      -164.0802
  83   2.0000      -6.025754      -163.9691
  84   2.0000      -6.023183      -163.8991
  85   2.0000      -6.022747      -163.8873
  86   2.0000      -6.021960      -163.8659
  87   2.0000      -6.018898      -163.7826
  88   2.0000      -6.017799      -163.7526
  89   2.0000      -6.017642      -163.7484
  90   2.0000      -6.016225      -163.7098
  91   2.0000      -6.015932      -163.7018
  92   2.0000      -6.013797      -163.6437
  93   2.0000      -6.013390      -163.6327
  94   2.0000      -6.012267      -163.6021
  95   2.0000      -6.010921      -163.5655
  96   2.0000      -6.007145      -163.4627
  97   2.0000      -6.000356      -163.2780
  98   2.0000      -5.996539      -163.1741
  99   2.0000      -5.995994      -163.1593
 100   2.0000      -5.992125      -163.0540
 101   2.0000      -5.991610      -163.0400
 102   2.0000      -5.986764      -162.9081
 103   2.0000      -1.373296       -37.3693
 104   2.0000      -1.372962       -37.3602
 105   2.0000      -1.367996       -37.2251
 106   2.0000      -1.276960       -34.7478
 107   2.0000      -1.276527       -34.7361
 108   2.0000      -1.272056       -34.6144
 109   2.0000      -1.271780       -34.6069
 110   2.0000      -1.271484       -34.5988
 111   2.0000      -1.266307       -34.4580
 112   2.0000      -1.163750       -31.6672
 113   2.0000      -1.162394       -31.6303
 114   2.0000      -1.155118       -31.4323
 115   2.0000      -1.005920       -27.3725
 116   2.0000      -0.999232       -27.1905
 117   2.0000      -0.996862       -27.1260
 118   2.0000      -0.990227       -26.9454
 119   2.0000      -0.982481       -26.7347
 120   2.0000      -0.979187       -26.6450
 121   2.0000      -0.959663       -26.1138
 122   2.0000      -0.946404       -25.7530
 123   2.0000      -0.943396       -25.6711
 124   2.0000      -0.937149       -25.5011
 125   2.0000      -0.919362       -25.0171
 126   2.0000      -0.908633       -24.7252
 127   2.0000      -0.898582       -24.4517
 128   2.0000      -0.886897       -24.1337
 129   2.0000      -0.880013       -23.9464
 130   2.0000      -0.868688       -23.6382
 131   2.0000      -0.865837       -23.5606
 132   2.0000      -0.860762       -23.4225
 133   2.0000      -0.857318       -23.3288
 134   2.0000      -0.854455       -23.2509
 135   2.0000      -0.852229       -23.1903
 136   2.0000      -0.851838       -23.1797
 137   2.0000      -0.846606       -23.0373
 138   2.0000      -0.834528       -22.7087
 139   2.0000      -0.831568       -22.6281
 140   2.0000      -0.830224       -22.5916
 141   2.0000      -0.822458       -22.3802
 142   2.0000      -0.812049       -22.0970
 143   2.0000      -0.807229       -21.9658
 144   2.0000      -0.798912       -21.7395
 145   2.0000      -0.795455       -21.6454
 146   2.0000      -0.788385       -21.4530
 147   2.0000      -0.781313       -21.2606
 148   2.0000      -0.777301       -21.1514
 149   2.0000      -0.773398       -21.0452
 150   2.0000      -0.769133       -20.9292
 151   2.0000      -0.765398       -20.8275
 152   2.0000      -0.751099       -20.4385
 153   2.0000      -0.737309       -20.0632
 154   2.0000      -0.723765       -19.6947
 155   2.0000      -0.717451       -19.5228
 156   2.0000      -0.711171       -19.3520
 157   2.0000      -0.708670       -19.2839
 158   2.0000      -0.702416       -19.1137
 159   2.0000      -0.694921       -18.9098
 160   2.0000      -0.692942       -18.8559
 161   2.0000      -0.685701       -18.6589
 162   2.0000      -0.679767       -18.4974
 163   2.0000      -0.675336       -18.3768
 164   2.0000      -0.669460       -18.2169
 165   2.0000      -0.665275       -18.1030
 166   2.0000      -0.656573       -17.8663
 167   2.0000      -0.655921       -17.8485
 168   2.0000      -0.655261       -17.8306
 169   2.0000      -0.654862       -17.8197
 170   2.0000      -0.650545       -17.7022
 171   2.0000      -0.649883       -17.6842
 172   2.0000      -0.649400       -17.6711
 173   2.0000      -0.644782       -17.5454
 174   2.0000      -0.644260       -17.5312
 175   2.0000      -0.639309       -17.3965
 176   2.0000      -0.633275       -17.2323
 177   2.0000      -0.629495       -17.1294
 178   2.0000      -0.623719       -16.9723
 179   2.0000      -0.622917       -16.9504
 180   2.0000      -0.615277       -16.7425
 181   2.0000      -0.610283       -16.6066
 182   2.0000      -0.607745       -16.5376
 183   2.0000      -0.605529       -16.4773
 184   2.0000      -0.601276       -16.3615
 185   2.0000      -0.598821       -16.2947
 186   2.0000      -0.595137       -16.1945
 187   2.0000      -0.594465       -16.1762
 188   2.0000      -0.590597       -16.0710
 189   2.0000      -0.588412       -16.0115
 190   2.0000      -0.583541       -15.8790
 191   2.0000      -0.572457       -15.5773
 192   2.0000      -0.566313       -15.4101
 193   2.0000      -0.564019       -15.3477
 194   2.0000      -0.563469       -15.3328
 195   2.0000      -0.560349       -15.2479
 196   2.0000      -0.555556       -15.1175
 197   2.0000      -0.552623       -15.0376
 198   2.0000      -0.549965       -14.9653
 199   2.0000      -0.545255       -14.8371
 200   2.0000      -0.544808       -14.8250
 201   2.0000      -0.543714       -14.7952
 202   2.0000      -0.537364       -14.6224
 203   2.0000      -0.534905       -14.5555
 204   2.0000      -0.533370       -14.5137
 205   2.0000      -0.532639       -14.4938
 206   2.0000      -0.532544       -14.4913
 207   2.0000      -0.528430       -14.3793
 208   2.0000      -0.527638       -14.3578
 209   2.0000      -0.525250       -14.2928
 210   2.0000      -0.524018       -14.2593
 211   2.0000      -0.520748       -14.1703
 212   2.0000      -0.519085       -14.1250
 213   2.0000      -0.513955       -13.9854
 214   2.0000      -0.512211       -13.9380
 215   2.0000      -0.510821       -13.9001
 216   2.0000      -0.506458       -13.7814
 217   2.0000      -0.504886       -13.7386
 218   2.0000      -0.504547       -13.7294
 219   2.0000      -0.501148       -13.6369
 220   2.0000      -0.500915       -13.6306
 221   2.0000      -0.498395       -13.5620
 222   2.0000      -0.497294       -13.5321
 223   2.0000      -0.495418       -13.4810
 224   2.0000      -0.494371       -13.4525
 225   2.0000      -0.490790       -13.3551
 226   2.0000      -0.490673       -13.3519
 227   2.0000      -0.489417       -13.3177
 228   2.0000      -0.488493       -13.2926
 229   2.0000      -0.488135       -13.2828
 230   2.0000      -0.485930       -13.2228
 231   2.0000      -0.485478       -13.2105
 232   2.0000      -0.484000       -13.1703
 233   2.0000      -0.483770       -13.1641
 234   2.0000      -0.481184       -13.0937
 235   2.0000      -0.475545       -12.9403
 236   2.0000      -0.475209       -12.9311
 237   2.0000      -0.471554       -12.8316
 238   2.0000      -0.470732       -12.8093
 239   2.0000      -0.468631       -12.7521
 240   2.0000      -0.467923       -12.7328
 241   2.0000      -0.467067       -12.7095
 242   2.0000      -0.463126       -12.6023
 243   2.0000      -0.461615       -12.5612
 244   2.0000      -0.461273       -12.5519
 245   2.0000      -0.458517       -12.4769
 246   2.0000      -0.455765       -12.4020
 247   2.0000      -0.453676       -12.3452
 248   2.0000      -0.451713       -12.2917
 249   2.0000      -0.449582       -12.2338
 250   2.0000      -0.448260       -12.1978
 251   2.0000      -0.446210       -12.1420
 252   2.0000      -0.443270       -12.0620
 253   2.0000      -0.442783       -12.0487
 254   2.0000      -0.441071       -12.0022
 255   2.0000      -0.440407       -11.9841
 256   2.0000      -0.438161       -11.9230
 257   2.0000      -0.433187       -11.7876
 258   2.0000      -0.429096       -11.6763
 259   2.0000      -0.427810       -11.6413
 260   2.0000      -0.419365       -11.4115
 261   2.0000      -0.418889       -11.3985
 262   2.0000      -0.416670       -11.3382
 263   2.0000      -0.415652       -11.3105
 264   2.0000      -0.411437       -11.1958
 265   2.0000      -0.409534       -11.1440
 266   2.0000      -0.408079       -11.1044
 267   2.0000      -0.404527       -11.0077
 268   2.0000      -0.400791       -10.9061
 269   2.0000      -0.400404       -10.8956
 270   2.0000      -0.398774       -10.8512
 271   2.0000      -0.393526       -10.7084
 272   2.0000      -0.388330       -10.5670
 273   2.0000      -0.387144       -10.5347
 274   2.0000      -0.384784       -10.4705
 275   2.0000      -0.379743       -10.3333
 276   2.0000      -0.372087       -10.1250
 277   2.0000      -0.349070        -9.4987
 278   2.0000      -0.346524        -9.4294
 279   2.0000      -0.337560        -9.1855
 280   2.0000      -0.335640        -9.1332
 281   2.0000      -0.332983        -9.0609
 282   2.0000      -0.328668        -8.9435
 283   2.0000      -0.327765        -8.9189
 284   2.0000      -0.317334        -8.6351
 285   2.0000      -0.308109        -8.3841
 286   2.0000      -0.303395        -8.2558
 287   2.0000      -0.301726        -8.2104
 288   2.0000      -0.294033        -8.0010
 289   2.0000      -0.278799        -7.5865
 290   2.0000      -0.260095        -7.0775
 291   2.0000      -0.236146        -6.4259
 292   2.0000      -0.209413        -5.6984
 293   2.0000      -0.178993        -4.8707
 294   0.0000      -0.103740        -2.8229
 295   0.0000      -0.075339        -2.0501
 296   0.0000      -0.050367        -1.3705
 297   0.0000      -0.029616        -0.8059
 298   0.0000      -0.020973        -0.5707

MULLIKEN ATOMIC CHARGES
-----------------------
   0 C :   -0.015487
   1 C :   -0.075190
   2 C :    0.062585
   3 C :    0.023687
   4 C :   -0.056451
   5 S :    0.099469
   6 C :   -0.039622
   7 C :    0.034071
   8 C :    0.021155
   9 C :   -0.031343
  10 S :    0.079715
  11 C :   -0.032811
  12 C :   -0.062036
  13 S :    0.126264
  14 C :   -0.112876
  15 C :    0.153431
  16 C :    0.117310
  17 C :   -0.060333
  18 C :   -0.163679
  19 C :    0.540226
  20 F :   -0.166184
  21 F :   -0.163668
  22 F :   -0.164837
  23 C :    0.251170
  24 O :   -0.290802
  25 C :    0.178969
  26 C :   -0.179451
  27 C :    0.043676
  28 C :   -0.057583
  29 C :   -0.044486
  30 S :    0.105698
  31 C :   -0.083854
  32 C :    0.157662
  33 C :    0.111889
  34 C :   -0.063701
  35 C :   -0.161245
  36 C :    0.537938
  37 F :   -0.170576
  38 F :   -0.163649
  39 F :   -0.165129
  40 C :    0.256427
  41 O :   -0.295017
  42 C :    0.181369
  43 C :   -0.181362
  44 C :   -0.020865
  45 C :   -0.039279
  46 C :   -0.057068
  47 S :    0.103564
  48 C :   -0.108940
  49 C :    0.161017
  50 C :    0.114284
  51 C :   -0.063474
  52 C :   -0.166173
  53 C :    0.536160
  54 F :   -0.166086
  55 F :   -0.165177
  56 F :   -0.166731
  57 C :    0.253677
  58 O :   -0.296629
  59 C :    0.184553
  60 C :   -0.178003
  61 C :    0.042431
  62 C :   -0.031980
  63 C :    0.005724
  64 C :   -0.034010
  65 C :    0.037906
  66 C :    0.015060
  67 C :   -0.034060
  68 S :    0.040824
  69 C :   -0.069110
  70 C :    0.029874
  71 C :    0.043399
  72 C :   -0.058766
  73 S :    0.065781
  74 C :   -0.037636
  75 H :    0.028229
  76 H :    0.034164
  77 H :   -0.005135
  78 H :   -0.006665
  79 H :   -0.012869
  80 H :   -0.009683
  81 H :   -0.014178
  82 H :   -0.014370
  83 H :    0.048412
  84 H :    0.032656
  85 H :    0.028470
  86 H :   -0.049359
  87 H :   -0.009928
  88 H :   -0.019990
  89 H :   -0.022666
  90 H :    0.027066
  91 H :    0.045953
  92 H :    0.027428
  93 H :   -0.044994
  94 H :   -0.011316
  95 H :   -0.011389
  96 H :   -0.017050
  97 H :    0.029934
  98 H :    0.041784
  99 H :    0.031778
 100 H :   -0.061760
 101 H :   -0.026831
 102 H :   -0.001005
 103 H :   -0.023463
 104 H :   -0.018697
 105 H :   -0.019029
 106 H :   -0.014955
 107 H :   -0.015499
 108 H :    0.016664
 109 H :    0.016687
Sum of atomic charges:   -0.0000000

LOEWDIN ATOMIC CHARGES
----------------------
   0 C :   -0.055131
   1 C :   -0.142399
   2 C :   -0.019725
   3 C :   -0.029002
   4 C :   -0.162004
   5 S :    0.369030
   6 C :   -0.188301
   7 C :   -0.030140
   8 C :   -0.039173
   9 C :   -0.143523
  10 S :    0.384256
  11 C :   -0.085836
  12 C :   -0.152848
  13 S :    0.459348
  14 C :   -0.188106
  15 C :   -0.018606
  16 C :   -0.058858
  17 C :    0.021706
  18 C :   -0.104246
  19 C :    0.169899
  20 F :   -0.065194
  21 F :   -0.062832
  22 F :   -0.064147
  23 C :    0.073163
  24 O :   -0.085604
  25 C :    0.081797
  26 C :   -0.080343
  27 C :   -0.033461
  28 C :   -0.077012
  29 C :   -0.138561
  30 S :    0.444609
  31 C :   -0.187059
  32 C :   -0.018897
  33 C :   -0.065550
  34 C :    0.020599
  35 C :   -0.106146
  36 C :    0.170044
  37 F :   -0.068953
  38 F :   -0.063155
  39 F :   -0.064340
  40 C :    0.069384
  41 O :   -0.088337
  42 C :    0.080793
  43 C :   -0.079334
  44 C :   -0.036263
  45 C :   -0.074430
  46 C :   -0.148189
  47 S :    0.440975
  48 C :   -0.183665
  49 C :   -0.022886
  50 C :   -0.061501
  51 C :    0.021848
  52 C :   -0.106085
  53 C :    0.169375
  54 F :   -0.065311
  55 F :   -0.064759
  56 F :   -0.066219
  57 C :    0.070847
  58 O :   -0.088890
  59 C :    0.081511
  60 C :   -0.078990
  61 C :   -0.042094
  62 C :   -0.054093
  63 C :   -0.049362
  64 C :   -0.157954
  65 C :   -0.035073
  66 C :   -0.043332
  67 C :   -0.176546
  68 S :    0.356406
  69 C :   -0.187128
  70 C :   -0.026685
  71 C :   -0.040705
  72 C :   -0.138090
  73 S :    0.342367
  74 C :   -0.087422
  75 H :    0.032235
  76 H :    0.031561
  77 H :    0.036118
  78 H :    0.034241
  79 H :    0.032470
  80 H :    0.034520
  81 H :    0.038702
  82 H :    0.033685
  83 H :    0.035072
  84 H :    0.019091
  85 H :    0.018216
  86 H :    0.026060
  87 H :    0.022961
  88 H :    0.027172
  89 H :    0.030866
  90 H :    0.017932
  91 H :    0.033342
  92 H :    0.017897
  93 H :    0.027421
  94 H :    0.024392
  95 H :    0.023589
  96 H :    0.033712
  97 H :    0.019074
  98 H :    0.032592
  99 H :    0.018978
 100 H :    0.026838
 101 H :    0.025850
 102 H :    0.015785
 103 H :    0.030427
 104 H :    0.031510
 105 H :    0.029083
 106 H :    0.031173
 107 H :    0.031384
 108 H :    0.026783
 109 H :    0.023811

  Mayer bond orders larger than 0.100000
B(  0-C ,  1-C ) :   1.8556 B(  0-C , 75-H ) :   0.9514 B(  0-C , 76-H ) :   0.9416
B(  1-C ,  2-C ) :   1.0851 B(  1-C ,  5-S ) :   1.0070 B(  2-C ,  3-C ) :   1.6478
B(  2-C , 77-H ) :   0.9931 B(  3-C ,  4-C ) :   1.1632 B(  3-C , 78-H ) :   0.9934
B(  4-C ,  5-S ) :   1.0660 B(  4-C ,  6-C ) :   1.5116 B(  6-C ,  7-C ) :   1.1995
B(  6-C , 10-S ) :   1.0350 B(  7-C ,  8-C ) :   1.5609 B(  7-C , 79-H ) :   0.9927
B(  8-C ,  9-C ) :   1.1796 B(  8-C , 80-H ) :   1.0003 B(  9-C , 10-S ) :   1.0625
B(  9-C , 11-C ) :   1.4789 B( 11-C , 12-C ) :   1.2952 B( 11-C , 81-H ) :   0.9606
B( 12-C , 13-S ) :   1.1364 B( 12-C , 16-C ) :   1.2178 B( 13-S , 14-C ) :   1.0925
B( 14-C , 15-C ) :   1.2544 B( 14-C , 27-C ) :   1.2912 B( 15-C , 16-C ) :   1.2566
B( 15-C , 26-C ) :   1.2045 B( 16-C , 17-C ) :   1.2175 B( 17-C , 18-C ) :   1.5431
B( 17-C , 82-H ) :   0.9922 B( 18-C , 19-C ) :   0.9338 B( 18-C , 23-C ) :   1.2448
B( 19-C , 20-F ) :   1.1476 B( 19-C , 21-F ) :   1.1707 B( 19-C , 22-F ) :   1.1705
B( 23-C , 24-O ) :   1.2256 B( 23-C , 26-C ) :   1.4103 B( 24-O , 25-C ) :   0.9487
B( 25-C , 83-H ) :   0.9772 B( 25-C , 84-H ) :   0.9674 B( 25-C , 85-H ) :   0.9690
B( 26-C , 86-H ) :   0.9896 B( 27-C , 28-C ) :   1.4791 B( 27-C , 87-H ) :   0.9422
B( 28-C , 29-C ) :   1.3059 B( 28-C , 88-H ) :   0.9578 B( 29-C , 30-S ) :   1.1288
B( 29-C , 33-C ) :   1.2417 B( 30-S , 31-C ) :   1.0708 B( 31-C , 32-C ) :   1.2671
B( 31-C , 44-C ) :   1.3104 B( 32-C , 33-C ) :   1.2311 B( 32-C , 43-C ) :   1.1949
B( 33-C , 34-C ) :   1.2025 B( 34-C , 35-C ) :   1.5536 B( 34-C , 89-H ) :   0.9938
B( 35-C , 36-C ) :   0.9379 B( 35-C , 40-C ) :   1.2312 B( 36-C , 37-F ) :   1.1400
B( 36-C , 38-F ) :   1.1722 B( 36-C , 39-F ) :   1.1695 B( 40-C , 41-O ) :   1.2143
B( 40-C , 43-C ) :   1.4255 B( 41-O , 42-C ) :   0.9547 B( 42-C , 90-H ) :   0.9687
B( 42-C , 91-H ) :   0.9779 B( 42-C , 92-H ) :   0.9686 B( 43-C , 93-H ) :   0.9966
B( 44-C , 45-C ) :   1.4761 B( 44-C , 94-H ) :   0.9642 B( 45-C , 46-C ) :   1.2926
B( 45-C , 95-H ) :   0.9646 B( 46-C , 47-S ) :   1.1361 B( 46-C , 50-C ) :   1.2379
B( 47-S , 48-C ) :   1.0880 B( 48-C , 49-C ) :   1.2867 B( 48-C , 61-C ) :   1.2446
B( 49-C , 50-C ) :   1.2330 B( 49-C , 60-C ) :   1.1841 B( 50-C , 51-C ) :   1.2073
B( 51-C , 52-C ) :   1.5494 B( 51-C , 96-H ) :   0.9967 B( 52-C , 53-C ) :   0.9346
B( 52-C , 57-C ) :   1.2325 B( 53-C , 54-F ) :   1.1487 B( 53-C , 55-F ) :   1.1700
B( 53-C , 56-F ) :   1.1683 B( 57-C , 58-O ) :   1.2170 B( 57-C , 60-C ) :   1.4307
B( 58-O , 59-C ) :   0.9505 B( 59-C , 97-H ) :   0.9676 B( 59-C , 98-H ) :   0.9769
B( 59-C , 99-H ) :   0.9669 B( 60-C ,100-H ) :   0.9976 B( 61-C , 62-C ) :   1.5289
B( 61-C ,101-H ) :   0.9507 B( 62-C , 63-C ) :   1.2316 B( 62-C ,102-H ) :   0.9718
B( 63-C , 64-C ) :   1.4948 B( 63-C ,103-H ) :   0.9857 B( 64-C , 65-C ) :   1.1712
B( 64-C , 68-S ) :   1.0302 B( 65-C , 66-C ) :   1.5659 B( 65-C ,104-H ) :   0.9988
B( 66-C , 67-C ) :   1.1970 B( 66-C ,105-H ) :   0.9931 B( 67-C , 68-S ) :   1.0441
B( 67-C , 69-C ) :   1.5219 B( 69-C , 70-C ) :   1.1707 B( 69-C , 73-S ) :   1.0382
B( 70-C , 71-C ) :   1.6421 B( 70-C ,106-H ) :   0.9918 B( 71-C , 72-C ) :   1.0884
B( 71-C ,107-H ) :   0.9936 B( 72-C , 73-S ) :   1.0096 B( 72-C , 74-C ) :   1.8520
B( 74-C ,108-H ) :   0.9511 B( 74-C ,109-H ) :   0.9421

-----------------------------------------------------------------------------
         ABSORPTION SPECTRUM VIA TRANSITION ELECTRIC DIPOLE MOMENTS
-----------------------------------------------------------------------------
State   Energy  Wavelength   fosc         T2         TX        TY        TZ
        (cm-1)    (nm)                  (au**2)     (au)      (au)      (au)
-----------------------------------------------------------------------------
   0    5993.4   1668.5   0.993572442  54.57606  -3.49009  -5.14412   3.99166
   1   11063.6    903.9   0.154457627   4.59608  -1.49081  -1.49750   0.36200
   2   12598.0    793.8   1.445984312  37.78664  -4.70093  -2.54353  -3.03618
   3   15821.0    632.1   0.084372785   1.75567   0.92971   0.92148   0.20539
   4   18207.9    549.2   0.314669802   5.68947  -2.15718  -0.15632  -1.00579
   5   18879.0    529.7   0.065385527   1.14019   0.89759   0.52822  -0.23560
   6   19443.0    514.3   0.013191952   0.22337   0.05109  -0.37954   0.27695
   7   21726.3    460.3   0.058497384   0.88639   0.69754   0.60311  -0.18998
   8   22891.5    436.8   0.409590837   5.89049   2.11420   1.06943   0.52628
   9   23776.4    420.6   0.086608665   1.19920  -0.89469  -0.62430   0.09474
  10   24604.7    406.4   0.002575496   0.03446  -0.04371  -0.10419   0.14729
  11   25029.2    399.5   0.168400386   2.21499  -1.16691  -0.63868   0.66738
  12   27076.6    369.3   0.000073634   0.00090  -0.01418  -0.02600   0.00428
  13   27713.9    360.8   0.221308106   2.62891  -0.78864  -0.48957  -1.32939
  14   28293.4    353.4   0.193837787   2.25542   0.49234   0.52778  -1.31699
  15   28698.8    348.4   0.145941695   1.67414   0.29185   0.14957   1.25164
  16   28990.9    344.9   0.009574158   0.10872   0.19957   0.26165   0.02079
  17   29127.5    343.3   0.310791626   3.51270  -0.93856  -0.33113  -1.58813
  18   29385.4    340.3   0.030526021   0.34199   0.01656   0.14224  -0.56699
  19   29519.8    338.8   0.012775283   0.14247  -0.21729  -0.13750   0.27632
  20   29884.9    334.6   0.067364285   0.74209  -0.43616  -0.38111   0.63765
  21   30626.3    326.5   0.093103062   1.00079   0.41268   0.10453   0.90529
  22   30788.4    324.8   0.048230062   0.51571   0.23479  -0.08283   0.67359
  23   31165.7    320.9   0.008100062   0.08556   0.00918   0.21754  -0.19534
  24   31913.9    313.3   0.126498014   1.30490   0.58397   0.52496   0.82964
  25   31959.4    312.9   0.001005440   0.01036  -0.02914  -0.05590  -0.07990
  26   32211.5    310.4   0.168776038   1.72494   0.31841  -0.00560   1.27418
  27   33160.6    301.6   0.014329174   0.14226  -0.15235  -0.24734  -0.24057
  28   33337.8    300.0   0.077000795   0.76039  -0.28265   0.01950  -0.82469
  29   34290.4    291.6   0.042854704   0.41144   0.09589  -0.06114   0.63127
  30   34348.3    291.1   0.040280138   0.38607   0.03021   0.08733  -0.61443
  31   34734.8    287.9   0.042222510   0.40018  -0.50450  -0.28311  -0.25596
  32   34883.4    286.7   0.008525018   0.08045   0.08596   0.20022   0.18160
  33   35062.6    285.2   0.128133591   1.20308  -0.38863   0.17952  -1.00986
  34   35443.1    282.1   0.048140511   0.44715   0.19790  -0.09573   0.63153
  35   35732.4    279.9   0.056367685   0.51933  -0.52202  -0.44081  -0.22916
  36   35993.3    277.8   0.013848839   0.12667   0.09716   0.14276  -0.31120
  37   36156.3    276.6   0.003617337   0.03294   0.13300   0.06428   0.10543
  38   36182.8    276.4   0.018014318   0.16390  -0.33217  -0.22872   0.03546
  39   36584.5    273.3   0.026478979   0.23828   0.24639   0.20979  -0.36546
  40   36693.5    272.5   0.009075710   0.08143   0.25144   0.09469   0.09610
  41   36739.8    272.2   0.000239187   0.00214  -0.04392   0.01071  -0.00996
  42   37049.6    269.9   0.100378654   0.89194   0.76615   0.47164   0.28724
  43   37301.6    268.1   0.029996189   0.26474   0.24586   0.36393  -0.26804
  44   37640.6    265.7   0.004643246   0.04061   0.18113   0.08708   0.01485
  45   37879.2    264.0   0.053860286   0.46811  -0.40730  -0.34883  -0.42489
  46   37954.1    263.5   0.014415609   0.12504  -0.25582  -0.22685  -0.09021
  47   38248.5    261.4   0.017750901   0.15279   0.01635   0.02513   0.38973
  48   38517.2    259.6   0.037623853   0.32158  -0.42832  -0.36379   0.07598
  49   38679.2    258.5   0.002169874   0.01847  -0.13167  -0.02234  -0.02514
  50   38986.6    256.5   0.101282451   0.85525   0.32855   0.12698   0.85509
  51   39499.1    253.2   0.015102277   0.12587   0.15128  -0.04097   0.31829
  52   39885.8    250.7   0.009905035   0.08175   0.02272  -0.10642   0.26441
  53   40132.3    249.2   0.069946503   0.57378   0.44136  -0.03540   0.61460
  54   40269.7    248.3   0.040297255   0.32944  -0.09305  -0.23265   0.51638

FINAL SINGLE POINT ENERGY     -6061.767638588591

DIPOLE MOMENT
-------------
                                X             Y             Z
Electronic contribution:     67.57491      54.24884     -11.27930
Nuclear contribution   :    -69.03906     -54.22173      10.37761
                        -----------------------------------------
Total Dipole Moment    :     -1.46415       0.02711      -0.90169
                        -----------------------------------------
Magnitude (a.u.)       :      1.71974
Magnitude (Debye)      :      4.37123

Rotational constants in cm-1:     0.000784     0.000253     0.000194
Rotational constants in MHz :    23.504119     7.582818     5.829804

                             ****ORCA TERMINATED NORMALLY****
TOTAL RUN TIME: 0 days 0 hours 12 minutes 38 seconds 899 msec
