                         Program Version 4.2.0 -  RELEASE  -
|  1> # ORCA input file
|  2> # SCF done       -145.183996017992          0.000929427978
|  3> ! CAM-B3LYP def2-SVP def2/J RIJCOSX Grid4 TightSCF
|  4> %maxcore 5000
|  5> %tddft
|  6>     Mode sTDDFT
|  7>     Ethresh 5.0
|  8>     maxcore 5000
|  9> end
| 10>
| 11> %pal
| 12>   nprocs 6
| 13>   end
| 14> * xyz 0 1
| 15>    C       16.17800       -11.58319        -2.05600
| 16>    C       15.47419       -10.51580        -2.46312
| 17>    C       15.97367        -9.27935        -2.98558
| 18>    C       15.01246        -8.38088        -3.30745
| 19>    C       13.68837        -8.82902        -3.06842
| 20>    S       13.70494       -10.45388        -2.41697
| 21>    C       12.51388        -8.13411        -3.28242
| 22>    C       12.35666        -6.82382        -3.78000
| 23>    C       11.05589        -6.41542        -3.85117
| 24>    C       10.12102        -7.37717        -3.41607
| 25>    S       10.94919        -8.83683        -2.91894
| 26>    C        8.75057        -7.20866        -3.35915
| 27>    C        7.81013        -8.12996        -2.92583
| 28>    S        8.14248        -9.76764        -2.38786
| 29>    C        6.44710       -10.15514        -2.02931
| 30>    C        5.65654        -9.01552        -2.33763
| 31>    C        6.42703        -7.93773        -2.82240
| 32>    O        5.67034        -6.86576        -3.10360
| 33>    C        4.38773        -7.23855        -2.80437
| 34>    C        3.32308        -6.34612        -2.96231
| 35>    N        2.41361        -5.65102        -3.06494
| 36>    C        4.32613        -8.53354        -2.33970
| 37>    C        6.21531       -11.42132        -1.53503
| 38>    C        5.03356       -12.02677        -1.11050
| 39>    C        4.90181       -13.33106        -0.61273
| 40>    C        3.61876       -13.67341        -0.23974
| 41>    C        2.69381       -12.64758        -0.43121
| 42>    S        3.48170       -11.24250        -1.09643
| 43>    C        1.31839       -12.55728        -0.18572
| 44>    C        0.40183       -13.46448         0.34786
| 45>    C       -0.87811       -12.96191         0.43742
| 46>    C       -1.01304       -11.64352        -0.02143
| 47>    S        0.52828       -11.05220        -0.58165
| 48>    C       -2.15458       -10.84998        -0.04679
| 49>    C       -2.21646        -9.54565        -0.50129
| 50>    S       -0.86642        -8.63632        -1.16787
| 51>    C       -1.79425        -7.15274        -1.43703
| 52>    C       -3.12760        -7.38283        -1.01859
| 53>    C       -3.32670        -8.68586        -0.52035
| 54>    O       -4.59470        -8.88007        -0.13369
| 55>    C       -5.23846        -7.69832        -0.38000
| 56>    C       -6.60149        -7.57510        -0.07844
| 57>    N       -7.71696        -7.45053         0.16052
| 58>    C       -4.39291        -6.75589        -0.91876
| 59>    C       -1.08117        -6.09958        -1.97415
| 60>    C       -1.44064        -4.79519        -2.27687
| 61>    C       -0.54660        -3.85257        -2.82446
| 62>    C       -1.08879        -2.61511        -3.02922
| 63>    C       -2.44271        -2.51847        -2.65072
| 64>    S       -3.00439        -4.05709        -2.03179
| 65>    C       -3.27663        -1.41781        -2.71589
| 66>    C       -2.95342        -0.11923        -3.18494
| 67>    C       -3.97567         0.76757        -3.12199
| 68>    C       -5.19284         0.22847        -2.59360
| 69>    S       -4.94381        -1.47694        -2.18764
| 70>    C       -6.36291         0.85834        -2.40793
| 71>    H       17.25256       -11.58113        -2.09992
| 72>    H       15.69723       -12.46648        -1.67790
| 73>    H       17.03069        -9.11565        -3.09547
| 74>    H       15.20866        -7.40310        -3.71027
| 75>    H       13.19595        -6.21649        -4.06691
| 76>    H       10.74172        -5.44767        -4.20108
| 77>    H        8.35856        -6.25004        -3.67487
| 78>    H        3.42135        -9.02354        -2.05351
| 79>    H        7.09789       -12.04451        -1.44968
| 80>    H        5.74602       -13.99334        -0.53497
| 81>    H        3.34260       -14.63189         0.16205
| 82>    H        0.68414       -14.45483         0.65805
| 83>    H       -1.71565       -13.51410         0.82567
| 84>    H       -3.07459       -11.27765         0.32828
| 85>    H       -4.67311        -5.76179        -1.19425
| 86>    H       -0.04204        -6.32369        -2.19170
| 87>    H        0.47086        -4.12153        -3.04655
| 88>    H       -0.54941        -1.77955        -3.43677
| 89>    H       -1.97051         0.11422        -3.55386
| 90>    H       -3.91847         1.79594        -3.43118
| 91>    H       -6.47344         1.89672        -2.66550
| 92>    H       -7.21808         0.35325        -1.99856
| 93> *
| 94>
| 95>                          ****END OF INPUT****

CARTESIAN COORDINATES (ANGSTROEM)
---------------------------------
  C     16.178000  -11.583190   -2.056000
  C     15.474190  -10.515800   -2.463120
  C     15.973670   -9.279350   -2.985580
  C     15.012460   -8.380880   -3.307450
  C     13.688370   -8.829020   -3.068420
  S     13.704940  -10.453880   -2.416970
  C     12.513880   -8.134110   -3.282420
  C     12.356660   -6.823820   -3.780000
  C     11.055890   -6.415420   -3.851170
  C     10.121020   -7.377170   -3.416070
  S     10.949190   -8.836830   -2.918940
  C      8.750570   -7.208660   -3.359150
  C      7.810130   -8.129960   -2.925830
  S      8.142480   -9.767640   -2.387860
  C      6.447100  -10.155140   -2.029310
  C      5.656540   -9.015520   -2.337630
  C      6.427030   -7.937730   -2.822400
  O      5.670340   -6.865760   -3.103600
  C      4.387730   -7.238550   -2.804370
  C      3.323080   -6.346120   -2.962310
  N      2.413610   -5.651020   -3.064940
  C      4.326130   -8.533540   -2.339700
  C      6.215310  -11.421320   -1.535030
  C      5.033560  -12.026770   -1.110500
  C      4.901810  -13.331060   -0.612730
  C      3.618760  -13.673410   -0.239740
  C      2.693810  -12.647580   -0.431210
  S      3.481700  -11.242500   -1.096430
  C      1.318390  -12.557280   -0.185720
  C      0.401830  -13.464480    0.347860
  C     -0.878110  -12.961910    0.437420
  C     -1.013040  -11.643520   -0.021430
  S      0.528280  -11.052200   -0.581650
  C     -2.154580  -10.849980   -0.046790
  C     -2.216460   -9.545650   -0.501290
  S     -0.866420   -8.636320   -1.167870
  C     -1.794250   -7.152740   -1.437030
  C     -3.127600   -7.382830   -1.018590
  C     -3.326700   -8.685860   -0.520350
  O     -4.594700   -8.880070   -0.133690
  C     -5.238460   -7.698320   -0.380000
  C     -6.601490   -7.575100   -0.078440
  N     -7.716960   -7.450530    0.160520
  C     -4.392910   -6.755890   -0.918760
  C     -1.081170   -6.099580   -1.974150
  C     -1.440640   -4.795190   -2.276870
  C     -0.546600   -3.852570   -2.824460
  C     -1.088790   -2.615110   -3.029220
  C     -2.442710   -2.518470   -2.650720
  S     -3.004390   -4.057090   -2.031790
  C     -3.276630   -1.417810   -2.715890
  C     -2.953420   -0.119230   -3.184940
  C     -3.975670    0.767570   -3.121990
  C     -5.192840    0.228470   -2.593600
  S     -4.943810   -1.476940   -2.187640
  C     -6.362910    0.858340   -2.407930
  H     17.252560  -11.581130   -2.099920
  H     15.697230  -12.466480   -1.677900
  H     17.030690   -9.115650   -3.095470
  H     15.208660   -7.403100   -3.710270
  H     13.195950   -6.216490   -4.066910
  H     10.741720   -5.447670   -4.201080
  H      8.358560   -6.250040   -3.674870
  H      3.421350   -9.023540   -2.053510
  H      7.097890  -12.044510   -1.449680
  H      5.746020  -13.993340   -0.534970
  H      3.342600  -14.631890    0.162050
  H      0.684140  -14.454830    0.658050
  H     -1.715650  -13.514100    0.825670
  H     -3.074590  -11.277650    0.328280
  H     -4.673110   -5.761790   -1.194250
  H     -0.042040   -6.323690   -2.191700
  H      0.470860   -4.121530   -3.046550
  H     -0.549410   -1.779550   -3.436770
  H     -1.970510    0.114220   -3.553860
  H     -3.918470    1.795940   -3.431180
  H     -6.473440    1.896720   -2.665500
  H     -7.218080    0.353250   -1.998560

 Total Charge           Charge          ....    0
 Multiplicity           Mult            ....    1
 Number of Electrons    NEL             ....  444
 Basis Dimension        Dim             ....  926

ORBITAL ENERGIES
----------------

  NO   OCC          E(Eh)            E(eV)
   0   2.0000     -88.959423     -2420.7090
   1   2.0000     -88.958169     -2420.6748
   2   2.0000     -88.948841     -2420.4210
   3   2.0000     -88.948793     -2420.4197
   4   2.0000     -88.948784     -2420.4195
   5   2.0000     -88.944229     -2420.2955
   6   2.0000     -88.940986     -2420.2073
   7   2.0000     -88.936857     -2420.0949
   8   2.0000     -19.302834      -525.2568
   9   2.0000     -19.302520      -525.2483
  10   2.0000     -14.422966      -392.4689
  11   2.0000     -14.409679      -392.1073
  12   2.0000     -10.362838      -281.9872
  13   2.0000     -10.361480      -281.9502
  14   2.0000     -10.343136      -281.4510
  15   2.0000     -10.341312      -281.4014
  16   2.0000     -10.324890      -280.9545
  17   2.0000     -10.317396      -280.7506
  18   2.0000     -10.317243      -280.7465
  19   2.0000     -10.312766      -280.6246
  20   2.0000     -10.311351      -280.5861
  21   2.0000     -10.310615      -280.5661
  22   2.0000     -10.309080      -280.5243
  23   2.0000     -10.309031      -280.5230
  24   2.0000     -10.308631      -280.5121
  25   2.0000     -10.308578      -280.5107
  26   2.0000     -10.308452      -280.5072
  27   2.0000     -10.307813      -280.4898
  28   2.0000     -10.307683      -280.4863
  29   2.0000     -10.307564      -280.4831
  30   2.0000     -10.306150      -280.4446
  31   2.0000     -10.305117      -280.4165
  32   2.0000     -10.304533      -280.4006
  33   2.0000     -10.303965      -280.3851
  34   2.0000     -10.300813      -280.2994
  35   2.0000     -10.297266      -280.2028
  36   2.0000     -10.293198      -280.0922
  37   2.0000     -10.292142      -280.0634
  38   2.0000     -10.290818      -280.0274
  39   2.0000     -10.289746      -279.9982
  40   2.0000     -10.287329      -279.9325
  41   2.0000     -10.287096      -279.9261
  42   2.0000     -10.286072      -279.8983
  43   2.0000     -10.285916      -279.8940
  44   2.0000     -10.284604      -279.8583
  45   2.0000     -10.284439      -279.8538
  46   2.0000     -10.283427      -279.8263
  47   2.0000     -10.282859      -279.8108
  48   2.0000     -10.282272      -279.7948
  49   2.0000     -10.282161      -279.7918
  50   2.0000     -10.281759      -279.7809
  51   2.0000     -10.281225      -279.7664
  52   2.0000     -10.281085      -279.7625
  53   2.0000     -10.274087      -279.5721
  54   2.0000     -10.272622      -279.5323
  55   2.0000     -10.268411      -279.4177
  56   2.0000      -8.054063      -219.1622
  57   2.0000      -8.052683      -219.1247
  58   2.0000      -8.045146      -218.9195
  59   2.0000      -8.045107      -218.9185
  60   2.0000      -8.044667      -218.9065
  61   2.0000      -8.040264      -218.7867
  62   2.0000      -8.037724      -218.7176
  63   2.0000      -8.033617      -218.6058
  64   2.0000      -6.023636      -163.9115
  65   2.0000      -6.022269      -163.8743
  66   2.0000      -6.019505      -163.7990
  67   2.0000      -6.018199      -163.7635
  68   2.0000      -6.015601      -163.6928
  69   2.0000      -6.014743      -163.6695
  70   2.0000      -6.014697      -163.6682
  71   2.0000      -6.014316      -163.6579
  72   2.0000      -6.014216      -163.6551
  73   2.0000      -6.010548      -163.5553
  74   2.0000      -6.010531      -163.5549
  75   2.0000      -6.010275      -163.5479
  76   2.0000      -6.010014      -163.5408
  77   2.0000      -6.007512      -163.4727
  78   2.0000      -6.006472      -163.4444
  79   2.0000      -6.006394      -163.4423
  80   2.0000      -6.005907      -163.4290
  81   2.0000      -6.005864      -163.4279
  82   2.0000      -6.003580      -163.3657
  83   2.0000      -6.003420      -163.3614
  84   2.0000      -6.001240      -163.3021
  85   2.0000      -5.999486      -163.2543
  86   2.0000      -5.998326      -163.2227
  87   2.0000      -5.994200      -163.1105
  88   2.0000      -1.222336       -33.2615
  89   2.0000      -1.221698       -33.2441
  90   2.0000      -1.004336       -27.3294
  91   2.0000      -1.000396       -27.2222
  92   2.0000      -0.994444       -27.0602
  93   2.0000      -0.992755       -27.0142
  94   2.0000      -0.991422       -26.9780
  95   2.0000      -0.987103       -26.8604
  96   2.0000      -0.983188       -26.7539
  97   2.0000      -0.973109       -26.4796
  98   2.0000      -0.968569       -26.3561
  99   2.0000      -0.966253       -26.2931
 100   2.0000      -0.919439       -25.0192
 101   2.0000      -0.917555       -24.9679
 102   2.0000      -0.896208       -24.3871
 103   2.0000      -0.892643       -24.2901
 104   2.0000      -0.883456       -24.0401
 105   2.0000      -0.874827       -23.8053
 106   2.0000      -0.864750       -23.5311
 107   2.0000      -0.859314       -23.3831
 108   2.0000      -0.855579       -23.2815
 109   2.0000      -0.845824       -23.0160
 110   2.0000      -0.844645       -22.9840
 111   2.0000      -0.841725       -22.9045
 112   2.0000      -0.841160       -22.8891
 113   2.0000      -0.824810       -22.4442
 114   2.0000      -0.821506       -22.3543
 115   2.0000      -0.819902       -22.3107
 116   2.0000      -0.816683       -22.2231
 117   2.0000      -0.806186       -21.9374
 118   2.0000      -0.790879       -21.5209
 119   2.0000      -0.774844       -21.0846
 120   2.0000      -0.756874       -20.5956
 121   2.0000      -0.745338       -20.2817
 122   2.0000      -0.742451       -20.2031
 123   2.0000      -0.738332       -20.0910
 124   2.0000      -0.723232       -19.6802
 125   2.0000      -0.715819       -19.4784
 126   2.0000      -0.697713       -18.9857
 127   2.0000      -0.691381       -18.8134
 128   2.0000      -0.683454       -18.5977
 129   2.0000      -0.673194       -18.3185
 130   2.0000      -0.668094       -18.1798
 131   2.0000      -0.662009       -18.0142
 132   2.0000      -0.657480       -17.8909
 133   2.0000      -0.647037       -17.6068
 134   2.0000      -0.639593       -17.4042
 135   2.0000      -0.631297       -17.1785
 136   2.0000      -0.625077       -17.0092
 137   2.0000      -0.623651       -16.9704
 138   2.0000      -0.620373       -16.8812
 139   2.0000      -0.618962       -16.8428
 140   2.0000      -0.614863       -16.7313
 141   2.0000      -0.599442       -16.3117
 142   2.0000      -0.598434       -16.2842
 143   2.0000      -0.597325       -16.2540
 144   2.0000      -0.593368       -16.1464
 145   2.0000      -0.585165       -15.9231
 146   2.0000      -0.581278       -15.8174
 147   2.0000      -0.580781       -15.8039
 148   2.0000      -0.578630       -15.7453
 149   2.0000      -0.572947       -15.5907
 150   2.0000      -0.572543       -15.5797
 151   2.0000      -0.556231       -15.1358
 152   2.0000      -0.552694       -15.0396
 153   2.0000      -0.549195       -14.9443
 154   2.0000      -0.534315       -14.5394
 155   2.0000      -0.528819       -14.3899
 156   2.0000      -0.523582       -14.2474
 157   2.0000      -0.519611       -14.1393
 158   2.0000      -0.514517       -14.0007
 159   2.0000      -0.508488       -13.8367
 160   2.0000      -0.507581       -13.8120
 161   2.0000      -0.502477       -13.6731
 162   2.0000      -0.500920       -13.6307
 163   2.0000      -0.500263       -13.6128
 164   2.0000      -0.496029       -13.4976
 165   2.0000      -0.495829       -13.4922
 166   2.0000      -0.494114       -13.4455
 167   2.0000      -0.492894       -13.4123
 168   2.0000      -0.491138       -13.3645
 169   2.0000      -0.487808       -13.2739
 170   2.0000      -0.482005       -13.1160
 171   2.0000      -0.481367       -13.0987
 172   2.0000      -0.480987       -13.0883
 173   2.0000      -0.474949       -12.9240
 174   2.0000      -0.472165       -12.8483
 175   2.0000      -0.467536       -12.7223
 176   2.0000      -0.466356       -12.6902
 177   2.0000      -0.462897       -12.5961
 178   2.0000      -0.460901       -12.5418
 179   2.0000      -0.457677       -12.4540
 180   2.0000      -0.456918       -12.4334
 181   2.0000      -0.455279       -12.3888
 182   2.0000      -0.454204       -12.3595
 183   2.0000      -0.453506       -12.3405
 184   2.0000      -0.447763       -12.1842
 185   2.0000      -0.443449       -12.0669
 186   2.0000      -0.442111       -12.0304
 187   2.0000      -0.437195       -11.8967
 188   2.0000      -0.436891       -11.8884
 189   2.0000      -0.432200       -11.7608
 190   2.0000      -0.431005       -11.7282
 191   2.0000      -0.428698       -11.6655
 192   2.0000      -0.425486       -11.5781
 193   2.0000      -0.424563       -11.5529
 194   2.0000      -0.421249       -11.4628
 195   2.0000      -0.417566       -11.3625
 196   2.0000      -0.414811       -11.2876
 197   2.0000      -0.412578       -11.2268
 198   2.0000      -0.409875       -11.1533
 199   2.0000      -0.404347       -11.0028
 200   2.0000      -0.398996       -10.8572
 201   2.0000      -0.387570       -10.5463
 202   2.0000      -0.384024       -10.4498
 203   2.0000      -0.381649       -10.3852
 204   2.0000      -0.373930       -10.1752
 205   2.0000      -0.371289       -10.1033
 206   2.0000      -0.353145        -9.6096
 207   2.0000      -0.341111        -9.2821
 208   2.0000      -0.337517        -9.1843
 209   2.0000      -0.336118        -9.1462
 210   2.0000      -0.334964        -9.1148
 211   2.0000      -0.327581        -8.9139
 212   2.0000      -0.324618        -8.8333
 213   2.0000      -0.323905        -8.8139
 214   2.0000      -0.317082        -8.6282
 215   2.0000      -0.305392        -8.3101
 216   2.0000      -0.304803        -8.2941
 217   2.0000      -0.290921        -7.9163
 218   2.0000      -0.269762        -7.3406
 219   2.0000      -0.239687        -6.5222
 220   2.0000      -0.213647        -5.8136
 221   2.0000      -0.176845        -4.8122
 222   0.0000      -0.109449        -2.9783
 223   0.0000      -0.071650        -1.9497
 224   0.0000      -0.048599        -1.3224
 225   0.0000      -0.024526        -0.6674
 226   0.0000      -0.013906        -0.3784

MULLIKEN ATOMIC CHARGES
-----------------------
   0 C :   -0.028475
   1 C :   -0.066046
   2 C :    0.048215
   3 C :    0.031431
   4 C :   -0.067957
   5 S :    0.080290
   6 C :   -0.034588
   7 C :    0.022115
   8 C :    0.032982
   9 C :   -0.032431
  10 S :    0.066952
  11 C :   -0.016553
  12 C :   -0.141680
  13 S :    0.105792
  14 C :   -0.136631
  15 C :    0.123059
  16 C :    0.169530
  17 O :   -0.194367
  18 C :   -0.026689
  19 C :   -0.095705
  20 N :    0.142291
  21 C :   -0.039925
  22 C :    0.037715
  23 C :   -0.020264
  24 C :    0.017045
  25 C :    0.023095
  26 C :   -0.019133
  27 S :    0.029912
  28 C :   -0.011085
  29 C :    0.015275
  30 C :    0.033355
  31 C :   -0.033857
  32 S :    0.040389
  33 C :    0.011515
  34 C :   -0.144732
  35 S :    0.095327
  36 C :   -0.121117
  37 C :    0.122953
  38 C :    0.171271
  39 O :   -0.188719
  40 C :   -0.028016
  41 C :   -0.121387
  42 N :    0.156139
  43 C :   -0.036433
  44 C :    0.035798
  45 C :   -0.038502
  46 C :    0.038403
  47 C :    0.025986
  48 C :   -0.032931
  49 S :    0.056248
  50 C :   -0.060822
  51 C :    0.028938
  52 C :    0.054349
  53 C :   -0.069045
  54 S :    0.085070
  55 C :   -0.021322
  56 H :    0.020515
  57 H :    0.021324
  58 H :   -0.011678
  59 H :   -0.013324
  60 H :   -0.016526
  61 H :   -0.014641
  62 H :   -0.003682
  63 H :    0.016765
  64 H :   -0.019754
  65 H :   -0.013684
  66 H :   -0.015055
  67 H :   -0.016569
  68 H :   -0.012312
  69 H :    0.000701
  70 H :    0.012639
  71 H :   -0.015516
  72 H :   -0.007919
  73 H :   -0.013739
  74 H :   -0.009383
  75 H :   -0.009719
  76 H :    0.022541
  77 H :    0.025988
Sum of atomic charges:   -0.0000000

LOEWDIN ATOMIC CHARGES
----------------------
   0 C :   -0.077132
   1 C :   -0.139620
   2 C :   -0.033669
   3 C :   -0.027272
   4 C :   -0.177827
   5 S :    0.353722
   6 C :   -0.180797
   7 C :   -0.040852
   8 C :   -0.034652
   9 C :   -0.158686
  10 S :    0.371887
  11 C :   -0.070952
  12 C :   -0.202157
  13 S :    0.426996
  14 C :   -0.154269
  15 C :   -0.088955
  16 C :    0.024917
  17 O :    0.004684
  18 C :   -0.019645
  19 C :   -0.019046
  20 N :   -0.056532
  21 C :   -0.009436
  22 C :   -0.085245
  23 C :   -0.155170
  24 C :   -0.043673
  25 C :   -0.039540
  26 C :   -0.186830
  27 S :    0.413308
  28 C :   -0.173801
  29 C :   -0.049193
  30 C :   -0.031899
  31 C :   -0.168365
  32 S :    0.383930
  33 C :   -0.054028
  34 C :   -0.201993
  35 S :    0.428001
  36 C :   -0.149298
  37 C :   -0.087129
  38 C :    0.027869
  39 O :    0.011243
  40 C :   -0.007763
  41 C :   -0.043425
  42 N :   -0.036057
  43 C :   -0.012908
  44 C :   -0.081628
  45 C :   -0.141639
  46 C :   -0.024406
  47 C :   -0.036651
  48 C :   -0.181247
  49 S :    0.394540
  50 C :   -0.171557
  51 C :   -0.026873
  52 C :   -0.028548
  53 C :   -0.140359
  54 S :    0.358086
  55 C :   -0.068201
  56 H :    0.028561
  57 H :    0.025937
  58 H :    0.033038
  59 H :    0.032098
  60 H :    0.030495
  61 H :    0.032995
  62 H :    0.043327
  63 H :    0.022910
  64 H :    0.035058
  65 H :    0.032282
  66 H :    0.032480
  67 H :    0.031798
  68 H :    0.033635
  69 H :    0.045411
  70 H :    0.026683
  71 H :    0.039387
  72 H :    0.035907
  73 H :    0.031958
  74 H :    0.033669
  75 H :    0.034217
  76 H :    0.029876
  77 H :    0.028024

  Mayer bond orders larger than 0.100000
B(  0-C ,  1-C ) :   1.8535 B(  0-C , 56-H ) :   0.9509 B(  0-C , 57-H ) :   0.9409
B(  1-C ,  2-C ) :   1.0881 B(  1-C ,  5-S ) :   1.0090 B(  2-C ,  3-C ) :   1.6416
B(  2-C , 58-H ) :   0.9937 B(  3-C ,  4-C ) :   1.1708 B(  3-C , 59-H ) :   0.9917
B(  4-C ,  5-S ) :   1.0495 B(  4-C ,  6-C ) :   1.5153 B(  6-C ,  7-C ) :   1.1975
B(  6-C , 10-S ) :   1.0422 B(  7-C ,  8-C ) :   1.5633 B(  7-C , 60-H ) :   0.9925
B(  8-C ,  9-C ) :   1.1791 B(  8-C , 61-H ) :   0.9998 B(  9-C , 10-S ) :   1.0439
B(  9-C , 11-C ) :   1.4806 B( 11-C , 12-C ) :   1.2604 B( 11-C , 62-H ) :   0.9733
B( 12-C , 13-S ) :   1.0552 B( 12-C , 16-C ) :   1.3628 B( 13-S , 14-C ) :   1.0995
B( 14-C , 15-C ) :   1.1738 B( 14-C , 22-C ) :   1.3490 B( 15-C , 16-C ) :   1.2786
B( 15-C , 21-C ) :   1.1708 B( 16-C , 17-O ) :   1.1497 B( 17-O , 18-C ) :   1.1192
B( 18-C , 19-C ) :   1.0805 B( 18-C , 21-C ) :   1.5815 B( 19-C , 20-N ) :   2.9722
B( 21-C , 63-H ) :   0.9952 B( 22-C , 23-C ) :   1.4328 B( 22-C , 64-H ) :   0.9368
B( 23-C , 24-C ) :   1.2451 B( 23-C , 27-S ) :   1.0620 B( 24-C , 25-C ) :   1.4724
B( 24-C , 65-H ) :   0.9994 B( 25-C , 26-C ) :   1.2935 B( 25-C , 66-H ) :   0.9949
B( 26-C , 27-S ) :   1.0603 B( 26-C , 28-C ) :   1.3533 B( 28-C , 29-C ) :   1.2844
B( 28-C , 32-S ) :   1.0687 B( 29-C , 30-C ) :   1.4826 B( 29-C , 67-H ) :   0.9954
B( 30-C , 31-C ) :   1.2341 B( 30-C , 68-H ) :   0.9990 B( 31-C , 32-S ) :   1.0529
B( 31-C , 33-C ) :   1.4128 B( 33-C , 34-C ) :   1.3065 B( 33-C , 69-H ) :   0.9777
B( 34-C , 35-S ) :   1.0485 B( 34-C , 38-C ) :   1.3291 B( 35-S , 36-C ) :   1.1117
B( 36-C , 37-C ) :   1.1801 B( 36-C , 44-C ) :   1.3048 B( 37-C , 38-C ) :   1.2898
B( 37-C , 43-C ) :   1.1605 B( 38-C , 39-O ) :   1.1662 B( 39-O , 40-C ) :   1.1207
B( 40-C , 41-C ) :   1.0785 B( 40-C , 43-C ) :   1.6002 B( 41-C , 42-N ) :   3.0380
B( 43-C , 70-H ) :   0.9979 B( 44-C , 45-C ) :   1.5002 B( 44-C , 71-H ) :   0.9274
B( 45-C , 46-C ) :   1.1934 B( 45-C , 49-S ) :   1.0501 B( 46-C , 47-C ) :   1.5416
B( 46-C , 72-H ) :   0.9881 B( 47-C , 48-C ) :   1.2027 B( 47-C , 73-H ) :   0.9934
B( 48-C , 49-S ) :   1.0438 B( 48-C , 50-C ) :   1.4977 B( 50-C , 51-C ) :   1.1735
B( 50-C , 54-S ) :   1.0546 B( 51-C , 52-C ) :   1.6399 B( 51-C , 74-H ) :   0.9925
B( 52-C , 53-C ) :   1.0884 B( 52-C , 75-H ) :   0.9928 B( 53-C , 54-S ) :   1.0095
B( 53-C , 55-C ) :   1.8532 B( 55-C , 76-H ) :   0.9504 B( 55-C , 77-H ) :   0.9413

-----------------------------------------------------------------------------
         ABSORPTION SPECTRUM VIA TRANSITION ELECTRIC DIPOLE MOMENTS
-----------------------------------------------------------------------------
State   Energy  Wavelength   fosc         T2         TX        TY        TZ
        (cm-1)    (nm)                  (au**2)     (au)      (au)      (au)
-----------------------------------------------------------------------------
   0    3597.4   2779.8   0.433945987  39.71188  -5.92103   2.12748   0.35660
   1    9859.8   1014.2   0.003775990   0.12608   0.19960  -0.29188   0.03229
   2   13256.4    754.4   1.277809638  31.73332   2.57841   4.75275  -1.58002
   3   15317.3    652.9   0.048207951   1.03612   0.92052   0.39949  -0.17081
   4   17883.3    559.2   0.645519244  11.88329  -2.27620   2.49551  -0.68893
   5   19588.0    510.5   0.033544000   0.56377   0.02377   0.70906  -0.24586
   6   19935.8    501.6   0.091065675   1.50382  -0.11340  -1.12141   0.48312
   7   21885.6    456.9   0.175754151   2.64376   0.98390  -1.26308   0.28341
   8   23484.4    425.8   0.021449407   0.30068  -0.20033   0.51042  -0.00421
   9   25148.4    397.6   0.316992326   4.14968  -0.92756   1.67164  -0.70350
  10   25307.7    395.1   0.014134239   0.18386  -0.16873   0.37465  -0.12259
  11   25908.6    386.0   0.000342119   0.00435   0.04602   0.01822  -0.04356
  12   26318.6    380.0   0.083316647   1.04218  -0.77584  -0.41280   0.51948
  13   26862.7    372.3   0.424991521   5.20842   1.32602  -1.79569   0.47497
  14   27616.1    362.1   0.004129656   0.04923  -0.04494  -0.18779   0.10929
  15   27790.8    359.8   0.041351053   0.48985   0.19961   0.60148  -0.29702
  16   28335.5    352.9   0.018617326   0.21630  -0.37581  -0.20394   0.18297
  17   29034.9    344.4   0.114656895   1.30003  -1.05973  -0.26417   0.32743
  18   29918.5    334.2   0.047065390   0.51789  -0.67548   0.24436   0.04365
  19   30180.3    331.3   0.012681692   0.13833  -0.34936   0.12708   0.01152
  20   30596.8    326.8   0.052625520   0.56623   0.14950  -0.68103   0.28299
  21   30932.7    323.3   0.069883206   0.74376   0.62120  -0.59515   0.06052
  22   31117.9    321.4   0.114461300   1.21094   0.95255  -0.54817  -0.05576
  23   31541.6    317.0   0.192759648   2.01190   1.34747  -0.39091  -0.20841
  24   32057.5    311.9   0.059225245   0.60821   0.75438  -0.00007  -0.19777
  25   32613.9    306.6   0.000262000   0.00264  -0.05136   0.00112  -0.00226
  26   32666.0    306.1   0.000437488   0.00441   0.06004   0.01891   0.02114
  27   33175.9    301.4   0.013340632   0.13238   0.32019  -0.17238  -0.01201
  28   33605.5    297.6   0.041161553   0.40323   0.60995   0.03838  -0.17239
  29   33834.3    295.6   0.000168493   0.00164   0.00286   0.04009  -0.00488
  30   34099.5    293.3   0.274808666   2.65312   1.54928  -0.46132  -0.20011
  31   34515.8    289.7   0.036880740   0.35177   0.45969   0.29319  -0.23343
  32   34741.2    287.8   0.027124354   0.25703  -0.30900  -0.35150   0.19493
  33   35209.5    284.0   0.027334213   0.25558   0.23832  -0.44159   0.06144
  34   35319.3    283.1   0.011321038   0.10552  -0.32308   0.03292   0.00776
  35   35756.4    279.7   0.127691610   1.17567  -0.76477   0.76862  -0.00353
  36   36193.4    276.3   0.138052723   1.25572   0.88560  -0.67314   0.13532
  37   36464.9    274.2   0.015002359   0.13544   0.33993  -0.13929  -0.02212
  38   36687.1    272.6   0.020148208   0.18080   0.35446   0.11301  -0.20587
  39   37139.9    269.3   0.013631902   0.12083   0.33882  -0.00292  -0.07763
  40   37315.9    268.0   0.000662238   0.00584   0.06886  -0.00148  -0.03314
  41   37453.3    267.0   0.027574898   0.24238  -0.45964  -0.13374   0.11501
  42   38131.9    262.2   0.003616840   0.03123  -0.07313  -0.12963   0.09526
  43   38371.6    260.6   0.068175194   0.58491   0.66211   0.30178  -0.23549
  44   38499.4    259.7   0.066647646   0.56991  -0.73452   0.05365   0.16587
  45   38616.3    259.0   0.000784284   0.00669   0.07207   0.03856   0.00222
  46   38838.0    257.5   0.036443255   0.30891   0.38584   0.28627  -0.27944
  47   39847.5    251.0   0.007815362   0.06457   0.13070  -0.21786   0.00490
  48   40137.3    249.1   0.005739479   0.04708   0.09385  -0.19459   0.02008
  49   40250.3    248.4   0.017489716   0.14305   0.31484  -0.20776  -0.02766

FINAL SINGLE POINT ENERGY     -5131.736305873756

DIPOLE MOMENT
-------------
                                X             Y             Z
Electronic contribution:    -19.48913     -10.11100       3.87930
Nuclear contribution   :     22.26917      10.49206      -4.41105
                        -----------------------------------------
Total Dipole Moment    :      2.78003       0.38105      -0.53175
                        -----------------------------------------
Magnitude (a.u.)       :      2.85597
Magnitude (Debye)      :      7.25929

Rotational constants in cm-1:     0.001745     0.000412     0.000334
Rotational constants in MHz :    52.325631    12.358483    10.025929

                             ****ORCA TERMINATED NORMALLY****
TOTAL RUN TIME: 0 days 0 hours 6 minutes 50 seconds 301 msec
