                         Program Version 4.2.0 -  RELEASE  -
|  1> # ORCA input file
|  2> # SCF done       -161.613971190375          0.000708442771
|  3> ! CAM-B3LYP def2-SVP def2/J RIJCOSX Grid4 TightSCF
|  4> %maxcore 5000
|  5> %tddft
|  6>     Mode sTDDFT
|  7>     Ethresh 5.0
|  8>     maxcore 5000
|  9> end
| 10>
| 11> %pal
| 12>   nprocs 6
| 13>   end
| 14> * xyz 0 1
| 15>    C       -4.28231       -10.06455       -12.94008
| 16>    C       -5.12448       -10.51835       -12.00214
| 17>    C       -6.54846       -10.66855       -12.09816
| 18>    C       -7.13706       -11.15035       -10.98162
| 19>    C       -6.23803       -11.42113        -9.91251
| 20>    S       -4.59488       -11.03603       -10.39347
| 21>    C       -6.54632       -11.90258        -8.66434
| 22>    C       -7.82284       -12.23671        -8.14703
| 23>    C       -7.80124       -12.66946        -6.86034
| 24>    C       -6.51088       -12.70658        -6.26681
| 25>    S       -5.31668       -12.17792        -7.44292
| 26>    C       -6.25514       -13.06437        -4.96970
| 27>    C       -5.01830       -13.09932        -4.30376
| 28>    C       -3.72476       -12.89292        -4.77547
| 29>    C       -2.77533       -12.98068        -3.77221
| 30>    C       -3.32340       -13.25242        -2.51613
| 31>    S       -5.02696       -13.42420        -2.57017
| 32>    C       -2.28487       -13.27131        -1.55925
| 33>    C       -1.07248       -13.01970        -2.19172
| 34>    C       -1.27373       -12.83497        -3.67785
| 35>    C       -0.56312       -13.93330        -4.47419
| 36>    C       -0.81757       -11.44979        -4.14109
| 37>    C        0.00201       -12.97537        -1.30588
| 38>    C       -0.40205       -13.18337        -0.00206
| 39>    S       -2.11963       -13.46242         0.14623
| 40>    N        0.44078       -13.13511         1.07954
| 41>    C        0.15854       -13.20488         2.40267
| 42>    S       -1.36503       -13.74841         3.01302
| 43>    C       -0.77713       -13.52287         4.63475
| 44>    N       -1.64015       -13.81838         5.68044
| 45>    O       -2.75993       -14.21049         5.37996
| 46>    O       -1.22972       -13.66987         6.82181
| 47>    C        0.51671       -13.06924         4.68556
| 48>    C        1.08106       -12.88345         3.41450
| 49>    C        2.37486       -12.31081         3.14068
| 50>    C        3.46351       -12.29153         3.93792
| 51>    C        3.70028       -13.00881         5.14686
| 52>    S        4.87245       -12.35668         6.28315
| 53>    C        3.24648       -14.21389         5.62939
| 54>    S        2.18264       -15.46338         5.06598
| 55>    C        2.55879       -16.34800         6.54975
| 56>    N        3.37387       -15.80068         7.35731
| 57>    C        3.80363       -14.59964         6.88753
| 58>    C        4.70619       -13.68299         7.40424
| 59>    C        5.39199       -13.74346         8.63810
| 60>    C        6.24876       -12.78553         9.06620
| 61>    C        6.93338       -12.78755        10.30651
| 62>    S        6.76397       -14.10546        11.43064
| 63>    C        7.77624       -11.80687        10.80782
| 64>    C        8.08847       -10.54538        10.06668
| 65>    C        7.01556        -9.47651        10.31984
| 66>    N        7.44084        -8.21673         9.73424
| 67>    C        8.25582       -12.10377        12.10119
| 68>    C        9.18890       -11.21604        12.86165
| 69>    C       10.66047       -11.60735        12.59701
| 70>    N       11.63669       -10.76977        13.25939
| 71>    C        7.81234       -13.32532        12.57471
| 72>    C        8.12118       -13.95026        13.82966
| 73>    C        7.66991       -15.14197        14.21660
| 74>    H       -4.64855        -9.75869       -13.90404
| 75>    H       -3.22512        -9.98994       -12.76337
| 76>    H       -7.06665       -10.40621       -13.00344
| 77>    H       -8.19386       -11.32377       -10.87992
| 78>    H       -8.71576       -12.14194        -8.73835
| 79>    H       -8.67392       -12.96168        -6.30277
| 80>    H       -7.11912       -13.32792        -4.37250
| 81>    H       -3.50612       -12.69375        -5.80753
| 82>    H       -0.88731       -14.91441        -4.13510
| 83>    H        0.51330       -13.85568        -4.34155
| 84>    H       -0.79611       -13.83491        -5.53129
| 85>    H       -1.32602       -10.67520        -3.57183
| 86>    H       -1.04950       -11.31628        -5.19453
| 87>    H        0.25506       -11.34101        -4.00013
| 88>    H        1.02493       -12.78944        -1.57981
| 89>    H        1.40303       -12.91025         0.85578
| 90>    H        1.00051       -12.82359         5.61245
| 91>    H        2.45157       -11.76365         2.20794
| 92>    H        4.28802       -11.65621         3.63872
| 93>    H        2.09617       -17.29971         6.72065
| 94>    H        5.18073       -14.61148         9.24744
| 95>    H        6.42278       -11.93322         8.42138
| 96>    H        8.15062       -10.74263         8.99475
| 97>    H        9.05124       -10.14470        10.38176
| 98>    H        6.90521        -9.32048        11.39724
| 99>    H        6.04745        -9.84107         9.93589
|100>    H        7.51306        -8.30579         8.72549
|101>    H        6.76527        -7.48685         9.93176
|102>    H        8.98758       -11.28668        13.93311
|103>    H        9.03697       -10.17669        12.56430
|104>    H       10.85775       -11.56358        11.52252
|105>    H       10.82315       -12.63768        12.92530
|106>    H       11.54531        -9.80632        12.95468
|107>    H       11.50204       -10.79069        14.26480
|108>    H        8.77463       -13.38832        14.48316
|109>    H        7.02268       -15.72967        13.58712
|110>    H        7.93486       -15.56306        15.17001
|111> *
|112>
|113>                          ****END OF INPUT****

CARTESIAN COORDINATES (ANGSTROEM)
---------------------------------
  C     -4.282310  -10.064550  -12.940080
  C     -5.124480  -10.518350  -12.002140
  C     -6.548460  -10.668550  -12.098160
  C     -7.137060  -11.150350  -10.981620
  C     -6.238030  -11.421130   -9.912510
  S     -4.594880  -11.036030  -10.393470
  C     -6.546320  -11.902580   -8.664340
  C     -7.822840  -12.236710   -8.147030
  C     -7.801240  -12.669460   -6.860340
  C     -6.510880  -12.706580   -6.266810
  S     -5.316680  -12.177920   -7.442920
  C     -6.255140  -13.064370   -4.969700
  C     -5.018300  -13.099320   -4.303760
  C     -3.724760  -12.892920   -4.775470
  C     -2.775330  -12.980680   -3.772210
  C     -3.323400  -13.252420   -2.516130
  S     -5.026960  -13.424200   -2.570170
  C     -2.284870  -13.271310   -1.559250
  C     -1.072480  -13.019700   -2.191720
  C     -1.273730  -12.834970   -3.677850
  C     -0.563120  -13.933300   -4.474190
  C     -0.817570  -11.449790   -4.141090
  C      0.002010  -12.975370   -1.305880
  C     -0.402050  -13.183370   -0.002060
  S     -2.119630  -13.462420    0.146230
  N      0.440780  -13.135110    1.079540
  C      0.158540  -13.204880    2.402670
  S     -1.365030  -13.748410    3.013020
  C     -0.777130  -13.522870    4.634750
  N     -1.640150  -13.818380    5.680440
  O     -2.759930  -14.210490    5.379960
  O     -1.229720  -13.669870    6.821810
  C      0.516710  -13.069240    4.685560
  C      1.081060  -12.883450    3.414500
  C      2.374860  -12.310810    3.140680
  C      3.463510  -12.291530    3.937920
  C      3.700280  -13.008810    5.146860
  S      4.872450  -12.356680    6.283150
  C      3.246480  -14.213890    5.629390
  S      2.182640  -15.463380    5.065980
  C      2.558790  -16.348000    6.549750
  N      3.373870  -15.800680    7.357310
  C      3.803630  -14.599640    6.887530
  C      4.706190  -13.682990    7.404240
  C      5.391990  -13.743460    8.638100
  C      6.248760  -12.785530    9.066200
  C      6.933380  -12.787550   10.306510
  S      6.763970  -14.105460   11.430640
  C      7.776240  -11.806870   10.807820
  C      8.088470  -10.545380   10.066680
  C      7.015560   -9.476510   10.319840
  N      7.440840   -8.216730    9.734240
  C      8.255820  -12.103770   12.101190
  C      9.188900  -11.216040   12.861650
  C     10.660470  -11.607350   12.597010
  N     11.636690  -10.769770   13.259390
  C      7.812340  -13.325320   12.574710
  C      8.121180  -13.950260   13.829660
  C      7.669910  -15.141970   14.216600
  H     -4.648550   -9.758690  -13.904040
  H     -3.225120   -9.989940  -12.763370
  H     -7.066650  -10.406210  -13.003440
  H     -8.193860  -11.323770  -10.879920
  H     -8.715760  -12.141940   -8.738350
  H     -8.673920  -12.961680   -6.302770
  H     -7.119120  -13.327920   -4.372500
  H     -3.506120  -12.693750   -5.807530
  H     -0.887310  -14.914410   -4.135100
  H      0.513300  -13.855680   -4.341550
  H     -0.796110  -13.834910   -5.531290
  H     -1.326020  -10.675200   -3.571830
  H     -1.049500  -11.316280   -5.194530
  H      0.255060  -11.341010   -4.000130
  H      1.024930  -12.789440   -1.579810
  H      1.403030  -12.910250    0.855780
  H      1.000510  -12.823590    5.612450
  H      2.451570  -11.763650    2.207940
  H      4.288020  -11.656210    3.638720
  H      2.096170  -17.299710    6.720650
  H      5.180730  -14.611480    9.247440
  H      6.422780  -11.933220    8.421380
  H      8.150620  -10.742630    8.994750
  H      9.051240  -10.144700   10.381760
  H      6.905210   -9.320480   11.397240
  H      6.047450   -9.841070    9.935890
  H      7.513060   -8.305790    8.725490
  H      6.765270   -7.486850    9.931760
  H      8.987580  -11.286680   13.933110
  H      9.036970  -10.176690   12.564300
  H     10.857750  -11.563580   11.522520
  H     10.823150  -12.637680   12.925300
  H     11.545310   -9.806320   12.954680
  H     11.502040  -10.790690   14.264800
  H      8.774630  -13.388320   14.483160
  H      7.022680  -15.729670   13.587120
  H      7.934860  -15.563060   15.170010

 Total Charge           Charge          ....    0
 Multiplicity           Mult            ....    1
 Number of Electrons    NEL             ....  480
 Basis Dimension        Dim             .... 1043

ORBITAL ENERGIES
----------------

  NO   OCC          E(Eh)            E(eV)
   0   2.0000     -88.977012     -2421.1876
   1   2.0000     -88.972974     -2421.0777
   2   2.0000     -88.959094     -2420.7000
   3   2.0000     -88.957175     -2420.6478
   4   2.0000     -88.954327     -2420.5703
   5   2.0000     -88.938969     -2420.1524
   6   2.0000     -88.938706     -2420.1452
   7   2.0000     -88.932536     -2419.9773
   8   2.0000     -19.218796      -522.9700
   9   2.0000     -19.218027      -522.9491
  10   2.0000     -14.630688      -398.1213
  11   2.0000     -14.486457      -394.1965
  12   2.0000     -14.411669      -392.1615
  13   2.0000     -14.379757      -391.2931
  14   2.0000     -14.374682      -391.1550
  15   2.0000     -10.364881      -282.0428
  16   2.0000     -10.351997      -281.6922
  17   2.0000     -10.333116      -281.1784
  18   2.0000     -10.323936      -280.9286
  19   2.0000     -10.308664      -280.5130
  20   2.0000     -10.306926      -280.4657
  21   2.0000     -10.302995      -280.3588
  22   2.0000     -10.302705      -280.3509
  23   2.0000     -10.302315      -280.3403
  24   2.0000     -10.302260      -280.3387
  25   2.0000     -10.301077      -280.3066
  26   2.0000     -10.299144      -280.2540
  27   2.0000     -10.297902      -280.2202
  28   2.0000     -10.297665      -280.2137
  29   2.0000     -10.297640      -280.2130
  30   2.0000     -10.296194      -280.1737
  31   2.0000     -10.292658      -280.0775
  32   2.0000     -10.290605      -280.0216
  33   2.0000     -10.290006      -280.0053
  34   2.0000     -10.289849      -280.0010
  35   2.0000     -10.288745      -279.9710
  36   2.0000     -10.287553      -279.9385
  37   2.0000     -10.285603      -279.8855
  38   2.0000     -10.284044      -279.8431
  39   2.0000     -10.281452      -279.7725
  40   2.0000     -10.280976      -279.7596
  41   2.0000     -10.280283      -279.7407
  42   2.0000     -10.279693      -279.7247
  43   2.0000     -10.278884      -279.7027
  44   2.0000     -10.278431      -279.6903
  45   2.0000     -10.278285      -279.6863
  46   2.0000     -10.276857      -279.6475
  47   2.0000     -10.275845      -279.6200
  48   2.0000     -10.274108      -279.5727
  49   2.0000     -10.269887      -279.4578
  50   2.0000     -10.269663      -279.4517
  51   2.0000     -10.268012      -279.4068
  52   2.0000     -10.266546      -279.3669
  53   2.0000     -10.265016      -279.3253
  54   2.0000     -10.263855      -279.2937
  55   2.0000     -10.263813      -279.2926
  56   2.0000     -10.263796      -279.2921
  57   2.0000     -10.262487      -279.2565
  58   2.0000     -10.259867      -279.1852
  59   2.0000      -8.072135      -219.6540
  60   2.0000      -8.067627      -219.5313
  61   2.0000      -8.054170      -219.1651
  62   2.0000      -8.052594      -219.1222
  63   2.0000      -8.049430      -219.0361
  64   2.0000      -8.034599      -218.6326
  65   2.0000      -8.034549      -218.6312
  66   2.0000      -8.029111      -218.4832
  67   2.0000      -6.041849      -164.4071
  68   2.0000      -6.037410      -164.2863
  69   2.0000      -6.037307      -164.2835
  70   2.0000      -6.033550      -164.1812
  71   2.0000      -6.032995      -164.1661
  72   2.0000      -6.029194      -164.0627
  73   2.0000      -6.023483      -163.9073
  74   2.0000      -6.022141      -163.8708
  75   2.0000      -6.019542      -163.8001
  76   2.0000      -6.018771      -163.7791
  77   2.0000      -6.018006      -163.7583
  78   2.0000      -6.016161      -163.7081
  79   2.0000      -6.014805      -163.6712
  80   2.0000      -6.014083      -163.6515
  81   2.0000      -6.011382      -163.5780
  82   2.0000      -6.004345      -163.3865
  83   2.0000      -6.003767      -163.3708
  84   2.0000      -6.000334      -163.2774
  85   2.0000      -5.999922      -163.2662
  86   2.0000      -5.998976      -163.2404
  87   2.0000      -5.996681      -163.1780
  88   2.0000      -5.995399      -163.1431
  89   2.0000      -5.995038      -163.1333
  90   2.0000      -5.989643      -162.9865
  91   2.0000      -1.297672       -35.3115
  92   2.0000      -1.116181       -30.3728
  93   2.0000      -1.092903       -29.7394
  94   2.0000      -1.065292       -28.9881
  95   2.0000      -1.009642       -27.4738
  96   2.0000      -0.994691       -27.0669
  97   2.0000      -0.985724       -26.8229
  98   2.0000      -0.980631       -26.6843
  99   2.0000      -0.975682       -26.5497
 100   2.0000      -0.967907       -26.3381
 101   2.0000      -0.960297       -26.1310
 102   2.0000      -0.959684       -26.1143
 103   2.0000      -0.956065       -26.0159
 104   2.0000      -0.923100       -25.1188
 105   2.0000      -0.918615       -24.9968
 106   2.0000      -0.900517       -24.5043
 107   2.0000      -0.888889       -24.1879
 108   2.0000      -0.884599       -24.0712
 109   2.0000      -0.877677       -23.8828
 110   2.0000      -0.874812       -23.8048
 111   2.0000      -0.861522       -23.4432
 112   2.0000      -0.857713       -23.3396
 113   2.0000      -0.844826       -22.9889
 114   2.0000      -0.841509       -22.8986
 115   2.0000      -0.837855       -22.7992
 116   2.0000      -0.834401       -22.7052
 117   2.0000      -0.831786       -22.6340
 118   2.0000      -0.820824       -22.3358
 119   2.0000      -0.818649       -22.2766
 120   2.0000      -0.812528       -22.1100
 121   2.0000      -0.802605       -21.8400
 122   2.0000      -0.796852       -21.6834
 123   2.0000      -0.780682       -21.2434
 124   2.0000      -0.775337       -21.0980
 125   2.0000      -0.767422       -20.8826
 126   2.0000      -0.761668       -20.7260
 127   2.0000      -0.744139       -20.2490
 128   2.0000      -0.730497       -19.8778
 129   2.0000      -0.716994       -19.5104
 130   2.0000      -0.713260       -19.4088
 131   2.0000      -0.700907       -19.0726
 132   2.0000      -0.695642       -18.9294
 133   2.0000      -0.690342       -18.7852
 134   2.0000      -0.686104       -18.6698
 135   2.0000      -0.684372       -18.6227
 136   2.0000      -0.678487       -18.4626
 137   2.0000      -0.668411       -18.1884
 138   2.0000      -0.653534       -17.7836
 139   2.0000      -0.644358       -17.5339
 140   2.0000      -0.635095       -17.2818
 141   2.0000      -0.630997       -17.1703
 142   2.0000      -0.629586       -17.1319
 143   2.0000      -0.622564       -16.9408
 144   2.0000      -0.620503       -16.8847
 145   2.0000      -0.618262       -16.8238
 146   2.0000      -0.612398       -16.6642
 147   2.0000      -0.609510       -16.5856
 148   2.0000      -0.608658       -16.5624
 149   2.0000      -0.600821       -16.3492
 150   2.0000      -0.595377       -16.2010
 151   2.0000      -0.592120       -16.1124
 152   2.0000      -0.589789       -16.0490
 153   2.0000      -0.578720       -15.7478
 154   2.0000      -0.576719       -15.6933
 155   2.0000      -0.572562       -15.5802
 156   2.0000      -0.570940       -15.5361
 157   2.0000      -0.561134       -15.2692
 158   2.0000      -0.557798       -15.1785
 159   2.0000      -0.554594       -15.0913
 160   2.0000      -0.552157       -15.0250
 161   2.0000      -0.548540       -14.9265
 162   2.0000      -0.543296       -14.7838
 163   2.0000      -0.539697       -14.6859
 164   2.0000      -0.537949       -14.6383
 165   2.0000      -0.532399       -14.4873
 166   2.0000      -0.529652       -14.4126
 167   2.0000      -0.522526       -14.2187
 168   2.0000      -0.521422       -14.1886
 169   2.0000      -0.520628       -14.1670
 170   2.0000      -0.517039       -14.0693
 171   2.0000      -0.515149       -14.0179
 172   2.0000      -0.512868       -13.9559
 173   2.0000      -0.512158       -13.9365
 174   2.0000      -0.504967       -13.7408
 175   2.0000      -0.501602       -13.6493
 176   2.0000      -0.497574       -13.5397
 177   2.0000      -0.493634       -13.4325
 178   2.0000      -0.490288       -13.3414
 179   2.0000      -0.489385       -13.3168
 180   2.0000      -0.488267       -13.2864
 181   2.0000      -0.486541       -13.2395
 182   2.0000      -0.479198       -13.0396
 183   2.0000      -0.475869       -12.9491
 184   2.0000      -0.474802       -12.9200
 185   2.0000      -0.474185       -12.9032
 186   2.0000      -0.472311       -12.8522
 187   2.0000      -0.471428       -12.8282
 188   2.0000      -0.467478       -12.7207
 189   2.0000      -0.463585       -12.6148
 190   2.0000      -0.461104       -12.5473
 191   2.0000      -0.455794       -12.4028
 192   2.0000      -0.454486       -12.3672
 193   2.0000      -0.451293       -12.2803
 194   2.0000      -0.450783       -12.2664
 195   2.0000      -0.450725       -12.2649
 196   2.0000      -0.448787       -12.2121
 197   2.0000      -0.441164       -12.0047
 198   2.0000      -0.435508       -11.8508
 199   2.0000      -0.434087       -11.8121
 200   2.0000      -0.432195       -11.7606
 201   2.0000      -0.430732       -11.7208
 202   2.0000      -0.427084       -11.6215
 203   2.0000      -0.426134       -11.5957
 204   2.0000      -0.421591       -11.4721
 205   2.0000      -0.420174       -11.4335
 206   2.0000      -0.419322       -11.4103
 207   2.0000      -0.418013       -11.3747
 208   2.0000      -0.414180       -11.2704
 209   2.0000      -0.413050       -11.2397
 210   2.0000      -0.408424       -11.1138
 211   2.0000      -0.405187       -11.0257
 212   2.0000      -0.402099       -10.9417
 213   2.0000      -0.398232       -10.8365
 214   2.0000      -0.390231       -10.6187
 215   2.0000      -0.390123       -10.6158
 216   2.0000      -0.388470       -10.5708
 217   2.0000      -0.385538       -10.4910
 218   2.0000      -0.377224       -10.2648
 219   2.0000      -0.367835       -10.0093
 220   2.0000      -0.358626        -9.7587
 221   2.0000      -0.354741        -9.6530
 222   2.0000      -0.347776        -9.4635
 223   2.0000      -0.347336        -9.4515
 224   2.0000      -0.341751        -9.2995
 225   2.0000      -0.333673        -9.0797
 226   2.0000      -0.331991        -9.0339
 227   2.0000      -0.323017        -8.7897
 228   2.0000      -0.317243        -8.6326
 229   2.0000      -0.315215        -8.5774
 230   2.0000      -0.312860        -8.5134
 231   2.0000      -0.310602        -8.4519
 232   2.0000      -0.309367        -8.4183
 233   2.0000      -0.303567        -8.2605
 234   2.0000      -0.294172        -8.0048
 235   2.0000      -0.287520        -7.8238
 236   2.0000      -0.272920        -7.4265
 237   2.0000      -0.246917        -6.7190
 238   2.0000      -0.225515        -6.1366
 239   2.0000      -0.201977        -5.4961
 240   0.0000      -0.064993        -1.7685
 241   0.0000      -0.058326        -1.5871
 242   0.0000      -0.040881        -1.1124
 243   0.0000      -0.012314        -0.3351
 244   0.0000      -0.000948        -0.0258

MULLIKEN ATOMIC CHARGES
-----------------------
   0 C :   -0.033356
   1 C :   -0.062162
   2 C :    0.049468
   3 C :    0.027547
   4 C :   -0.067379
   5 S :    0.071091
   6 C :   -0.034727
   7 C :    0.023541
   8 C :    0.036593
   9 C :   -0.035029
  10 S :    0.045778
  11 C :    0.028745
  12 C :   -0.104468
  13 C :   -0.035717
  14 C :   -0.008562
  15 C :   -0.080034
  16 S :    0.134826
  17 C :   -0.086518
  18 C :    0.007053
  19 C :   -0.115197
  20 C :    0.105053
  21 C :    0.101262
  22 C :   -0.030726
  23 C :   -0.061310
  24 S :    0.126988
  25 N :    0.002921
  26 C :   -0.099844
  27 S :    0.150437
  28 C :   -0.015725
  29 N :    0.277094
  30 O :   -0.281733
  31 O :   -0.264806
  32 C :    0.019311
  33 C :    0.081941
  34 C :   -0.052667
  35 C :    0.043033
  36 C :   -0.229971
  37 S :    0.108519
  38 C :   -0.006796
  39 S :    0.098821
  40 C :    0.019688
  41 N :   -0.042735
  42 C :    0.073336
  43 C :   -0.126842
  44 C :   -0.010047
  45 C :   -0.007190
  46 C :   -0.093506
  47 S :    0.096451
  48 C :   -0.043233
  49 C :    0.084437
  50 C :    0.098965
  51 N :   -0.219934
  52 C :   -0.058003
  53 C :    0.076027
  54 C :    0.089157
  55 N :   -0.205477
  56 C :   -0.107399
  57 C :    0.000053
  58 C :   -0.026101
  59 H :    0.016652
  60 H :    0.019241
  61 H :   -0.014008
  62 H :   -0.012273
  63 H :   -0.017642
  64 H :   -0.015634
  65 H :   -0.019715
  66 H :   -0.009696
  67 H :    0.022416
  68 H :    0.006452
  69 H :    0.015967
  70 H :    0.023146
  71 H :    0.016625
  72 H :    0.005482
  73 H :   -0.033353
  74 H :    0.140892
  75 H :    0.030070
  76 H :   -0.017180
  77 H :   -0.006400
  78 H :    0.044374
  79 H :    0.009535
  80 H :   -0.015939
  81 H :    0.000386
  82 H :   -0.002265
  83 H :   -0.000155
  84 H :   -0.009320
  85 H :    0.089537
  86 H :    0.092871
  87 H :   -0.006765
  88 H :   -0.006811
  89 H :    0.006843
  90 H :    0.005922
  91 H :    0.089323
  92 H :    0.086967
  93 H :   -0.014025
  94 H :    0.025690
  95 H :    0.021851
Sum of atomic charges:   -0.0000000

LOEWDIN ATOMIC CHARGES
----------------------
   0 C :   -0.083407
   1 C :   -0.138449
   2 C :   -0.035529
   3 C :   -0.026204
   4 C :   -0.181526
   5 S :    0.343404
   6 C :   -0.178374
   7 C :   -0.042932
   8 C :   -0.030408
   9 C :   -0.153040
  10 S :    0.370181
  11 C :   -0.076252
  12 C :   -0.169672
  13 C :   -0.062207
  14 C :   -0.043392
  15 C :   -0.194724
  16 S :    0.427769
  17 C :   -0.211195
  18 C :   -0.029053
  19 C :   -0.033293
  20 C :   -0.023450
  21 C :   -0.024861
  22 C :   -0.101417
  23 C :   -0.130523
  24 S :    0.423776
  25 N :    0.031778
  26 C :   -0.102618
  27 S :    0.453146
  28 C :   -0.227232
  29 N :    0.274333
  30 O :   -0.248051
  31 O :   -0.231444
  32 C :   -0.004273
  33 C :   -0.126450
  34 C :   -0.049396
  35 C :   -0.049849
  36 C :   -0.206160
  37 S :    0.433713
  38 C :   -0.203379
  39 S :    0.396044
  40 C :   -0.091985
  41 N :   -0.081555
  42 C :   -0.071516
  43 C :   -0.160162
  44 C :   -0.045110
  45 C :   -0.035856
  46 C :   -0.174909
  47 S :    0.428788
  48 C :   -0.046490
  49 C :   -0.032862
  50 C :    0.022991
  51 N :   -0.123427
  52 C :   -0.052636
  53 C :   -0.048801
  54 C :    0.018329
  55 N :   -0.110030
  56 C :   -0.170977
  57 C :   -0.041625
  58 C :   -0.048787
  59 H :    0.027364
  60 H :    0.024977
  61 H :    0.032311
  62 H :    0.031957
  63 H :    0.029970
  64 H :    0.032350
  65 H :    0.032103
  66 H :    0.017170
  67 H :    0.030747
  68 H :    0.021502
  69 H :    0.025783
  70 H :    0.030657
  71 H :    0.026235
  72 H :    0.021149
  73 H :    0.025772
  74 H :    0.100621
  75 H :    0.046247
  76 H :    0.023831
  77 H :    0.031995
  78 H :    0.020958
  79 H :    0.035603
  80 H :    0.021637
  81 H :    0.024463
  82 H :    0.027580
  83 H :    0.018744
  84 H :    0.001192
  85 H :    0.051155
  86 H :    0.055389
  87 H :    0.022321
  88 H :    0.023981
  89 H :    0.019945
  90 H :    0.019987
  91 H :    0.051460
  92 H :    0.050151
  93 H :    0.030373
  94 H :    0.017940
  95 H :    0.025616

  Mayer bond orders larger than 0.100000
B(  0-C ,  1-C ) :   1.8645 B(  0-C , 59-H ) :   0.9497 B(  0-C , 60-H ) :   0.9418
B(  1-C ,  2-C ) :   1.0798 B(  1-C ,  5-S ) :   1.0086 B(  2-C ,  3-C ) :   1.6611
B(  2-C , 61-H ) :   0.9926 B(  3-C ,  4-C ) :   1.1521 B(  3-C , 62-H ) :   0.9923
B(  4-C ,  5-S ) :   1.0378 B(  4-C ,  6-C ) :   1.5607 B(  6-C ,  7-C ) :   1.1696
B(  6-C , 10-S ) :   1.0310 B(  7-C ,  8-C ) :   1.6056 B(  7-C , 63-H ) :   0.9922
B(  8-C ,  9-C ) :   1.1402 B(  8-C , 64-H ) :   0.9981 B(  9-C , 10-S ) :   1.0287
B(  9-C , 11-C ) :   1.6135 B( 11-C , 12-C ) :   1.1666 B( 11-C , 65-H ) :   0.9499
B( 12-C , 13-C ) :   1.4260 B( 12-C , 16-S ) :   1.0872 B( 13-C , 14-C ) :   1.3459
B( 13-C , 66-H ) :   0.9800 B( 14-C , 15-C ) :   1.5193 B( 14-C , 19-C ) :   0.9456
B( 15-C , 16-S ) :   1.0882 B( 15-C , 17-C ) :   1.1805 B( 17-C , 18-C ) :   1.5579
B( 17-C , 24-S ) :   1.0433 B( 18-C , 19-C ) :   0.9471 B( 18-C , 22-C ) :   1.3031
B( 19-C , 20-C ) :   1.0283 B( 19-C , 21-C ) :   1.0390 B( 20-C , 67-H ) :   0.9644
B( 20-C , 68-H ) :   0.9645 B( 20-C , 69-H ) :   0.9654 B( 21-C , 70-H ) :   0.9647
B( 21-C , 71-H ) :   0.9643 B( 21-C , 72-H ) :   0.9633 B( 22-C , 23-C ) :   1.4520
B( 22-C , 73-H ) :   0.9944 B( 23-C , 24-S ) :   1.1253 B( 23-C , 25-N ) :   1.1145
B( 25-N , 26-C ) :   1.2314 B( 25-N , 74-H ) :   0.9000 B( 26-C , 27-S ) :   1.1415
B( 26-C , 33-C ) :   1.3380 B( 27-S , 28-C ) :   1.0644 B( 28-C , 29-N ) :   1.0020
B( 28-C , 32-C ) :   1.4448 B( 29-N , 30-O ) :   1.4914 B( 29-N , 31-O ) :   1.5182
B( 30-O , 31-O ) :   0.2458 B( 32-C , 33-C ) :   1.2600 B( 32-C , 75-H ) :   1.0036
B( 33-C , 34-C ) :   1.0496 B( 34-C , 35-C ) :   1.8000 B( 34-C , 76-H ) :   0.9481
B( 35-C , 36-C ) :   1.1086 B( 35-C , 77-H ) :   0.9427 B( 36-C , 37-S ) :   1.1063
B( 36-C , 38-C ) :   1.5248 B( 36-C , 43-C ) :   0.1084 B( 37-S , 43-C ) :   1.1137
B( 38-C , 39-S ) :   1.0593 B( 38-C , 42-C ) :   1.2220 B( 39-S , 40-C ) :   1.0683
B( 39-S , 41-N ) :   0.1000 B( 40-C , 41-N ) :   1.7983 B( 40-C , 78-H ) :   0.9623
B( 41-N , 42-C ) :   1.3111 B( 42-C , 43-C ) :   1.4174 B( 43-C , 44-C ) :   1.1914
B( 44-C , 45-C ) :   1.6067 B( 44-C , 79-H ) :   0.9817 B( 45-C , 46-C ) :   1.1712
B( 45-C , 80-H ) :   0.9626 B( 46-C , 47-S ) :   1.1068 B( 46-C , 48-C ) :   1.4826
B( 47-S , 56-C ) :   1.1022 B( 48-C , 49-C ) :   1.0703 B( 48-C , 52-C ) :   1.3047
B( 49-C , 50-C ) :   1.0927 B( 49-C , 81-H ) :   0.9052 B( 49-C , 82-H ) :   0.9021
B( 50-C , 51-N ) :   1.0885 B( 50-C , 83-H ) :   0.9391 B( 50-C , 84-H ) :   0.9410
B( 51-N , 85-H ) :   0.9715 B( 51-N , 86-H ) :   0.9695 B( 52-C , 53-C ) :   1.0476
B( 52-C , 56-C ) :   1.5164 B( 53-C , 54-C ) :   1.0643 B( 53-C , 87-H ) :   0.9021
B( 53-C , 88-H ) :   0.9056 B( 54-C , 55-N ) :   1.1123 B( 54-C , 89-H ) :   0.9483
B( 54-C , 90-H ) :   0.9493 B( 55-N , 91-H ) :   0.9799 B( 55-N , 92-H ) :   0.9796
B( 56-C , 57-C ) :   1.1232 B( 57-C , 58-C ) :   1.9175 B( 57-C , 93-H ) :   0.9580
B( 58-C , 94-H ) :   0.9558 B( 58-C , 95-H ) :   0.9487

-----------------------------------------------------------------------------
         ABSORPTION SPECTRUM VIA TRANSITION ELECTRIC DIPOLE MOMENTS
-----------------------------------------------------------------------------
State   Energy  Wavelength   fosc         T2         TX        TY        TZ
        (cm-1)    (nm)                  (au**2)     (au)      (au)      (au)
-----------------------------------------------------------------------------
   0   16469.6    607.2   2.405748258  48.08860  -2.38274   1.20460  -6.40001
   1   20449.5    489.0   0.697538209  11.22951   2.59629   0.36056   2.08777
   2   22691.7    440.7   0.052495006   0.76160   0.19878   0.36970   0.76512
   3   23462.2    426.2   0.308736893   4.33207   0.99769   0.03994   1.82622
   4   24297.2    411.6   0.014272859   0.19339   0.32720   0.20779  -0.20773
   5   26174.9    382.0   0.071267786   0.89636   0.76703   0.31288  -0.45840
   6   28312.7    353.2   0.180800509   2.10229  -1.26501  -0.23676   0.66782
   7   29071.7    344.0   0.011052850   0.12516  -0.25797   0.03331   0.23981
   8   30005.0    333.3   0.131364287   1.44131  -0.86394  -0.28634  -0.78290
   9   30629.6    326.5   0.009971596   0.10718  -0.10800   0.22697   0.20976
  10   32117.8    311.4   0.382744240   3.92318  -1.55900  -0.46902   1.12815
  11   33010.6    302.9   0.058635061   0.58476   0.37714  -0.08137   0.66024
  12   33333.4    300.0   0.001773792   0.01752  -0.07533  -0.03926   0.10150
  13   33408.8    299.3   0.017549128   0.17293   0.19460  -0.10204  -0.35305
  14   34070.4    293.5   0.009204869   0.08894  -0.11218   0.03549   0.27404
  15   34197.3    292.4   0.000700815   0.00675   0.06445  -0.02683   0.04327
  16   34535.9    289.6   0.071270887   0.67939   0.54235   0.60141  -0.15345
  17   34601.6    289.0   0.049770729   0.47354  -0.02170   0.68766   0.01372
  18   34915.8    286.4   0.029555192   0.27867   0.46214  -0.08927   0.23900
  19   35166.8    284.4   0.020331585   0.19033   0.02534  -0.05780   0.43168
  20   35878.0    278.7   0.020472514   0.18785  -0.40115  -0.05032   0.15620
  21   37197.0    268.8   0.008540292   0.07559   0.02316   0.06328  -0.26654
  22   37309.9    268.0   0.007565321   0.06675   0.10500  -0.21636   0.09443
  23   37624.2    265.8   0.008435379   0.07381  -0.13079  -0.19172   0.14124
  24   38487.5    259.8   0.012280988   0.10505   0.30422  -0.03327   0.10672
  25   38675.3    258.6   0.080974725   0.68927  -0.60942  -0.55908   0.07292
  26   39193.5    255.1   0.061044211   0.51275  -0.17144  -0.65834  -0.22349
  27   39439.0    253.6   0.079362679   0.66247  -0.50428  -0.63870   0.01555
  28   39675.6    252.0   0.014269693   0.11840   0.18060   0.26183   0.13128
  29   39748.7    251.6   0.050224133   0.41597   0.44316   0.28074  -0.37519
  30   39825.7    251.1   0.048666789   0.40230   0.03383  -0.00758   0.63332
  31   40181.5    248.9   0.034673368   0.28408   0.30689   0.43433   0.03556
  32   40309.1    248.1   0.182794093   1.49291  -0.90569  -0.72911   0.37554

FINAL SINGLE POINT ENERGY     -5304.812641448065

DIPOLE MOMENT
-------------
                                X             Y             Z
Electronic contribution:    -71.96855     -29.50014     -41.71570
Nuclear contribution   :     72.75582      30.73680      39.48326
                        -----------------------------------------
Total Dipole Moment    :      0.78727       1.23665      -2.23243
                        -----------------------------------------
Magnitude (a.u.)       :      2.67074
Magnitude (Debye)      :      6.78849

Rotational constants in cm-1:     0.003424     0.000219     0.000211
Rotational constants in MHz :   102.645197     6.563595     6.323500

                             ****ORCA TERMINATED NORMALLY****
TOTAL RUN TIME: 0 days 0 hours 10 minutes 58 seconds 530 msec
