                         Program Version 4.2.0 -  RELEASE  -
|  1> # ORCA input file
|  2> # SCF done       -202.946335429125          0.000734225331
|  3> ! CAM-B3LYP def2-SVP def2/J RIJCOSX Grid4 TightSCF
|  4> %maxcore 5000
|  5> %tddft
|  6>     Mode sTDDFT
|  7>     Ethresh 5.0
|  8>     maxcore 5000
|  9> end
| 10>
| 11> %pal
| 12>   nprocs 6
| 13>   end
| 14> * xyz 0 1
| 15>    C       -4.82092        -9.39894         2.51734
| 16>    C       -3.92955        -8.44247         2.81473
| 17>    C       -3.89881        -7.59737         3.97291
| 18>    C       -2.86723        -6.72271         3.99528
| 19>    C       -2.00689        -6.80711         2.86588
| 20>    S       -2.55951        -8.04111         1.76521
| 21>    C       -0.87531        -6.04935         2.62615
| 22>    C       -0.32879        -5.03383         3.44188
| 23>    C        0.80769        -4.46790         2.94342
| 24>    C        1.22991        -4.99934         1.70688
| 25>    S        0.10704        -6.25595         1.19859
| 26>    C        2.30640        -4.76474         0.86899
| 27>    C        3.41083        -3.90150         0.88739
| 28>    C        3.74665        -2.85292         1.80178
| 29>    C        4.96393        -2.08686         1.67466
| 30>    N        5.14145        -0.98994         2.41728
| 31>    C        4.26955        -0.67529         3.34396
| 32>    C        3.15829        -1.53246         3.59392
| 33>    N        2.91692        -2.55670         2.80048
| 34>    C        2.26535        -1.29434         4.66538
| 35>    N        1.53717        -1.10347         5.52980
| 36>    C        4.42354         0.54124         4.05534
| 37>    N        4.49970         1.53448         4.62004
| 38>    C        5.96558        -2.40467         0.72136
| 39>    C        5.59884        -3.36557        -0.24556
| 40>    C        4.35669        -4.08256        -0.17057
| 41>    N        4.23186        -4.94196        -1.17787
| 42>    S        5.53100        -4.85512        -2.12288
| 43>    N        6.33081        -3.72525        -1.29591
| 44>    C        7.23808        -1.79950         0.70499
| 45>    S        8.28863        -1.92162        -0.68715
| 46>    C        9.58404        -0.99151         0.04227
| 47>    C        9.20020        -0.61652         1.34528
| 48>    C        7.90831        -1.08529         1.69603
| 49>    O        7.62483        -0.79574         2.97548
| 50>    C        8.70595        -0.12224         3.44425
| 51>    N        8.71661         0.25000         4.80597
| 52>    O        9.73214         0.79202         5.20869
| 53>    O        7.74571        -0.01981         5.47935
| 54>    C        9.69226         0.03340         2.50091
| 55>    C       10.78216        -0.77901        -0.63919
| 56>    C       11.85302        -0.12040        -0.08218
| 57>    C       13.07556         0.11673        -0.71049
| 58>    S       13.30072        -0.36238        -2.36713
| 59>    C       14.94242         0.18479        -2.40549
| 60>    C       15.31264         0.72536        -1.14832
| 61>    C       14.25953         0.70962        -0.18459
| 62>    C       14.53509         1.21643         1.11189
| 63>    C       13.54552         1.37378         2.21408
| 64>    O       12.39850         1.73512         2.08733
| 65>    O       14.09447         1.12401         3.40289
| 66>    C       13.26877         1.35123         4.54233
| 67>    C       15.80700         1.68372         1.39179
| 68>    C       16.82310         1.69459         0.43512
| 69>    C       16.58213         1.22747        -0.82960
| 70>    C       15.73158         0.07533        -3.55158
| 71>    C       15.30547        -0.44898        -4.74732
| 72>    C       16.15074        -0.51738        -5.85991
| 73>    C       15.79628        -1.01146        -7.09461
| 74>    C       16.63798        -1.09268        -8.26499
| 75>    C       17.96154        -0.73347        -8.36514
| 76>    C       18.72531        -0.84449        -9.54429
| 77>    N       19.40419        -0.90816       -10.46857
| 78>    C       18.75391        -0.21289        -7.32288
| 79>    N       19.47095         0.21333        -6.53207
| 80>    C       15.83397        -1.64247        -9.35401
| 81>    C       14.53192        -1.91074        -8.86683
| 82>    C       14.45754        -1.53624        -7.43906
| 83>    O       13.48470        -1.64635        -6.71965
| 84>    C       13.53796        -2.43475        -9.65574
| 85>    C       13.84208        -2.70724       -10.99398
| 86>    C       15.14495        -2.43565       -11.47257
| 87>    C       16.15103        -1.90613       -10.67307
| 88>    S       15.30648        -2.84455       -13.15415
| 89>    C       13.64339        -3.36707       -13.18985
| 90>    C       12.99881        -3.24330       -12.00568
| 91>   Br       12.91486        -4.02738       -14.78754
| 92>    H       -5.63919        -9.61263         3.18225
| 93>    H       -4.74942        -9.97808         1.61486
| 94>    H       -4.65041        -7.68364         4.73700
| 95>    H       -2.68857        -6.01562         4.78521
| 96>    H       -0.77855        -4.74138         4.37340
| 97>    H        1.35401        -3.68299         3.42919
| 98>    H        2.32713        -5.41095        -0.00316
| 99>    H       10.60353         0.57685         2.64815
|100>    H       10.85355        -1.17689        -1.64292
|101>    H       11.73740         0.25883         0.91432
|102>    H       13.91475         1.23958         5.40857
|103>    H       12.45168         0.62903         4.58522
|104>    H       12.83931         2.35377         4.50681
|105>    H       16.01245         2.06589         2.37923
|106>    H       17.79614         2.07811         0.69928
|107>    H       17.36086         1.23837        -1.57518
|108>    H       16.74941         0.43800        -3.48640
|109>    H       14.29328        -0.81561        -4.84059
|110>    H       17.15764        -0.14333        -5.72670
|111>    H       12.55562        -2.62749        -9.25380
|112>    H       17.12703        -1.71695       -11.08724
|113>    H       11.97142        -3.51751       -11.84982
|114> *
|115>
|116>                          ****END OF INPUT****

CARTESIAN COORDINATES (ANGSTROEM)
---------------------------------
  C     -4.820920   -9.398940    2.517340
  C     -3.929550   -8.442470    2.814730
  C     -3.898810   -7.597370    3.972910
  C     -2.867230   -6.722710    3.995280
  C     -2.006890   -6.807110    2.865880
  S     -2.559510   -8.041110    1.765210
  C     -0.875310   -6.049350    2.626150
  C     -0.328790   -5.033830    3.441880
  C      0.807690   -4.467900    2.943420
  C      1.229910   -4.999340    1.706880
  S      0.107040   -6.255950    1.198590
  C      2.306400   -4.764740    0.868990
  C      3.410830   -3.901500    0.887390
  C      3.746650   -2.852920    1.801780
  C      4.963930   -2.086860    1.674660
  N      5.141450   -0.989940    2.417280
  C      4.269550   -0.675290    3.343960
  C      3.158290   -1.532460    3.593920
  N      2.916920   -2.556700    2.800480
  C      2.265350   -1.294340    4.665380
  N      1.537170   -1.103470    5.529800
  C      4.423540    0.541240    4.055340
  N      4.499700    1.534480    4.620040
  C      5.965580   -2.404670    0.721360
  C      5.598840   -3.365570   -0.245560
  C      4.356690   -4.082560   -0.170570
  N      4.231860   -4.941960   -1.177870
  S      5.531000   -4.855120   -2.122880
  N      6.330810   -3.725250   -1.295910
  C      7.238080   -1.799500    0.704990
  S      8.288630   -1.921620   -0.687150
  C      9.584040   -0.991510    0.042270
  C      9.200200   -0.616520    1.345280
  C      7.908310   -1.085290    1.696030
  O      7.624830   -0.795740    2.975480
  C      8.705950   -0.122240    3.444250
  N      8.716610    0.250000    4.805970
  O      9.732140    0.792020    5.208690
  O      7.745710   -0.019810    5.479350
  C      9.692260    0.033400    2.500910
  C     10.782160   -0.779010   -0.639190
  C     11.853020   -0.120400   -0.082180
  C     13.075560    0.116730   -0.710490
  S     13.300720   -0.362380   -2.367130
  C     14.942420    0.184790   -2.405490
  C     15.312640    0.725360   -1.148320
  C     14.259530    0.709620   -0.184590
  C     14.535090    1.216430    1.111890
  C     13.545520    1.373780    2.214080
  O     12.398500    1.735120    2.087330
  O     14.094470    1.124010    3.402890
  C     13.268770    1.351230    4.542330
  C     15.807000    1.683720    1.391790
  C     16.823100    1.694590    0.435120
  C     16.582130    1.227470   -0.829600
  C     15.731580    0.075330   -3.551580
  C     15.305470   -0.448980   -4.747320
  C     16.150740   -0.517380   -5.859910
  C     15.796280   -1.011460   -7.094610
  C     16.637980   -1.092680   -8.264990
  C     17.961540   -0.733470   -8.365140
  C     18.725310   -0.844490   -9.544290
  N     19.404190   -0.908160  -10.468570
  C     18.753910   -0.212890   -7.322880
  N     19.470950    0.213330   -6.532070
  C     15.833970   -1.642470   -9.354010
  C     14.531920   -1.910740   -8.866830
  C     14.457540   -1.536240   -7.439060
  O     13.484700   -1.646350   -6.719650
  C     13.537960   -2.434750   -9.655740
  C     13.842080   -2.707240  -10.993980
  C     15.144950   -2.435650  -11.472570
  C     16.151030   -1.906130  -10.673070
  S     15.306480   -2.844550  -13.154150
  C     13.643390   -3.367070  -13.189850
  C     12.998810   -3.243300  -12.005680
  Br    12.914860   -4.027380  -14.787540
  H     -5.639190   -9.612630    3.182250
  H     -4.749420   -9.978080    1.614860
  H     -4.650410   -7.683640    4.737000
  H     -2.688570   -6.015620    4.785210
  H     -0.778550   -4.741380    4.373400
  H      1.354010   -3.682990    3.429190
  H      2.327130   -5.410950   -0.003160
  H     10.603530    0.576850    2.648150
  H     10.853550   -1.176890   -1.642920
  H     11.737400    0.258830    0.914320
  H     13.914750    1.239580    5.408570
  H     12.451680    0.629030    4.585220
  H     12.839310    2.353770    4.506810
  H     16.012450    2.065890    2.379230
  H     17.796140    2.078110    0.699280
  H     17.360860    1.238370   -1.575180
  H     16.749410    0.438000   -3.486400
  H     14.293280   -0.815610   -4.840590
  H     17.157640   -0.143330   -5.726700
  H     12.555620   -2.627490   -9.253800
  H     17.127030   -1.716950  -11.087240
  H     11.971420   -3.517510  -11.849820

 Total Charge           Charge          ....    0
 Multiplicity           Mult            ....    1
 Number of Electrons    NEL             ....  594
 Basis Dimension        Dim             .... 1230

ORBITAL ENERGIES
----------------

  NO   OCC          E(Eh)            E(eV)
   0   2.0000    -482.880791    -13139.8543
   1   2.0000     -89.038916     -2422.8721
   2   2.0000     -88.977998     -2421.2144
   3   2.0000     -88.973989     -2421.1053
   4   2.0000     -88.969003     -2420.9697
   5   2.0000     -88.964977     -2420.8601
   6   2.0000     -88.962332     -2420.7881
   7   2.0000     -62.558503     -1702.3034
   8   2.0000     -56.392443     -1534.5164
   9   2.0000     -56.389744     -1534.4429
  10   2.0000     -56.389707     -1534.4420
  11   2.0000     -19.309529      -525.4390
  12   2.0000     -19.273489      -524.4583
  13   2.0000     -19.244297      -523.6640
  14   2.0000     -19.241210      -523.5799
  15   2.0000     -19.221148      -523.0340
  16   2.0000     -19.206326      -522.6307
  17   2.0000     -14.654812      -398.7777
  18   2.0000     -14.456781      -393.3890
  19   2.0000     -14.453669      -393.3043
  20   2.0000     -14.449803      -393.1991
  21   2.0000     -14.448910      -393.1748
  22   2.0000     -14.425325      -392.5330
  23   2.0000     -14.419857      -392.3843
  24   2.0000     -14.406766      -392.0280
  25   2.0000     -14.403866      -391.9491
  26   2.0000     -10.418057      -283.4897
  27   2.0000     -10.382793      -282.5302
  28   2.0000     -10.372859      -282.2598
  29   2.0000     -10.371025      -282.2099
  30   2.0000     -10.356544      -281.8159
  31   2.0000     -10.353183      -281.7244
  32   2.0000     -10.352785      -281.7136
  33   2.0000     -10.345491      -281.5151
  34   2.0000     -10.344869      -281.4982
  35   2.0000     -10.340446      -281.3778
  36   2.0000     -10.339654      -281.3563
  37   2.0000     -10.339065      -281.3403
  38   2.0000     -10.331420      -281.1322
  39   2.0000     -10.331186      -281.1259
  40   2.0000     -10.330182      -281.0985
  41   2.0000     -10.330006      -281.0937
  42   2.0000     -10.328731      -281.0591
  43   2.0000     -10.326639      -281.0021
  44   2.0000     -10.326338      -280.9939
  45   2.0000     -10.325684      -280.9761
  46   2.0000     -10.321762      -280.8694
  47   2.0000     -10.319838      -280.8171
  48   2.0000     -10.319031      -280.7951
  49   2.0000     -10.317858      -280.7632
  50   2.0000     -10.317292      -280.7478
  51   2.0000     -10.313392      -280.6417
  52   2.0000     -10.310564      -280.5647
  53   2.0000     -10.310457      -280.5618
  54   2.0000     -10.309798      -280.5439
  55   2.0000     -10.309720      -280.5417
  56   2.0000     -10.309552      -280.5372
  57   2.0000     -10.307784      -280.4891
  58   2.0000     -10.307419      -280.4791
  59   2.0000     -10.307086      -280.4701
  60   2.0000     -10.306321      -280.4493
  61   2.0000     -10.305749      -280.4337
  62   2.0000     -10.303647      -280.3765
  63   2.0000     -10.303031      -280.3597
  64   2.0000     -10.302462      -280.3442
  65   2.0000     -10.299978      -280.2766
  66   2.0000     -10.299105      -280.2529
  67   2.0000     -10.298993      -280.2499
  68   2.0000     -10.298536      -280.2374
  69   2.0000     -10.296984      -280.1952
  70   2.0000     -10.296828      -280.1909
  71   2.0000     -10.295221      -280.1472
  72   2.0000     -10.294632      -280.1312
  73   2.0000     -10.292864      -280.0831
  74   2.0000     -10.291869      -280.0560
  75   2.0000     -10.290891      -280.0294
  76   2.0000     -10.290085      -280.0074
  77   2.0000     -10.284717      -279.8614
  78   2.0000     -10.283017      -279.8151
  79   2.0000     -10.282979      -279.8141
  80   2.0000     -10.278203      -279.6841
  81   2.0000      -8.787932      -239.1318
  82   2.0000      -8.130284      -221.2363
  83   2.0000      -8.073035      -219.6785
  84   2.0000      -8.067586      -219.5302
  85   2.0000      -8.065013      -219.4602
  86   2.0000      -8.061725      -219.3707
  87   2.0000      -8.058703      -219.2885
  88   2.0000      -6.624178      -180.2530
  89   2.0000      -6.609690      -179.8588
  90   2.0000      -6.609506      -179.8538
  91   2.0000      -6.101498      -166.0302
  92   2.0000      -6.093850      -165.8221
  93   2.0000      -6.092641      -165.7892
  94   2.0000      -6.041963      -164.4102
  95   2.0000      -6.037954      -164.3011
  96   2.0000      -6.037056      -164.2766
  97   2.0000      -6.035767      -164.2416
  98   2.0000      -6.034699      -164.2125
  99   2.0000      -6.032693      -164.1579
 100   2.0000      -6.031423      -164.1234
 101   2.0000      -6.030442      -164.0967
 102   2.0000      -6.029670      -164.0757
 103   2.0000      -6.028305      -164.0385
 104   2.0000      -6.027504      -164.0167
 105   2.0000      -6.026217      -163.9817
 106   2.0000      -6.024289      -163.9292
 107   2.0000      -6.022455      -163.8793
 108   2.0000      -6.019837      -163.8081
 109   2.0000      -2.740093       -74.5617
 110   2.0000      -2.735962       -74.4493
 111   2.0000      -2.735853       -74.4463
 112   2.0000      -2.724335       -74.1329
 113   2.0000      -2.724309       -74.1322
 114   2.0000      -1.325421       -36.0665
 115   2.0000      -1.232247       -33.5311
 116   2.0000      -1.207847       -32.8672
 117   2.0000      -1.142067       -31.0772
 118   2.0000      -1.138816       -30.9888
 119   2.0000      -1.120197       -30.4821
 120   2.0000      -1.114327       -30.3224
 121   2.0000      -1.112459       -30.2716
 122   2.0000      -1.040027       -28.3006
 123   2.0000      -1.014443       -27.6044
 124   2.0000      -1.014112       -27.5954
 125   2.0000      -1.013748       -27.5855
 126   2.0000      -1.008276       -27.4366
 127   2.0000      -1.005100       -27.3502
 128   2.0000      -1.004488       -27.3335
 129   2.0000      -0.995681       -27.0939
 130   2.0000      -0.992583       -27.0096
 131   2.0000      -0.988256       -26.8918
 132   2.0000      -0.984404       -26.7870
 133   2.0000      -0.979870       -26.6636
 134   2.0000      -0.970597       -26.4113
 135   2.0000      -0.954793       -25.9812
 136   2.0000      -0.937655       -25.5149
 137   2.0000      -0.934526       -25.4298
 138   2.0000      -0.927277       -25.2325
 139   2.0000      -0.912192       -24.8220
 140   2.0000      -0.906220       -24.6595
 141   2.0000      -0.903196       -24.5772
 142   2.0000      -0.899960       -24.4892
 143   2.0000      -0.895706       -24.3734
 144   2.0000      -0.889480       -24.2040
 145   2.0000      -0.881644       -23.9907
 146   2.0000      -0.878104       -23.8944
 147   2.0000      -0.875028       -23.8107
 148   2.0000      -0.865540       -23.5525
 149   2.0000      -0.861097       -23.4316
 150   2.0000      -0.851757       -23.1775
 151   2.0000      -0.846961       -23.0470
 152   2.0000      -0.836818       -22.7710
 153   2.0000      -0.829776       -22.5794
 154   2.0000      -0.823841       -22.4179
 155   2.0000      -0.820734       -22.3333
 156   2.0000      -0.817630       -22.2489
 157   2.0000      -0.807857       -21.9829
 158   2.0000      -0.795143       -21.6369
 159   2.0000      -0.794128       -21.6093
 160   2.0000      -0.778016       -21.1709
 161   2.0000      -0.765184       -20.8217
 162   2.0000      -0.751195       -20.4410
 163   2.0000      -0.746389       -20.3103
 164   2.0000      -0.735858       -20.0237
 165   2.0000      -0.734065       -19.9749
 166   2.0000      -0.731188       -19.8966
 167   2.0000      -0.712772       -19.3955
 168   2.0000      -0.711067       -19.3491
 169   2.0000      -0.702933       -19.1278
 170   2.0000      -0.695283       -18.9196
 171   2.0000      -0.694913       -18.9096
 172   2.0000      -0.685464       -18.6524
 173   2.0000      -0.682830       -18.5808
 174   2.0000      -0.679582       -18.4924
 175   2.0000      -0.678149       -18.4534
 176   2.0000      -0.674021       -18.3410
 177   2.0000      -0.663482       -18.0543
 178   2.0000      -0.655726       -17.8432
 179   2.0000      -0.653793       -17.7906
 180   2.0000      -0.648930       -17.6583
 181   2.0000      -0.647377       -17.6160
 182   2.0000      -0.641956       -17.4685
 183   2.0000      -0.641340       -17.4517
 184   2.0000      -0.639327       -17.3970
 185   2.0000      -0.637336       -17.3428
 186   2.0000      -0.626058       -17.0359
 187   2.0000      -0.620520       -16.8852
 188   2.0000      -0.617360       -16.7992
 189   2.0000      -0.614892       -16.7321
 190   2.0000      -0.607806       -16.5393
 191   2.0000      -0.606015       -16.4905
 192   2.0000      -0.602455       -16.3936
 193   2.0000      -0.595630       -16.2079
 194   2.0000      -0.591320       -16.0906
 195   2.0000      -0.588502       -16.0139
 196   2.0000      -0.585710       -15.9380
 197   2.0000      -0.585116       -15.9218
 198   2.0000      -0.580346       -15.7920
 199   2.0000      -0.575351       -15.6561
 200   2.0000      -0.574167       -15.6239
 201   2.0000      -0.570879       -15.5344
 202   2.0000      -0.569736       -15.5033
 203   2.0000      -0.566780       -15.4229
 204   2.0000      -0.562274       -15.3003
 205   2.0000      -0.558805       -15.2059
 206   2.0000      -0.553405       -15.0589
 207   2.0000      -0.550319       -14.9749
 208   2.0000      -0.546697       -14.8764
 209   2.0000      -0.543263       -14.7829
 210   2.0000      -0.535546       -14.5730
 211   2.0000      -0.532456       -14.4889
 212   2.0000      -0.532256       -14.4834
 213   2.0000      -0.530561       -14.4373
 214   2.0000      -0.523920       -14.2566
 215   2.0000      -0.522717       -14.2239
 216   2.0000      -0.521319       -14.1858
 217   2.0000      -0.517494       -14.0817
 218   2.0000      -0.516839       -14.0639
 219   2.0000      -0.515043       -14.0150
 220   2.0000      -0.514443       -13.9987
 221   2.0000      -0.506999       -13.7961
 222   2.0000      -0.504386       -13.7250
 223   2.0000      -0.501379       -13.6432
 224   2.0000      -0.501158       -13.6372
 225   2.0000      -0.497283       -13.5318
 226   2.0000      -0.493010       -13.4155
 227   2.0000      -0.489107       -13.3093
 228   2.0000      -0.487398       -13.2628
 229   2.0000      -0.485280       -13.2051
 230   2.0000      -0.484403       -13.1813
 231   2.0000      -0.484298       -13.1784
 232   2.0000      -0.482553       -13.1309
 233   2.0000      -0.480706       -13.0807
 234   2.0000      -0.478961       -13.0332
 235   2.0000      -0.472630       -12.8609
 236   2.0000      -0.470590       -12.8054
 237   2.0000      -0.468905       -12.7595
 238   2.0000      -0.467926       -12.7329
 239   2.0000      -0.465272       -12.6607
 240   2.0000      -0.461213       -12.5502
 241   2.0000      -0.455837       -12.4039
 242   2.0000      -0.451908       -12.2970
 243   2.0000      -0.450397       -12.2559
 244   2.0000      -0.449682       -12.2365
 245   2.0000      -0.448231       -12.1970
 246   2.0000      -0.447829       -12.1860
 247   2.0000      -0.445065       -12.1108
 248   2.0000      -0.444711       -12.1012
 249   2.0000      -0.443853       -12.0779
 250   2.0000      -0.442892       -12.0517
 251   2.0000      -0.440467       -11.9857
 252   2.0000      -0.440244       -11.9797
 253   2.0000      -0.436525       -11.8785
 254   2.0000      -0.436417       -11.8755
 255   2.0000      -0.434426       -11.8213
 256   2.0000      -0.432261       -11.7624
 257   2.0000      -0.431724       -11.7478
 258   2.0000      -0.426502       -11.6057
 259   2.0000      -0.423113       -11.5135
 260   2.0000      -0.420983       -11.4555
 261   2.0000      -0.420345       -11.4382
 262   2.0000      -0.417601       -11.3635
 263   2.0000      -0.414018       -11.2660
 264   2.0000      -0.410459       -11.1692
 265   2.0000      -0.409901       -11.1540
 266   2.0000      -0.407371       -11.0851
 267   2.0000      -0.401714       -10.9312
 268   2.0000      -0.397940       -10.8285
 269   2.0000      -0.397874       -10.8267
 270   2.0000      -0.390708       -10.6317
 271   2.0000      -0.390242       -10.6190
 272   2.0000      -0.388245       -10.5647
 273   2.0000      -0.386130       -10.5071
 274   2.0000      -0.379741       -10.3333
 275   2.0000      -0.377874       -10.2825
 276   2.0000      -0.373878       -10.1737
 277   2.0000      -0.371275       -10.1029
 278   2.0000      -0.370256       -10.0752
 279   2.0000      -0.369909       -10.0657
 280   2.0000      -0.362947        -9.8763
 281   2.0000      -0.357702        -9.7336
 282   2.0000      -0.353090        -9.6081
 283   2.0000      -0.351155        -9.5554
 284   2.0000      -0.350568        -9.5394
 285   2.0000      -0.345161        -9.3923
 286   2.0000      -0.338455        -9.2098
 287   2.0000      -0.334968        -9.1149
 288   2.0000      -0.326406        -8.8820
 289   2.0000      -0.325931        -8.8690
 290   2.0000      -0.316685        -8.6174
 291   2.0000      -0.308221        -8.3871
 292   2.0000      -0.306968        -8.3530
 293   2.0000      -0.287250        -7.8165
 294   2.0000      -0.279941        -7.6176
 295   2.0000      -0.245763        -6.6876
 296   2.0000      -0.212482        -5.7819
 297   0.0000      -0.133310        -3.6275
 298   0.0000      -0.104940        -2.8556
 299   0.0000      -0.071549        -1.9469
 300   0.0000      -0.068641        -1.8678
 301   0.0000      -0.056937        -1.5493

MULLIKEN ATOMIC CHARGES
-----------------------
   0 C :   -0.008295
   1 C :   -0.075210
   2 C :    0.065525
   3 C :    0.029904
   4 C :   -0.049543
   5 S :    0.111752
   6 C :   -0.049405
   7 C :    0.028268
   8 C :    0.048760
   9 C :   -0.043056
  10 S :    0.109064
  11 C :   -0.055522
  12 C :    0.115175
  13 C :   -0.044814
  14 C :   -0.096998
  15 N :    0.045845
  16 C :   -0.114022
  17 C :   -0.110357
  18 N :    0.021773
  19 C :   -0.236364
  20 N :    0.226363
  21 C :   -0.215618
  22 N :    0.237927
  23 C :    0.189194
  24 C :   -0.028037
  25 C :   -0.000067
  26 N :   -0.273720
  27 S :    0.529604
  28 N :   -0.312549
  29 C :   -0.298541
  30 S :    0.207478
  31 C :   -0.106656
  32 C :    0.099345
  33 C :    0.212617
  34 O :   -0.161517
  35 C :    0.233394
  36 N :    0.280191
  37 O :   -0.256918
  38 O :   -0.224618
  39 C :   -0.086595
  40 C :    0.049805
  41 C :    0.000594
  42 C :   -0.090157
  43 S :    0.157519
  44 C :   -0.077765
  45 C :    0.112630
  46 C :    0.152430
  47 C :   -0.028943
  48 C :    0.181564
  49 O :   -0.228625
  50 O :   -0.286955
  51 C :    0.179114
  52 C :    0.016653
  53 C :    0.036253
  54 C :   -0.028594
  55 C :    0.015845
  56 C :   -0.018561
  57 C :   -0.035888
  58 C :   -0.078918
  59 C :    0.334336
  60 C :   -0.366923
  61 C :   -0.185030
  62 N :    0.139931
  63 C :   -0.186199
  64 N :    0.132682
  65 C :    0.012211
  66 C :   -0.007581
  67 C :    0.140365
  68 O :   -0.162183
  69 C :   -0.079004
  70 C :    0.120947
  71 C :   -0.093027
  72 C :   -0.025122
  73 S :    0.183024
  74 C :   -0.124153
  75 C :    0.039157
  76 Br:    0.017649
  77 H :    0.033793
  78 H :    0.034426
  79 H :    0.002797
  80 H :    0.003437
  81 H :   -0.002781
  82 H :   -0.011080
  83 H :    0.002485
  84 H :    0.005360
  85 H :   -0.011400
  86 H :   -0.035073
  87 H :    0.038684
  88 H :    0.044856
  89 H :    0.042161
  90 H :   -0.000023
  91 H :   -0.002134
  92 H :   -0.009139
  93 H :    0.006017
  94 H :    0.025230
  95 H :    0.000816
  96 H :   -0.016154
  97 H :   -0.008218
  98 H :   -0.006895
Sum of atomic charges:   -0.0000000

LOEWDIN ATOMIC CHARGES
----------------------
   0 C :   -0.043351
   1 C :   -0.142537
   2 C :   -0.011880
   3 C :   -0.025401
   4 C :   -0.150473
   5 S :    0.380729
   6 C :   -0.191228
   7 C :   -0.008963
   8 C :   -0.038105
   9 C :   -0.108495
  10 S :    0.401083
  11 C :   -0.056862
  12 C :   -0.021597
  13 C :   -0.013425
  14 C :   -0.000205
  15 N :    0.002357
  16 C :   -0.020965
  17 C :   -0.041090
  18 N :    0.004452
  19 C :   -0.040001
  20 N :   -0.020018
  21 C :   -0.033941
  22 N :   -0.006041
  23 C :   -0.073167
  24 C :   -0.047796
  25 C :   -0.041962
  26 N :   -0.273922
  27 S :    0.654978
  28 N :   -0.306278
  29 C :   -0.180062
  30 S :    0.501718
  31 C :   -0.165777
  32 C :   -0.072034
  33 C :    0.030973
  34 O :    0.025693
  35 C :    0.021016
  36 N :    0.275490
  37 O :   -0.219020
  38 O :   -0.187666
  39 C :   -0.010248
  40 C :   -0.028676
  41 C :   -0.042779
  42 C :   -0.136411
  43 S :    0.498818
  44 C :   -0.184878
  45 C :   -0.023291
  46 C :   -0.031738
  47 C :   -0.051934
  48 C :    0.099590
  49 O :   -0.173431
  50 O :   -0.075564
  51 C :    0.083581
  52 C :    0.008817
  53 C :   -0.015385
  54 C :    0.004250
  55 C :    0.010410
  56 C :   -0.047428
  57 C :    0.059501
  58 C :   -0.107874
  59 C :    0.075026
  60 C :   -0.152303
  61 C :   -0.018719
  62 N :   -0.063879
  63 C :   -0.018866
  64 N :   -0.065601
  65 C :   -0.018910
  66 C :   -0.049100
  67 C :    0.082549
  68 O :   -0.156383
  69 C :    0.018084
  70 C :   -0.034688
  71 C :   -0.145118
  72 C :   -0.012065
  73 S :    0.429479
  74 C :   -0.273624
  75 C :   -0.071083
  76 Br:    0.132128
  77 H :    0.034973
  78 H :    0.032083
  79 H :    0.039215
  80 H :    0.038185
  81 H :    0.036845
  82 H :    0.030357
  83 H :    0.035891
  84 H :    0.037732
  85 H :    0.024485
  86 H :    0.032431
  87 H :    0.028969
  88 H :    0.024932
  89 H :    0.027919
  90 H :    0.035175
  91 H :    0.035898
  92 H :    0.034633
  93 H :    0.039627
  94 H :    0.025268
  95 H :    0.040118
  96 H :    0.038769
  97 H :    0.040501
  98 H :    0.037512

  Mayer bond orders larger than 0.100000
B(  0-C ,  1-C ) :   1.8550 B(  0-C , 77-H ) :   0.9514 B(  0-C , 78-H ) :   0.9425
B(  1-C ,  2-C ) :   1.0827 B(  1-C ,  5-S ) :   1.0048 B(  2-C ,  3-C ) :   1.6473
B(  2-C , 79-H ) :   0.9933 B(  3-C ,  4-C ) :   1.1664 B(  3-C , 80-H ) :   0.9929
B(  4-C ,  5-S ) :   1.0816 B(  4-C ,  6-C ) :   1.4780 B(  6-C ,  7-C ) :   1.2043
B(  6-C , 10-S ) :   1.0519 B(  7-C ,  8-C ) :   1.5332 B(  7-C , 81-H ) :   0.9954
B(  8-C ,  9-C ) :   1.2116 B(  8-C , 82-H ) :   0.9811 B(  9-C , 10-S ) :   1.0894
B(  9-C , 11-C ) :   1.3931 B( 11-C , 12-C ) :   1.3747 B( 11-C , 83-H ) :   0.9201
B( 12-C , 13-C ) :   1.1463 B( 12-C , 23-C ) :   0.1018 B( 12-C , 25-C ) :   1.1488
B( 13-C , 14-C ) :   1.0945 B( 13-C , 18-N ) :   1.4921 B( 14-C , 15-N ) :   1.4837
B( 14-C , 23-C ) :   1.2254 B( 15-N , 16-C ) :   1.6940 B( 16-C , 17-C ) :   1.2272
B( 16-C , 21-C ) :   1.1588 B( 17-C , 18-N ) :   1.6580 B( 17-C , 19-C ) :   1.1472
B( 19-C , 20-N ) :   3.0408 B( 21-C , 22-N ) :   3.0454 B( 23-C , 24-C ) :   1.1795
B( 23-C , 29-C ) :   1.1909 B( 24-C , 25-C ) :   1.1185 B( 24-C , 28-N ) :   1.5151
B( 25-C , 26-N ) :   1.5569 B( 26-N , 27-S ) :   1.2725 B( 26-N , 28-N ) :   0.1425
B( 27-S , 28-N ) :   1.2393 B( 29-C , 30-S ) :   1.1458 B( 29-C , 31-C ) :   0.1076
B( 29-C , 33-C ) :   1.3744 B( 30-S , 31-C ) :   1.0863 B( 31-C , 32-C ) :   1.2805
B( 31-C , 40-C ) :   1.2519 B( 32-C , 33-C ) :   1.2680 B( 32-C , 39-C ) :   1.1216
B( 33-C , 34-O ) :   1.1432 B( 34-O , 35-C ) :   1.1315 B( 35-C , 36-N ) :   0.9268
B( 35-C , 39-C ) :   1.5210 B( 36-N , 37-O ) :   1.5079 B( 36-N , 38-O ) :   1.5157
B( 37-O , 38-O ) :   0.2734 B( 39-C , 84-H ) :   0.9902 B( 40-C , 41-C ) :   1.5149
B( 40-C , 85-H ) :   0.9566 B( 41-C , 42-C ) :   1.2742 B( 41-C , 86-H ) :   0.9561
B( 42-C , 43-S ) :   1.1484 B( 42-C , 46-C ) :   1.2669 B( 43-S , 44-C ) :   1.1147
B( 44-C , 45-C ) :   1.2382 B( 44-C , 55-C ) :   1.2544 B( 45-C , 46-C ) :   1.2314
B( 45-C , 54-C ) :   1.2457 B( 46-C , 47-C ) :   1.2414 B( 47-C , 48-C ) :   0.9087
B( 47-C , 52-C ) :   1.5261 B( 48-C , 49-O ) :   1.9708 B( 48-C , 50-O ) :   1.2538
B( 50-O , 51-C ) :   0.9051 B( 51-C , 87-H ) :   0.9788 B( 51-C , 88-H ) :   0.9749
B( 51-C , 89-H ) :   0.9731 B( 52-C , 53-C ) :   1.2397 B( 52-C , 90-H ) :   0.9844
B( 53-C , 54-C ) :   1.4998 B( 53-C , 91-H ) :   0.9873 B( 54-C , 92-H ) :   0.9953
B( 55-C , 56-C ) :   1.4524 B( 55-C , 93-H ) :   0.9785 B( 56-C , 57-C ) :   1.2430
B( 56-C , 94-H ) :   0.9761 B( 57-C , 58-C ) :   1.4560 B( 57-C , 95-H ) :   0.9621
B( 58-C , 59-C ) :   1.0989 B( 58-C , 67-C ) :   0.9622 B( 59-C , 60-C ) :   1.5949
B( 59-C , 65-C ) :   0.9923 B( 60-C , 61-C ) :   1.1464 B( 60-C , 63-C ) :   1.1546
B( 61-C , 62-N ) :   2.9630 B( 63-C , 64-N ) :   2.9535 B( 65-C , 66-C ) :   1.2796
B( 65-C , 72-C ) :   1.4147 B( 66-C , 67-C ) :   0.9387 B( 66-C , 69-C ) :   1.4275
B( 67-C , 68-O ) :   2.1869 B( 69-C , 70-C ) :   1.2395 B( 69-C , 96-H ) :   1.0164
B( 70-C , 71-C ) :   1.3135 B( 70-C , 75-C ) :   1.1613 B( 71-C , 72-C ) :   1.3252
B( 71-C , 73-S ) :   1.0841 B( 72-C , 97-H ) :   0.9785 B( 73-S , 74-C ) :   1.0863
B( 74-C , 75-C ) :   1.6194 B( 74-C , 76-Br) :   1.0158 B( 75-C , 98-H ) :   0.9996

-----------------------------------------------------------------------------
         ABSORPTION SPECTRUM VIA TRANSITION ELECTRIC DIPOLE MOMENTS
-----------------------------------------------------------------------------
State   Energy  Wavelength   fosc         T2         TX        TY        TZ
        (cm-1)    (nm)                  (au**2)     (au)      (au)      (au)
-----------------------------------------------------------------------------
   0    4980.3   2007.9   0.774065321  51.16797  -6.21172  -2.55075   2.46498
   1   10905.5    917.0   0.625822324  18.89218   2.64391  -0.33276  -3.43383
   2   12684.4    788.4   0.127215637   3.30178  -0.19100   1.02483   1.48830
   3   17976.7    556.3   0.436391532   7.99174  -1.99844  -1.86847  -0.71189
   4   17989.2    555.9   0.056821419   1.03986  -0.35765  -0.37079  -0.88004
   5   18755.0    533.2   0.242773457   4.26147  -0.62140  -0.26731   1.95035
   6   20179.5    495.6   0.170616133   2.78346   1.43483   0.79390  -0.30734
   7   21442.9    466.4   0.044702378   0.68631  -0.50891  -0.36712  -0.54088
   8   22246.1    449.5   0.130663284   1.93364   1.20747   0.12822  -0.67765
   9   23248.1    430.1   0.021952510   0.31087  -0.50617  -0.09341   0.21433
  10   23858.1    419.1   0.030810601   0.42515  -0.48980  -0.40994   0.13111
  11   24321.7    411.2   0.048915398   0.66211   0.34305   0.08378  -0.73308
  12   24530.0    407.7   0.139952623   1.87828  -0.93316  -0.70367  -0.71577
  13   25473.4    392.6   0.212434096   2.74545  -1.12317  -0.72297  -0.98043
  14   25832.8    387.1   0.009446495   0.12039   0.13543   0.13565   0.28921
  15   26385.9    379.0   0.030397997   0.37927   0.54929   0.16121   0.22707
  16   26451.2    378.1   0.000265054   0.00330   0.03730   0.01342   0.04157
  17   26754.9    373.8   0.129464724   1.59303  -1.05064  -0.63553  -0.29204
  18   27031.7    369.9   0.003500843   0.04264  -0.11940  -0.05409  -0.15954
  19   27521.1    363.4   0.041163237   0.49240  -0.67631  -0.12747  -0.13697
  20   27851.0    359.1   0.014239786   0.16832   0.10890  -0.03957  -0.39357
  21   28356.5    352.7   0.086337997   1.00236   0.51195   0.40241   0.76048
  22   29084.0    343.8   0.018054509   0.20436  -0.38541  -0.06057   0.22837
  23   29346.9    340.8   0.250280406   2.80763  -0.60412  -0.60204  -1.44230
  24   29553.8    338.4   0.035505238   0.39551   0.57193   0.19664  -0.17244
  25   30514.7    327.7   0.167566047   1.80781  -0.42483   0.75948   1.02495
  26   30913.9    323.5   0.047848264   0.50955   0.70311  -0.06295   0.10592
  27   31085.2    321.7   0.063314311   0.67054  -0.40400   0.30915   0.64168
  28   31323.7    319.2   0.015336788   0.16119   0.29849  -0.12843  -0.23579
  29   31564.5    316.8   0.082482777   0.86028  -0.28726   0.44743   0.75998
  30   32087.3    311.7   0.424910408   4.35954  -1.04988  -0.86517  -1.58391
  31   32218.5    310.4   0.068810924   0.70312   0.21013   0.34946   0.73269
  32   32713.8    305.7   0.009517710   0.09578  -0.16310  -0.23911  -0.10956
  33   32723.6    305.6   0.000749303   0.00754   0.08195  -0.02808  -0.00580
  34   32864.0    304.3   0.039441745   0.39510   0.57464   0.03109   0.25283
  35   33126.1    301.9   0.064020836   0.63625  -0.12720  -0.51885  -0.59233
  36   33229.3    300.9   0.196621054   1.94798  -0.65746   0.50117   1.12452
  37   33346.0    299.9   0.005694112   0.05622  -0.22795   0.01122  -0.06426
  38   33758.7    296.2   0.448948120   4.37810  -1.24904  -0.97203  -1.36863
  39   33906.1    294.9   0.151103447   1.46714   0.38905  -0.44337  -1.05792
  40   34140.3    292.9   0.067360976   0.64956  -0.49196  -0.27168  -0.57768
  41   34653.6    288.6   0.004791021   0.04552  -0.17073  -0.07838  -0.10110
  42   34713.3    288.1   0.020809941   0.19736   0.42094   0.05695   0.13008
  43   35197.1    284.1   0.000572485   0.00535  -0.04047   0.02665   0.05483
  44   35406.6    282.4   0.020416244   0.18983   0.24142   0.18853  -0.30984
  45   35687.3    280.2   0.023347684   0.21538   0.39875   0.03656  -0.23461
  46   36179.7    276.4   0.021473642   0.19540   0.42617   0.11114   0.03777
  47   36278.6    275.6   0.009205217   0.08353   0.26221   0.10062   0.06823
  48   36411.8    274.6   0.000025663   0.00023  -0.00317  -0.00792   0.01262
  49   36476.1    274.2   0.078389587   0.70750   0.51495   0.39342   0.53623
  50   36607.5    273.2   0.018586884   0.16715   0.37897   0.13432   0.07408
  51   36770.2    272.0   0.020242248   0.18123  -0.38586  -0.15474  -0.09166
  52   37342.1    267.8   0.054558977   0.48100  -0.56947  -0.38859  -0.07548
  53   37704.2    265.2   0.130404001   1.13861   0.08475   0.39644   0.98705
  54   37857.2    264.2   0.004920811   0.04279  -0.00349  -0.20679   0.00419
  55   37992.0    263.2   0.044053266   0.38173  -0.60549  -0.10840   0.05806
  56   38291.0    261.2   0.022780836   0.19586   0.29335   0.27760  -0.18095
  57   38561.9    259.3   0.130933012   1.11781   0.04079   0.39437   0.98011
  58   38853.6    257.4   0.152423337   1.29150   1.01546   0.32896  -0.39004
  59   39035.5    256.2   0.262215681   2.21143   0.58053  -0.49281  -1.27733
  60   39403.8    253.8   0.024753572   0.20681  -0.22639  -0.06511   0.38900
  61   39465.8    253.4   0.003465467   0.02891   0.09544  -0.03784  -0.13552
  62   39522.3    253.0   0.007974652   0.06643   0.19964  -0.12761  -0.10144
  63   39874.3    250.8   0.039048066   0.32239  -0.05792   0.29149   0.48381
  64   40012.5    249.9   0.013602290   0.11192  -0.11856  -0.08564  -0.30087

FINAL SINGLE POINT ENERGY     -8011.522846509829

DIPOLE MOMENT
-------------
                                X             Y             Z
Electronic contribution:     32.79970     -23.00609    -155.49261
Nuclear contribution   :    -36.91815      19.52538     156.30513
                        -----------------------------------------
Total Dipole Moment    :     -4.11844      -3.48072       0.81252
                        -----------------------------------------
Magnitude (a.u.)       :      5.45318
Magnitude (Debye)      :     13.86088

Rotational constants in cm-1:     0.000689     0.000220     0.000169
Rotational constants in MHz :    20.644111     6.591904     5.067563

                             ****ORCA TERMINATED NORMALLY****
TOTAL RUN TIME: 0 days 0 hours 11 minutes 7 seconds 563 msec
