                         Program Version 4.2.0 -  RELEASE  -
|  1> # ORCA input file
|  2> # SCF done       -206.800813403981          0.000610421931
|  3> ! CAM-B3LYP def2-SVP def2/J RIJCOSX Grid4 TightSCF
|  4> %maxcore 5000
|  5> %tddft
|  6>     Mode sTDDFT
|  7>     Ethresh 5.0
|  8>     maxcore 5000
|  9> end
| 10>
| 11> %pal
| 12>   nprocs 6
| 13>   end
| 14> * xyz 0 1
| 15>    C       12.49724       -13.18279        -8.67836
| 16>    C       11.53387       -13.25071        -7.74887
| 17>    C       10.82094       -14.41396        -7.30485
| 18>    C        9.90570       -14.16826        -6.34059
| 19>    C        9.82330       -12.80216        -5.94873
| 20>    S       10.95054       -11.83405        -6.85735
| 21>    C        9.00051       -12.25649        -4.98152
| 22>    C        8.06700       -12.92710        -4.16200
| 23>    C        7.44254       -12.09842        -3.28060
| 24>    C        7.84692       -10.74020        -3.35624
| 25>    S        9.03017       -10.54024        -4.61882
| 26>    C        7.36761        -9.78636        -2.47765
| 27>    C        7.65957        -8.42904        -2.32404
| 28>    C        7.08828        -7.73436        -1.20562
| 29>    C        7.40261        -6.36061        -0.93398
| 30>    N        6.87813        -5.75418         0.13859
| 31>    C        6.07823        -6.41635         0.93893
| 32>    C        5.75175        -7.77665         0.65554
| 33>    N        6.26233        -8.39203        -0.39384
| 34>    C        4.86652        -8.49222         1.49780
| 35>    N        4.14727        -9.05549         2.18925
| 36>    C        5.53334        -5.75745         2.07003
| 37>    N        5.06540        -5.24867         2.98268
| 38>    C        8.26987        -5.59323        -1.74031
| 39>    C        8.77730        -6.24551        -2.88694
| 40>    C        8.48612        -7.63467        -3.16173
| 41>    N        9.07719        -8.03751        -4.28075
| 42>    S        9.90648        -6.81303        -4.92863
| 43>    N        9.55896        -5.71419        -3.81978
| 44>    C        8.61962        -4.28310        -1.33104
| 45>    S        7.99671        -3.61980         0.15485
| 46>    C        8.91415        -2.14186         0.01594
| 47>    C        9.66274        -2.16128        -1.15933
| 48>    C        9.49963        -3.36689        -1.89496
| 49>    O       10.28477        -3.36846        -2.98300
| 50>    C       10.95426        -2.19167        -2.95288
| 51>    N       11.87609        -1.93032        -3.99699
| 52>    O       12.48189        -0.87813        -3.93256
| 53>    O       12.00317        -2.76546        -4.86521
| 54>    C       10.63444        -1.41274        -1.86981
| 55>    C        8.87398        -1.11789         1.00972
| 56>    C        8.82558         0.26092         0.68836
| 57>    C        8.53863         0.76698        -0.66618
| 58>    O        8.25959         0.14992        -1.65082
| 59>    S        8.58518         2.56548        -0.64617
| 60>    C        8.90942         2.63641         1.11162
| 61>    O        9.07197         3.66076         1.70414
| 62>    C        8.93539         1.26017         1.65302
| 63>    C        9.08146         0.98529         3.02458
| 64>    C        8.99977        -0.37862         3.34833
| 65>    C        8.89957        -1.38372         2.39381
| 66>    C        8.93037        -2.67603         3.12508
| 67>    O        8.99563        -3.79661         2.72341
| 68>    O        8.92111        -2.38503         4.46476
| 69>    C        8.93288        -1.03065         4.68421
| 70>    O        8.85679        -0.55939         5.77417
| 71>    C        9.31861         2.00821         4.01495
| 72>    C       10.22252         1.84417         5.00274
| 73>    C       10.46442         2.83138         5.99760
| 74>    C       11.43168         2.71907         6.94760
| 75>    C       11.69906         3.63824         8.04555
| 76>    C       11.06152         4.82315         8.29747
| 77>    C       11.37307         5.67494         9.37991
| 78>    N       11.58024         6.41012        10.23652
| 79>    C       10.01428         5.37777         7.52955
| 80>    N        9.16130         5.90168         6.96819
| 81>    C       12.77965         3.07291         8.84423
| 82>    C       13.19736         1.85357         8.25612
| 83>    C       12.40258         1.59095         7.04393
| 84>    O       12.54457         0.66006         6.28168
| 85>    C       14.20605         1.08173         8.78106
| 86>    C       14.83435         1.53294         9.94535
| 87>    C       14.41064         2.75237        10.52859
| 88>    C       13.39164         3.53217         9.99731
| 89>    S       15.32059         3.12490        11.96058
| 90>    C       16.24589         1.66059        11.75880
| 91>    C       15.89211         0.92722        10.67628
| 92>   Br       17.58892         1.23757        12.99606
| 93>    H       12.82555       -14.06711        -9.19575
| 94>    H       12.97025       -12.25262        -8.93538
| 95>    H       11.02818       -15.38086        -7.72720
| 96>    H        9.28220       -14.91925        -5.88979
| 97>    H        7.88357       -13.98405        -4.23192
| 98>    H        6.70628       -12.41907        -2.56481
| 99>    H        6.66375       -10.16004        -1.74234
|100>    H       11.04886        -0.45188        -1.64616
|101>    H        8.80124         2.95048         3.89366
|102>    H       10.81513         0.94322         5.05230
|103>    H        9.81379         3.69591         5.99106
|104>    H       14.49899         0.15821         8.30682
|105>    H       13.10747         4.45165        10.48069
|106>    H       16.35696        -0.00244        10.40314
|107> *
|108>
|109>                          ****END OF INPUT****

CARTESIAN COORDINATES (ANGSTROEM)
---------------------------------
  C     12.497240  -13.182790   -8.678360
  C     11.533870  -13.250710   -7.748870
  C     10.820940  -14.413960   -7.304850
  C      9.905700  -14.168260   -6.340590
  C      9.823300  -12.802160   -5.948730
  S     10.950540  -11.834050   -6.857350
  C      9.000510  -12.256490   -4.981520
  C      8.067000  -12.927100   -4.162000
  C      7.442540  -12.098420   -3.280600
  C      7.846920  -10.740200   -3.356240
  S      9.030170  -10.540240   -4.618820
  C      7.367610   -9.786360   -2.477650
  C      7.659570   -8.429040   -2.324040
  C      7.088280   -7.734360   -1.205620
  C      7.402610   -6.360610   -0.933980
  N      6.878130   -5.754180    0.138590
  C      6.078230   -6.416350    0.938930
  C      5.751750   -7.776650    0.655540
  N      6.262330   -8.392030   -0.393840
  C      4.866520   -8.492220    1.497800
  N      4.147270   -9.055490    2.189250
  C      5.533340   -5.757450    2.070030
  N      5.065400   -5.248670    2.982680
  C      8.269870   -5.593230   -1.740310
  C      8.777300   -6.245510   -2.886940
  C      8.486120   -7.634670   -3.161730
  N      9.077190   -8.037510   -4.280750
  S      9.906480   -6.813030   -4.928630
  N      9.558960   -5.714190   -3.819780
  C      8.619620   -4.283100   -1.331040
  S      7.996710   -3.619800    0.154850
  C      8.914150   -2.141860    0.015940
  C      9.662740   -2.161280   -1.159330
  C      9.499630   -3.366890   -1.894960
  O     10.284770   -3.368460   -2.983000
  C     10.954260   -2.191670   -2.952880
  N     11.876090   -1.930320   -3.996990
  O     12.481890   -0.878130   -3.932560
  O     12.003170   -2.765460   -4.865210
  C     10.634440   -1.412740   -1.869810
  C      8.873980   -1.117890    1.009720
  C      8.825580    0.260920    0.688360
  C      8.538630    0.766980   -0.666180
  O      8.259590    0.149920   -1.650820
  S      8.585180    2.565480   -0.646170
  C      8.909420    2.636410    1.111620
  O      9.071970    3.660760    1.704140
  C      8.935390    1.260170    1.653020
  C      9.081460    0.985290    3.024580
  C      8.999770   -0.378620    3.348330
  C      8.899570   -1.383720    2.393810
  C      8.930370   -2.676030    3.125080
  O      8.995630   -3.796610    2.723410
  O      8.921110   -2.385030    4.464760
  C      8.932880   -1.030650    4.684210
  O      8.856790   -0.559390    5.774170
  C      9.318610    2.008210    4.014950
  C     10.222520    1.844170    5.002740
  C     10.464420    2.831380    5.997600
  C     11.431680    2.719070    6.947600
  C     11.699060    3.638240    8.045550
  C     11.061520    4.823150    8.297470
  C     11.373070    5.674940    9.379910
  N     11.580240    6.410120   10.236520
  C     10.014280    5.377770    7.529550
  N      9.161300    5.901680    6.968190
  C     12.779650    3.072910    8.844230
  C     13.197360    1.853570    8.256120
  C     12.402580    1.590950    7.043930
  O     12.544570    0.660060    6.281680
  C     14.206050    1.081730    8.781060
  C     14.834350    1.532940    9.945350
  C     14.410640    2.752370   10.528590
  C     13.391640    3.532170    9.997310
  S     15.320590    3.124900   11.960580
  C     16.245890    1.660590   11.758800
  C     15.892110    0.927220   10.676280
  Br    17.588920    1.237570   12.996060
  H     12.825550  -14.067110   -9.195750
  H     12.970250  -12.252620   -8.935380
  H     11.028180  -15.380860   -7.727200
  H      9.282200  -14.919250   -5.889790
  H      7.883570  -13.984050   -4.231920
  H      6.706280  -12.419070   -2.564810
  H      6.663750  -10.160040   -1.742340
  H     11.048860   -0.451880   -1.646160
  H      8.801240    2.950480    3.893660
  H     10.815130    0.943220    5.052300
  H      9.813790    3.695910    5.991060
  H     14.498990    0.158210    8.306820
  H     13.107470    4.451650   10.480690
  H     16.356960   -0.002440   10.403140

 Total Charge           Charge          ....    0
 Multiplicity           Mult            ....    1
 Number of Electrons    NEL             ....  598
 Basis Dimension        Dim             .... 1204

ORBITAL ENERGIES
----------------

  NO   OCC          E(Eh)            E(eV)
   0   2.0000    -482.886691    -13140.0149
   1   2.0000     -89.039770     -2422.8953
   2   2.0000     -88.977089     -2421.1897
   3   2.0000     -88.971421     -2421.0355
   4   2.0000     -88.970938     -2421.0223
   5   2.0000     -88.970342     -2421.0061
   6   2.0000     -88.955705     -2420.6078
   7   2.0000     -62.564398     -1702.4638
   8   2.0000     -56.398353     -1534.6772
   9   2.0000     -56.395628     -1534.6030
  10   2.0000     -56.395600     -1534.6023
  11   2.0000     -19.304692      -525.3074
  12   2.0000     -19.293501      -525.0029
  13   2.0000     -19.249326      -523.8008
  14   2.0000     -19.245778      -523.7042
  15   2.0000     -19.242643      -523.6189
  16   2.0000     -19.240825      -523.5695
  17   2.0000     -19.239972      -523.5462
  18   2.0000     -19.239888      -523.5440
  19   2.0000     -19.221616      -523.0468
  20   2.0000     -14.654368      -398.7656
  21   2.0000     -14.463437      -393.5701
  22   2.0000     -14.460860      -393.5000
  23   2.0000     -14.456519      -393.3819
  24   2.0000     -14.443691      -393.0328
  25   2.0000     -14.431027      -392.6882
  26   2.0000     -14.423570      -392.4853
  27   2.0000     -14.417975      -392.3331
  28   2.0000     -14.417517      -392.3206
  29   2.0000     -10.435858      -283.9741
  30   2.0000     -10.435306      -283.9591
  31   2.0000     -10.411267      -283.3050
  32   2.0000     -10.409263      -283.2504
  33   2.0000     -10.385608      -282.6068
  34   2.0000     -10.383838      -282.5586
  35   2.0000     -10.374815      -282.3131
  36   2.0000     -10.372030      -282.2373
  37   2.0000     -10.360641      -281.9274
  38   2.0000     -10.348994      -281.6105
  39   2.0000     -10.347647      -281.5738
  40   2.0000     -10.347425      -281.5678
  41   2.0000     -10.346665      -281.5471
  42   2.0000     -10.346446      -281.5411
  43   2.0000     -10.346428      -281.5406
  44   2.0000     -10.346294      -281.5370
  45   2.0000     -10.344135      -281.4782
  46   2.0000     -10.343536      -281.4619
  47   2.0000     -10.339229      -281.3447
  48   2.0000     -10.338368      -281.3213
  49   2.0000     -10.336170      -281.2615
  50   2.0000     -10.334915      -281.2273
  51   2.0000     -10.334148      -281.2065
  52   2.0000     -10.332903      -281.1726
  53   2.0000     -10.332639      -281.1654
  54   2.0000     -10.327822      -281.0343
  55   2.0000     -10.326062      -280.9864
  56   2.0000     -10.325133      -280.9612
  57   2.0000     -10.324300      -280.9385
  58   2.0000     -10.323945      -280.9288
  59   2.0000     -10.320103      -280.8243
  60   2.0000     -10.319983      -280.8210
  61   2.0000     -10.318417      -280.7784
  62   2.0000     -10.317897      -280.7642
  63   2.0000     -10.317099      -280.7425
  64   2.0000     -10.316257      -280.7196
  65   2.0000     -10.311294      -280.5846
  66   2.0000     -10.310893      -280.5737
  67   2.0000     -10.309789      -280.5436
  68   2.0000     -10.309719      -280.5417
  69   2.0000     -10.309402      -280.5331
  70   2.0000     -10.308276      -280.5025
  71   2.0000     -10.307518      -280.4818
  72   2.0000     -10.305676      -280.4317
  73   2.0000     -10.305308      -280.4217
  74   2.0000     -10.304402      -280.3970
  75   2.0000     -10.303092      -280.3614
  76   2.0000     -10.302940      -280.3573
  77   2.0000     -10.299977      -280.2766
  78   2.0000     -10.298068      -280.2247
  79   2.0000     -10.297743      -280.2158
  80   2.0000     -10.294505      -280.1277
  81   2.0000     -10.292492      -280.0729
  82   2.0000      -8.793825      -239.2921
  83   2.0000      -8.131043      -221.2569
  84   2.0000      -8.073084      -219.6798
  85   2.0000      -8.068121      -219.5447
  86   2.0000      -8.064525      -219.4469
  87   2.0000      -8.063015      -219.4058
  88   2.0000      -8.054883      -219.1845
  89   2.0000      -6.630154      -180.4156
  90   2.0000      -6.615565      -180.0187
  91   2.0000      -6.615326      -180.0122
  92   2.0000      -6.102289      -166.0517
  93   2.0000      -6.094479      -165.8392
  94   2.0000      -6.093476      -165.8119
  95   2.0000      -6.042770      -164.4321
  96   2.0000      -6.038495      -164.3158
  97   2.0000      -6.037812      -164.2972
  98   2.0000      -6.034302      -164.2017
  99   2.0000      -6.034283      -164.2012
 100   2.0000      -6.033834      -164.1890
 101   2.0000      -6.032661      -164.1570
 102   2.0000      -6.029838      -164.0802
 103   2.0000      -6.028927      -164.0554
 104   2.0000      -6.027772      -164.0240
 105   2.0000      -6.025836      -163.9713
 106   2.0000      -6.025199      -163.9540
 107   2.0000      -6.023730      -163.9140
 108   2.0000      -6.020486      -163.8258
 109   2.0000      -6.015948      -163.7023
 110   2.0000      -2.745996       -74.7224
 111   2.0000      -2.741914       -74.6113
 112   2.0000      -2.741796       -74.6081
 113   2.0000      -2.730173       -74.2918
 114   2.0000      -2.730145       -74.2910
 115   2.0000      -1.326171       -36.0869
 116   2.0000      -1.244695       -33.8699
 117   2.0000      -1.229756       -33.4634
 118   2.0000      -1.173939       -31.9445
 119   2.0000      -1.169128       -31.8136
 120   2.0000      -1.168818       -31.8051
 121   2.0000      -1.142548       -31.0903
 122   2.0000      -1.140840       -31.0438
 123   2.0000      -1.136743       -30.9324
 124   2.0000      -1.131046       -30.7773
 125   2.0000      -1.122444       -30.5432
 126   2.0000      -1.049884       -28.5688
 127   2.0000      -1.025030       -27.8925
 128   2.0000      -1.024330       -27.8734
 129   2.0000      -1.020476       -27.7686
 130   2.0000      -1.015493       -27.6330
 131   2.0000      -1.013793       -27.5867
 132   2.0000      -1.003561       -27.3083
 133   2.0000      -0.999674       -27.2025
 134   2.0000      -0.997270       -27.1371
 135   2.0000      -0.996233       -27.1089
 136   2.0000      -0.991819       -26.9888
 137   2.0000      -0.990284       -26.9470
 138   2.0000      -0.974492       -26.5173
 139   2.0000      -0.958368       -26.0785
 140   2.0000      -0.947604       -25.7856
 141   2.0000      -0.938825       -25.5467
 142   2.0000      -0.931149       -25.3379
 143   2.0000      -0.919116       -25.0104
 144   2.0000      -0.910886       -24.7865
 145   2.0000      -0.909760       -24.7558
 146   2.0000      -0.906698       -24.6725
 147   2.0000      -0.900833       -24.5129
 148   2.0000      -0.888521       -24.1779
 149   2.0000      -0.887875       -24.1603
 150   2.0000      -0.885568       -24.0975
 151   2.0000      -0.876372       -23.8473
 152   2.0000      -0.872919       -23.7533
 153   2.0000      -0.863150       -23.4875
 154   2.0000      -0.847904       -23.0726
 155   2.0000      -0.842572       -22.9276
 156   2.0000      -0.835080       -22.7237
 157   2.0000      -0.830968       -22.6118
 158   2.0000      -0.821290       -22.3484
 159   2.0000      -0.811598       -22.0847
 160   2.0000      -0.803393       -21.8614
 161   2.0000      -0.795357       -21.6428
 162   2.0000      -0.789342       -21.4791
 163   2.0000      -0.780287       -21.2327
 164   2.0000      -0.771541       -20.9947
 165   2.0000      -0.763819       -20.7846
 166   2.0000      -0.759203       -20.6590
 167   2.0000      -0.755406       -20.5556
 168   2.0000      -0.735778       -20.0215
 169   2.0000      -0.727536       -19.7973
 170   2.0000      -0.721644       -19.6369
 171   2.0000      -0.711023       -19.3479
 172   2.0000      -0.706609       -19.2278
 173   2.0000      -0.699382       -19.0312
 174   2.0000      -0.698288       -19.0014
 175   2.0000      -0.696805       -18.9610
 176   2.0000      -0.693611       -18.8741
 177   2.0000      -0.681973       -18.5574
 178   2.0000      -0.670786       -18.2530
 179   2.0000      -0.665165       -18.1000
 180   2.0000      -0.660056       -17.9610
 181   2.0000      -0.659036       -17.9333
 182   2.0000      -0.656480       -17.8637
 183   2.0000      -0.655027       -17.8242
 184   2.0000      -0.642983       -17.4964
 185   2.0000      -0.640117       -17.4185
 186   2.0000      -0.639437       -17.4000
 187   2.0000      -0.637163       -17.3381
 188   2.0000      -0.632982       -17.2243
 189   2.0000      -0.628031       -17.0896
 190   2.0000      -0.626752       -17.0548
 191   2.0000      -0.626352       -17.0439
 192   2.0000      -0.624370       -16.9900
 193   2.0000      -0.620051       -16.8724
 194   2.0000      -0.615237       -16.7414
 195   2.0000      -0.607157       -16.5216
 196   2.0000      -0.604414       -16.4469
 197   2.0000      -0.599493       -16.3130
 198   2.0000      -0.596185       -16.2230
 199   2.0000      -0.589193       -16.0328
 200   2.0000      -0.583688       -15.8830
 201   2.0000      -0.581835       -15.8325
 202   2.0000      -0.578725       -15.7479
 203   2.0000      -0.572627       -15.5820
 204   2.0000      -0.567889       -15.4531
 205   2.0000      -0.565829       -15.3970
 206   2.0000      -0.562123       -15.2961
 207   2.0000      -0.558414       -15.1952
 208   2.0000      -0.556924       -15.1547
 209   2.0000      -0.555491       -15.1157
 210   2.0000      -0.554773       -15.0961
 211   2.0000      -0.552447       -15.0328
 212   2.0000      -0.548524       -14.9261
 213   2.0000      -0.543002       -14.7758
 214   2.0000      -0.542319       -14.7573
 215   2.0000      -0.540776       -14.7153
 216   2.0000      -0.539533       -14.6814
 217   2.0000      -0.533799       -14.5254
 218   2.0000      -0.532459       -14.4889
 219   2.0000      -0.526984       -14.3400
 220   2.0000      -0.525763       -14.3067
 221   2.0000      -0.523995       -14.2586
 222   2.0000      -0.521170       -14.1818
 223   2.0000      -0.517402       -14.0792
 224   2.0000      -0.516256       -14.0481
 225   2.0000      -0.513385       -13.9699
 226   2.0000      -0.510786       -13.8992
 227   2.0000      -0.509491       -13.8640
 228   2.0000      -0.505867       -13.7653
 229   2.0000      -0.505024       -13.7424
 230   2.0000      -0.502462       -13.6727
 231   2.0000      -0.501549       -13.6478
 232   2.0000      -0.497808       -13.5461
 233   2.0000      -0.496835       -13.5196
 234   2.0000      -0.495197       -13.4750
 235   2.0000      -0.494104       -13.4453
 236   2.0000      -0.491119       -13.3640
 237   2.0000      -0.487872       -13.2757
 238   2.0000      -0.485050       -13.1989
 239   2.0000      -0.481682       -13.1072
 240   2.0000      -0.479985       -13.0611
 241   2.0000      -0.477650       -12.9975
 242   2.0000      -0.475950       -12.9513
 243   2.0000      -0.468000       -12.7349
 244   2.0000      -0.467105       -12.7106
 245   2.0000      -0.461759       -12.5651
 246   2.0000      -0.459557       -12.5052
 247   2.0000      -0.459161       -12.4944
 248   2.0000      -0.456502       -12.4221
 249   2.0000      -0.455591       -12.3973
 250   2.0000      -0.452650       -12.3172
 251   2.0000      -0.450308       -12.2535
 252   2.0000      -0.450024       -12.2458
 253   2.0000      -0.449740       -12.2380
 254   2.0000      -0.445373       -12.1192
 255   2.0000      -0.443506       -12.0684
 256   2.0000      -0.442170       -12.0321
 257   2.0000      -0.440582       -11.9888
 258   2.0000      -0.436647       -11.8818
 259   2.0000      -0.434789       -11.8312
 260   2.0000      -0.428196       -11.6518
 261   2.0000      -0.426946       -11.6178
 262   2.0000      -0.425762       -11.5856
 263   2.0000      -0.423671       -11.5287
 264   2.0000      -0.416694       -11.3388
 265   2.0000      -0.415458       -11.3052
 266   2.0000      -0.409668       -11.1476
 267   2.0000      -0.408803       -11.1241
 268   2.0000      -0.405064       -11.0223
 269   2.0000      -0.401259       -10.9188
 270   2.0000      -0.399615       -10.8741
 271   2.0000      -0.394598       -10.7376
 272   2.0000      -0.390689       -10.6312
 273   2.0000      -0.388711       -10.5774
 274   2.0000      -0.387876       -10.5546
 275   2.0000      -0.382303       -10.4030
 276   2.0000      -0.379695       -10.3320
 277   2.0000      -0.376025       -10.2321
 278   2.0000      -0.375763       -10.2250
 279   2.0000      -0.375163       -10.2087
 280   2.0000      -0.371363       -10.1053
 281   2.0000      -0.370522       -10.0824
 282   2.0000      -0.365137        -9.9359
 283   2.0000      -0.360497        -9.8096
 284   2.0000      -0.358888        -9.7658
 285   2.0000      -0.356445        -9.6994
 286   2.0000      -0.351309        -9.5596
 287   2.0000      -0.350214        -9.5298
 288   2.0000      -0.348036        -9.4705
 289   2.0000      -0.346128        -9.4186
 290   2.0000      -0.343371        -9.3436
 291   2.0000      -0.339091        -9.2271
 292   2.0000      -0.319633        -8.6977
 293   2.0000      -0.317307        -8.6344
 294   2.0000      -0.309006        -8.4085
 295   2.0000      -0.303526        -8.2594
 296   2.0000      -0.294016        -8.0006
 297   2.0000      -0.278731        -7.5846
 298   2.0000      -0.226879        -6.1737
 299   0.0000      -0.134091        -3.6488
 300   0.0000      -0.102369        -2.7856
 301   0.0000      -0.098684        -2.6853
 302   0.0000      -0.078016        -2.1229
 303   0.0000      -0.072978        -1.9858

MULLIKEN ATOMIC CHARGES
-----------------------
   0 C :   -0.004928
   1 C :   -0.075403
   2 C :    0.071071
   3 C :    0.029675
   4 C :   -0.058602
   5 S :    0.115061
   6 C :   -0.040134
   7 C :    0.047960
   8 C :    0.019696
   9 C :    0.023642
  10 S :    0.146740
  11 C :   -0.140019
  12 C :    0.112780
  13 C :   -0.056959
  14 C :   -0.049289
  15 N :   -0.029068
  16 C :   -0.066055
  17 C :   -0.155749
  18 N :    0.058443
  19 C :   -0.227275
  20 N :    0.232150
  21 C :   -0.234439
  22 N :    0.249297
  23 C :    0.203865
  24 C :   -0.040638
  25 C :    0.059451
  26 N :   -0.333866
  27 S :    0.548221
  28 N :   -0.271843
  29 C :   -0.287956
  30 S :    0.259505
  31 C :   -0.232120
  32 C :    0.185887
  33 C :    0.169844
  34 O :   -0.147842
  35 C :    0.238665
  36 N :    0.272613
  37 O :   -0.248371
  38 O :   -0.234386
  39 C :   -0.100533
  40 C :    0.076661
  41 C :    0.017954
  42 C :    0.016237
  43 O :   -0.114061
  44 S :    0.029542
  45 C :    0.039319
  46 O :   -0.123916
  47 C :    0.041617
  48 C :    0.025632
  49 C :   -0.090700
  50 C :   -0.081662
  51 C :    0.240494
  52 O :   -0.100061
  53 O :   -0.221152
  54 C :    0.233143
  55 O :   -0.091862
  56 C :   -0.009567
  57 C :    0.044775
  58 C :   -0.047469
  59 C :   -0.051104
  60 C :    0.322830
  61 C :   -0.343332
  62 C :   -0.188291
  63 N :    0.154675
  64 C :   -0.188241
  65 N :    0.155639
  66 C :    0.015396
  67 C :   -0.015598
  68 C :    0.151255
  69 O :   -0.147598
  70 C :   -0.062433
  71 C :    0.118884
  72 C :   -0.091530
  73 C :   -0.017406
  74 S :    0.189917
  75 C :   -0.123702
  76 C :    0.041377
  77 Br:    0.026634
  78 H :    0.035921
  79 H :    0.037451
  80 H :    0.002413
  81 H :   -0.000261
  82 H :   -0.006323
  83 H :    0.002185
  84 H :    0.005394
  85 H :    0.004637
  86 H :    0.041230
  87 H :    0.034077
  88 H :    0.020289
  89 H :   -0.009120
  90 H :   -0.006501
  91 H :   -0.002777
Sum of atomic charges:   -0.0000000

LOEWDIN ATOMIC CHARGES
----------------------
   0 C :   -0.036375
   1 C :   -0.143827
   2 C :   -0.007110
   3 C :   -0.027075
   4 C :   -0.144985
   5 S :    0.383827
   6 C :   -0.202688
   7 C :   -0.014453
   8 C :   -0.033842
   9 C :   -0.118807
  10 S :    0.454750
  11 C :   -0.046799
  12 C :   -0.017296
  13 C :   -0.008428
  14 C :   -0.004692
  15 N :   -0.032753
  16 C :   -0.008065
  17 C :   -0.046163
  18 N :    0.004556
  19 C :   -0.039712
  20 N :   -0.016145
  21 C :   -0.034336
  22 N :   -0.000267
  23 C :   -0.078274
  24 C :   -0.036426
  25 C :   -0.042635
  26 N :   -0.293490
  27 S :    0.666219
  28 N :   -0.271533
  29 C :   -0.173823
  30 S :    0.559129
  31 C :   -0.213721
  32 C :   -0.056131
  33 C :    0.020787
  34 O :    0.031522
  35 C :    0.027648
  36 N :    0.272159
  37 O :   -0.209448
  38 O :   -0.195970
  39 C :   -0.015880
  40 C :    0.015366
  41 C :   -0.062269
  42 C :   -0.048463
  43 O :   -0.101645
  44 S :    0.311908
  45 C :   -0.046012
  46 O :   -0.106698
  47 C :   -0.043469
  48 C :    0.015402
  49 C :   -0.036156
  50 C :   -0.048431
  51 C :    0.102551
  52 O :   -0.102402
  53 O :   -0.048802
  54 C :    0.106460
  55 O :   -0.088615
  56 C :    0.015591
  57 C :    0.005233
  58 C :    0.071883
  59 C :   -0.076116
  60 C :    0.073897
  61 C :   -0.130821
  62 C :   -0.017117
  63 N :   -0.048326
  64 C :   -0.021156
  65 N :   -0.043069
  66 C :   -0.020148
  67 C :   -0.050999
  68 C :    0.088945
  69 O :   -0.137448
  70 C :    0.025155
  71 C :   -0.030935
  72 C :   -0.142184
  73 C :   -0.008476
  74 S :    0.434951
  75 C :   -0.270172
  76 C :   -0.069554
  77 Br:    0.139688
  78 H :    0.035983
  79 H :    0.033501
  80 H :    0.039611
  81 H :    0.037084
  82 H :    0.033609
  83 H :    0.038500
  84 H :    0.042252
  85 H :    0.041352
  86 H :    0.042090
  87 H :    0.031338
  88 H :    0.045212
  89 H :    0.041800
  90 H :    0.041300
  91 H :    0.039371

  Mayer bond orders larger than 0.100000
B(  0-C ,  1-C ) :   1.8540 B(  0-C , 78-H ) :   0.9522 B(  0-C , 79-H ) :   0.9428
B(  1-C ,  2-C ) :   1.0817 B(  1-C ,  5-S ) :   1.0031 B(  2-C ,  3-C ) :   1.6486
B(  2-C , 80-H ) :   0.9936 B(  3-C ,  4-C ) :   1.1620 B(  3-C , 81-H ) :   0.9929
B(  4-C ,  5-S ) :   1.0867 B(  4-C ,  6-C ) :   1.4922 B(  6-C ,  7-C ) :   1.1991
B(  6-C , 10-S ) :   1.0089 B(  7-C ,  8-C ) :   1.5510 B(  7-C , 82-H ) :   0.9929
B(  8-C ,  9-C ) :   1.1775 B(  8-C , 83-H ) :   1.0040 B(  9-C , 10-S ) :   1.1019
B(  9-C , 11-C ) :   1.3909 B( 11-C , 12-C ) :   1.3434 B( 11-C , 84-H ) :   0.9456
B( 12-C , 13-C ) :   1.1607 B( 12-C , 23-C ) :   0.1058 B( 12-C , 25-C ) :   1.1291
B( 13-C , 14-C ) :   1.1268 B( 13-C , 18-N ) :   1.5171 B( 14-C , 15-N ) :   1.3787
B( 14-C , 23-C ) :   1.2614 B( 15-N , 16-C ) :   1.6700 B( 16-C , 17-C ) :   1.2480
B( 16-C , 21-C ) :   1.1565 B( 17-C , 18-N ) :   1.6669 B( 17-C , 19-C ) :   1.1720
B( 19-C , 20-N ) :   3.0459 B( 21-C , 22-N ) :   3.0399 B( 23-C , 24-C ) :   1.1587
B( 23-C , 29-C ) :   1.1633 B( 24-C , 25-C ) :   1.1058 B( 24-C , 28-N ) :   1.5711
B( 25-C , 26-N ) :   1.4896 B( 26-N , 27-S ) :   1.2477 B( 26-N , 28-N ) :   0.1362
B( 27-S , 28-N ) :   1.2631 B( 29-C , 30-S ) :   1.1874 B( 29-C , 31-C ) :   0.1156
B( 29-C , 33-C ) :   1.4032 B( 30-S , 31-C ) :   1.0970 B( 31-C , 32-C ) :   1.3583
B( 31-C , 40-C ) :   1.1093 B( 32-C , 33-C ) :   1.2598 B( 32-C , 39-C ) :   1.0805
B( 33-C , 34-O ) :   1.1436 B( 34-O , 35-C ) :   1.1442 B( 35-C , 36-N ) :   0.9123
B( 35-C , 39-C ) :   1.5559 B( 36-N , 37-O ) :   1.5342 B( 36-N , 38-O ) :   1.5154
B( 37-O , 38-O ) :   0.2790 B( 39-C , 85-H ) :   1.0132 B( 40-C , 41-C ) :   1.3585
B( 40-C , 50-C ) :   1.3218 B( 41-C , 42-C ) :   0.8465 B( 41-C , 47-C ) :   1.3138
B( 42-C , 43-O ) :   2.1798 B( 42-C , 44-S ) :   1.0183 B( 43-O , 44-S ) :   0.1056
B( 44-S , 45-C ) :   1.0406 B( 44-S , 46-O ) :   0.1079 B( 45-C , 46-O ) :   2.1646
B( 45-C , 47-C ) :   0.8427 B( 47-C , 48-C ) :   1.3788 B( 48-C , 49-C ) :   1.3346
B( 48-C , 56-C ) :   1.0506 B( 49-C , 50-C ) :   1.3808 B( 49-C , 54-C ) :   0.8961
B( 50-C , 51-C ) :   0.9000 B( 51-C , 52-O ) :   2.2426 B( 51-C , 53-O ) :   1.0566
B( 53-O , 54-C ) :   1.0528 B( 54-C , 55-O ) :   2.2671 B( 56-C , 57-C ) :   1.6562
B( 56-C , 86-H ) :   0.9510 B( 57-C , 58-C ) :   1.1377 B( 57-C , 87-H ) :   0.9652
B( 58-C , 59-C ) :   1.6020 B( 58-C , 88-H ) :   0.9615 B( 59-C , 60-C ) :   1.0480
B( 59-C , 68-C ) :   0.9326 B( 60-C , 61-C ) :   1.6427 B( 60-C , 66-C ) :   1.0088
B( 61-C , 62-C ) :   1.1419 B( 61-C , 64-C ) :   1.1431 B( 62-C , 63-N ) :   2.9694
B( 64-C , 65-N ) :   2.9632 B( 66-C , 67-C ) :   1.2738 B( 66-C , 73-C ) :   1.4030
B( 67-C , 68-C ) :   0.9490 B( 67-C , 70-C ) :   1.4220 B( 68-C , 69-O ) :   2.1930
B( 70-C , 71-C ) :   1.2496 B( 70-C , 89-H ) :   1.0160 B( 71-C , 72-C ) :   1.2989
B( 71-C , 76-C ) :   1.1625 B( 72-C , 73-C ) :   1.3386 B( 72-C , 74-S ) :   1.0876
B( 73-C , 90-H ) :   0.9787 B( 74-S , 75-C ) :   1.0864 B( 75-C , 76-C ) :   1.6171
B( 75-C , 77-Br) :   1.0203 B( 76-C , 91-H ) :   1.0006

-----------------------------------------------------------------------------
         ABSORPTION SPECTRUM VIA TRANSITION ELECTRIC DIPOLE MOMENTS
-----------------------------------------------------------------------------
State   Energy  Wavelength   fosc         T2         TX        TY        TZ
        (cm-1)    (nm)                  (au**2)     (au)      (au)      (au)
-----------------------------------------------------------------------------
   0    6254.8   1598.8   0.518382444  27.28445   0.52559  -4.34680  -2.84843
   1   13691.1    730.4   0.031952025   0.76831   0.07646   0.87242  -0.03671
   2   15741.6    635.3   0.424320278   8.87403   0.67315   2.20783   1.88318
   3   17103.8    584.7   0.090817181   1.74804   1.23312   0.47684  -0.00914
   4   18616.2    537.2   0.509428180   9.00879   1.47329  -1.62797  -2.04644
   5   20117.3    497.1   0.026219099   0.42906   0.01602  -0.54278   0.36633
   6   22381.2    446.8   0.023977406   0.35269   0.48975  -0.00055  -0.33590
   7   23106.2    432.8   0.077348189   1.10204  -0.37992  -0.83944  -0.50304
   8   23670.7    422.5   0.074995545   1.04304  -0.43770  -0.91506   0.11881
   9   24309.5    411.4   0.179075983   2.42514   0.41923  -0.91395  -1.18916
  10   24639.0    405.9   0.217586248   2.90726  -0.32318   0.41180   1.62273
  11   25240.0    396.2   0.029464094   0.38431   0.07841  -0.11069  -0.60490
  12   25507.0    392.0   0.112067669   1.44643   0.11715   0.83035   0.86210
  13   25668.5    389.6   0.095870415   1.22959   0.18239   0.46143   0.99167
  14   25773.6    388.0   0.016707718   0.21341  -0.18407   0.09687   0.41249
  15   26313.4    380.0   0.513271167   6.42163   1.26109  -0.01500   2.19797
  16   26638.7    375.4   0.016511820   0.20406  -0.27766  -0.31657  -0.16356
  17   27382.8    365.2   0.052376519   0.62970  -0.77938  -0.11147  -0.09918
  18   27472.9    364.0   0.039704061   0.47578   0.07244   0.60758  -0.31840
  19   27608.0    362.2   0.021256213   0.25347   0.46389  -0.01085   0.19534
  20   27672.2    361.4   0.049050725   0.58355  -0.63443   0.09426  -0.41492
  21   28593.6    349.7   0.132719862   1.52807  -0.95697  -0.68294  -0.38194
  22   29058.0    344.1   0.005335273   0.06045  -0.10843  -0.22006  -0.01625
  23   29291.1    341.4   0.016819259   0.18904   0.36817  -0.11936  -0.19810
  24   29412.8    340.0   0.024126359   0.27004  -0.21334   0.43877   0.17891
  25   29725.0    336.4   0.068970965   0.76387   0.81503   0.16194   0.27088
  26   30268.1    330.4   0.016724179   0.18190  -0.23018  -0.27430   0.23169
  27   30424.3    328.7   0.046968103   0.50823   0.34976   0.55745  -0.27412
  28   30585.4    327.0   0.093241943   1.00363  -0.51526  -0.41350   0.75309
  29   31128.2    321.3   0.607131338   6.42101   1.45565   0.14460  -2.06910
  30   31184.8    320.7   0.084974326   0.89706   0.55303   0.01930   0.76866
  31   31701.7    315.4   0.016139863   0.16761   0.33579  -0.16240   0.16876
  32   32136.0    311.2   0.007458168   0.07640  -0.03019   0.27430  -0.01595
  33   32313.8    309.5   0.250000260   2.54699   1.26129  -0.74801   0.62979
  34   32431.5    308.3   0.373897982   3.79544  -1.45297   0.66925  -1.11194
  35   32614.3    306.6   0.008190782   0.08268  -0.20118  -0.12225  -0.16510
  36   32626.0    306.5   0.132067966   1.33263  -0.32836   1.10669  -0.00732
  37   33140.0    301.8   0.033329495   0.33109   0.15439  -0.50078  -0.23764
  38   33578.5    297.8   0.002994816   0.02936   0.13102  -0.08112  -0.07494
  39   33924.1    294.8   0.032568180   0.31605  -0.35687  -0.28625   0.32674
  40   33957.0    294.5   0.126109904   1.22263   0.79096  -0.76138   0.13162
  41   34058.0    293.6   0.008060808   0.07792  -0.19094   0.18939   0.07476
  42   34555.3    289.4   0.005793250   0.05519  -0.06857  -0.08934   0.20618
  43   34806.1    287.3   0.042750020   0.40435  -0.12275  -0.38075   0.49428
  44   34963.7    286.0   0.242613863   2.28441   1.17526   0.52194  -0.79420
  45   35370.9    282.7   0.113539819   1.05676   0.68941   0.36689  -0.66849
  46   35525.9    281.5   0.003202484   0.02968  -0.05291  -0.03265  -0.16066
  47   35901.8    278.5   0.280739158   2.57432   1.05895   0.93208  -0.76431
  48   35940.2    278.2   0.009772585   0.08952  -0.24034  -0.12774  -0.12425
  49   36118.2    276.9   0.046856124   0.42709   0.52236  -0.15417   0.36119
  50   36230.0    276.0   0.003164536   0.02876  -0.08144   0.11708  -0.09174
  51   36540.0    273.7   0.005187283   0.04674  -0.17072  -0.00352  -0.13258
  52   36578.0    273.4   0.037530377   0.33778  -0.05733  -0.57778   0.02581
  53   36647.5    272.9   0.016307461   0.14649  -0.10236  -0.18997  -0.31611
  54   36718.2    272.3   0.004835720   0.04336  -0.18266  -0.00179   0.09995
  55   36757.1    272.1   0.005574089   0.04992   0.12415  -0.18549   0.01016
  56   37039.2    270.0   0.046213583   0.41076  -0.23371  -0.10193  -0.58800
  57   37129.9    269.3   0.022027778   0.19531  -0.22165   0.28638   0.25331
  58   37216.3    268.7   0.049295490   0.43606   0.28798  -0.37855  -0.45807
  59   37277.6    268.3   0.004846033   0.04280   0.14740   0.10869  -0.09621
  60   37511.2    266.6   0.046317238   0.40650  -0.20959   0.45457   0.39488
  61   37554.8    266.3   0.111945631   0.98133   0.34457  -0.68123  -0.63130
  62   37808.7    264.5   0.015993220   0.13926  -0.15420  -0.14892   0.30546
  63   37973.1    263.3   0.055055074   0.47731  -0.26077   0.13463   0.62544
  64   38072.0    262.7   0.014513725   0.12550  -0.09192  -0.23516   0.24850
  65   38217.4    261.7   0.057577796   0.49599   0.18895  -0.22788  -0.63903
  66   38739.8    258.1   0.002352059   0.01999   0.12106  -0.00291  -0.07296
  67   38927.0    256.9   0.021674068   0.18330   0.17522  -0.35502  -0.16298
  68   39110.5    255.7   0.034992907   0.29455   0.17079   0.06231   0.51137
  69   39197.0    255.1   0.025883701   0.21739   0.15792   0.30515   0.31518
  70   39225.8    254.9   0.110051294   0.92363   0.76026   0.14346  -0.57013
  71   39449.7    253.5   0.040506353   0.33803  -0.31463  -0.32083  -0.36893
  72   39533.6    252.9   0.049877302   0.41535  -0.02043   0.14312  -0.62805
  73   39689.3    252.0   0.071959924   0.59689   0.11337  -0.58496  -0.49179
  74   40033.3    249.8   0.031998503   0.26314   0.07360   0.50093   0.08238
  75   40121.5    249.2   0.006831131   0.05605   0.00800   0.13103  -0.19703
  76   40245.9    248.5   0.037819193   0.30936  -0.25561   0.15713   0.46834

FINAL SINGLE POINT ENERGY     -8156.058421874398

DIPOLE MOMENT
-------------
                                X             Y             Z
Electronic contribution:     63.11334      69.97561     121.62383
Nuclear contribution   :    -60.80917     -76.31785    -125.52681
                        -----------------------------------------
Total Dipole Moment    :      2.30417      -6.34224      -3.90298
                        -----------------------------------------
Magnitude (a.u.)       :      7.79529
Magnitude (Debye)      :     19.81404

Rotational constants in cm-1:     0.001032     0.000209     0.000198
Rotational constants in MHz :    30.926568     6.263694     5.923203

                             ****ORCA TERMINATED NORMALLY****
TOTAL RUN TIME: 0 days 0 hours 10 minutes 55 seconds 385 msec
