                         Program Version 4.2.0 -  RELEASE  -
|  1> # ORCA input file
|  2> # SCF done       -142.324666056576          0.000554185926
|  3> ! CAM-B3LYP def2-SVP def2/J RIJCOSX Grid4 TightSCF
|  4> %maxcore 5000
|  5> %tddft
|  6>     Mode sTDDFT
|  7>     Ethresh 5.0
|  8>     maxcore 5000
|  9> end
| 10>
| 11> %pal
| 12>   nprocs 6
| 13>   end
| 14> * xyz 0 1
| 15>    C       15.07590        -4.33726         2.69983
| 16>    C       14.28867        -4.52480         1.63238
| 17>    C       14.58594        -4.23007         0.25902
| 18>    C       13.59273        -4.52976        -0.60532
| 19>    C       12.43001        -5.08302         0.00296
| 20>    S       12.65773        -5.20702         1.73860
| 21>    C       11.27462        -5.48413        -0.61723
| 22>    C       10.95956        -5.43255        -1.99992
| 23>    C        9.73129        -5.91766        -2.30311
| 24>    C        8.97362        -6.37501        -1.18469
| 25>    S        9.92986        -6.17198         0.27725
| 26>    C        7.74506        -6.96103        -1.28765
| 27>    C        6.84886        -7.42613        -0.29293
| 28>    S        5.80524        -8.74791        -0.76107
| 29>    C        5.01656        -8.76702         0.79410
| 30>    C        5.53903        -7.76976         1.60810
| 31>    C        6.55945        -7.01703         0.99925
| 32>    C        7.16236        -5.82570         1.67008
| 33>    C        6.26712        -5.32291         2.79772
| 34>    C        5.93841        -6.48040         3.73628
| 35>    C        5.24035        -6.00260         5.00533
| 36>    C        5.05419        -7.48292         2.99352
| 37>    C        3.96392        -9.68797         1.05686
| 38>    S        2.91858        -9.45910         2.44084
| 39>    C        1.94546       -10.83736         2.01893
| 40>    C        2.42086       -11.43991         0.87097
| 41>    C        3.55743       -10.79978         0.33702
| 42>    C        4.23996       -11.31545        -0.88943
| 43>    C        3.80701       -12.74327        -1.21050
| 44>    C        2.28514       -12.85765        -1.18839
| 45>    C        1.81644       -14.20923        -1.71628
| 46>    C        1.79835       -12.64672         0.24557
| 47>    C        0.83365       -11.21056         2.83421
| 48>    O        0.21012       -12.40451         2.62158
| 49>    C       -0.77738       -12.53098         3.49491
| 50>    C       -0.82231       -11.43467         4.32780
| 51>    N       -1.68558       -11.29188         5.43363
| 52>    O       -2.65368       -12.02532         5.48234
| 53>    O       -1.39432       -10.46723         6.28111
| 54>    C        0.22146       -10.55571         3.89974
| 55>    N        0.52855        -9.32914         4.43721
| 56>    C       -0.46874        -8.47560         4.88181
| 57>    O       -1.70967        -8.52552         4.31854
| 58>    C       -2.46543        -7.60777         4.90528
| 59>    C       -1.72824        -6.92412         5.84844
| 60>    N       -2.19478        -5.90416         6.69451
| 61>    O       -3.34750        -5.54617         6.57004
| 62>    O       -1.41022        -5.44268         7.50716
| 63>    C       -0.41163        -7.49228         5.84574
| 64>    N        0.66820        -7.07238         6.56864
| 65>    H       16.06092        -3.91934         2.58864
| 66>    H       14.75392        -4.59334         3.69237
| 67>    H       15.53485        -3.80470        -0.01620
| 68>    H       13.64638        -4.37511        -1.66853
| 69>    H       11.65097        -5.03923        -2.72331
| 70>    H        9.32320        -5.96058        -3.29780
| 71>    H        7.42326        -7.16420        -2.30342
| 72>    H        7.33349        -5.03886         0.93241
| 73>    H        8.13557        -6.09721         2.08940
| 74>    H        5.34190        -4.91146         2.38812
| 75>    H        6.78061        -4.52822         3.34058
| 76>    H        6.87574        -6.97453         4.01430
| 77>    H        4.32098        -5.47459         4.76061
| 78>    H        5.88499        -5.32770         5.56296
| 79>    H        4.99178        -6.84631         5.64531
| 80>    H        4.03731        -7.07796         2.93132
| 81>    H        4.99524        -8.41363         3.56484
| 82>    H        5.32356       -11.27911        -0.75426
| 83>    H        3.99957       -10.66050        -1.73355
| 84>    H        4.22928       -13.43097        -0.47433
| 85>    H        4.19377       -13.02243        -2.19174
| 86>    H        1.86800       -12.06697        -1.82215
| 87>    H        2.24702       -15.01730        -1.12839
| 88>    H        2.11966       -14.34062        -2.75230
| 89>    H        0.73278       -14.28598        -1.66361
| 90>    H        2.05014       -13.52645         0.84706
| 91>    H        0.71076       -12.55037         0.26380
| 92>    H       -1.37885       -13.41762         3.47673
| 93>    H        1.36466        -8.88939         4.07358
| 94>    H       -3.49374        -7.51862         4.61869
| 95>    H        0.42434        -6.46100         7.33810
| 96>    H        1.35820        -7.77709         6.77350
| 97> *
| 98>
| 99>                          ****END OF INPUT****

CARTESIAN COORDINATES (ANGSTROEM)
---------------------------------
  C     15.075900   -4.337260    2.699830
  C     14.288670   -4.524800    1.632380
  C     14.585940   -4.230070    0.259020
  C     13.592730   -4.529760   -0.605320
  C     12.430010   -5.083020    0.002960
  S     12.657730   -5.207020    1.738600
  C     11.274620   -5.484130   -0.617230
  C     10.959560   -5.432550   -1.999920
  C      9.731290   -5.917660   -2.303110
  C      8.973620   -6.375010   -1.184690
  S      9.929860   -6.171980    0.277250
  C      7.745060   -6.961030   -1.287650
  C      6.848860   -7.426130   -0.292930
  S      5.805240   -8.747910   -0.761070
  C      5.016560   -8.767020    0.794100
  C      5.539030   -7.769760    1.608100
  C      6.559450   -7.017030    0.999250
  C      7.162360   -5.825700    1.670080
  C      6.267120   -5.322910    2.797720
  C      5.938410   -6.480400    3.736280
  C      5.240350   -6.002600    5.005330
  C      5.054190   -7.482920    2.993520
  C      3.963920   -9.687970    1.056860
  S      2.918580   -9.459100    2.440840
  C      1.945460  -10.837360    2.018930
  C      2.420860  -11.439910    0.870970
  C      3.557430  -10.799780    0.337020
  C      4.239960  -11.315450   -0.889430
  C      3.807010  -12.743270   -1.210500
  C      2.285140  -12.857650   -1.188390
  C      1.816440  -14.209230   -1.716280
  C      1.798350  -12.646720    0.245570
  C      0.833650  -11.210560    2.834210
  O      0.210120  -12.404510    2.621580
  C     -0.777380  -12.530980    3.494910
  C     -0.822310  -11.434670    4.327800
  N     -1.685580  -11.291880    5.433630
  O     -2.653680  -12.025320    5.482340
  O     -1.394320  -10.467230    6.281110
  C      0.221460  -10.555710    3.899740
  N      0.528550   -9.329140    4.437210
  C     -0.468740   -8.475600    4.881810
  O     -1.709670   -8.525520    4.318540
  C     -2.465430   -7.607770    4.905280
  C     -1.728240   -6.924120    5.848440
  N     -2.194780   -5.904160    6.694510
  O     -3.347500   -5.546170    6.570040
  O     -1.410220   -5.442680    7.507160
  C     -0.411630   -7.492280    5.845740
  N      0.668200   -7.072380    6.568640
  H     16.060920   -3.919340    2.588640
  H     14.753920   -4.593340    3.692370
  H     15.534850   -3.804700   -0.016200
  H     13.646380   -4.375110   -1.668530
  H     11.650970   -5.039230   -2.723310
  H      9.323200   -5.960580   -3.297800
  H      7.423260   -7.164200   -2.303420
  H      7.333490   -5.038860    0.932410
  H      8.135570   -6.097210    2.089400
  H      5.341900   -4.911460    2.388120
  H      6.780610   -4.528220    3.340580
  H      6.875740   -6.974530    4.014300
  H      4.320980   -5.474590    4.760610
  H      5.884990   -5.327700    5.562960
  H      4.991780   -6.846310    5.645310
  H      4.037310   -7.077960    2.931320
  H      4.995240   -8.413630    3.564840
  H      5.323560  -11.279110   -0.754260
  H      3.999570  -10.660500   -1.733550
  H      4.229280  -13.430970   -0.474330
  H      4.193770  -13.022430   -2.191740
  H      1.868000  -12.066970   -1.822150
  H      2.247020  -15.017300   -1.128390
  H      2.119660  -14.340620   -2.752300
  H      0.732780  -14.285980   -1.663610
  H      2.050140  -13.526450    0.847060
  H      0.710760  -12.550370    0.263800
  H     -1.378850  -13.417620    3.476730
  H      1.364660   -8.889390    4.073580
  H     -3.493740   -7.518620    4.618690
  H      0.424340   -6.461000    7.338100
  H      1.358200   -7.777090    6.773500

 Total Charge           Charge          ....    0
 Multiplicity           Mult            ....    1
 Number of Electrons    NEL             ....  388
 Basis Dimension        Dim             ....  876

ORBITAL ENERGIES
----------------

  NO   OCC          E(Eh)            E(eV)
   0   2.0000     -88.961899     -2420.7764
   1   2.0000     -88.946112     -2420.3467
   2   2.0000     -88.939400     -2420.1641
   3   2.0000     -88.934573     -2420.0328
   4   2.0000     -19.317297      -525.6504
   5   2.0000     -19.306323      -525.3517
   6   2.0000     -19.240039      -523.5481
   7   2.0000     -19.237958      -523.4915
   8   2.0000     -19.234868      -523.4074
   9   2.0000     -19.232532      -523.3438
  10   2.0000     -14.649838      -398.6424
  11   2.0000     -14.644246      -398.4902
  12   2.0000     -14.455343      -393.3499
  13   2.0000     -14.411435      -392.1551
  14   2.0000     -10.357723      -281.8480
  15   2.0000     -10.350022      -281.6384
  16   2.0000     -10.344711      -281.4939
  17   2.0000     -10.344191      -281.4797
  18   2.0000     -10.337271      -281.2914
  19   2.0000     -10.327618      -281.0288
  20   2.0000     -10.315667      -280.7036
  21   2.0000     -10.314027      -280.6589
  22   2.0000     -10.305801      -280.4351
  23   2.0000     -10.305699      -280.4323
  24   2.0000     -10.304978      -280.4127
  25   2.0000     -10.304789      -280.4076
  26   2.0000     -10.304669      -280.4043
  27   2.0000     -10.303235      -280.3653
  28   2.0000     -10.300243      -280.2839
  29   2.0000     -10.291727      -280.0521
  30   2.0000     -10.286747      -279.9166
  31   2.0000     -10.283469      -279.8274
  32   2.0000     -10.281666      -279.7784
  33   2.0000     -10.281414      -279.7715
  34   2.0000     -10.281055      -279.7617
  35   2.0000     -10.276926      -279.6494
  36   2.0000     -10.276013      -279.6245
  37   2.0000     -10.271661      -279.5061
  38   2.0000     -10.270432      -279.4727
  39   2.0000     -10.267374      -279.3894
  40   2.0000     -10.266356      -279.3618
  41   2.0000     -10.266136      -279.3558
  42   2.0000     -10.265839      -279.3477
  43   2.0000     -10.264730      -279.3175
  44   2.0000     -10.264647      -279.3152
  45   2.0000     -10.260305      -279.1971
  46   2.0000     -10.259451      -279.1738
  47   2.0000     -10.255529      -279.0671
  48   2.0000     -10.253301      -279.0065
  49   2.0000     -10.251464      -278.9565
  50   2.0000      -8.056059      -219.2165
  51   2.0000      -8.041230      -218.8130
  52   2.0000      -8.035262      -218.6506
  53   2.0000      -8.031325      -218.5435
  54   2.0000      -6.025634      -163.9658
  55   2.0000      -6.021497      -163.8533
  56   2.0000      -6.017895      -163.7552
  57   2.0000      -6.010663      -163.5585
  58   2.0000      -6.006481      -163.4447
  59   2.0000      -6.005125      -163.4078
  60   2.0000      -6.003129      -163.3534
  61   2.0000      -6.001149      -163.2996
  62   2.0000      -6.001069      -163.2974
  63   2.0000      -5.997300      -163.1948
  64   2.0000      -5.995947      -163.1580
  65   2.0000      -5.991784      -163.0447
  66   2.0000      -1.319827       -35.9143
  67   2.0000      -1.314453       -35.7681
  68   2.0000      -1.236950       -33.6591
  69   2.0000      -1.226926       -33.3863
  70   2.0000      -1.137967       -30.9657
  71   2.0000      -1.132657       -30.8212
  72   2.0000      -1.054313       -28.6893
  73   2.0000      -1.003516       -27.3071
  74   2.0000      -0.996882       -27.1265
  75   2.0000      -0.988391       -26.8955
  76   2.0000      -0.976128       -26.5618
  77   2.0000      -0.963926       -26.2297
  78   2.0000      -0.940073       -25.5807
  79   2.0000      -0.922123       -25.0922
  80   2.0000      -0.920459       -25.0470
  81   2.0000      -0.917153       -24.9570
  82   2.0000      -0.901404       -24.5285
  83   2.0000      -0.884239       -24.0614
  84   2.0000      -0.865990       -23.5648
  85   2.0000      -0.854829       -23.2611
  86   2.0000      -0.846576       -23.0365
  87   2.0000      -0.843482       -22.9523
  88   2.0000      -0.839995       -22.8574
  89   2.0000      -0.831246       -22.6194
  90   2.0000      -0.826839       -22.4994
  91   2.0000      -0.817057       -22.2333
  92   2.0000      -0.813523       -22.1371
  93   2.0000      -0.809864       -22.0375
  94   2.0000      -0.802364       -21.8334
  95   2.0000      -0.787257       -21.4224
  96   2.0000      -0.769633       -20.9428
  97   2.0000      -0.758512       -20.6402
  98   2.0000      -0.749258       -20.3883
  99   2.0000      -0.722942       -19.6723
 100   2.0000      -0.717552       -19.5256
 101   2.0000      -0.714961       -19.4551
 102   2.0000      -0.702457       -19.1148
 103   2.0000      -0.693633       -18.8747
 104   2.0000      -0.685244       -18.6464
 105   2.0000      -0.678812       -18.4714
 106   2.0000      -0.669347       -18.2139
 107   2.0000      -0.661852       -18.0099
 108   2.0000      -0.654865       -17.8198
 109   2.0000      -0.651113       -17.7177
 110   2.0000      -0.643058       -17.4985
 111   2.0000      -0.634277       -17.2596
 112   2.0000      -0.631176       -17.1752
 113   2.0000      -0.629542       -17.1307
 114   2.0000      -0.624594       -16.9961
 115   2.0000      -0.622876       -16.9493
 116   2.0000      -0.616769       -16.7831
 117   2.0000      -0.613393       -16.6913
 118   2.0000      -0.611016       -16.6266
 119   2.0000      -0.599611       -16.3162
 120   2.0000      -0.594977       -16.1901
 121   2.0000      -0.592118       -16.1124
 122   2.0000      -0.587646       -15.9907
 123   2.0000      -0.584318       -15.9001
 124   2.0000      -0.581584       -15.8257
 125   2.0000      -0.578879       -15.7521
 126   2.0000      -0.574747       -15.6397
 127   2.0000      -0.567673       -15.4472
 128   2.0000      -0.556323       -15.1383
 129   2.0000      -0.552362       -15.0305
 130   2.0000      -0.549299       -14.9472
 131   2.0000      -0.543784       -14.7971
 132   2.0000      -0.538979       -14.6664
 133   2.0000      -0.532905       -14.5011
 134   2.0000      -0.532094       -14.4790
 135   2.0000      -0.526817       -14.3354
 136   2.0000      -0.524880       -14.2827
 137   2.0000      -0.520665       -14.1680
 138   2.0000      -0.514067       -13.9885
 139   2.0000      -0.509449       -13.8628
 140   2.0000      -0.508530       -13.8378
 141   2.0000      -0.504641       -13.7320
 142   2.0000      -0.497778       -13.5452
 143   2.0000      -0.492588       -13.4040
 144   2.0000      -0.491432       -13.3725
 145   2.0000      -0.486780       -13.2460
 146   2.0000      -0.484258       -13.1773
 147   2.0000      -0.483300       -13.1513
 148   2.0000      -0.480991       -13.0884
 149   2.0000      -0.475275       -12.9329
 150   2.0000      -0.471204       -12.8221
 151   2.0000      -0.469139       -12.7659
 152   2.0000      -0.467429       -12.7194
 153   2.0000      -0.463144       -12.6028
 154   2.0000      -0.459421       -12.5015
 155   2.0000      -0.457002       -12.4357
 156   2.0000      -0.453372       -12.3369
 157   2.0000      -0.450869       -12.2688
 158   2.0000      -0.447361       -12.1733
 159   2.0000      -0.444681       -12.1004
 160   2.0000      -0.442726       -12.0472
 161   2.0000      -0.432105       -11.7582
 162   2.0000      -0.427371       -11.6294
 163   2.0000      -0.425563       -11.5802
 164   2.0000      -0.423375       -11.5206
 165   2.0000      -0.415089       -11.2951
 166   2.0000      -0.410468       -11.1694
 167   2.0000      -0.403173       -10.9709
 168   2.0000      -0.400622       -10.9015
 169   2.0000      -0.398625       -10.8471
 170   2.0000      -0.389975       -10.6118
 171   2.0000      -0.389463       -10.5978
 172   2.0000      -0.387490       -10.5442
 173   2.0000      -0.386651       -10.5213
 174   2.0000      -0.384873       -10.4729
 175   2.0000      -0.380143       -10.3442
 176   2.0000      -0.378766       -10.3067
 177   2.0000      -0.376750       -10.2519
 178   2.0000      -0.374632       -10.1943
 179   2.0000      -0.373512       -10.1638
 180   2.0000      -0.371804       -10.1173
 181   2.0000      -0.363660        -9.8957
 182   2.0000      -0.362134        -9.8542
 183   2.0000      -0.357300        -9.7226
 184   2.0000      -0.335779        -9.1370
 185   2.0000      -0.333870        -9.0851
 186   2.0000      -0.330102        -8.9825
 187   2.0000      -0.317733        -8.6460
 188   2.0000      -0.311608        -8.4793
 189   2.0000      -0.300705        -8.1826
 190   2.0000      -0.294286        -8.0079
 191   2.0000      -0.261394        -7.1129
 192   2.0000      -0.238342        -6.4856
 193   2.0000      -0.209896        -5.7116
 194   0.0000      -0.063530        -1.7287
 195   0.0000      -0.040789        -1.1099
 196   0.0000      -0.031691        -0.8624
 197   0.0000      -0.024124        -0.6565
 198   0.0000       0.011586         0.3153

MULLIKEN ATOMIC CHARGES
-----------------------
   0 C :   -0.030476
   1 C :   -0.063613
   2 C :    0.053475
   3 C :    0.028673
   4 C :   -0.070249
   5 S :    0.072243
   6 C :   -0.050478
   7 C :    0.033858
   8 C :    0.026882
   9 C :   -0.013220
  10 S :    0.068087
  11 C :   -0.035937
  12 C :   -0.122563
  13 S :    0.081608
  14 C :   -0.103536
  15 C :   -0.083415
  16 C :   -0.083264
  17 C :    0.136243
  18 C :    0.054355
  19 C :   -0.140388
  20 C :    0.098690
  21 C :    0.118235
  22 C :   -0.077073
  23 S :    0.018469
  24 C :   -0.109358
  25 C :   -0.075014
  26 C :   -0.121042
  27 C :    0.123678
  28 C :    0.070334
  29 C :   -0.172269
  30 C :    0.101347
  31 C :    0.189051
  32 C :    0.045170
  33 O :   -0.172540
  34 C :    0.081119
  35 C :    0.087372
  36 N :    0.271116
  37 O :   -0.250424
  38 O :   -0.237032
  39 C :    0.025305
  40 N :   -0.041847
  41 C :    0.035220
  42 O :   -0.180444
  43 C :    0.065160
  44 C :    0.094061
  45 N :    0.279637
  46 O :   -0.246674
  47 O :   -0.268612
  48 C :   -0.011622
  49 N :   -0.016728
  50 H :    0.017792
  51 H :    0.020137
  52 H :   -0.013376
  53 H :   -0.012397
  54 H :   -0.015857
  55 H :   -0.013334
  56 H :   -0.009144
  57 H :    0.015335
  58 H :    0.029829
  59 H :   -0.002389
  60 H :   -0.004988
  61 H :   -0.003856
  62 H :    0.004020
  63 H :    0.008638
  64 H :   -0.001557
  65 H :    0.013256
  66 H :    0.018084
  67 H :    0.024987
  68 H :    0.018830
  69 H :   -0.002423
  70 H :   -0.007320
  71 H :   -0.003308
  72 H :   -0.001049
  73 H :    0.006074
  74 H :    0.005498
  75 H :    0.002264
  76 H :    0.007124
  77 H :    0.023200
  78 H :    0.136803
  79 H :    0.014995
  80 H :    0.127076
  81 H :    0.115484
Sum of atomic charges:   -0.0000000

LOEWDIN ATOMIC CHARGES
----------------------
   0 C :   -0.079856
   1 C :   -0.138885
   2 C :   -0.033209
   3 C :   -0.026625
   4 C :   -0.179854
   5 S :    0.344860
   6 C :   -0.180674
   7 C :   -0.036311
   8 C :   -0.032165
   9 C :   -0.148752
  10 S :    0.387009
  11 C :   -0.083347
  12 C :   -0.182297
  13 S :    0.443648
  14 C :   -0.186920
  15 C :   -0.060372
  16 C :   -0.054228
  17 C :   -0.036207
  18 C :   -0.021233
  19 C :   -0.030974
  20 C :   -0.047277
  21 C :   -0.040761
  22 C :   -0.179703
  23 S :    0.449053
  24 C :   -0.197397
  25 C :   -0.050689
  26 C :   -0.058535
  27 C :   -0.040614
  28 C :   -0.021312
  29 C :   -0.034147
  30 C :   -0.047295
  31 C :   -0.023571
  32 C :   -0.021693
  33 O :    0.048378
  34 C :    0.077439
  35 C :   -0.094653
  36 N :    0.287968
  37 O :   -0.212487
  38 O :   -0.201029
  39 C :   -0.011059
  40 N :   -0.001765
  41 C :   -0.009689
  42 O :    0.029892
  43 C :    0.070019
  44 C :   -0.098240
  45 N :    0.293453
  46 O :   -0.208187
  47 O :   -0.221637
  48 C :   -0.021757
  49 N :   -0.032128
  50 H :    0.028010
  51 H :    0.025558
  52 H :    0.032758
  53 H :    0.031908
  54 H :    0.030801
  55 H :    0.032255
  56 H :    0.032019
  57 H :    0.030248
  58 H :    0.021284
  59 H :    0.020291
  60 H :    0.022839
  61 H :    0.021495
  62 H :    0.022932
  63 H :    0.023983
  64 H :    0.020299
  65 H :    0.021563
  66 H :    0.021876
  67 H :    0.024582
  68 H :    0.027428
  69 H :    0.021107
  70 H :    0.022484
  71 H :    0.020754
  72 H :    0.021673
  73 H :    0.022892
  74 H :    0.022956
  75 H :    0.030608
  76 H :    0.028325
  77 H :    0.036959
  78 H :    0.059048
  79 H :    0.035083
  80 H :    0.068939
  81 H :    0.072858

  Mayer bond orders larger than 0.100000
B(  0-C ,  1-C ) :   1.8665 B(  0-C , 50-H ) :   0.9501 B(  0-C , 51-H ) :   0.9423
B(  1-C ,  2-C ) :   1.0777 B(  1-C ,  5-S ) :   1.0077 B(  2-C ,  3-C ) :   1.6662
B(  2-C , 52-H ) :   0.9923 B(  3-C ,  4-C ) :   1.1490 B(  3-C , 53-H ) :   0.9916
B(  4-C ,  5-S ) :   1.0390 B(  4-C ,  6-C ) :   1.5712 B(  6-C ,  7-C ) :   1.1586
B(  6-C , 10-S ) :   1.0347 B(  7-C ,  8-C ) :   1.6243 B(  7-C , 54-H ) :   0.9917
B(  8-C ,  9-C ) :   1.1173 B(  8-C , 55-H ) :   0.9986 B(  9-C , 10-S ) :   1.0265
B(  9-C , 11-C ) :   1.6596 B( 11-C , 12-C ) :   1.0974 B( 11-C , 56-H ) :   0.9444
B( 12-C , 13-S ) :   1.0905 B( 12-C , 14-C ) :   0.1026 B( 12-C , 16-C ) :   1.4983
B( 13-S , 14-C ) :   1.1169 B( 14-C , 15-C ) :   1.4913 B( 14-C , 22-C ) :   1.1337
B( 15-C , 16-C ) :   1.3235 B( 15-C , 21-C ) :   1.0500 B( 16-C , 17-C ) :   1.0517
B( 17-C , 18-C ) :   1.0915 B( 17-C , 57-H ) :   0.9197 B( 17-C , 58-H ) :   0.8893
B( 18-C , 19-C ) :   1.0424 B( 18-C , 59-H ) :   0.9365 B( 18-C , 60-H ) :   0.9336
B( 19-C , 20-C ) :   1.0826 B( 19-C , 21-C ) :   1.0423 B( 19-C , 61-H ) :   0.9252
B( 20-C , 62-H ) :   0.9590 B( 20-C , 63-H ) :   0.9619 B( 20-C , 64-H ) :   0.9613
B( 21-C , 65-H ) :   0.9030 B( 21-C , 66-H ) :   0.9030 B( 22-C , 23-S ) :   1.0988
B( 22-C , 24-C ) :   0.1074 B( 22-C , 26-C ) :   1.5087 B( 23-S , 24-C ) :   1.0863
B( 24-C , 25-C ) :   1.5242 B( 24-C , 32-C ) :   1.1089 B( 25-C , 26-C ) :   1.3094
B( 25-C , 31-C ) :   1.0550 B( 26-C , 27-C ) :   1.0516 B( 27-C , 28-C ) :   1.0858
B( 27-C , 67-H ) :   0.9075 B( 27-C , 68-H ) :   0.9008 B( 28-C , 29-C ) :   1.0373
B( 28-C , 69-H ) :   0.9361 B( 28-C , 70-H ) :   0.9318 B( 29-C , 30-C ) :   1.0835
B( 29-C , 31-C ) :   1.0424 B( 29-C , 71-H ) :   0.9300 B( 30-C , 72-H ) :   0.9588
B( 30-C , 73-H ) :   0.9622 B( 30-C , 74-H ) :   0.9617 B( 31-C , 75-H ) :   0.9006
B( 31-C , 76-H ) :   0.9067 B( 32-C , 33-O ) :   1.1103 B( 32-C , 39-C ) :   1.4263
B( 33-O , 34-C ) :   1.2023 B( 34-C , 35-C ) :   1.4402 B( 34-C , 77-H ) :   1.0148
B( 35-C , 36-N ) :   0.9341 B( 35-C , 39-C ) :   1.2640 B( 36-N , 37-O ) :   1.5308
B( 36-N , 38-O ) :   1.5231 B( 37-O , 38-O ) :   0.2623 B( 39-C , 40-N ) :   1.1925
B( 40-N , 41-C ) :   1.0682 B( 40-N , 78-H ) :   0.8866 B( 41-C , 42-O ) :   1.0817
B( 41-C , 43-C ) :   0.1105 B( 41-C , 48-C ) :   1.5106 B( 42-O , 43-C ) :   1.1988
B( 43-C , 44-C ) :   1.4175 B( 43-C , 79-H ) :   1.0257 B( 44-C , 45-N ) :   0.9525
B( 44-C , 48-C ) :   1.2429 B( 45-N , 46-O ) :   1.5499 B( 45-N , 47-O ) :   1.4941
B( 46-O , 47-O ) :   0.2578 B( 48-C , 49-N ) :   1.2929 B( 49-N , 80-H ) :   0.9107
B( 49-N , 81-H ) :   0.9296

-----------------------------------------------------------------------------
         ABSORPTION SPECTRUM VIA TRANSITION ELECTRIC DIPOLE MOMENTS
-----------------------------------------------------------------------------
State   Energy  Wavelength   fosc         T2         TX        TY        TZ
        (cm-1)    (nm)                  (au**2)     (au)      (au)      (au)
-----------------------------------------------------------------------------
   0   18099.2    552.5   1.787159114  32.50723   5.23806   2.24607  -0.15855
   1   21245.3    470.7   0.045887165   0.71106  -0.06385  -0.84073  -0.01212
   2   24480.9    408.5   0.046029753   0.61900  -0.75022   0.07120   0.22603
   3   25238.0    396.2   0.093531168   1.22005   0.33184   0.25839   1.02135
   4   26222.3    381.4   0.287382592   3.60799   0.41595  -0.03111  -1.85311
   5   27049.1    369.7   0.042442736   0.51657  -0.25948  -0.17427   0.64720
   6   29832.5    335.2   0.033498213   0.36966  -0.16688   0.39767  -0.42858
   7   30321.8    329.8   0.169246470   1.83756  -0.37251  -0.86554   0.97449
   8   31704.5    315.4   0.077774611   0.80759  -0.79677   0.37679   0.17544
   9   32360.3    309.0   0.008464412   0.08611  -0.14853  -0.25051   0.03598
  10   33360.9    299.8   0.105064778   1.03680   0.81265   0.14450  -0.59625
  11   34433.0    290.4   0.016139356   0.15431   0.30616   0.03623   0.24344
  12   35127.6    284.7   0.012243894   0.11475   0.15145   0.17461   0.24763
  13   35297.1    283.3   0.072417860   0.67543  -0.06536  -0.42680  -0.69929
  14   35402.4    282.5   0.000073192   0.00068   0.02132  -0.00999   0.01123
  15   35846.5    279.0   0.005393710   0.04954  -0.11022   0.16092   0.10721
  16   36480.9    274.1   0.050144023   0.45251   0.59006   0.32279  -0.01196
  17   37047.2    269.9   0.053706153   0.47725  -0.41429  -0.50573  -0.22328
  18   37833.6    264.3   0.010518191   0.09152  -0.28712   0.09155   0.02657
  19   38575.1    259.2   0.128749161   1.09879  -0.37314  -0.97578  -0.08609
  20   39115.6    255.7   0.066856017   0.56269  -0.59535  -0.19893   0.41070

FINAL SINGLE POINT ENERGY     -3650.932191870953

DIPOLE MOMENT
-------------
                                X             Y             Z
Electronic contribution:    -26.04603       5.23945      19.34266
Nuclear contribution   :     28.60114      -5.92214     -21.74841
                        -----------------------------------------
Total Dipole Moment    :      2.55511      -0.68268      -2.40575
                        -----------------------------------------
Magnitude (a.u.)       :      3.57523
Magnitude (Debye)      :      9.08752

Rotational constants in cm-1:     0.002568     0.000670     0.000560
Rotational constants in MHz :    76.992970    20.097839    16.801934

                             ****ORCA TERMINATED NORMALLY****
TOTAL RUN TIME: 0 days 0 hours 5 minutes 52 seconds 966 msec
