                         Program Version 4.2.0 -  RELEASE  -
|  1> # ORCA input file
|  2> # SCF done       -182.877427950827          0.000582110766
|  3> ! CAM-B3LYP def2-SVP def2/J RIJCOSX Grid4 TightSCF
|  4> %maxcore 5000
|  5> %tddft
|  6>     Mode sTDDFT
|  7>     Ethresh 5.0
|  8>     maxcore 5000
|  9> end
| 10>
| 11> %pal
| 12>   nprocs 6
| 13>   end
| 14> * xyz 0 1
| 15>    C       -0.47818         0.94129        -0.75432
| 16>    C       -0.56065         1.20776         0.55513
| 17>    C       -1.73823         1.20705         1.37809
| 18>    C       -1.50744         1.46874         2.68166
| 19>    C       -0.13652         1.68957         3.00284
| 20>    S        0.84784         1.60063         1.55509
| 21>    C        0.41334         1.88134         4.24313
| 22>    C       -0.23741         1.86895         5.50741
| 23>    C        0.60885         1.93324         6.56219
| 24>    C        1.99364         1.96977         6.20938
| 25>    S        2.14033         2.07638         4.45740
| 26>    C        3.03403         1.94146         7.08548
| 27>    C        4.43577         1.82046         6.78821
| 28>    N        5.26449         2.45403         7.58756
| 29>    C        6.57230         2.43592         7.26415
| 30>    C        7.59495         3.06689         7.93070
| 31>    S        9.07756         2.89134         7.09846
| 32>    C        8.37856         1.94841         5.85438
| 33>    C        7.03551         1.76451         6.06717
| 34>    N        6.19613         0.98867         5.34970
| 35>    C        4.93668         0.98440         5.69980
| 36>    C        4.04803         0.06564         5.02581
| 37>    C        4.22447        -0.31282         3.74917
| 38>    C        3.22649        -1.06909         3.02911
| 39>    N        2.00828        -1.06644         3.51887
| 40>    C        1.03279        -1.57222         2.73898
| 41>    C       -0.30489        -1.65251         3.04134
| 42>    S       -1.20939        -2.19485         1.69624
| 43>    C        0.17454        -2.34153         0.70212
| 44>    C        1.31411        -1.99673         1.38402
| 45>    N        2.58622        -2.08166         0.93687
| 46>    C        3.53105        -1.68830         1.74946
| 47>    C        4.91491        -1.91428         1.33972
| 48>    C        5.89601        -2.19953         2.29604
| 49>    C        7.19114        -2.41996         1.89062
| 50>    C        7.52622        -2.33438         0.52909
| 51>    C        6.55421        -2.07126        -0.42601
| 52>    C        5.25132        -1.87326        -0.01464
| 53>    C        8.94874        -2.56336         0.39176
| 54>    C        9.49569        -2.77744         1.66806
| 55>    C        8.42023        -2.69131         2.73474
| 56>    C        8.36389        -4.04901         3.46427
| 57>    C        7.31043        -4.18434         4.55659
| 58>    C        8.61493        -1.48037         3.67352
| 59>    C        9.82661        -1.54226         4.59493
| 60>    C       10.83081        -3.07833         1.79841
| 61>    C       11.65307        -3.14949         0.66418
| 62>    C       11.09449        -2.89790        -0.59395
| 63>    C        9.75234        -2.61226        -0.73783
| 64>    C       13.05061        -3.48542         0.84758
| 65>    C       13.89478        -3.90403        -0.10777
| 66>    C       15.28561        -4.26447         0.07956
| 67>    C       15.92536        -4.99903        -0.93041
| 68>    C       17.23736        -5.37956        -0.78013
| 69>    C       17.96023        -4.98115         0.35750
| 70>    C       17.34511        -4.24300         1.35730
| 71>    C       16.01471        -3.90234         1.21750
| 72>    C       19.33207        -5.42266         0.21319
| 73>    C       19.45641        -6.09468        -1.01208
| 74>    C       18.11558        -6.18590        -1.71093
| 75>    C       18.15658        -5.59887        -3.12870
| 76>    C       18.67301        -4.16464        -3.14498
| 77>    C       17.71675        -7.68050        -1.72127
| 78>    C       16.31113        -7.99181        -2.21781
| 79>    C       20.67185        -6.59735        -1.41032
| 80>    C       21.79816        -6.43365        -0.59325
| 81>    C       21.65583        -5.76434         0.62591
| 82>    C       20.43713        -5.25953         1.03497
| 83>    C       23.07097        -6.97080        -1.05397
| 84>    C       24.23783        -6.92164        -0.42097
| 85>    H       -1.35987         0.69982        -1.32138
| 86>    H        0.46123         0.95545        -1.27553
| 87>    H       -2.70293         0.99512         0.95235
| 88>    H       -2.27014         1.49974         3.43955
| 89>    H       -1.30689         1.79139         5.59172
| 90>    H        0.30359         1.90832         7.59365
| 91>    H        2.80465         2.07159         8.13521
| 92>    H        7.54348         3.63402         8.83714
| 93>    H        8.97324         1.59853         5.03585
| 94>    H        3.18764        -0.29531         5.57113
| 95>    H        5.08475         0.04121         3.20068
| 96>    H       -0.79129        -1.41550         3.96523
| 97>    H        0.08280        -2.68291        -0.30825
| 98>    H        5.62213        -2.25590         3.33801
| 99>    H        6.81318        -2.01549        -1.47286
|100>    H        4.47051        -1.66504        -0.72962
|101>    H        9.34782        -4.23903         3.89669
|102>    H        8.19048        -4.82082         2.70898
|103>    H        7.39607        -3.38972         5.29293
|104>    H        7.44378        -5.13597         5.06813
|105>    H        6.30843        -4.16990         4.13786
|106>    H        7.71354        -1.36084         4.27688
|107>    H        8.69479        -0.58971         3.04390
|108>    H        9.81125        -0.68746         5.26801
|109>    H       10.75225        -1.50757         4.02695
|110>    H        9.81861        -2.44285         5.20300
|111>    H       11.26354        -3.28947         2.76538
|112>    H       11.72482        -2.92234        -1.46967
|113>    H        9.33315        -2.43437        -1.71724
|114>    H       13.39968        -3.42206         1.87024
|115>    H       13.52654        -4.03751        -1.11693
|116>    H       15.37074        -5.25307        -1.82228
|117>    H       17.90028        -3.93024         2.22949
|118>    H       15.53828        -3.31718         1.98920
|119>    H       17.15249        -5.61989        -3.55475
|120>    H       18.79916        -6.22439        -3.75232
|121>    H       18.04070        -3.52490        -2.53301
|122>    H       18.67624        -3.77660        -4.16127
|123>    H       19.68698        -4.11676        -2.75394
|124>    H       17.81865        -8.05973        -0.70077
|125>    H       18.44075        -8.21253        -2.34304
|126>    H       15.56349        -7.54408        -1.56898
|127>    H       16.15857        -9.06929        -2.21457
|128>    H       16.16028        -7.63412        -3.23308
|129>    H       20.77311        -7.11436        -2.35475
|130>    H       22.51637        -5.63529         1.26384
|131>    H       20.34895        -4.74454         1.98035
|132>    H       23.02586        -7.45905        -2.02064
|133>    H       24.36210        -6.45807         0.54253
|134>    H       25.12476        -7.35523        -0.85036
|135> *
|136>
|137>                          ****END OF INPUT****

CARTESIAN COORDINATES (ANGSTROEM)
---------------------------------
  C     -0.478180    0.941290   -0.754320
  C     -0.560650    1.207760    0.555130
  C     -1.738230    1.207050    1.378090
  C     -1.507440    1.468740    2.681660
  C     -0.136520    1.689570    3.002840
  S      0.847840    1.600630    1.555090
  C      0.413340    1.881340    4.243130
  C     -0.237410    1.868950    5.507410
  C      0.608850    1.933240    6.562190
  C      1.993640    1.969770    6.209380
  S      2.140330    2.076380    4.457400
  C      3.034030    1.941460    7.085480
  C      4.435770    1.820460    6.788210
  N      5.264490    2.454030    7.587560
  C      6.572300    2.435920    7.264150
  C      7.594950    3.066890    7.930700
  S      9.077560    2.891340    7.098460
  C      8.378560    1.948410    5.854380
  C      7.035510    1.764510    6.067170
  N      6.196130    0.988670    5.349700
  C      4.936680    0.984400    5.699800
  C      4.048030    0.065640    5.025810
  C      4.224470   -0.312820    3.749170
  C      3.226490   -1.069090    3.029110
  N      2.008280   -1.066440    3.518870
  C      1.032790   -1.572220    2.738980
  C     -0.304890   -1.652510    3.041340
  S     -1.209390   -2.194850    1.696240
  C      0.174540   -2.341530    0.702120
  C      1.314110   -1.996730    1.384020
  N      2.586220   -2.081660    0.936870
  C      3.531050   -1.688300    1.749460
  C      4.914910   -1.914280    1.339720
  C      5.896010   -2.199530    2.296040
  C      7.191140   -2.419960    1.890620
  C      7.526220   -2.334380    0.529090
  C      6.554210   -2.071260   -0.426010
  C      5.251320   -1.873260   -0.014640
  C      8.948740   -2.563360    0.391760
  C      9.495690   -2.777440    1.668060
  C      8.420230   -2.691310    2.734740
  C      8.363890   -4.049010    3.464270
  C      7.310430   -4.184340    4.556590
  C      8.614930   -1.480370    3.673520
  C      9.826610   -1.542260    4.594930
  C     10.830810   -3.078330    1.798410
  C     11.653070   -3.149490    0.664180
  C     11.094490   -2.897900   -0.593950
  C      9.752340   -2.612260   -0.737830
  C     13.050610   -3.485420    0.847580
  C     13.894780   -3.904030   -0.107770
  C     15.285610   -4.264470    0.079560
  C     15.925360   -4.999030   -0.930410
  C     17.237360   -5.379560   -0.780130
  C     17.960230   -4.981150    0.357500
  C     17.345110   -4.243000    1.357300
  C     16.014710   -3.902340    1.217500
  C     19.332070   -5.422660    0.213190
  C     19.456410   -6.094680   -1.012080
  C     18.115580   -6.185900   -1.710930
  C     18.156580   -5.598870   -3.128700
  C     18.673010   -4.164640   -3.144980
  C     17.716750   -7.680500   -1.721270
  C     16.311130   -7.991810   -2.217810
  C     20.671850   -6.597350   -1.410320
  C     21.798160   -6.433650   -0.593250
  C     21.655830   -5.764340    0.625910
  C     20.437130   -5.259530    1.034970
  C     23.070970   -6.970800   -1.053970
  C     24.237830   -6.921640   -0.420970
  H     -1.359870    0.699820   -1.321380
  H      0.461230    0.955450   -1.275530
  H     -2.702930    0.995120    0.952350
  H     -2.270140    1.499740    3.439550
  H     -1.306890    1.791390    5.591720
  H      0.303590    1.908320    7.593650
  H      2.804650    2.071590    8.135210
  H      7.543480    3.634020    8.837140
  H      8.973240    1.598530    5.035850
  H      3.187640   -0.295310    5.571130
  H      5.084750    0.041210    3.200680
  H     -0.791290   -1.415500    3.965230
  H      0.082800   -2.682910   -0.308250
  H      5.622130   -2.255900    3.338010
  H      6.813180   -2.015490   -1.472860
  H      4.470510   -1.665040   -0.729620
  H      9.347820   -4.239030    3.896690
  H      8.190480   -4.820820    2.708980
  H      7.396070   -3.389720    5.292930
  H      7.443780   -5.135970    5.068130
  H      6.308430   -4.169900    4.137860
  H      7.713540   -1.360840    4.276880
  H      8.694790   -0.589710    3.043900
  H      9.811250   -0.687460    5.268010
  H     10.752250   -1.507570    4.026950
  H      9.818610   -2.442850    5.203000
  H     11.263540   -3.289470    2.765380
  H     11.724820   -2.922340   -1.469670
  H      9.333150   -2.434370   -1.717240
  H     13.399680   -3.422060    1.870240
  H     13.526540   -4.037510   -1.116930
  H     15.370740   -5.253070   -1.822280
  H     17.900280   -3.930240    2.229490
  H     15.538280   -3.317180    1.989200
  H     17.152490   -5.619890   -3.554750
  H     18.799160   -6.224390   -3.752320
  H     18.040700   -3.524900   -2.533010
  H     18.676240   -3.776600   -4.161270
  H     19.686980   -4.116760   -2.753940
  H     17.818650   -8.059730   -0.700770
  H     18.440750   -8.212530   -2.343040
  H     15.563490   -7.544080   -1.568980
  H     16.158570   -9.069290   -2.214570
  H     16.160280   -7.634120   -3.233080
  H     20.773110   -7.114360   -2.354750
  H     22.516370   -5.635290    1.263840
  H     20.348950   -4.744540    1.980350
  H     23.025860   -7.459050   -2.020640
  H     24.362100   -6.458070    0.542530
  H     25.124760   -7.355230   -0.850360

 Total Charge           Charge          ....    0
 Multiplicity           Mult            ....    1
 Number of Electrons    NEL             ....  514
 Basis Dimension        Dim             .... 1246

ORBITAL ENERGIES
----------------

  NO   OCC          E(Eh)            E(eV)
   0   2.0000     -88.965291     -2420.8686
   1   2.0000     -88.962915     -2420.8040
   2   2.0000     -88.936413     -2420.0828
   3   2.0000     -88.936042     -2420.0727
   4   2.0000     -14.408231      -392.0679
   5   2.0000     -14.404693      -391.9716
   6   2.0000     -14.403883      -391.9496
   7   2.0000     -14.402685      -391.9170
   8   2.0000     -10.314603      -280.6746
   9   2.0000     -10.314145      -280.6621
  10   2.0000     -10.309472      -280.5350
  11   2.0000     -10.309084      -280.5244
  12   2.0000     -10.307627      -280.4848
  13   2.0000     -10.307493      -280.4811
  14   2.0000     -10.303267      -280.3662
  15   2.0000     -10.302922      -280.3568
  16   2.0000     -10.296484      -280.1816
  17   2.0000     -10.296035      -280.1694
  18   2.0000     -10.293019      -280.0873
  19   2.0000     -10.292697      -280.0785
  20   2.0000     -10.286624      -279.9133
  21   2.0000     -10.286576      -279.9120
  22   2.0000     -10.286538      -279.9109
  23   2.0000     -10.286480      -279.9094
  24   2.0000     -10.283990      -279.8416
  25   2.0000     -10.283640      -279.8321
  26   2.0000     -10.282861      -279.8109
  27   2.0000     -10.281121      -279.7635
  28   2.0000     -10.270196      -279.4662
  29   2.0000     -10.269913      -279.4586
  30   2.0000     -10.269253      -279.4406
  31   2.0000     -10.267441      -279.3913
  32   2.0000     -10.267092      -279.3818
  33   2.0000     -10.266264      -279.3592
  34   2.0000     -10.265857      -279.3482
  35   2.0000     -10.264782      -279.3189
  36   2.0000     -10.264621      -279.3145
  37   2.0000     -10.262725      -279.2629
  38   2.0000     -10.262212      -279.2490
  39   2.0000     -10.261746      -279.2363
  40   2.0000     -10.261444      -279.2281
  41   2.0000     -10.261394      -279.2267
  42   2.0000     -10.261093      -279.2185
  43   2.0000     -10.260933      -279.2142
  44   2.0000     -10.260716      -279.2083
  45   2.0000     -10.260169      -279.1934
  46   2.0000     -10.259922      -279.1867
  47   2.0000     -10.259629      -279.1787
  48   2.0000     -10.259494      -279.1750
  49   2.0000     -10.259375      -279.1718
  50   2.0000     -10.259269      -279.1689
  51   2.0000     -10.258992      -279.1614
  52   2.0000     -10.258754      -279.1549
  53   2.0000     -10.258694      -279.1532
  54   2.0000     -10.258588      -279.1504
  55   2.0000     -10.258257      -279.1414
  56   2.0000     -10.258018      -279.1349
  57   2.0000     -10.257571      -279.1227
  58   2.0000     -10.257479      -279.1202
  59   2.0000     -10.257294      -279.1151
  60   2.0000     -10.257020      -279.1077
  61   2.0000     -10.256312      -279.0884
  62   2.0000     -10.255858      -279.0761
  63   2.0000     -10.253993      -279.0253
  64   2.0000     -10.253483      -279.0115
  65   2.0000     -10.250446      -278.9288
  66   2.0000     -10.245115      -278.7837
  67   2.0000     -10.243729      -278.7460
  68   2.0000     -10.243723      -278.7459
  69   2.0000     -10.239682      -278.6359
  70   2.0000      -8.060688      -219.3425
  71   2.0000      -8.057760      -219.2628
  72   2.0000      -8.032129      -218.5653
  73   2.0000      -8.031907      -218.5593
  74   2.0000      -6.029483      -164.0706
  75   2.0000      -6.026657      -163.9937
  76   2.0000      -6.025206      -163.9542
  77   2.0000      -6.024069      -163.9232
  78   2.0000      -6.022358      -163.8767
  79   2.0000      -6.021081      -163.8419
  80   2.0000      -6.002011      -163.3230
  81   2.0000      -6.001782      -163.3168
  82   2.0000      -5.997906      -163.2113
  83   2.0000      -5.997848      -163.2097
  84   2.0000      -5.992803      -163.0725
  85   2.0000      -5.992489      -163.0639
  86   2.0000      -1.064404       -28.9639
  87   2.0000      -1.061210       -28.8770
  88   2.0000      -0.991306       -26.9748
  89   2.0000      -0.990185       -26.9443
  90   2.0000      -0.986285       -26.8382
  91   2.0000      -0.977223       -26.5916
  92   2.0000      -0.975639       -26.5485
  93   2.0000      -0.971207       -26.4279
  94   2.0000      -0.966772       -26.3072
  95   2.0000      -0.962947       -26.2031
  96   2.0000      -0.937227       -25.5032
  97   2.0000      -0.931845       -25.3568
  98   2.0000      -0.911374       -24.7998
  99   2.0000      -0.904578       -24.6148
 100   2.0000      -0.895291       -24.3621
 101   2.0000      -0.882906       -24.0251
 102   2.0000      -0.879897       -23.9432
 103   2.0000      -0.872602       -23.7447
 104   2.0000      -0.862453       -23.4685
 105   2.0000      -0.854583       -23.2544
 106   2.0000      -0.842880       -22.9359
 107   2.0000      -0.839051       -22.8317
 108   2.0000      -0.830569       -22.6009
 109   2.0000      -0.829012       -22.5586
 110   2.0000      -0.825562       -22.4647
 111   2.0000      -0.824504       -22.4359
 112   2.0000      -0.823878       -22.4189
 113   2.0000      -0.822163       -22.3722
 114   2.0000      -0.820381       -22.3237
 115   2.0000      -0.818644       -22.2764
 116   2.0000      -0.812944       -22.1213
 117   2.0000      -0.810079       -22.0434
 118   2.0000      -0.795867       -21.6566
 119   2.0000      -0.791735       -21.5442
 120   2.0000      -0.777150       -21.1473
 121   2.0000      -0.768168       -20.9029
 122   2.0000      -0.760498       -20.6942
 123   2.0000      -0.755762       -20.5653
 124   2.0000      -0.753465       -20.5028
 125   2.0000      -0.736234       -20.0339
 126   2.0000      -0.728624       -19.8269
 127   2.0000      -0.713897       -19.4261
 128   2.0000      -0.706467       -19.2239
 129   2.0000      -0.700966       -19.0742
 130   2.0000      -0.695529       -18.9263
 131   2.0000      -0.693406       -18.8685
 132   2.0000      -0.688268       -18.7287
 133   2.0000      -0.683163       -18.5898
 134   2.0000      -0.679960       -18.5027
 135   2.0000      -0.670282       -18.2393
 136   2.0000      -0.666852       -18.1460
 137   2.0000      -0.660708       -17.9788
 138   2.0000      -0.656754       -17.8712
 139   2.0000      -0.652248       -17.7486
 140   2.0000      -0.650755       -17.7079
 141   2.0000      -0.647421       -17.6172
 142   2.0000      -0.641721       -17.4621
 143   2.0000      -0.639310       -17.3965
 144   2.0000      -0.630178       -17.1480
 145   2.0000      -0.627538       -17.0762
 146   2.0000      -0.622982       -16.9522
 147   2.0000      -0.616699       -16.7812
 148   2.0000      -0.613253       -16.6875
 149   2.0000      -0.610841       -16.6218
 150   2.0000      -0.597427       -16.2568
 151   2.0000      -0.595061       -16.1924
 152   2.0000      -0.591989       -16.1088
 153   2.0000      -0.581965       -15.8361
 154   2.0000      -0.579212       -15.7611
 155   2.0000      -0.575764       -15.6673
 156   2.0000      -0.568338       -15.4653
 157   2.0000      -0.561989       -15.2925
 158   2.0000      -0.559582       -15.2270
 159   2.0000      -0.554791       -15.0966
 160   2.0000      -0.548558       -14.9270
 161   2.0000      -0.544801       -14.8248
 162   2.0000      -0.539769       -14.6879
 163   2.0000      -0.536212       -14.5911
 164   2.0000      -0.534568       -14.5463
 165   2.0000      -0.532612       -14.4931
 166   2.0000      -0.529196       -14.4002
 167   2.0000      -0.526443       -14.3252
 168   2.0000      -0.523264       -14.2387
 169   2.0000      -0.521762       -14.1979
 170   2.0000      -0.519698       -14.1417
 171   2.0000      -0.516232       -14.0474
 172   2.0000      -0.515350       -14.0234
 173   2.0000      -0.513376       -13.9697
 174   2.0000      -0.511078       -13.9071
 175   2.0000      -0.509680       -13.8691
 176   2.0000      -0.507922       -13.8212
 177   2.0000      -0.506139       -13.7727
 178   2.0000      -0.500365       -13.6156
 179   2.0000      -0.499392       -13.5891
 180   2.0000      -0.497932       -13.5494
 181   2.0000      -0.497001       -13.5241
 182   2.0000      -0.490387       -13.3441
 183   2.0000      -0.488866       -13.3027
 184   2.0000      -0.487959       -13.2780
 185   2.0000      -0.486731       -13.2446
 186   2.0000      -0.485589       -13.2135
 187   2.0000      -0.483440       -13.1551
 188   2.0000      -0.480670       -13.0797
 189   2.0000      -0.478747       -13.0274
 190   2.0000      -0.478132       -13.0106
 191   2.0000      -0.474917       -12.9231
 192   2.0000      -0.473009       -12.8712
 193   2.0000      -0.470255       -12.7963
 194   2.0000      -0.468051       -12.7363
 195   2.0000      -0.465787       -12.6747
 196   2.0000      -0.460716       -12.5367
 197   2.0000      -0.459361       -12.4999
 198   2.0000      -0.454849       -12.3771
 199   2.0000      -0.452410       -12.3107
 200   2.0000      -0.450760       -12.2658
 201   2.0000      -0.447060       -12.1651
 202   2.0000      -0.445407       -12.1201
 203   2.0000      -0.443189       -12.0598
 204   2.0000      -0.438509       -11.9324
 205   2.0000      -0.436257       -11.8712
 206   2.0000      -0.434874       -11.8335
 207   2.0000      -0.433270       -11.7899
 208   2.0000      -0.432010       -11.7556
 209   2.0000      -0.428463       -11.6591
 210   2.0000      -0.426954       -11.6180
 211   2.0000      -0.426069       -11.5939
 212   2.0000      -0.424481       -11.5507
 213   2.0000      -0.424212       -11.5434
 214   2.0000      -0.422497       -11.4967
 215   2.0000      -0.421772       -11.4770
 216   2.0000      -0.421364       -11.4659
 217   2.0000      -0.417714       -11.3666
 218   2.0000      -0.415682       -11.3113
 219   2.0000      -0.414249       -11.2723
 220   2.0000      -0.413682       -11.2569
 221   2.0000      -0.409826       -11.1519
 222   2.0000      -0.408320       -11.1110
 223   2.0000      -0.405092       -11.0231
 224   2.0000      -0.404111       -10.9964
 225   2.0000      -0.401726       -10.9315
 226   2.0000      -0.395249       -10.7553
 227   2.0000      -0.393012       -10.6944
 228   2.0000      -0.385219       -10.4824
 229   2.0000      -0.381450       -10.3798
 230   2.0000      -0.380333       -10.3494
 231   2.0000      -0.377915       -10.2836
 232   2.0000      -0.375626       -10.2213
 233   2.0000      -0.374229       -10.1833
 234   2.0000      -0.371211       -10.1012
 235   2.0000      -0.370873       -10.0920
 236   2.0000      -0.365681        -9.9507
 237   2.0000      -0.365013        -9.9325
 238   2.0000      -0.354087        -9.6352
 239   2.0000      -0.342549        -9.3212
 240   2.0000      -0.334582        -9.1044
 241   2.0000      -0.332304        -9.0425
 242   2.0000      -0.314777        -8.5655
 243   2.0000      -0.313491        -8.5305
 244   2.0000      -0.310554        -8.4506
 245   2.0000      -0.309309        -8.4167
 246   2.0000      -0.307072        -8.3559
 247   2.0000      -0.304382        -8.2827
 248   2.0000      -0.302499        -8.2314
 249   2.0000      -0.301567        -8.2061
 250   2.0000      -0.298247        -8.1157
 251   2.0000      -0.283407        -7.7119
 252   2.0000      -0.275603        -7.4995
 253   2.0000      -0.261196        -7.1075
 254   2.0000      -0.258997        -7.0477
 255   2.0000      -0.234257        -6.3745
 256   2.0000      -0.221962        -6.0399
 257   0.0000      -0.066340        -1.8052
 258   0.0000      -0.056059        -1.5254
 259   0.0000      -0.034953        -0.9511
 260   0.0000      -0.024397        -0.6639
 261   0.0000      -0.004942        -0.1345

MULLIKEN ATOMIC CHARGES
-----------------------
   0 C :   -0.021019
   1 C :   -0.068081
   2 C :    0.062514
   3 C :    0.026633
   4 C :   -0.057874
   5 S :    0.077188
   6 C :   -0.050637
   7 C :    0.032822
   8 C :    0.039215
   9 C :   -0.025825
  10 S :    0.112042
  11 C :   -0.046854
  12 C :   -0.006201
  13 N :   -0.005145
  14 C :    0.046092
  15 C :   -0.151810
  16 S :    0.151177
  17 C :   -0.164824
  18 C :    0.062950
  19 N :   -0.000022
  20 C :   -0.044527
  21 C :    0.002023
  22 C :   -0.014126
  23 C :   -0.036229
  24 N :   -0.005750
  25 C :    0.065227
  26 C :   -0.146387
  27 S :    0.135152
  28 C :   -0.150959
  29 C :    0.059259
  30 N :    0.006348
  31 C :   -0.015525
  32 C :    0.055294
  33 C :   -0.110651
  34 C :    0.023849
  35 C :    0.106320
  36 C :   -0.059664
  37 C :    0.017049
  38 C :    0.091734
  39 C :    0.044603
  40 C :   -0.122479
  41 C :    0.051445
  42 C :    0.032768
  43 C :    0.047924
  44 C :    0.033065
  45 C :   -0.125370
  46 C :    0.131253
  47 C :   -0.021517
  48 C :   -0.048256
  49 C :    0.002590
  50 C :    0.003363
  51 C :    0.127361
  52 C :   -0.116109
  53 C :    0.023589
  54 C :    0.105651
  55 C :   -0.051915
  56 C :   -0.017637
  57 C :    0.103068
  58 C :    0.018156
  59 C :   -0.127274
  60 C :    0.052314
  61 C :    0.026126
  62 C :    0.078976
  63 C :    0.028486
  64 C :   -0.107047
  65 C :    0.112659
  66 C :   -0.017798
  67 C :   -0.048686
  68 C :   -0.001599
  69 C :   -0.014764
  70 H :    0.016725
  71 H :    0.023261
  72 H :   -0.015151
  73 H :   -0.015012
  74 H :   -0.014879
  75 H :   -0.011516
  76 H :    0.003660
  77 H :    0.015643
  78 H :    0.021750
  79 H :    0.030057
  80 H :    0.033229
  81 H :    0.005254
  82 H :    0.008187
  83 H :   -0.002406
  84 H :   -0.037668
  85 H :   -0.023218
  86 H :    0.000365
  87 H :    0.005825
  88 H :    0.008481
  89 H :    0.008822
  90 H :    0.020238
  91 H :    0.019284
  92 H :    0.003259
  93 H :    0.003257
  94 H :    0.011351
  95 H :    0.001856
  96 H :   -0.038387
  97 H :   -0.031244
  98 H :   -0.039848
  99 H :   -0.026697
 100 H :   -0.027801
 101 H :   -0.041498
 102 H :   -0.039847
 103 H :   -0.031991
 104 H :    0.003549
 105 H :   -0.004203
 106 H :    0.020515
 107 H :    0.005612
 108 H :    0.020816
 109 H :    0.004493
 110 H :   -0.005748
 111 H :    0.021482
 112 H :    0.011346
 113 H :    0.001621
 114 H :   -0.045570
 115 H :   -0.037052
 116 H :   -0.040412
 117 H :   -0.021460
 118 H :    0.009880
 119 H :    0.018066
Sum of atomic charges:    0.0000000

LOEWDIN ATOMIC CHARGES
----------------------
   0 C :   -0.072041
   1 C :   -0.140075
   2 C :   -0.031350
   3 C :   -0.030495
   4 C :   -0.167990
   5 S :    0.362107
   6 C :   -0.179224
   7 C :   -0.027368
   8 C :   -0.032510
   9 C :   -0.127652
  10 S :    0.413927
  11 C :   -0.075334
  12 C :   -0.009364
  13 N :   -0.049511
  14 C :   -0.060366
  15 C :   -0.203742
  16 S :    0.497590
  17 C :   -0.206939
  18 C :   -0.059289
  19 N :   -0.043926
  20 C :   -0.006896
  21 C :   -0.024656
  22 C :   -0.016697
  23 C :   -0.005739
  24 N :   -0.045557
  25 C :   -0.061691
  26 C :   -0.204142
  27 S :    0.494497
  28 C :   -0.202245
  29 C :   -0.059381
  30 N :   -0.046943
  31 C :    0.010834
  32 C :   -0.040537
  33 C :   -0.013897
  34 C :    0.001885
  35 C :   -0.010026
  36 C :   -0.024345
  37 C :    0.002201
  38 C :   -0.019947
  39 C :    0.005828
  40 C :   -0.032036
  41 C :   -0.014769
  42 C :   -0.059049
  43 C :   -0.014501
  44 C :   -0.060696
  45 C :   -0.024230
  46 C :   -0.023284
  47 C :   -0.018026
  48 C :   -0.018845
  49 C :   -0.019460
  50 C :   -0.019685
  51 C :   -0.024093
  52 C :   -0.024062
  53 C :    0.001610
  54 C :   -0.018066
  55 C :   -0.019851
  56 C :   -0.016927
  57 C :   -0.019020
  58 C :    0.003902
  59 C :   -0.034127
  60 C :   -0.015890
  61 C :   -0.056616
  62 C :   -0.009507
  63 C :   -0.060012
  64 C :   -0.022715
  65 C :   -0.026926
  66 C :   -0.014937
  67 C :   -0.019385
  68 C :   -0.019643
  69 C :   -0.048639
  70 H :    0.027425
  71 H :    0.027324
  72 H :    0.031323
  73 H :    0.030262
  74 H :    0.030915
  75 H :    0.033600
  76 H :    0.040027
  77 H :    0.026428
  78 H :    0.025178
  79 H :    0.031843
  80 H :    0.036186
  81 H :    0.021494
  82 H :    0.023881
  83 H :    0.029031
  84 H :    0.025332
  85 H :    0.028841
  86 H :    0.018011
  87 H :    0.027808
  88 H :    0.022231
  89 H :    0.026932
  90 H :    0.024005
  91 H :    0.022149
  92 H :    0.025734
  93 H :    0.024031
  94 H :    0.021277
  95 H :    0.020168
  96 H :    0.021631
  97 H :    0.024113
  98 H :    0.025388
  99 H :    0.023813
 100 H :    0.023810
 101 H :    0.022154
 102 H :    0.025360
 103 H :    0.024278
 104 H :    0.018767
 105 H :    0.019226
 106 H :    0.025680
 107 H :    0.022337
 108 H :    0.025430
 109 H :    0.026693
 110 H :    0.019052
 111 H :    0.024701
 112 H :    0.026878
 113 H :    0.019049
 114 H :    0.021798
 115 H :    0.024446
 116 H :    0.025162
 117 H :    0.026453
 118 H :    0.018553
 119 H :    0.024283

  Mayer bond orders larger than 0.100000
B(  0-C ,  1-C ) :   1.8703 B(  0-C , 70-H ) :   0.9500 B(  0-C , 71-H ) :   0.9392
B(  1-C ,  2-C ) :   1.0725 B(  1-C ,  5-S ) :   1.0088 B(  2-C ,  3-C ) :   1.6647
B(  2-C , 72-H ) :   0.9954 B(  3-C ,  4-C ) :   1.1349 B(  3-C , 73-H ) :   0.9949
B(  4-C ,  5-S ) :   1.0510 B(  4-C ,  6-C ) :   1.5765 B(  6-C ,  7-C ) :   1.1491
B(  6-C , 10-S ) :   1.0421 B(  7-C ,  8-C ) :   1.6342 B(  7-C , 74-H ) :   0.9926
B(  8-C ,  9-C ) :   1.1051 B(  8-C , 75-H ) :   0.9997 B(  9-C , 10-S ) :   1.0508
B(  9-C , 11-C ) :   1.6479 B( 11-C , 12-C ) :   1.0619 B( 11-C , 76-H ) :   0.9606
B( 12-C , 13-N ) :   1.6857 B( 12-C , 20-C ) :   1.0636 B( 13-N , 14-C ) :   1.3598
B( 14-C , 15-C ) :   1.4012 B( 14-C , 18-C ) :   1.1820 B( 15-C , 16-S ) :   1.2151
B( 15-C , 17-C ) :   0.1116 B( 15-C , 77-H ) :   0.9727 B( 16-S , 17-C ) :   1.2106
B( 17-C , 18-C ) :   1.4041 B( 17-C , 78-H ) :   0.9695 B( 18-C , 19-N ) :   1.3301
B( 19-N , 20-C ) :   1.7364 B( 20-C , 21-C ) :   1.0448 B( 21-C , 22-C ) :   1.7583
B( 21-C , 79-H ) :   0.9481 B( 22-C , 23-C ) :   1.0511 B( 22-C , 80-H ) :   0.9688
B( 23-C , 24-N ) :   1.7131 B( 23-C , 31-C ) :   1.0612 B( 24-N , 25-C ) :   1.3422
B( 25-C , 26-C ) :   1.4052 B( 25-C , 29-C ) :   1.1767 B( 26-C , 27-S ) :   1.2095
B( 26-C , 28-C ) :   0.1104 B( 26-C , 81-H ) :   0.9680 B( 27-S , 28-C ) :   1.2062
B( 28-C , 29-C ) :   1.4141 B( 28-C , 82-H ) :   0.9712 B( 29-C , 30-N ) :   1.3379
B( 30-N , 31-C ) :   1.7658 B( 31-C , 32-C ) :   0.9793 B( 32-C , 33-C ) :   1.3162
B( 32-C , 37-C ) :   1.3918 B( 33-C , 34-C ) :   1.4076 B( 33-C , 83-H ) :   0.9778
B( 34-C , 35-C ) :   1.4002 B( 34-C , 40-C ) :   0.9296 B( 35-C , 36-C ) :   1.3277
B( 35-C , 38-C ) :   0.9924 B( 36-C , 37-C ) :   1.3584 B( 36-C , 84-H ) :   0.9946
B( 37-C , 85-H ) :   0.9894 B( 38-C , 39-C ) :   1.3951 B( 38-C , 48-C ) :   1.3287
B( 39-C , 40-C ) :   0.9269 B( 39-C , 45-C ) :   1.3773 B( 40-C , 41-C ) :   1.0117
B( 40-C , 43-C ) :   1.0044 B( 41-C , 42-C ) :   1.1116 B( 41-C , 86-H ) :   0.9398
B( 41-C , 87-H ) :   0.9385 B( 42-C , 88-H ) :   0.9623 B( 42-C , 89-H ) :   0.9592
B( 42-C , 90-H ) :   0.9600 B( 43-C , 44-C ) :   1.1098 B( 43-C , 91-H ) :   0.9358
B( 43-C , 92-H ) :   0.9360 B( 44-C , 93-H ) :   0.9584 B( 44-C , 94-H ) :   0.9597
B( 44-C , 95-H ) :   0.9591 B( 45-C , 46-C ) :   1.2930 B( 45-C , 96-H ) :   1.0026
B( 46-C , 47-C ) :   1.3529 B( 46-C , 49-C ) :   1.0522 B( 47-C , 48-C ) :   1.3910
B( 47-C , 97-H ) :   0.9869 B( 48-C , 98-H ) :   0.9911 B( 49-C , 50-C ) :   1.7199
B( 49-C , 99-H ) :   0.9770 B( 50-C , 51-C ) :   1.0545 B( 50-C ,100-H ) :   0.9773
B( 51-C , 52-C ) :   1.2850 B( 51-C , 56-C ) :   1.3565 B( 52-C , 53-C ) :   1.3787
B( 52-C ,101-H ) :   1.0065 B( 53-C , 54-C ) :   1.3854 B( 53-C , 59-C ) :   0.9208
B( 54-C , 55-C ) :   1.3340 B( 54-C , 57-C ) :   0.9941 B( 55-C , 56-C ) :   1.3889
B( 55-C ,102-H ) :   0.9897 B( 56-C ,103-H ) :   0.9855 B( 57-C , 58-C ) :   1.3878
B( 57-C , 67-C ) :   1.3325 B( 58-C , 59-C ) :   0.9244 B( 58-C , 64-C ) :   1.3738
B( 59-C , 60-C ) :   1.0306 B( 59-C , 62-C ) :   1.0133 B( 60-C , 61-C ) :   1.1056
B( 60-C ,104-H ) :   0.9383 B( 60-C ,105-H ) :   0.9390 B( 61-C ,106-H ) :   0.9648
B( 61-C ,107-H ) :   0.9646 B( 61-C ,108-H ) :   0.9630 B( 62-C , 63-C ) :   1.1152
B( 62-C ,109-H ) :   0.9389 B( 62-C ,110-H ) :   0.9367 B( 63-C ,111-H ) :   0.9606
B( 63-C ,112-H ) :   0.9596 B( 63-C ,113-H ) :   0.9630 B( 64-C , 65-C ) :   1.3046
B( 64-C ,114-H ) :   1.0064 B( 65-C , 66-C ) :   1.3579 B( 65-C , 68-C ) :   1.0632
B( 66-C , 67-C ) :   1.3979 B( 66-C ,115-H ) :   0.9852 B( 67-C ,116-H ) :   0.9892
B( 68-C , 69-C ) :   1.9521 B( 68-C ,117-H ) :   0.9675 B( 69-C ,118-H ) :   0.9475
B( 69-C ,119-H ) :   0.9478

-----------------------------------------------------------------------------
         ABSORPTION SPECTRUM VIA TRANSITION ELECTRIC DIPOLE MOMENTS
-----------------------------------------------------------------------------
State   Energy  Wavelength   fosc         T2         TX        TY        TZ
        (cm-1)    (nm)                  (au**2)     (au)      (au)      (au)
-----------------------------------------------------------------------------
   0   17716.0    564.5   0.007934864   0.14745  -0.09931   0.25164   0.27251
   1   19006.1    526.1   0.746477647  12.93005  -2.16982  -0.41490  -2.83721
   2   24142.0    414.2   0.001612120   0.02198  -0.02662   0.12427  -0.07636
   3   25243.4    396.1   0.065932701   0.85986   0.15823   0.48892  -0.77187
   4   25547.3    391.4   0.198056350   2.55222  -1.58882  -0.03897  -0.16235
   5   25830.4    387.1   0.286993371   3.65777   1.55935   0.26755   1.07453
   6   26752.1    373.8   0.186416219   2.29404   1.45840  -0.17482   0.36952
   7   27111.9    368.8   0.088803136   1.07831   0.97776  -0.24068   0.25371
   8   27899.1    358.4   0.367000881   4.33065   0.85573   1.34035   1.34233
   9   28662.9    348.9   1.409939748  16.19407   3.90453  -0.85641  -0.46400
  10   29259.7    341.8   0.904288720  10.17449   3.10062  -0.67185  -0.33058
  11   29980.6    333.5   0.174234419   1.91324  -1.07912   0.40096   0.76680
  12   30925.1    323.4   0.021306566   0.22682   0.34785  -0.31511  -0.08078
  13   31052.0    322.0   0.065293712   0.69224   0.52839   0.53809   0.35143
  14   31755.3    314.9   0.034572481   0.35842  -0.20334  -0.00324  -0.56308
  15   31893.7    313.5   0.252935970   2.61084  -1.48041  -0.24668  -0.59864
  16   32448.7    308.2   0.205950046   2.08949  -1.38656  -0.02377  -0.40790
  17   33297.2    300.3   0.052182518   0.51593   0.11554   0.57213   0.41863
  18   33421.1    299.2   0.008462888   0.08336  -0.15794   0.13030  -0.20357
  19   33865.9    295.3   0.053485955   0.51994  -0.69176  -0.19410   0.06111
  20   34826.5    287.1   0.006218949   0.05879   0.04283   0.18531   0.15038
  21   35227.4    283.9   0.071026500   0.66377   0.79051  -0.04638  -0.19161
  22   35591.9    281.0   0.083110027   0.76874  -0.35884   0.39910   0.69332
  23   35941.2    278.2   0.127574331   1.16855  -0.84181  -0.21402  -0.64350
  24   36109.3    276.9   0.005476759   0.04993  -0.09544   0.13937   0.14629
  25   36284.1    275.6   0.020958913   0.19016   0.13873  -0.11584  -0.39686
  26   36745.6    272.1   0.018283434   0.16381   0.30914  -0.19870  -0.16957
  27   36883.1    271.1   0.122916205   1.09713   0.71392  -0.15397  -0.75082
  28   37068.0    269.8   0.036604989   0.32510   0.10333  -0.39342  -0.39955
  29   37563.1    266.2   0.015513310   0.13596   0.32496   0.17217   0.02685
  30   37592.5    266.0   0.119297396   1.04473   0.41607   0.60901   0.70762
  31   38058.3    262.8   0.093771219   0.81114   0.85994   0.17695  -0.20083
  32   38472.7    259.9   0.039244659   0.33582   0.54278  -0.03298   0.20029
  33   38721.2    258.3   0.029184629   0.24813  -0.10773   0.29429   0.38719
  34   39191.6    255.2   0.055892423   0.46950  -0.39218   0.24240   0.50688
  35   39385.5    253.9   0.046912034   0.39212  -0.62565  -0.02610  -0.00262
  36   40016.5    249.9   0.058835085   0.48403  -0.61954   0.25972   0.18095
  37   40318.9    248.0   0.152100146   1.24193   0.94240   0.15461   0.57437

FINAL SINGLE POINT ENERGY     -4200.543621823316

DIPOLE MOMENT
-------------
                                X             Y             Z
Electronic contribution:   -120.73216      62.69098      38.95418
Nuclear contribution   :    119.52569     -62.81849     -38.97572
                        -----------------------------------------
Total Dipole Moment    :     -1.20647      -0.12751      -0.02154
                        -----------------------------------------
Magnitude (a.u.)       :      1.21338
Magnitude (Debye)      :      3.08417

Rotational constants in cm-1:     0.001990     0.000276     0.000251
Rotational constants in MHz :    59.663493     8.260332     7.512861

                             ****ORCA TERMINATED NORMALLY****
TOTAL RUN TIME: 0 days 0 hours 12 minutes 26 seconds 341 msec
