                         Program Version 4.2.0 -  RELEASE  -
|  1> # ORCA input file
|  2> # SCF done       -142.400047797216          0.000978250526
|  3> ! CAM-B3LYP def2-SVP def2/J RIJCOSX Grid4 TightSCF
|  4> %maxcore 5000
|  5> %tddft
|  6>     Mode sTDDFT
|  7>     Ethresh 5.0
|  8>     maxcore 5000
|  9> end
| 10>
| 11> %pal
| 12>   nprocs 6
| 13>   end
| 14> * xyz 0 1
| 15>    C       -0.08610        -2.96025        -5.27964
| 16>    C        1.03642        -2.65773        -4.61256
| 17>    C        1.88453        -1.51506        -4.79394
| 18>    C        2.95113        -1.47396        -3.96429
| 19>    C        3.03852        -2.57157        -3.06397
| 20>    S        1.69757        -3.67197        -3.31937
| 21>    C        3.99668        -2.78787        -2.10219
| 22>    C        5.10682        -1.96750        -1.78325
| 23>    C        5.85998        -2.43797        -0.75510
| 24>    C        5.39597        -3.65673        -0.19508
| 25>    S        3.96055        -4.19304        -1.04960
| 26>    C        5.96255        -4.30084         0.87508
| 27>    C        5.54688        -5.48834         1.49157
| 28>    C        6.10313        -6.04915         2.65028
| 29>    C        7.26060        -5.45144         3.38048
| 30>    C        5.45902        -7.21100         3.04630
| 31>    C        4.41378        -7.59962         2.21807
| 32>    S        4.22845        -6.46913         0.90482
| 33>    C        3.56402        -8.72227         2.32359
| 34>    C        3.50310        -9.52924         3.41717
| 35>    C        2.68550       -10.66632         3.55508
| 36>    S        1.73619       -11.36953         2.26400
| 37>    C        1.11066       -12.66283         3.26886
| 38>    C        1.61637       -12.52400         4.57060
| 39>    C        2.49607       -11.41850         4.70065
| 40>    S        3.12621       -11.24917         6.30528
| 41>    C        2.20570       -12.65266         6.79875
| 42>    C        2.30115       -13.06579         8.19550
| 43>    O        2.99301       -12.51688         9.02014
| 44>    O        1.52777       -14.13489         8.44632
| 45>    C        1.51565       -14.60874         9.79209
| 46>    C        0.56401       -13.79891        10.66140
| 47>    C        1.46947       -13.21349         5.79565
| 48>    C        0.26420       -13.66727         2.76865
| 49>    C       -0.20697       -13.87680         1.46633
| 50>    C        0.09116       -12.98471         0.31100
| 51>    C       -0.98771       -15.02124         1.35310
| 52>    C       -1.16273       -15.72759         2.53468
| 53>    S       -0.32108       -14.92446         3.83390
| 54>    C       -1.86619       -16.91688         2.79651
| 55>    C       -2.48145       -17.70128         1.85899
| 56>    C       -3.15252       -18.88566         2.18200
| 57>    C       -3.73036       -19.73880         1.27297
| 58>    C       -4.40643       -20.94880         1.56259
| 59>    C       -4.86311       -21.61498         0.46805
| 60>    C       -4.57280       -20.97196        -0.75935
| 61>    S       -3.70401       -19.47722        -0.46476
| 62>    C       -4.88937       -21.40167        -2.02729
| 63>    C       -5.57695       -22.59431        -2.38379
| 64>    C       -5.74778       -22.76503        -3.71394
| 65>    C       -5.20568       -21.71074        -4.52135
| 66>    S       -4.46515       -20.49528        -3.46669
| 67>    C       -5.22640       -21.60720        -5.85765
| 68>    H       -0.45344        -2.31389        -6.05721
| 69>    H       -0.65148        -3.84733        -5.06162
| 70>    H        1.65413        -0.77371        -5.53869
| 71>    H        3.68723        -0.68944        -3.96248
| 72>    H        5.31130        -1.05552        -2.31489
| 73>    H        6.73713        -1.94757        -0.36914
| 74>    H        6.82885        -3.82110         1.31229
| 75>    H        7.01806        -4.44968         3.73415
| 76>    H        8.13172        -5.37987         2.72965
| 77>    H        7.51809        -6.06819         4.23730
| 78>    H        5.75307        -7.77901         3.91084
| 79>    H        2.91200        -8.92576         1.48397
| 80>    H        4.09892        -9.30174         4.29096
| 81>    H        2.53206       -14.55677        10.19627
| 82>    H        1.19521       -15.65007         9.71984
| 83>    H        0.91538       -12.77275        10.73703
| 84>    H        0.52177       -14.23118        11.65718
| 85>    H       -0.43343       -13.80088        10.22823
| 86>    H        0.85418       -14.07849         5.95440
| 87>    H        1.16298       -12.95175         0.11436
| 88>    H       -0.23877       -11.96580         0.51267
| 89>    H       -0.41687       -13.34879        -0.57845
| 90>    H       -1.42882       -15.33612         0.42431
| 91>    H       -1.89436       -17.23559         3.83092
| 92>    H       -2.44339       -17.42106         0.81525
| 93>    H       -3.21563       -19.16719         3.22576
| 94>    H       -4.53197       -21.28728         2.57646
| 95>    H       -5.39587       -22.54811         0.50746
| 96>    H       -5.92131       -23.28634        -1.63593
| 97>    H       -6.24294       -23.60477        -4.16855
| 98>    H       -5.68869       -22.37001        -6.45916
| 99>    H       -4.78811       -20.76929        -6.36779
|100> *
|101>
|102>                          ****END OF INPUT****

CARTESIAN COORDINATES (ANGSTROEM)
---------------------------------
  C     -0.086100   -2.960250   -5.279640
  C      1.036420   -2.657730   -4.612560
  C      1.884530   -1.515060   -4.793940
  C      2.951130   -1.473960   -3.964290
  C      3.038520   -2.571570   -3.063970
  S      1.697570   -3.671970   -3.319370
  C      3.996680   -2.787870   -2.102190
  C      5.106820   -1.967500   -1.783250
  C      5.859980   -2.437970   -0.755100
  C      5.395970   -3.656730   -0.195080
  S      3.960550   -4.193040   -1.049600
  C      5.962550   -4.300840    0.875080
  C      5.546880   -5.488340    1.491570
  C      6.103130   -6.049150    2.650280
  C      7.260600   -5.451440    3.380480
  C      5.459020   -7.211000    3.046300
  C      4.413780   -7.599620    2.218070
  S      4.228450   -6.469130    0.904820
  C      3.564020   -8.722270    2.323590
  C      3.503100   -9.529240    3.417170
  C      2.685500  -10.666320    3.555080
  S      1.736190  -11.369530    2.264000
  C      1.110660  -12.662830    3.268860
  C      1.616370  -12.524000    4.570600
  C      2.496070  -11.418500    4.700650
  S      3.126210  -11.249170    6.305280
  C      2.205700  -12.652660    6.798750
  C      2.301150  -13.065790    8.195500
  O      2.993010  -12.516880    9.020140
  O      1.527770  -14.134890    8.446320
  C      1.515650  -14.608740    9.792090
  C      0.564010  -13.798910   10.661400
  C      1.469470  -13.213490    5.795650
  C      0.264200  -13.667270    2.768650
  C     -0.206970  -13.876800    1.466330
  C      0.091160  -12.984710    0.311000
  C     -0.987710  -15.021240    1.353100
  C     -1.162730  -15.727590    2.534680
  S     -0.321080  -14.924460    3.833900
  C     -1.866190  -16.916880    2.796510
  C     -2.481450  -17.701280    1.858990
  C     -3.152520  -18.885660    2.182000
  C     -3.730360  -19.738800    1.272970
  C     -4.406430  -20.948800    1.562590
  C     -4.863110  -21.614980    0.468050
  C     -4.572800  -20.971960   -0.759350
  S     -3.704010  -19.477220   -0.464760
  C     -4.889370  -21.401670   -2.027290
  C     -5.576950  -22.594310   -2.383790
  C     -5.747780  -22.765030   -3.713940
  C     -5.205680  -21.710740   -4.521350
  S     -4.465150  -20.495280   -3.466690
  C     -5.226400  -21.607200   -5.857650
  H     -0.453440   -2.313890   -6.057210
  H     -0.651480   -3.847330   -5.061620
  H      1.654130   -0.773710   -5.538690
  H      3.687230   -0.689440   -3.962480
  H      5.311300   -1.055520   -2.314890
  H      6.737130   -1.947570   -0.369140
  H      6.828850   -3.821100    1.312290
  H      7.018060   -4.449680    3.734150
  H      8.131720   -5.379870    2.729650
  H      7.518090   -6.068190    4.237300
  H      5.753070   -7.779010    3.910840
  H      2.912000   -8.925760    1.483970
  H      4.098920   -9.301740    4.290960
  H      2.532060  -14.556770   10.196270
  H      1.195210  -15.650070    9.719840
  H      0.915380  -12.772750   10.737030
  H      0.521770  -14.231180   11.657180
  H     -0.433430  -13.800880   10.228230
  H      0.854180  -14.078490    5.954400
  H      1.162980  -12.951750    0.114360
  H     -0.238770  -11.965800    0.512670
  H     -0.416870  -13.348790   -0.578450
  H     -1.428820  -15.336120    0.424310
  H     -1.894360  -17.235590    3.830920
  H     -2.443390  -17.421060    0.815250
  H     -3.215630  -19.167190    3.225760
  H     -4.531970  -21.287280    2.576460
  H     -5.395870  -22.548110    0.507460
  H     -5.921310  -23.286340   -1.635930
  H     -6.242940  -23.604770   -4.168550
  H     -5.688690  -22.370010   -6.459160
  H     -4.788110  -20.769290   -6.367790

 Total Charge           Charge          ....    0
 Multiplicity           Mult            ....    1
 Number of Electrons    NEL             ....  434
 Basis Dimension        Dim             ....  934

ORBITAL ENERGIES
----------------

  NO   OCC          E(Eh)            E(eV)
   0   2.0000     -88.957888     -2420.6672
   1   2.0000     -88.949662     -2420.4433
   2   2.0000     -88.945373     -2420.3266
   3   2.0000     -88.942154     -2420.2390
   4   2.0000     -88.938361     -2420.1358
   5   2.0000     -88.935029     -2420.0452
   6   2.0000     -88.934359     -2420.0269
   7   2.0000     -88.929309     -2419.8895
   8   2.0000     -19.250496      -523.8326
   9   2.0000     -19.196216      -522.3556
  10   2.0000     -10.396183      -282.8945
  11   2.0000     -10.316938      -280.7381
  12   2.0000     -10.312322      -280.6126
  13   2.0000     -10.305411      -280.4245
  14   2.0000     -10.304662      -280.4041
  15   2.0000     -10.302722      -280.3513
  16   2.0000     -10.301389      -280.3150
  17   2.0000     -10.301225      -280.3106
  18   2.0000     -10.299967      -280.2764
  19   2.0000     -10.299102      -280.2528
  20   2.0000     -10.298236      -280.2293
  21   2.0000     -10.298047      -280.2241
  22   2.0000     -10.297139      -280.1994
  23   2.0000     -10.296662      -280.1864
  24   2.0000     -10.295950      -280.1670
  25   2.0000     -10.294126      -280.1174
  26   2.0000     -10.289107      -279.9808
  27   2.0000     -10.286379      -279.9066
  28   2.0000     -10.285638      -279.8864
  29   2.0000     -10.283356      -279.8244
  30   2.0000     -10.282719      -279.8070
  31   2.0000     -10.281391      -279.7709
  32   2.0000     -10.280533      -279.7475
  33   2.0000     -10.280051      -279.7344
  34   2.0000     -10.279881      -279.7298
  35   2.0000     -10.279014      -279.7062
  36   2.0000     -10.278209      -279.6843
  37   2.0000     -10.276368      -279.6342
  38   2.0000     -10.275801      -279.6188
  39   2.0000     -10.275761      -279.6177
  40   2.0000     -10.275449      -279.6092
  41   2.0000     -10.275101      -279.5997
  42   2.0000     -10.274200      -279.5752
  43   2.0000     -10.273904      -279.5671
  44   2.0000     -10.273500      -279.5561
  45   2.0000     -10.269302      -279.4419
  46   2.0000     -10.266507      -279.3659
  47   2.0000     -10.266075      -279.3541
  48   2.0000     -10.265387      -279.3354
  49   2.0000     -10.262283      -279.2509
  50   2.0000     -10.261132      -279.2196
  51   2.0000     -10.258721      -279.1540
  52   2.0000     -10.254411      -279.0367
  53   2.0000      -8.052011      -219.1064
  54   2.0000      -8.044993      -218.9154
  55   2.0000      -8.040733      -218.7995
  56   2.0000      -8.037381      -218.7083
  57   2.0000      -8.034631      -218.6334
  58   2.0000      -8.031104      -218.5374
  59   2.0000      -8.031010      -218.5349
  60   2.0000      -8.026016      -218.3990
  61   2.0000      -6.021484      -163.8529
  62   2.0000      -6.017226      -163.7370
  63   2.0000      -6.014397      -163.6601
  64   2.0000      -6.014072      -163.6512
  65   2.0000      -6.010470      -163.5532
  66   2.0000      -6.010299      -163.5485
  67   2.0000      -6.006878      -163.4555
  68   2.0000      -6.006610      -163.4482
  69   2.0000      -6.006344      -163.4409
  70   2.0000      -6.004388      -163.3877
  71   2.0000      -6.002622      -163.3397
  72   2.0000      -6.001861      -163.3189
  73   2.0000      -6.000938      -163.2938
  74   2.0000      -6.000834      -163.2910
  75   2.0000      -6.000463      -163.2809
  76   2.0000      -5.999525      -163.2554
  77   2.0000      -5.997025      -163.1874
  78   2.0000      -5.996722      -163.1791
  79   2.0000      -5.995842      -163.1552
  80   2.0000      -5.995415      -163.1435
  81   2.0000      -5.991946      -163.0491
  82   2.0000      -5.991835      -163.0461
  83   2.0000      -5.991599      -163.0397
  84   2.0000      -5.986520      -162.9015
  85   2.0000      -1.182234       -32.1702
  86   2.0000      -1.089887       -29.6573
  87   2.0000      -1.003533       -27.3075
  88   2.0000      -0.987727       -26.8774
  89   2.0000      -0.984086       -26.7783
  90   2.0000      -0.978099       -26.6154
  91   2.0000      -0.972459       -26.4619
  92   2.0000      -0.964933       -26.2571
  93   2.0000      -0.958089       -26.0709
  94   2.0000      -0.940603       -25.5951
  95   2.0000      -0.908522       -24.7221
  96   2.0000      -0.897781       -24.4299
  97   2.0000      -0.881834       -23.9959
  98   2.0000      -0.874550       -23.7977
  99   2.0000      -0.864596       -23.5269
 100   2.0000      -0.860791       -23.4233
 101   2.0000      -0.856816       -23.3151
 102   2.0000      -0.850128       -23.1332
 103   2.0000      -0.842736       -22.9320
 104   2.0000      -0.839930       -22.8556
 105   2.0000      -0.835654       -22.7393
 106   2.0000      -0.830796       -22.6071
 107   2.0000      -0.817719       -22.2513
 108   2.0000      -0.813557       -22.1380
 109   2.0000      -0.812136       -22.0994
 110   2.0000      -0.808443       -21.9989
 111   2.0000      -0.800939       -21.7947
 112   2.0000      -0.781890       -21.2763
 113   2.0000      -0.775636       -21.1061
 114   2.0000      -0.768914       -20.9232
 115   2.0000      -0.761124       -20.7112
 116   2.0000      -0.747180       -20.3318
 117   2.0000      -0.739549       -20.1241
 118   2.0000      -0.726834       -19.7782
 119   2.0000      -0.707986       -19.2653
 120   2.0000      -0.694744       -18.9049
 121   2.0000      -0.688320       -18.7302
 122   2.0000      -0.684159       -18.6169
 123   2.0000      -0.671812       -18.2809
 124   2.0000      -0.665877       -18.1194
 125   2.0000      -0.655116       -17.8266
 126   2.0000      -0.636617       -17.3232
 127   2.0000      -0.634402       -17.2630
 128   2.0000      -0.630398       -17.1540
 129   2.0000      -0.622559       -16.9407
 130   2.0000      -0.619490       -16.8572
 131   2.0000      -0.618072       -16.8186
 132   2.0000      -0.613773       -16.7016
 133   2.0000      -0.608381       -16.5549
 134   2.0000      -0.602789       -16.4027
 135   2.0000      -0.596351       -16.2275
 136   2.0000      -0.593676       -16.1548
 137   2.0000      -0.591946       -16.1077
 138   2.0000      -0.589085       -16.0298
 139   2.0000      -0.582857       -15.8603
 140   2.0000      -0.572339       -15.5741
 141   2.0000      -0.565541       -15.3891
 142   2.0000      -0.560560       -15.2536
 143   2.0000      -0.556999       -15.1567
 144   2.0000      -0.553535       -15.0625
 145   2.0000      -0.542330       -14.7575
 146   2.0000      -0.535729       -14.5779
 147   2.0000      -0.534876       -14.5547
 148   2.0000      -0.528725       -14.3873
 149   2.0000      -0.517894       -14.0926
 150   2.0000      -0.515614       -14.0306
 151   2.0000      -0.514665       -14.0048
 152   2.0000      -0.509484       -13.8638
 153   2.0000      -0.508767       -13.8442
 154   2.0000      -0.506494       -13.7824
 155   2.0000      -0.503801       -13.7091
 156   2.0000      -0.501540       -13.6476
 157   2.0000      -0.495118       -13.4729
 158   2.0000      -0.493478       -13.4282
 159   2.0000      -0.492121       -13.3913
 160   2.0000      -0.490499       -13.3471
 161   2.0000      -0.489553       -13.3214
 162   2.0000      -0.485066       -13.1993
 163   2.0000      -0.482185       -13.1209
 164   2.0000      -0.479145       -13.0382
 165   2.0000      -0.477629       -12.9969
 166   2.0000      -0.475874       -12.9492
 167   2.0000      -0.473511       -12.8849
 168   2.0000      -0.472115       -12.8469
 169   2.0000      -0.469589       -12.7782
 170   2.0000      -0.462528       -12.5860
 171   2.0000      -0.461809       -12.5665
 172   2.0000      -0.458766       -12.4837
 173   2.0000      -0.456810       -12.4304
 174   2.0000      -0.454940       -12.3795
 175   2.0000      -0.454166       -12.3585
 176   2.0000      -0.451203       -12.2779
 177   2.0000      -0.448277       -12.1982
 178   2.0000      -0.447962       -12.1897
 179   2.0000      -0.445443       -12.1211
 180   2.0000      -0.441504       -12.0139
 181   2.0000      -0.435796       -11.8586
 182   2.0000      -0.433157       -11.7868
 183   2.0000      -0.429142       -11.6776
 184   2.0000      -0.423555       -11.5255
 185   2.0000      -0.420941       -11.4544
 186   2.0000      -0.415396       -11.3035
 187   2.0000      -0.414567       -11.2809
 188   2.0000      -0.413637       -11.2556
 189   2.0000      -0.412651       -11.2288
 190   2.0000      -0.411934       -11.2093
 191   2.0000      -0.407454       -11.0874
 192   2.0000      -0.405058       -11.0222
 193   2.0000      -0.399609       -10.8739
 194   2.0000      -0.395577       -10.7642
 195   2.0000      -0.392840       -10.6897
 196   2.0000      -0.392490       -10.6802
 197   2.0000      -0.384135       -10.4528
 198   2.0000      -0.377476       -10.2716
 199   2.0000      -0.368015       -10.0142
 200   2.0000      -0.363864        -9.9012
 201   2.0000      -0.350312        -9.5325
 202   2.0000      -0.349344        -9.5061
 203   2.0000      -0.333078        -9.0635
 204   2.0000      -0.329254        -8.9595
 205   2.0000      -0.327658        -8.9160
 206   2.0000      -0.323342        -8.7986
 207   2.0000      -0.314822        -8.5667
 208   2.0000      -0.313962        -8.5433
 209   2.0000      -0.312482        -8.5031
 210   2.0000      -0.303617        -8.2619
 211   2.0000      -0.301994        -8.2177
 212   2.0000      -0.287770        -7.8306
 213   2.0000      -0.270020        -7.3476
 214   2.0000      -0.235638        -6.4120
 215   2.0000      -0.208684        -5.6786
 216   2.0000      -0.190525        -5.1844
 217   0.0000      -0.079759        -2.1704
 218   0.0000      -0.060805        -1.6546
 219   0.0000      -0.038853        -1.0572
 220   0.0000      -0.008703        -0.2368
 221   0.0000       0.000119         0.0032

MULLIKEN ATOMIC CHARGES
-----------------------
   0 C :   -0.034889
   1 C :   -0.061026
   2 C :    0.047045
   3 C :    0.029238
   4 C :   -0.071179
   5 S :    0.076977
   6 C :   -0.038780
   7 C :    0.028003
   8 C :    0.030214
   9 C :   -0.035871
  10 S :    0.066221
  11 C :   -0.029598
  12 C :   -0.091420
  13 C :   -0.066162
  14 C :    0.118973
  15 C :   -0.025142
  16 C :   -0.058291
  17 S :    0.107404
  18 C :    0.042600
  19 C :   -0.018166
  20 C :   -0.099926
  21 S :    0.099477
  22 C :   -0.082950
  23 C :    0.096185
  24 C :   -0.028344
  25 S :    0.154941
  26 C :   -0.149870
  27 C :    0.216147
  28 O :   -0.208914
  29 O :   -0.305177
  30 C :    0.177448
  31 C :   -0.024239
  32 C :   -0.000922
  33 C :   -0.100615
  34 C :   -0.092647
  35 C :    0.122235
  36 C :   -0.030053
  37 C :   -0.035572
  38 S :    0.090490
  39 C :    0.044527
  40 C :    0.006279
  41 C :   -0.020400
  42 C :   -0.016504
  43 C :    0.032493
  44 C :    0.026808
  45 C :   -0.047290
  46 S :    0.068626
  47 C :   -0.068595
  48 C :    0.030409
  49 C :    0.048399
  50 C :   -0.063246
  51 S :    0.078000
  52 C :   -0.030894
  53 H :    0.017172
  54 H :    0.019137
  55 H :   -0.013798
  56 H :   -0.013015
  57 H :   -0.019581
  58 H :   -0.017367
  59 H :   -0.022434
  60 H :    0.028598
  61 H :    0.029052
  62 H :    0.009538
  63 H :   -0.029339
  64 H :   -0.016216
  65 H :   -0.011356
  66 H :    0.027660
  67 H :    0.018875
  68 H :    0.037266
  69 H :    0.020290
  70 H :    0.023599
  71 H :    0.009414
  72 H :    0.037041
  73 H :    0.035076
  74 H :    0.011353
  75 H :   -0.027456
  76 H :   -0.021042
  77 H :    0.000065
  78 H :   -0.018507
  79 H :   -0.015063
  80 H :   -0.015539
  81 H :   -0.013389
  82 H :   -0.012636
  83 H :    0.018901
  84 H :    0.021242
Sum of atomic charges:   -0.0000000

LOEWDIN ATOMIC CHARGES
----------------------
   0 C :   -0.082681
   1 C :   -0.138736
   2 C :   -0.035787
   3 C :   -0.026841
   4 C :   -0.180685
   5 S :    0.348506
   6 C :   -0.179172
   7 C :   -0.041498
   8 C :   -0.032837
   9 C :   -0.157938
  10 S :    0.362944
  11 C :   -0.073396
  12 C :   -0.184707
  13 C :   -0.051158
  14 C :   -0.046620
  15 C :   -0.061257
  16 C :   -0.169285
  17 S :    0.426423
  18 C :   -0.050614
  19 C :   -0.041438
  20 C :   -0.201016
  21 S :    0.461057
  22 C :   -0.171580
  23 C :   -0.090148
  24 C :   -0.180290
  25 S :    0.421569
  26 C :   -0.202282
  27 C :    0.068027
  28 O :   -0.184965
  29 O :   -0.091939
  30 C :    0.083973
  31 C :   -0.068271
  32 C :   -0.022777
  33 C :   -0.190829
  34 C :   -0.049502
  35 C :   -0.057421
  36 C :   -0.057935
  37 C :   -0.163179
  38 S :    0.437756
  39 C :   -0.044926
  40 C :   -0.024524
  41 C :   -0.059246
  42 C :   -0.145807
  43 C :   -0.035730
  44 C :   -0.033143
  45 C :   -0.179709
  46 S :    0.361893
  47 C :   -0.179050
  48 C :   -0.026935
  49 C :   -0.033804
  50 C :   -0.138915
  51 S :    0.349501
  52 C :   -0.078962
  53 H :    0.027288
  54 H :    0.025019
  55 H :    0.032193
  56 H :    0.031506
  57 H :    0.029385
  58 H :    0.031504
  59 H :    0.036462
  60 H :    0.035894
  61 H :    0.035570
  62 H :    0.033052
  63 H :    0.025292
  64 H :    0.023098
  65 H :    0.031315
  66 H :    0.021445
  67 H :    0.021932
  68 H :    0.031964
  69 H :    0.031857
  70 H :    0.026801
  71 H :    0.024347
  72 H :    0.032791
  73 H :    0.031174
  74 H :    0.034616
  75 H :    0.027442
  76 H :    0.026963
  77 H :    0.022910
  78 H :    0.032011
  79 H :    0.032606
  80 H :    0.030678
  81 H :    0.031751
  82 H :    0.032844
  83 H :    0.028232
  84 H :    0.025943

  Mayer bond orders larger than 0.100000
B(  0-C ,  1-C ) :   1.8601 B(  0-C , 53-H ) :   0.9510 B(  0-C , 54-H ) :   0.9420
B(  1-C ,  2-C ) :   1.0810 B(  1-C ,  5-S ) :   1.0089 B(  2-C ,  3-C ) :   1.6568
B(  2-C , 55-H ) :   0.9931 B(  3-C ,  4-C ) :   1.1567 B(  3-C , 56-H ) :   0.9913
B(  4-C ,  5-S ) :   1.0413 B(  4-C ,  6-C ) :   1.5542 B(  6-C ,  7-C ) :   1.1714
B(  6-C , 10-S ) :   1.0349 B(  7-C ,  8-C ) :   1.6019 B(  7-C , 57-H ) :   0.9917
B(  8-C ,  9-C ) :   1.1409 B(  8-C , 58-H ) :   0.9992 B(  9-C , 10-S ) :   1.0311
B(  9-C , 11-C ) :   1.5677 B( 11-C , 12-C ) :   1.2083 B( 11-C , 59-H ) :   0.9594
B( 12-C , 13-C ) :   1.4169 B( 12-C , 17-S ) :   1.0909 B( 13-C , 14-C ) :   1.1008
B( 13-C , 15-C ) :   1.3442 B( 14-C , 60-H ) :   0.9414 B( 14-C , 61-H ) :   0.9417
B( 14-C , 62-H ) :   0.9502 B( 15-C , 16-C ) :   1.4290 B( 15-C , 63-H ) :   0.9905
B( 16-C , 17-S ) :   1.1175 B( 16-C , 18-C ) :   1.1493 B( 18-C , 19-C ) :   1.6345
B( 18-C , 64-H ) :   0.9645 B( 19-C , 20-C ) :   1.1959 B( 19-C , 65-H ) :   0.9683
B( 20-C , 21-S ) :   1.0805 B( 20-C , 24-C ) :   1.4579 B( 21-S , 22-C ) :   1.1235
B( 22-C , 23-C ) :   1.3500 B( 22-C , 33-C ) :   1.2285 B( 23-C , 24-C ) :   1.2587
B( 23-C , 32-C ) :   1.1360 B( 24-C , 25-S ) :   1.0459 B( 25-S , 26-C ) :   1.0692
B( 26-C , 27-C ) :   0.9722 B( 26-C , 32-C ) :   1.6098 B( 27-C , 28-O ) :   2.1154
B( 27-C , 29-O ) :   1.2334 B( 29-O , 30-C ) :   0.9080 B( 30-C , 31-C ) :   1.1209
B( 30-C , 66-H ) :   0.9452 B( 30-C , 67-H ) :   0.9616 B( 31-C , 68-H ) :   0.9667
B( 31-C , 69-H ) :   0.9643 B( 31-C , 70-H ) :   0.9670 B( 32-C , 71-H ) :   0.9888
B( 33-C , 34-C ) :   1.4271 B( 33-C , 38-S ) :   1.1096 B( 34-C , 35-C ) :   1.1100
B( 34-C , 36-C ) :   1.3277 B( 35-C , 72-H ) :   0.9342 B( 35-C , 73-H ) :   0.9355
B( 35-C , 74-H ) :   0.9401 B( 36-C , 37-C ) :   1.4380 B( 36-C , 75-H ) :   0.9927
B( 37-C , 38-S ) :   1.1047 B( 37-C , 39-C ) :   1.1416 B( 39-C , 40-C ) :   1.6207
B( 39-C , 76-H ) :   0.9678 B( 40-C , 41-C ) :   1.1828 B( 40-C , 77-H ) :   0.9706
B( 41-C , 42-C ) :   1.5451 B( 41-C , 78-H ) :   0.9835 B( 42-C , 43-C ) :   1.1452
B( 42-C , 46-S ) :   1.0298 B( 43-C , 44-C ) :   1.5944 B( 43-C , 79-H ) :   0.9994
B( 44-C , 45-C ) :   1.1800 B( 44-C , 80-H ) :   0.9922 B( 45-C , 46-S ) :   1.0372
B( 45-C , 47-C ) :   1.5478 B( 47-C , 48-C ) :   1.1574 B( 47-C , 51-S ) :   1.0431
B( 48-C , 49-C ) :   1.6570 B( 48-C , 81-H ) :   0.9913 B( 49-C , 50-C ) :   1.0832
B( 49-C , 82-H ) :   0.9924 B( 50-C , 51-S ) :   1.0076 B( 50-C , 52-C ) :   1.8613
B( 52-C , 83-H ) :   0.9504 B( 52-C , 84-H ) :   0.9417

-----------------------------------------------------------------------------
         ABSORPTION SPECTRUM VIA TRANSITION ELECTRIC DIPOLE MOMENTS
-----------------------------------------------------------------------------
State   Energy  Wavelength   fosc         T2         TX        TY        TZ
        (cm-1)    (nm)                  (au**2)     (au)      (au)      (au)
-----------------------------------------------------------------------------
   0   12021.4    831.8   1.783959107  48.85453  -2.76271  -6.41077  -0.35218
   1   16703.8    598.7   1.857573042  36.61062  -2.64061   0.03788  -5.44393
   2   17572.6    569.1   0.042363644   0.79366  -0.06452   0.87431  -0.15833
   3   20811.6    480.5   0.019448206   0.30765   0.20024  -0.51699  -0.01660
   4   21944.0    455.7   0.188344224   2.82562   1.67838   0.06595  -0.06551
   5   23461.7    426.2   0.006991866   0.09811   0.20726  -0.21671   0.09050
   6   25489.0    392.3   0.172537727   2.22847   1.20729   0.87547   0.06690
   7   26685.7    374.7   0.130221921   1.60650   0.57524   0.02461   1.12916
   8   27300.7    366.3   0.137746194   1.66104   1.02425   0.75192  -0.21580
   9   28343.0    352.8   0.065942601   0.76594   0.63088   0.43971   0.41784
  10   30156.8    331.6   0.147052725   1.60532  -0.68317  -0.88132   0.60157
  11   31000.8    322.6   0.034673028   0.36821   0.09187   0.37103  -0.47128
  12   31858.7    313.9   0.061042855   0.63079  -0.51612  -0.44626   0.40652
  13   32169.1    310.9   0.007579539   0.07757  -0.19162  -0.07207   0.18882
  14   32767.2    305.2   0.092934848   0.93372  -0.64070  -0.71767   0.09037
  15   33024.1    302.8   0.096859414   0.96558  -0.09324  -0.45714   0.86482
  16   33698.4    296.8   0.002502029   0.02444   0.14123   0.04948  -0.04528
  17   34002.6    294.1   0.046922837   0.45431   0.45754   0.39106   0.30337
  18   34170.1    292.7   0.029103485   0.28040   0.23779   0.23438   0.41100
  19   34550.3    289.4   0.068118286   0.64906  -0.55365  -0.58520   0.00827
  20   34942.1    286.2   0.248570733   2.34195  -0.01499  -0.67805   1.37185
  21   35642.7    280.6   0.024376677   0.22515   0.00596  -0.11684   0.45985
  22   36222.5    276.1   0.034593983   0.31441   0.31465   0.46087   0.05482
  23   36694.2    272.5   0.008935442   0.08017   0.08866  -0.05178   0.26386
  24   37361.7    267.7   0.036493138   0.32156  -0.12099  -0.30328   0.46362
  25   38209.3    261.7   0.026941280   0.23213  -0.04145   0.08368  -0.47266
  26   38321.5    261.0   0.001046043   0.00899  -0.07458  -0.05307  -0.02466
  27   38671.5    258.6   0.021972182   0.18705  -0.39106   0.18006  -0.04123
  28   39109.5    255.7   0.043856346   0.36917   0.40424   0.34516   0.29432
  29   39290.6    254.5   0.250217417   2.09655  -0.33013   0.20802  -1.39438
  30   39789.5    251.3   0.004713847   0.03900   0.13732  -0.14168   0.00843
  31   40053.4    249.7   0.050560639   0.41557  -0.45760   0.02986  -0.45308
  32   40122.1    249.2   0.029964041   0.24586   0.22500  -0.02746   0.44100
  33   40197.2    248.8   0.000592002   0.00485  -0.05844   0.03120  -0.02144

FINAL SINGLE POINT ENERGY     -4990.438847909870

DIPOLE MOMENT
-------------
                                X             Y             Z
Electronic contribution:      2.55408       4.37575      -8.61936
Nuclear contribution   :     -3.22719      -5.18653       8.09405
                        -----------------------------------------
Total Dipole Moment    :     -0.67311      -0.81078      -0.52531
                        -----------------------------------------
Magnitude (a.u.)       :      1.17745
Magnitude (Debye)      :      2.99284

Rotational constants in cm-1:     0.001113     0.000377     0.000288
Rotational constants in MHz :    33.379847    11.296614     8.633724

                             ****ORCA TERMINATED NORMALLY****
TOTAL RUN TIME: 0 days 0 hours 5 minutes 59 seconds 107 msec
