                         Program Version 4.2.0 -  RELEASE  -
|  1> # ORCA input file
|  2> # SCF done       -137.132874348261          0.000535997571
|  3> ! CAM-B3LYP def2-SVP def2/J RIJCOSX Grid4 TightSCF
|  4> %maxcore 5000
|  5> %tddft
|  6>     Mode sTDDFT
|  7>     Ethresh 5.0
|  8>     maxcore 5000
|  9> end
| 10>
| 11> %pal
| 12>   nprocs 6
| 13>   end
| 14> * xyz 0 1
| 15>    C       14.41664        -3.65776         6.76657
| 16>    C       13.96689        -3.72053         5.50504
| 17>    C       14.51187        -3.07940         4.34422
| 18>    C       13.83740        -3.32965         3.19859
| 19>    C       12.71081        -4.18067         3.35355
| 20>    S       12.54089        -4.65840         5.03300
| 21>    C       11.83934        -4.60197         2.37522
| 22>    C       11.86156        -4.29195         0.99602
| 23>    C       10.84889        -4.86304         0.28753
| 24>    C        9.96204        -5.65606         1.05431
| 25>    S       10.48076        -5.65234         2.73023
| 26>    C        8.85867        -6.31370         0.55464
| 27>    C        7.92355        -7.10058         1.22829
| 28>    C        7.86219        -7.45515         2.57467
| 29>    C        6.73101        -8.24631         2.78187
| 30>    C        6.04439        -8.41635         1.58311
| 31>    C        6.74626        -7.70796         0.48908
| 32>    N        4.92694        -9.15508         1.69478
| 33>    C        4.81912        -9.51545         2.96565
| 34>    C        5.96448        -8.98065         3.82125
| 35>    C        3.77428       -10.29617         3.48889
| 36>    S        3.79178       -10.67961         5.19053
| 37>    C        2.32443       -11.55878         5.03434
| 38>    C        1.81992       -11.56507         3.77319
| 39>    C        0.56400       -12.30101         3.44032
| 40>    C        2.63865       -10.83551         2.85224
| 41>    C        2.45000       -10.62205         1.45866
| 42>    C        1.35435       -10.84438         0.68631
| 43>    C        1.29043       -10.55016        -0.70442
| 44>    C        2.29142        -9.99545        -1.44279
| 45>    C        2.23108        -9.68372        -2.82066
| 46>    S        3.50612        -8.72819        -3.51608
| 47>    C        2.74107        -8.68565        -5.08418
| 48>    C        1.56384        -9.44393        -5.06002
| 49>    C        1.28613       -10.00097        -3.79768
| 50>    O        0.20549       -10.82473        -3.55258
| 51>    C        0.53170       -12.20222        -3.56923
| 52>    O        0.86785        -9.61503        -6.20804
| 53>    C       -0.50133        -9.95844        -6.14311
| 54>    C        3.36752        -7.95217        -6.10506
| 55>    C        2.90567        -7.55264        -7.33373
| 56>    C        3.68408        -6.79506        -8.25142
| 57>    C        3.03455        -6.43607        -9.38849
| 58>    C        1.68993        -6.87882        -9.43534
| 59>    S        1.29947        -7.79173        -7.98875
| 60>    C        0.76589        -6.66238       -10.42944
| 61>    C        0.93812        -5.92675       -11.63329
| 62>    C       -0.15977        -5.87473       -12.42069
| 63>    C       -1.29932        -6.57063       -11.89666
| 64>    S       -0.86854        -7.29528       -10.33882
| 65>    C       -2.51519        -6.68709       -12.44879
| 66>    H       15.28657        -3.07380         7.00994
| 67>    H       13.92793        -4.18030         7.56808
| 68>    H       15.38664        -2.45814         4.42059
| 69>    H       14.10803        -2.93026         2.23700
| 70>    H       12.61766        -3.65914         0.56716
| 71>    H       10.70600        -4.73681        -0.77184
| 72>    H        8.69625        -6.18986        -0.51008
| 73>    H        8.56799        -7.16772         3.33129
| 74>    H        6.12174        -6.94229         0.02566
| 75>    H        7.07159        -8.38540        -0.30232
| 76>    H        6.52912        -9.79397         4.27973
| 77>    H        5.59353        -8.33852         4.62123
| 78>    H        1.91124       -12.03387         5.90313
| 79>    H        0.25258       -12.90444         4.29037
| 80>    H        0.72123       -12.95530         2.58487
| 81>    H       -0.23916       -11.60337         3.20542
| 82>    H        3.31447       -10.17555         0.99081
| 83>    H        0.44677       -11.24165         1.11335
| 84>    H        0.35058       -10.76484        -1.19325
| 85>    H        3.21784        -9.71604        -0.96052
| 86>    H       -0.39287       -12.73403        -3.35150
| 87>    H        1.28314       -12.44360        -2.81097
| 88>    H        0.90791       -12.50772        -4.55225
| 89>    H       -0.91538        -9.67096        -7.10956
| 90>    H       -1.01255        -9.41667        -5.34548
| 91>    H       -0.63538       -11.03253        -5.99340
| 92>    H        4.36624        -7.61071        -5.85737
| 93>    H        4.70793        -6.54544        -8.03241
| 94>    H        3.48058        -5.87290       -10.18875
| 95>    H        1.87721        -5.45910       -11.87172
| 96>    H       -0.21635        -5.36500       -13.36626
| 97>    H       -2.73219        -6.22998       -13.39802
| 98>    H       -3.30511        -7.23391       -11.96793
| 99> *
|100>
|101>                          ****END OF INPUT****

CARTESIAN COORDINATES (ANGSTROEM)
---------------------------------
  C     14.416640   -3.657760    6.766570
  C     13.966890   -3.720530    5.505040
  C     14.511870   -3.079400    4.344220
  C     13.837400   -3.329650    3.198590
  C     12.710810   -4.180670    3.353550
  S     12.540890   -4.658400    5.033000
  C     11.839340   -4.601970    2.375220
  C     11.861560   -4.291950    0.996020
  C     10.848890   -4.863040    0.287530
  C      9.962040   -5.656060    1.054310
  S     10.480760   -5.652340    2.730230
  C      8.858670   -6.313700    0.554640
  C      7.923550   -7.100580    1.228290
  C      7.862190   -7.455150    2.574670
  C      6.731010   -8.246310    2.781870
  C      6.044390   -8.416350    1.583110
  C      6.746260   -7.707960    0.489080
  N      4.926940   -9.155080    1.694780
  C      4.819120   -9.515450    2.965650
  C      5.964480   -8.980650    3.821250
  C      3.774280  -10.296170    3.488890
  S      3.791780  -10.679610    5.190530
  C      2.324430  -11.558780    5.034340
  C      1.819920  -11.565070    3.773190
  C      0.564000  -12.301010    3.440320
  C      2.638650  -10.835510    2.852240
  C      2.450000  -10.622050    1.458660
  C      1.354350  -10.844380    0.686310
  C      1.290430  -10.550160   -0.704420
  C      2.291420   -9.995450   -1.442790
  C      2.231080   -9.683720   -2.820660
  S      3.506120   -8.728190   -3.516080
  C      2.741070   -8.685650   -5.084180
  C      1.563840   -9.443930   -5.060020
  C      1.286130  -10.000970   -3.797680
  O      0.205490  -10.824730   -3.552580
  C      0.531700  -12.202220   -3.569230
  O      0.867850   -9.615030   -6.208040
  C     -0.501330   -9.958440   -6.143110
  C      3.367520   -7.952170   -6.105060
  C      2.905670   -7.552640   -7.333730
  C      3.684080   -6.795060   -8.251420
  C      3.034550   -6.436070   -9.388490
  C      1.689930   -6.878820   -9.435340
  S      1.299470   -7.791730   -7.988750
  C      0.765890   -6.662380  -10.429440
  C      0.938120   -5.926750  -11.633290
  C     -0.159770   -5.874730  -12.420690
  C     -1.299320   -6.570630  -11.896660
  S     -0.868540   -7.295280  -10.338820
  C     -2.515190   -6.687090  -12.448790
  H     15.286570   -3.073800    7.009940
  H     13.927930   -4.180300    7.568080
  H     15.386640   -2.458140    4.420590
  H     14.108030   -2.930260    2.237000
  H     12.617660   -3.659140    0.567160
  H     10.706000   -4.736810   -0.771840
  H      8.696250   -6.189860   -0.510080
  H      8.567990   -7.167720    3.331290
  H      6.121740   -6.942290    0.025660
  H      7.071590   -8.385400   -0.302320
  H      6.529120   -9.793970    4.279730
  H      5.593530   -8.338520    4.621230
  H      1.911240  -12.033870    5.903130
  H      0.252580  -12.904440    4.290370
  H      0.721230  -12.955300    2.584870
  H     -0.239160  -11.603370    3.205420
  H      3.314470  -10.175550    0.990810
  H      0.446770  -11.241650    1.113350
  H      0.350580  -10.764840   -1.193250
  H      3.217840   -9.716040   -0.960520
  H     -0.392870  -12.734030   -3.351500
  H      1.283140  -12.443600   -2.810970
  H      0.907910  -12.507720   -4.552250
  H     -0.915380   -9.670960   -7.109560
  H     -1.012550   -9.416670   -5.345480
  H     -0.635380  -11.032530   -5.993400
  H      4.366240   -7.610710   -5.857370
  H      4.707930   -6.545440   -8.032410
  H      3.480580   -5.872900  -10.188750
  H      1.877210   -5.459100  -11.871720
  H     -0.216350   -5.365000  -13.366260
  H     -2.732190   -6.229980  -13.398020
  H     -3.305110   -7.233910  -11.967930

 Total Charge           Charge          ....    0
 Multiplicity           Mult            ....    1
 Number of Electrons    NEL             ....  404
 Basis Dimension        Dim             ....  903

ORBITAL ENERGIES
----------------

  NO   OCC          E(Eh)            E(eV)
   0   2.0000     -88.947876     -2420.3947
   1   2.0000     -88.944550     -2420.3042
   2   2.0000     -88.934640     -2420.0346
   3   2.0000     -88.928706     -2419.8731
   4   2.0000     -88.924709     -2419.7643
   5   2.0000     -88.923233     -2419.7242
   6   2.0000     -19.241704      -523.5934
   7   2.0000     -19.234823      -523.4061
   8   2.0000     -14.396298      -391.7432
   9   2.0000     -10.327715      -281.0314
  10   2.0000     -10.320404      -280.8325
  11   2.0000     -10.314560      -280.6734
  12   2.0000     -10.312135      -280.6075
  13   2.0000     -10.309214      -280.5280
  14   2.0000     -10.298747      -280.2431
  15   2.0000     -10.298290      -280.2307
  16   2.0000     -10.297465      -280.2083
  17   2.0000     -10.293273      -280.0942
  18   2.0000     -10.292629      -280.0767
  19   2.0000     -10.292513      -280.0735
  20   2.0000     -10.292034      -280.0605
  21   2.0000     -10.291464      -280.0450
  22   2.0000     -10.291205      -280.0379
  23   2.0000     -10.289507      -279.9917
  24   2.0000     -10.288845      -279.9737
  25   2.0000     -10.285951      -279.8950
  26   2.0000     -10.281852      -279.7834
  27   2.0000     -10.281278      -279.7678
  28   2.0000     -10.280419      -279.7444
  29   2.0000     -10.275788      -279.6184
  30   2.0000     -10.275639      -279.6143
  31   2.0000     -10.274687      -279.5885
  32   2.0000     -10.274615      -279.5865
  33   2.0000     -10.274287      -279.5776
  34   2.0000     -10.273788      -279.5640
  35   2.0000     -10.273244      -279.5492
  36   2.0000     -10.270678      -279.4794
  37   2.0000     -10.270291      -279.4688
  38   2.0000     -10.270069      -279.4628
  39   2.0000     -10.269012      -279.4340
  40   2.0000     -10.268833      -279.4291
  41   2.0000     -10.268486      -279.4197
  42   2.0000     -10.268158      -279.4108
  43   2.0000     -10.266734      -279.3720
  44   2.0000     -10.264013      -279.2980
  45   2.0000     -10.260227      -279.1950
  46   2.0000     -10.260166      -279.1933
  47   2.0000     -10.260009      -279.1890
  48   2.0000     -10.258790      -279.1559
  49   2.0000     -10.254650      -279.0432
  50   2.0000     -10.251055      -278.9454
  51   2.0000      -8.043661      -218.8791
  52   2.0000      -8.040252      -218.7864
  53   2.0000      -8.030481      -218.5205
  54   2.0000      -8.025439      -218.3833
  55   2.0000      -8.020022      -218.2359
  56   2.0000      -8.019911      -218.2329
  57   2.0000      -6.012963      -163.6210
  58   2.0000      -6.009481      -163.5263
  59   2.0000      -6.008769      -163.5069
  60   2.0000      -6.005902      -163.4289
  61   2.0000      -6.005838      -163.4272
  62   2.0000      -6.001918      -163.3205
  63   2.0000      -6.000242      -163.2749
  64   2.0000      -5.996169      -163.1640
  65   2.0000      -5.995270      -163.1396
  66   2.0000      -5.991462      -163.0360
  67   2.0000      -5.991358      -163.0332
  68   2.0000      -5.989931      -162.9943
  69   2.0000      -5.989765      -162.9898
  70   2.0000      -5.985951      -162.8860
  71   2.0000      -5.985844      -162.8831
  72   2.0000      -5.985694      -162.8790
  73   2.0000      -5.980782      -162.7453
  74   2.0000      -5.980428      -162.7357
  75   2.0000      -1.150824       -31.3155
  76   2.0000      -1.129271       -30.7290
  77   2.0000      -1.046188       -28.4682
  78   2.0000      -0.981705       -26.7136
  79   2.0000      -0.976407       -26.5694
  80   2.0000      -0.975206       -26.5367
  81   2.0000      -0.969754       -26.3883
  82   2.0000      -0.959429       -26.1074
  83   2.0000      -0.952491       -25.9186
  84   2.0000      -0.938338       -25.5335
  85   2.0000      -0.899566       -24.4784
  86   2.0000      -0.878927       -23.9168
  87   2.0000      -0.875886       -23.8341
  88   2.0000      -0.867518       -23.6064
  89   2.0000      -0.858316       -23.3560
  90   2.0000      -0.851370       -23.1670
  91   2.0000      -0.844202       -22.9719
  92   2.0000      -0.837894       -22.8002
  93   2.0000      -0.833945       -22.6928
  94   2.0000      -0.831336       -22.6218
  95   2.0000      -0.828865       -22.5546
  96   2.0000      -0.816635       -22.2218
  97   2.0000      -0.810067       -22.0430
  98   2.0000      -0.802828       -21.8461
  99   2.0000      -0.798868       -21.7383
 100   2.0000      -0.788468       -21.4553
 101   2.0000      -0.780966       -21.2512
 102   2.0000      -0.776488       -21.1293
 103   2.0000      -0.768122       -20.9017
 104   2.0000      -0.751860       -20.4591
 105   2.0000      -0.741865       -20.1872
 106   2.0000      -0.738061       -20.0837
 107   2.0000      -0.716700       -19.5024
 108   2.0000      -0.709107       -19.2958
 109   2.0000      -0.690904       -18.8004
 110   2.0000      -0.681423       -18.5425
 111   2.0000      -0.670700       -18.2507
 112   2.0000      -0.661520       -18.0009
 113   2.0000      -0.650091       -17.6899
 114   2.0000      -0.646021       -17.5791
 115   2.0000      -0.642074       -17.4717
 116   2.0000      -0.633784       -17.2461
 117   2.0000      -0.624071       -16.9818
 118   2.0000      -0.620203       -16.8766
 119   2.0000      -0.614460       -16.7203
 120   2.0000      -0.609133       -16.5753
 121   2.0000      -0.606806       -16.5120
 122   2.0000      -0.604334       -16.4448
 123   2.0000      -0.600224       -16.3329
 124   2.0000      -0.590251       -16.0615
 125   2.0000      -0.588186       -16.0054
 126   2.0000      -0.584885       -15.9155
 127   2.0000      -0.583079       -15.8664
 128   2.0000      -0.578750       -15.7486
 129   2.0000      -0.564728       -15.3670
 130   2.0000      -0.555720       -15.1219
 131   2.0000      -0.550301       -14.9744
 132   2.0000      -0.549535       -14.9536
 133   2.0000      -0.548881       -14.9358
 134   2.0000      -0.538449       -14.6520
 135   2.0000      -0.532791       -14.4980
 136   2.0000      -0.530099       -14.4247
 137   2.0000      -0.524426       -14.2704
 138   2.0000      -0.522459       -14.2168
 139   2.0000      -0.518886       -14.1196
 140   2.0000      -0.514395       -13.9974
 141   2.0000      -0.513744       -13.9797
 142   2.0000      -0.505703       -13.7609
 143   2.0000      -0.504363       -13.7244
 144   2.0000      -0.503351       -13.6969
 145   2.0000      -0.501317       -13.6415
 146   2.0000      -0.497493       -13.5375
 147   2.0000      -0.489902       -13.3309
 148   2.0000      -0.487538       -13.2666
 149   2.0000      -0.483950       -13.1690
 150   2.0000      -0.483859       -13.1665
 151   2.0000      -0.480180       -13.0663
 152   2.0000      -0.477867       -13.0034
 153   2.0000      -0.477308       -12.9882
 154   2.0000      -0.475358       -12.9351
 155   2.0000      -0.468687       -12.7536
 156   2.0000      -0.467672       -12.7260
 157   2.0000      -0.465982       -12.6800
 158   2.0000      -0.458274       -12.4703
 159   2.0000      -0.454737       -12.3740
 160   2.0000      -0.452984       -12.3263
 161   2.0000      -0.450827       -12.2676
 162   2.0000      -0.445340       -12.1183
 163   2.0000      -0.443996       -12.0818
 164   2.0000      -0.442647       -12.0450
 165   2.0000      -0.439057       -11.9473
 166   2.0000      -0.430808       -11.7229
 167   2.0000      -0.428842       -11.6694
 168   2.0000      -0.426325       -11.6009
 169   2.0000      -0.423828       -11.5329
 170   2.0000      -0.419117       -11.4048
 171   2.0000      -0.416115       -11.3231
 172   2.0000      -0.415696       -11.3117
 173   2.0000      -0.414564       -11.2809
 174   2.0000      -0.413449       -11.2505
 175   2.0000      -0.411834       -11.2066
 176   2.0000      -0.409670       -11.1477
 177   2.0000      -0.407962       -11.1012
 178   2.0000      -0.402977       -10.9656
 179   2.0000      -0.400871       -10.9082
 180   2.0000      -0.391801       -10.6615
 181   2.0000      -0.389902       -10.6098
 182   2.0000      -0.385999       -10.5036
 183   2.0000      -0.378443       -10.2980
 184   2.0000      -0.369021       -10.0416
 185   2.0000      -0.364896        -9.9293
 186   2.0000      -0.348704        -9.4887
 187   2.0000      -0.344069        -9.3626
 188   2.0000      -0.332926        -9.0594
 189   2.0000      -0.328735        -8.9453
 190   2.0000      -0.327411        -8.9093
 191   2.0000      -0.322487        -8.7753
 192   2.0000      -0.321405        -8.7459
 193   2.0000      -0.312916        -8.5149
 194   2.0000      -0.305655        -8.3173
 195   2.0000      -0.298943        -8.1347
 196   2.0000      -0.290872        -7.9150
 197   2.0000      -0.280491        -7.6325
 198   2.0000      -0.255003        -6.9390
 199   2.0000      -0.239132        -6.5071
 200   2.0000      -0.198606        -5.4043
 201   2.0000      -0.188786        -5.1371
 202   0.0000      -0.074182        -2.0186
 203   0.0000      -0.055861        -1.5201
 204   0.0000      -0.032836        -0.8935
 205   0.0000      -0.004967        -0.1352
 206   0.0000       0.018300         0.4980

MULLIKEN ATOMIC CHARGES
-----------------------
   0 C :   -0.033254
   1 C :   -0.062716
   2 C :    0.047604
   3 C :    0.030193
   4 C :   -0.070490
   5 S :    0.071926
   6 C :   -0.032731
   7 C :    0.019207
   8 C :    0.031344
   9 C :   -0.021717
  10 S :    0.050262
  11 C :   -0.005844
  12 C :   -0.133637
  13 C :   -0.060845
  14 C :   -0.095390
  15 C :   -0.174401
  16 C :    0.268880
  17 N :   -0.058607
  18 C :   -0.145288
  19 C :    0.241228
  20 C :   -0.111448
  21 S :    0.092682
  22 C :   -0.103588
  23 C :   -0.107258
  24 C :    0.122551
  25 C :    0.140093
  26 C :   -0.023779
  27 C :   -0.003090
  28 C :   -0.025603
  29 C :    0.052627
  30 C :   -0.107342
  31 S :    0.121630
  32 C :   -0.174443
  33 C :    0.209158
  34 C :    0.070711
  35 O :   -0.355599
  36 C :    0.199014
  37 O :   -0.322472
  38 C :    0.200884
  39 C :    0.009292
  40 C :   -0.015939
  41 C :    0.027998
  42 C :    0.024117
  43 C :   -0.036948
  44 S :    0.088926
  45 C :   -0.077751
  46 C :    0.030912
  47 C :    0.045369
  48 C :   -0.059730
  49 S :    0.062685
  50 C :   -0.036742
  51 H :    0.015853
  52 H :    0.017461
  53 H :   -0.015216
  54 H :   -0.014949
  55 H :   -0.020099
  56 H :   -0.017163
  57 H :   -0.029673
  58 H :   -0.012443
  59 H :    0.037051
  60 H :    0.034935
  61 H :    0.047825
  62 H :    0.048480
  63 H :    0.011447
  64 H :    0.001550
  65 H :    0.030563
  66 H :    0.038243
  67 H :    0.007357
  68 H :   -0.042944
  69 H :   -0.004370
  70 H :   -0.016419
  71 H :    0.031189
  72 H :    0.029365
  73 H :    0.018263
  74 H :    0.032175
  75 H :    0.030967
  76 H :    0.013966
  77 H :   -0.026488
  78 H :   -0.019879
  79 H :   -0.021230
  80 H :   -0.017380
  81 H :   -0.018423
  82 H :    0.012782
  83 H :    0.014567
Sum of atomic charges:   -0.0000000

LOEWDIN ATOMIC CHARGES
----------------------
   0 C :   -0.085032
   1 C :   -0.138738
   2 C :   -0.037753
   3 C :   -0.026304
   4 C :   -0.182605
   5 S :    0.344785
   6 C :   -0.178175
   7 C :   -0.047674
   8 C :   -0.032589
   9 C :   -0.154115
  10 S :    0.376501
  11 C :   -0.061685
  12 C :   -0.037573
  13 C :   -0.026351
  14 C :   -0.053362
  15 C :   -0.017644
  16 C :   -0.017223
  17 N :   -0.083719
  18 C :    0.010152
  19 C :   -0.035768
  20 C :   -0.186755
  21 S :    0.421851
  22 C :   -0.184934
  23 C :   -0.053836
  24 C :   -0.044194
  25 C :   -0.035971
  26 C :   -0.012504
  27 C :   -0.035447
  28 C :   -0.030577
  29 C :   -0.038989
  30 C :   -0.183162
  31 S :    0.432367
  32 C :   -0.203845
  33 C :    0.002959
  34 C :   -0.023662
  35 O :   -0.132198
  36 C :    0.077159
  37 O :   -0.103077
  38 C :    0.080264
  39 C :   -0.078835
  40 C :   -0.150962
  41 C :   -0.033043
  42 C :   -0.041602
  43 C :   -0.182723
  44 S :    0.395139
  45 C :   -0.186868
  46 C :   -0.026089
  47 C :   -0.041800
  48 C :   -0.137660
  49 S :    0.337785
  50 C :   -0.091238
  51 H :    0.026825
  52 H :    0.024359
  53 H :    0.031667
  54 H :    0.031293
  55 H :    0.028800
  56 H :    0.031321
  57 H :    0.031772
  58 H :    0.013112
  59 H :    0.056675
  60 H :    0.056130
  61 H :    0.057237
  62 H :    0.057036
  63 H :    0.021052
  64 H :    0.031093
  65 H :    0.035221
  66 H :    0.035439
  67 H :    0.025814
  68 H :    0.020707
  69 H :    0.027336
  70 H :    0.030024
  71 H :    0.023307
  72 H :    0.016510
  73 H :    0.012806
  74 H :    0.019660
  75 H :    0.020346
  76 H :    0.014008
  77 H :    0.030768
  78 H :    0.029758
  79 H :    0.027675
  80 H :    0.030409
  81 H :    0.030539
  82 H :    0.025603
  83 H :    0.023015

  Mayer bond orders larger than 0.100000
B(  0-C ,  1-C ) :   1.8589 B(  0-C , 51-H ) :   0.9505 B(  0-C , 52-H ) :   0.9416
B(  1-C ,  2-C ) :   1.0828 B(  1-C ,  5-S ) :   1.0095 B(  2-C ,  3-C ) :   1.6520
B(  2-C , 53-H ) :   0.9934 B(  3-C ,  4-C ) :   1.1612 B(  3-C , 54-H ) :   0.9919
B(  4-C ,  5-S ) :   1.0397 B(  4-C ,  6-C ) :   1.5425 B(  6-C ,  7-C ) :   1.1807
B(  6-C , 10-S ) :   1.0348 B(  7-C ,  8-C ) :   1.5822 B(  7-C , 55-H ) :   0.9926
B(  8-C ,  9-C ) :   1.1571 B(  8-C , 56-H ) :   0.9990 B(  9-C , 10-S ) :   1.0349
B(  9-C , 11-C ) :   1.5329 B( 11-C , 12-C ) :   1.2208 B( 11-C , 57-H ) :   0.9594
B( 12-C , 13-C ) :   1.5072 B( 12-C , 16-C ) :   1.0137 B( 13-C , 14-C ) :   1.1819
B( 13-C , 58-H ) :   0.9891 B( 14-C , 15-C ) :   1.5681 B( 14-C , 19-C ) :   1.0252
B( 15-C , 16-C ) :   1.0665 B( 15-C , 17-N ) :   1.3084 B( 16-C , 59-H ) :   0.8638
B( 16-C , 60-H ) :   0.8614 B( 17-N , 18-C ) :   1.6897 B( 17-N , 67-H ) :   0.1078
B( 18-C , 19-C ) :   1.0342 B( 18-C , 20-C ) :   1.1695 B( 19-C , 61-H ) :   0.8613
B( 19-C , 62-H ) :   0.8629 B( 20-C , 21-S ) :   1.1201 B( 20-C , 25-C ) :   1.3782
B( 21-S , 22-C ) :   1.1272 B( 22-C , 23-C ) :   1.6005 B( 22-C , 63-H ) :   0.9669
B( 23-C , 24-C ) :   1.1007 B( 23-C , 25-C ) :   1.1998 B( 24-C , 64-H ) :   0.9443
B( 24-C , 65-H ) :   0.9428 B( 24-C , 66-H ) :   0.9387 B( 25-C , 26-C ) :   1.1821
B( 26-C , 27-C ) :   1.6350 B( 26-C , 67-H ) :   0.9201 B( 27-C , 28-C ) :   1.1394
B( 27-C , 68-H ) :   0.9798 B( 28-C , 29-C ) :   1.6586 B( 28-C , 69-H ) :   0.9754
B( 29-C , 30-C ) :   1.1557 B( 29-C , 70-H ) :   0.9408 B( 30-C , 31-S ) :   1.1180
B( 30-C , 32-C ) :   0.1159 B( 30-C , 34-C ) :   1.4263 B( 31-S , 32-C ) :   1.0985
B( 32-C , 33-C ) :   1.4166 B( 32-C , 39-C ) :   1.1607 B( 33-C , 34-C ) :   1.2612
B( 33-C , 37-O ) :   1.1648 B( 34-C , 35-O ) :   1.1083 B( 35-O , 36-C ) :   0.9299
B( 36-C , 71-H ) :   0.9829 B( 36-C , 72-H ) :   0.9687 B( 36-C , 73-H ) :   0.9664
B( 37-O , 38-C ) :   0.9298 B( 38-C , 74-H ) :   0.9726 B( 38-C , 75-H ) :   0.9713
B( 38-C , 76-H ) :   0.9779 B( 39-C , 40-C ) :   1.6126 B( 39-C , 77-H ) :   0.9382
B( 40-C , 41-C ) :   1.1348 B( 40-C , 44-S ) :   1.0411 B( 41-C , 42-C ) :   1.6043
B( 41-C , 78-H ) :   0.9986 B( 42-C , 43-C ) :   1.1686 B( 42-C , 79-H ) :   0.9921
B( 43-C , 44-S ) :   1.0230 B( 43-C , 45-C ) :   1.5528 B( 45-C , 46-C ) :   1.1607
B( 45-C , 49-S ) :   1.0323 B( 46-C , 47-C ) :   1.6533 B( 46-C , 80-H ) :   0.9908
B( 47-C , 48-C ) :   1.0832 B( 47-C , 81-H ) :   0.9922 B( 48-C , 49-S ) :   1.0098
B( 48-C , 50-C ) :   1.8609 B( 50-C , 82-H ) :   0.9497 B( 50-C , 83-H ) :   0.9413

-----------------------------------------------------------------------------
         ABSORPTION SPECTRUM VIA TRANSITION ELECTRIC DIPOLE MOMENTS
-----------------------------------------------------------------------------
State   Energy  Wavelength   fosc         T2         TX        TY        TZ
        (cm-1)    (nm)                  (au**2)     (au)      (au)      (au)
-----------------------------------------------------------------------------
   0   11923.0    838.7   1.504087151  41.53024  -4.80208  -1.64439  -3.97067
   1   15684.7    637.6   0.809301441  16.98669   1.04401   2.40370  -3.18103
   2   17408.0    574.4   0.444669373   8.40939  -0.94418  -1.94348   1.93412
   3   19953.9    501.2   0.467642170   7.71547  -1.72496   0.08710  -2.17541
   4   21637.0    462.2   0.003881233   0.05905   0.22998   0.07669  -0.01675
   5   23429.4    426.8   0.035157482   0.49401   0.48136  -0.06246   0.50833
   6   24056.5    415.7   0.021709069   0.29709   0.26549  -0.21270   0.42586
   7   25683.9    389.3   0.211844153   2.71538  -0.44646  -0.28147   1.56103
   8   28102.0    355.8   0.121749189   1.42628   0.76095   0.37331  -0.84135
   9   28666.4    348.8   0.600108471   6.89180  -1.06610  -0.75653   2.27660
  10   29140.3    343.2   0.062952917   0.71121  -0.16619  -0.30953   0.76667
  11   30673.7    326.0   0.128921615   1.38368  -0.90875  -0.28483  -0.69044
  12   30941.9    323.2   0.195930009   2.08463   1.22707   0.27946   0.70770
  13   31863.8    313.8   0.038979859   0.40273   0.35214  -0.00761   0.52789
  14   32913.1    303.8   0.045653945   0.45665   0.35755   0.06823   0.56935
  15   33205.4    301.2   0.012034552   0.11932  -0.19417  -0.05075  -0.28114
  16   33371.3    299.7   0.016537106   0.16314   0.35552   0.02564   0.18997
  17   33588.1    297.7   0.006541361   0.06411   0.21386   0.07002   0.11609
  18   33654.9    297.1   0.114183074   1.11694   0.66839   0.09919   0.81262
  19   33716.8    296.6   0.005561969   0.05431  -0.17088  -0.02418  -0.15660
  20   35011.2    285.6   0.010624535   0.09990  -0.24806  -0.14513   0.13155
  21   35475.2    281.9   0.017441845   0.16186   0.26369   0.02831   0.30254
  22   35628.8    280.7   0.030860631   0.28515   0.36133   0.06858   0.38716
  23   36434.3    274.5   0.004524126   0.04088  -0.00914   0.03536  -0.19886
  24   36662.1    272.8   0.006059406   0.05441  -0.21072  -0.10001  -0.00271
  25   37450.3    267.0   0.001038300   0.00913  -0.03432  -0.01062   0.08853
  26   37749.6    264.9   0.003464440   0.03021   0.05826   0.00238   0.16375
  27   38113.3    262.4   0.001904635   0.01645   0.07670  -0.06642   0.07846
  28   38723.7    258.2   0.112464480   0.95612   0.52960   0.04788   0.82058
  29   39012.3    256.3   0.041947322   0.35398  -0.26015  -0.40031   0.35504
  30   39421.7    253.7   0.033586554   0.28048  -0.22202  -0.00125  -0.48082
  31   39742.7    251.6   0.078609269   0.65117   0.66691  -0.08495   0.44629

FINAL SINGLE POINT ENERGY     -4211.415107628412

DIPOLE MOMENT
-------------
                                X             Y             Z
Electronic contribution:     15.32131      11.33678       3.04037
Nuclear contribution   :    -14.94472     -11.68542      -2.87025
                        -----------------------------------------
Total Dipole Moment    :      0.37658      -0.34865       0.17012
                        -----------------------------------------
Magnitude (a.u.)       :      0.54066
Magnitude (Debye)      :      1.37424

Rotational constants in cm-1:     0.001610     0.000462     0.000362
Rotational constants in MHz :    48.275812    13.836056    10.858329

                             ****ORCA TERMINATED NORMALLY****
TOTAL RUN TIME: 0 days 0 hours 5 minutes 30 seconds 980 msec
