                         Program Version 4.2.0 -  RELEASE  -
|  1> # ORCA input file
|  2> # SCF done       -142.538410094636          0.000630437321
|  3> ! CAM-B3LYP def2-SVP def2/J RIJCOSX Grid4 TightSCF
|  4> %maxcore 5000
|  5> %tddft
|  6>     Mode sTDDFT
|  7>     Ethresh 5.0
|  8>     maxcore 5000
|  9> end
| 10>
| 11> %pal
| 12>   nprocs 6
| 13>   end
| 14> * xyz 0 1
| 15>    C       -9.57328       -25.14902        -5.87123
| 16>    C       -9.85205       -24.42915        -4.77639
| 17>    C      -11.07400       -24.41100        -4.02376
| 18>    C      -11.06307       -23.58037        -2.95843
| 19>    C       -9.84190       -22.87281        -2.77607
| 20>    S       -8.69548       -23.31447        -4.02929
| 21>    C       -9.53946       -21.96362        -1.79335
| 22>    C      -10.36543       -21.51841        -0.72930
| 23>    C       -9.77845       -20.59873         0.07767
| 24>    C       -8.45082       -20.25076        -0.29262
| 25>    S       -7.97833       -21.16334        -1.71767
| 26>    C       -7.65345       -19.33828         0.33838
| 27>    C       -6.34369       -18.97745        -0.03259
| 28>    S       -5.52416       -17.69463         0.89046
| 29>    C       -4.03693       -17.75452        -0.07286
| 30>    C       -4.23237       -18.73522        -1.01578
| 31>    C       -5.47165       -19.40345        -0.99873
| 32>    C       -4.98287       -20.23139        -2.17050
| 33>    N       -3.77248       -19.37928        -2.16735
| 34>    C       -2.93771       -16.89193         0.14153
| 35>    C       -2.87466       -15.92812         1.08268
| 36>    C       -1.75289       -15.02993         1.20268
| 37>    N       -0.71877       -15.18950         0.36408
| 38>    C        0.26998       -14.32073         0.46586
| 39>    C        0.26108       -13.27993         1.37610
| 40>    C       -0.85118       -13.19794         2.23123
| 41>    N       -1.84359       -14.08507         2.13384
| 42>    C       -0.95337       -12.14883         3.21209
| 43>    C       -1.94117       -12.10733         4.13942
| 44>    C       -2.15240       -11.11028         5.12003
| 45>    C       -1.58339        -9.86753         5.21503
| 46>    C       -1.87018        -8.91021         6.22765
| 47>    C       -1.24623        -7.71236         6.07650
| 48>    C       -0.42348        -7.63721         4.92899
| 49>    S       -0.45285        -9.16714         4.06886
| 50>    C        0.31033        -6.56958         4.46642
| 51>    C        0.43815        -5.27000         5.00858
| 52>    C        1.22347        -4.43728         4.27582
| 53>    C        1.76486        -5.00701         3.09089
| 54>    S        1.25897        -6.69449         2.99556
| 55>    C        2.59107        -4.34966         2.22153
| 56>    C        3.18519        -4.74691         1.00219
| 57>    S        4.64113        -3.87864         0.52987
| 58>    C        4.83964        -4.83881        -0.87118
| 59>    C        3.84326        -5.75923        -1.00933
| 60>    C        2.88109        -5.70849         0.04473
| 61>    N        1.73387        -6.45282        -0.04451
| 62>    C        1.82049        -7.63587        -0.86272
| 63>    C        2.36596        -7.23396        -2.23591
| 64>    N        3.68804        -6.64712        -2.09158
| 65>    C        4.76053        -6.95621        -2.89607
| 66>    O        5.89612        -6.68385        -2.62514
| 67>    O        4.46495        -7.59682        -4.04597
| 68>    H      -10.30649       -25.81423        -6.29185
| 69>    H       -8.61907       -25.08718        -6.36119
| 70>    H      -11.90732       -25.02396        -4.31849
| 71>    H      -11.89293       -23.44329        -2.28782
| 72>    H      -11.36541       -21.89046        -0.59596
| 73>    H      -10.25035       -20.14637         0.93221
| 74>    H       -8.06544       -18.82977         1.19922
| 75>    H       -5.55306       -20.13869        -3.09365
| 76>    H       -4.80811       -21.28247        -1.93941
| 77>    H       -2.84254       -19.76411        -2.24418
| 78>    H       -2.09814       -17.01545        -0.53028
| 79>    H       -3.68860       -15.76629         1.77437
| 80>    H        1.09807       -14.46957        -0.21808
| 81>    H        1.06816       -12.56772         1.43865
| 82>    H       -0.17227       -11.40379         3.18355
| 83>    H       -2.63601       -12.93691         4.13972
| 84>    H       -2.88687       -11.33837         5.88276
| 85>    H       -2.54147        -9.14628         7.03483
| 86>    H       -1.36076        -6.87906         6.74666
| 87>    H       -0.05853        -4.98942         5.91995
| 88>    H        1.42785        -3.41347         4.53586
| 89>    H        2.90516        -3.36779         2.55787
| 90>    H        5.68487        -4.68517        -1.50841
| 91>    H        1.17335        -6.52984         0.79110
| 92>    H        2.48220        -8.39556        -0.42034
| 93>    H        0.82187        -8.06170        -0.97452
| 94>    H        1.67985        -6.50803        -2.69171
| 95>    H        2.41543        -8.13329        -2.85371
| 96>    H        3.53432        -7.55063        -4.29433
| 97> *
| 98>
| 99>                          ****END OF INPUT****

CARTESIAN COORDINATES (ANGSTROEM)
---------------------------------
  C     -9.573280  -25.149020   -5.871230
  C     -9.852050  -24.429150   -4.776390
  C    -11.074000  -24.411000   -4.023760
  C    -11.063070  -23.580370   -2.958430
  C     -9.841900  -22.872810   -2.776070
  S     -8.695480  -23.314470   -4.029290
  C     -9.539460  -21.963620   -1.793350
  C    -10.365430  -21.518410   -0.729300
  C     -9.778450  -20.598730    0.077670
  C     -8.450820  -20.250760   -0.292620
  S     -7.978330  -21.163340   -1.717670
  C     -7.653450  -19.338280    0.338380
  C     -6.343690  -18.977450   -0.032590
  S     -5.524160  -17.694630    0.890460
  C     -4.036930  -17.754520   -0.072860
  C     -4.232370  -18.735220   -1.015780
  C     -5.471650  -19.403450   -0.998730
  C     -4.982870  -20.231390   -2.170500
  N     -3.772480  -19.379280   -2.167350
  C     -2.937710  -16.891930    0.141530
  C     -2.874660  -15.928120    1.082680
  C     -1.752890  -15.029930    1.202680
  N     -0.718770  -15.189500    0.364080
  C      0.269980  -14.320730    0.465860
  C      0.261080  -13.279930    1.376100
  C     -0.851180  -13.197940    2.231230
  N     -1.843590  -14.085070    2.133840
  C     -0.953370  -12.148830    3.212090
  C     -1.941170  -12.107330    4.139420
  C     -2.152400  -11.110280    5.120030
  C     -1.583390   -9.867530    5.215030
  C     -1.870180   -8.910210    6.227650
  C     -1.246230   -7.712360    6.076500
  C     -0.423480   -7.637210    4.928990
  S     -0.452850   -9.167140    4.068860
  C      0.310330   -6.569580    4.466420
  C      0.438150   -5.270000    5.008580
  C      1.223470   -4.437280    4.275820
  C      1.764860   -5.007010    3.090890
  S      1.258970   -6.694490    2.995560
  C      2.591070   -4.349660    2.221530
  C      3.185190   -4.746910    1.002190
  S      4.641130   -3.878640    0.529870
  C      4.839640   -4.838810   -0.871180
  C      3.843260   -5.759230   -1.009330
  C      2.881090   -5.708490    0.044730
  N      1.733870   -6.452820   -0.044510
  C      1.820490   -7.635870   -0.862720
  C      2.365960   -7.233960   -2.235910
  N      3.688040   -6.647120   -2.091580
  C      4.760530   -6.956210   -2.896070
  O      5.896120   -6.683850   -2.625140
  O      4.464950   -7.596820   -4.045970
  H    -10.306490  -25.814230   -6.291850
  H     -8.619070  -25.087180   -6.361190
  H    -11.907320  -25.023960   -4.318490
  H    -11.892930  -23.443290   -2.287820
  H    -11.365410  -21.890460   -0.595960
  H    -10.250350  -20.146370    0.932210
  H     -8.065440  -18.829770    1.199220
  H     -5.553060  -20.138690   -3.093650
  H     -4.808110  -21.282470   -1.939410
  H     -2.842540  -19.764110   -2.244180
  H     -2.098140  -17.015450   -0.530280
  H     -3.688600  -15.766290    1.774370
  H      1.098070  -14.469570   -0.218080
  H      1.068160  -12.567720    1.438650
  H     -0.172270  -11.403790    3.183550
  H     -2.636010  -12.936910    4.139720
  H     -2.886870  -11.338370    5.882760
  H     -2.541470   -9.146280    7.034830
  H     -1.360760   -6.879060    6.746660
  H     -0.058530   -4.989420    5.919950
  H      1.427850   -3.413470    4.535860
  H      2.905160   -3.367790    2.557870
  H      5.684870   -4.685170   -1.508410
  H      1.173350   -6.529840    0.791100
  H      2.482200   -8.395560   -0.420340
  H      0.821870   -8.061700   -0.974520
  H      1.679850   -6.508030   -2.691710
  H      2.415430   -8.133290   -2.853710
  H      3.534320   -7.550630   -4.294330

 Total Charge           Charge          ....    0
 Multiplicity           Mult            ....    1
 Number of Electrons    NEL             ....  416
 Basis Dimension        Dim             ....  911

ORBITAL ENERGIES
----------------

  NO   OCC          E(Eh)            E(eV)
   0   2.0000     -88.949485     -2420.4385
   1   2.0000     -88.942641     -2420.2523
   2   2.0000     -88.941952     -2420.2336
   3   2.0000     -88.940717     -2420.2000
   4   2.0000     -88.935606     -2420.0609
   5   2.0000     -88.930946     -2419.9341
   6   2.0000     -19.258685      -524.0555
   7   2.0000     -19.181701      -521.9606
   8   2.0000     -14.456342      -393.3771
   9   2.0000     -14.425458      -392.5367
  10   2.0000     -14.411998      -392.1704
  11   2.0000     -14.382455      -391.3665
  12   2.0000     -14.381377      -391.3372
  13   2.0000     -10.420040      -283.5437
  14   2.0000     -10.330520      -281.1077
  15   2.0000     -10.318499      -280.7806
  16   2.0000     -10.317955      -280.7658
  17   2.0000     -10.317798      -280.7616
  18   2.0000     -10.312972      -280.6302
  19   2.0000     -10.311107      -280.5795
  20   2.0000     -10.307469      -280.4805
  21   2.0000     -10.306862      -280.4640
  22   2.0000     -10.305443      -280.4254
  23   2.0000     -10.304711      -280.4054
  24   2.0000     -10.304229      -280.3923
  25   2.0000     -10.304136      -280.3898
  26   2.0000     -10.303436      -280.3708
  27   2.0000     -10.303414      -280.3701
  28   2.0000     -10.303339      -280.3681
  29   2.0000     -10.300280      -280.2849
  30   2.0000     -10.299233      -280.2564
  31   2.0000     -10.292908      -280.0843
  32   2.0000     -10.292283      -280.0673
  33   2.0000     -10.290006      -280.0053
  34   2.0000     -10.287194      -279.9288
  35   2.0000     -10.286821      -279.9186
  36   2.0000     -10.285376      -279.8793
  37   2.0000     -10.283895      -279.8390
  38   2.0000     -10.283875      -279.8385
  39   2.0000     -10.283170      -279.8193
  40   2.0000     -10.282124      -279.7908
  41   2.0000     -10.281128      -279.7637
  42   2.0000     -10.280730      -279.7529
  43   2.0000     -10.278762      -279.6993
  44   2.0000     -10.278691      -279.6974
  45   2.0000     -10.267384      -279.3897
  46   2.0000     -10.267270      -279.3866
  47   2.0000     -10.265105      -279.3277
  48   2.0000     -10.264860      -279.3210
  49   2.0000     -10.260863      -279.2123
  50   2.0000     -10.260205      -279.1944
  51   2.0000     -10.255927      -279.0780
  52   2.0000     -10.243622      -278.7431
  53   2.0000      -8.045561      -218.9309
  54   2.0000      -8.038597      -218.7413
  55   2.0000      -8.037714      -218.7173
  56   2.0000      -8.036508      -218.6845
  57   2.0000      -8.032321      -218.5706
  58   2.0000      -8.025894      -218.3957
  59   2.0000      -6.015280      -163.6841
  60   2.0000      -6.011299      -163.5758
  61   2.0000      -6.008078      -163.4881
  62   2.0000      -6.007478      -163.4718
  63   2.0000      -6.006510      -163.4454
  64   2.0000      -6.006334      -163.4406
  65   2.0000      -6.004028      -163.3779
  66   2.0000      -6.003388      -163.3605
  67   2.0000      -6.002345      -163.3321
  68   2.0000      -6.002165      -163.3272
  69   2.0000      -6.000210      -163.2740
  70   2.0000      -5.998704      -163.2330
  71   2.0000      -5.998267      -163.2212
  72   2.0000      -5.997291      -163.1946
  73   2.0000      -5.995604      -163.1487
  74   2.0000      -5.992799      -163.0724
  75   2.0000      -5.991624      -163.0404
  76   2.0000      -5.987103      -162.9174
  77   2.0000      -1.189910       -32.3791
  78   2.0000      -1.096099       -29.8264
  79   2.0000      -1.068609       -29.0783
  80   2.0000      -1.056113       -28.7383
  81   2.0000      -1.051603       -28.6156
  82   2.0000      -1.016665       -27.6649
  83   2.0000      -0.992355       -27.0034
  84   2.0000      -0.988923       -26.9100
  85   2.0000      -0.970716       -26.4145
  86   2.0000      -0.966586       -26.3022
  87   2.0000      -0.963692       -26.2234
  88   2.0000      -0.956044       -26.0153
  89   2.0000      -0.943956       -25.6864
  90   2.0000      -0.899925       -24.4882
  91   2.0000      -0.893385       -24.3102
  92   2.0000      -0.884609       -24.0714
  93   2.0000      -0.875350       -23.8195
  94   2.0000      -0.862893       -23.4805
  95   2.0000      -0.860040       -23.4029
  96   2.0000      -0.849598       -23.1187
  97   2.0000      -0.842599       -22.9283
  98   2.0000      -0.840240       -22.8641
  99   2.0000      -0.829635       -22.5755
 100   2.0000      -0.820885       -22.3374
 101   2.0000      -0.816952       -22.2304
 102   2.0000      -0.810344       -22.0506
 103   2.0000      -0.805936       -21.9306
 104   2.0000      -0.800985       -21.7959
 105   2.0000      -0.795141       -21.6369
 106   2.0000      -0.777334       -21.1523
 107   2.0000      -0.768435       -20.9102
 108   2.0000      -0.747116       -20.3301
 109   2.0000      -0.746124       -20.3031
 110   2.0000      -0.730854       -19.8875
 111   2.0000      -0.725646       -19.7458
 112   2.0000      -0.716494       -19.4968
 113   2.0000      -0.704988       -19.1837
 114   2.0000      -0.701247       -19.0819
 115   2.0000      -0.695947       -18.9377
 116   2.0000      -0.684295       -18.6206
 117   2.0000      -0.677544       -18.4369
 118   2.0000      -0.666142       -18.1266
 119   2.0000      -0.660845       -17.9825
 120   2.0000      -0.652763       -17.7626
 121   2.0000      -0.644630       -17.5413
 122   2.0000      -0.630816       -17.1654
 123   2.0000      -0.627420       -17.0730
 124   2.0000      -0.620697       -16.8900
 125   2.0000      -0.617976       -16.8160
 126   2.0000      -0.617783       -16.8107
 127   2.0000      -0.612744       -16.6736
 128   2.0000      -0.609516       -16.5858
 129   2.0000      -0.602161       -16.3856
 130   2.0000      -0.597461       -16.2577
 131   2.0000      -0.595625       -16.2078
 132   2.0000      -0.588707       -16.0195
 133   2.0000      -0.585783       -15.9400
 134   2.0000      -0.570836       -15.5332
 135   2.0000      -0.566748       -15.4220
 136   2.0000      -0.563399       -15.3309
 137   2.0000      -0.551850       -15.0166
 138   2.0000      -0.550986       -14.9931
 139   2.0000      -0.546410       -14.8686
 140   2.0000      -0.537216       -14.6184
 141   2.0000      -0.535024       -14.5587
 142   2.0000      -0.525048       -14.2873
 143   2.0000      -0.522209       -14.2100
 144   2.0000      -0.520587       -14.1659
 145   2.0000      -0.516756       -14.0616
 146   2.0000      -0.512778       -13.9534
 147   2.0000      -0.510043       -13.8790
 148   2.0000      -0.507637       -13.8135
 149   2.0000      -0.506249       -13.7757
 150   2.0000      -0.504490       -13.7279
 151   2.0000      -0.500437       -13.6176
 152   2.0000      -0.496837       -13.5196
 153   2.0000      -0.495750       -13.4900
 154   2.0000      -0.493821       -13.4376
 155   2.0000      -0.491695       -13.3797
 156   2.0000      -0.490900       -13.3581
 157   2.0000      -0.488437       -13.2910
 158   2.0000      -0.484624       -13.1873
 159   2.0000      -0.480083       -13.0637
 160   2.0000      -0.477780       -13.0011
 161   2.0000      -0.476235       -12.9590
 162   2.0000      -0.470985       -12.8161
 163   2.0000      -0.469651       -12.7799
 164   2.0000      -0.463049       -12.6002
 165   2.0000      -0.462854       -12.5949
 166   2.0000      -0.458268       -12.4701
 167   2.0000      -0.456055       -12.4099
 168   2.0000      -0.452564       -12.3149
 169   2.0000      -0.449441       -12.2299
 170   2.0000      -0.447472       -12.1763
 171   2.0000      -0.445309       -12.1175
 172   2.0000      -0.436440       -11.8761
 173   2.0000      -0.427723       -11.6389
 174   2.0000      -0.423912       -11.5352
 175   2.0000      -0.423605       -11.5269
 176   2.0000      -0.420708       -11.4480
 177   2.0000      -0.418377       -11.3846
 178   2.0000      -0.417741       -11.3673
 179   2.0000      -0.412065       -11.2129
 180   2.0000      -0.409253       -11.1363
 181   2.0000      -0.404254       -11.0003
 182   2.0000      -0.399837       -10.8801
 183   2.0000      -0.394983       -10.7480
 184   2.0000      -0.393130       -10.6976
 185   2.0000      -0.387443       -10.5429
 186   2.0000      -0.381241       -10.3741
 187   2.0000      -0.377187       -10.2638
 188   2.0000      -0.373336       -10.1590
 189   2.0000      -0.369630       -10.0582
 190   2.0000      -0.363738        -9.8978
 191   2.0000      -0.354076        -9.6349
 192   2.0000      -0.349926        -9.5220
 193   2.0000      -0.347862        -9.4658
 194   2.0000      -0.339469        -9.2374
 195   2.0000      -0.337699        -9.1892
 196   2.0000      -0.334763        -9.1094
 197   2.0000      -0.323682        -8.8078
 198   2.0000      -0.321427        -8.7465
 199   2.0000      -0.308022        -8.3817
 200   2.0000      -0.300949        -8.1892
 201   2.0000      -0.299918        -8.1612
 202   2.0000      -0.278342        -7.5741
 203   2.0000      -0.269015        -7.3203
 204   2.0000      -0.260639        -7.0923
 205   2.0000      -0.249779        -6.7968
 206   2.0000      -0.209105        -5.6900
 207   2.0000      -0.207906        -5.6574
 208   0.0000      -0.072775        -1.9803
 209   0.0000      -0.065650        -1.7864
 210   0.0000      -0.018027        -0.4905
 211   0.0000      -0.011127        -0.3028
 212   0.0000       0.019957         0.5431

MULLIKEN ATOMIC CHARGES
-----------------------
   0 C :   -0.032207
   1 C :   -0.061416
   2 C :    0.051153
   3 C :    0.029807
   4 C :   -0.066528
   5 S :    0.072642
   6 C :   -0.034880
   7 C :    0.028382
   8 C :    0.038537
   9 C :   -0.032024
  10 S :    0.048529
  11 C :    0.056029
  12 C :   -0.181458
  13 S :    0.077700
  14 C :   -0.207763
  15 C :    0.160955
  16 C :   -0.093091
  17 C :    0.241251
  18 N :   -0.182868
  19 C :    0.051128
  20 C :    0.005103
  21 C :   -0.061320
  22 N :   -0.092207
  23 C :    0.076528
  24 C :   -0.066071
  25 C :    0.053620
  26 N :   -0.057986
  27 C :   -0.040983
  28 C :    0.048965
  29 C :   -0.012339
  30 C :   -0.012601
  31 C :    0.033974
  32 C :    0.029823
  33 C :   -0.047774
  34 S :    0.052604
  35 C :   -0.044780
  36 C :    0.024702
  37 C :    0.043341
  38 C :   -0.049649
  39 S :    0.041641
  40 C :    0.023674
  41 C :   -0.246371
  42 S :    0.105747
  43 C :   -0.133843
  44 C :    0.133954
  45 C :    0.122118
  46 N :   -0.134096
  47 C :    0.132567
  48 C :    0.102700
  49 N :   -0.277845
  50 C :    0.216071
  51 O :   -0.216002
  52 O :   -0.180285
  53 H :    0.019553
  54 H :    0.020675
  55 H :   -0.012070
  56 H :   -0.011524
  57 H :   -0.015527
  58 H :   -0.012729
  59 H :   -0.020065
  60 H :    0.032676
  61 H :    0.033132
  62 H :    0.119166
  63 H :   -0.001426
  64 H :   -0.019067
  65 H :   -0.006015
  66 H :   -0.016520
  67 H :   -0.015663
  68 H :    0.005032
  69 H :   -0.016149
  70 H :   -0.013004
  71 H :   -0.013583
  72 H :   -0.014873
  73 H :   -0.010192
  74 H :   -0.008706
  75 H :    0.039052
  76 H :    0.110718
  77 H :    0.023774
  78 H :    0.025702
  79 H :    0.037132
  80 H :    0.021018
  81 H :    0.182625
Sum of atomic charges:   -0.0000000

LOEWDIN ATOMIC CHARGES
----------------------
   0 C :   -0.078595
   1 C :   -0.138785
   2 C :   -0.032231
   3 C :   -0.026498
   4 C :   -0.177434
   5 S :    0.344873
   6 C :   -0.179671
   7 C :   -0.034610
   8 C :   -0.031379
   9 C :   -0.140707
  10 S :    0.380429
  11 C :   -0.076379
  12 C :   -0.156636
  13 S :    0.385605
  14 C :   -0.212195
  15 C :    0.004586
  16 C :   -0.100110
  17 C :    0.062346
  18 N :   -0.059723
  19 C :   -0.000332
  20 C :   -0.065455
  21 C :    0.031587
  22 N :   -0.107645
  23 C :    0.042269
  24 C :   -0.084763
  25 C :    0.035378
  26 N :   -0.099423
  27 C :   -0.063247
  28 C :    0.004502
  29 C :   -0.073169
  30 C :   -0.130896
  31 C :   -0.036332
  32 C :   -0.032216
  33 C :   -0.191817
  34 S :    0.377151
  35 C :   -0.165961
  36 C :   -0.050347
  37 C :   -0.018685
  38 C :   -0.173343
  39 S :    0.376487
  40 C :   -0.052334
  41 C :   -0.228289
  42 S :    0.423893
  43 C :   -0.178566
  44 C :   -0.034017
  45 C :   -0.008937
  46 N :   -0.035920
  47 C :    0.037690
  48 C :    0.032494
  49 N :   -0.061312
  50 C :    0.082839
  51 O :   -0.184971
  52 O :   -0.040696
  53 H :    0.028427
  54 H :    0.025849
  55 H :    0.033197
  56 H :    0.032288
  57 H :    0.030917
  58 H :    0.033666
  59 H :    0.033832
  60 H :    0.026032
  61 H :    0.026891
  62 H :    0.067129
  63 H :    0.036495
  64 H :    0.023149
  65 H :    0.021144
  66 H :    0.027653
  67 H :    0.008068
  68 H :    0.035057
  69 H :    0.033101
  70 H :    0.033047
  71 H :    0.031659
  72 H :    0.031838
  73 H :    0.034295
  74 H :    0.036180
  75 H :    0.030683
  76 H :    0.030442
  77 H :    0.018721
  78 H :    0.033819
  79 H :    0.025481
  80 H :    0.026733
  81 H :    0.085705

  Mayer bond orders larger than 0.100000
B(  0-C ,  1-C ) :   1.8644 B(  0-C , 53-H ) :   0.9508 B(  0-C , 54-H ) :   0.9419
B(  1-C ,  2-C ) :   1.0802 B(  1-C ,  5-S ) :   1.0074 B(  2-C ,  3-C ) :   1.6619
B(  2-C , 55-H ) :   0.9927 B(  3-C ,  4-C ) :   1.1526 B(  3-C , 56-H ) :   0.9910
B(  4-C ,  5-S ) :   1.0393 B(  4-C ,  6-C ) :   1.5623 B(  6-C ,  7-C ) :   1.1676
B(  6-C , 10-S ) :   1.0307 B(  7-C ,  8-C ) :   1.6125 B(  7-C , 57-H ) :   0.9910
B(  8-C ,  9-C ) :   1.1322 B(  8-C , 58-H ) :   0.9988 B(  9-C , 10-S ) :   1.0324
B(  9-C , 11-C ) :   1.6143 B( 11-C , 12-C ) :   1.1580 B( 11-C , 59-H ) :   0.9521
B( 12-C , 13-S ) :   1.0846 B( 12-C , 16-C ) :   1.5103 B( 13-S , 14-C ) :   1.0330
B( 14-C , 15-C ) :   1.4795 B( 14-C , 19-C ) :   1.1629 B( 15-C , 16-C ) :   1.2371
B( 15-C , 18-N ) :   1.1216 B( 16-C , 17-C ) :   1.0180 B( 17-C , 18-N ) :   1.0250
B( 17-C , 60-H ) :   0.9207 B( 17-C , 61-H ) :   0.9297 B( 18-N , 62-H ) :   0.9318
B( 19-C , 20-C ) :   1.6525 B( 19-C , 63-H ) :   0.9733 B( 20-C , 21-C ) :   1.0562
B( 20-C , 64-H ) :   0.9731 B( 21-C , 22-N ) :   1.5043 B( 21-C , 26-N ) :   1.5325
B( 22-N , 23-C ) :   1.5560 B( 23-C , 24-C ) :   1.3677 B( 23-C , 65-H ) :   0.9798
B( 24-C , 25-C ) :   1.3185 B( 24-C , 66-H ) :   0.9732 B( 25-C , 26-N ) :   1.5090
B( 25-C , 27-C ) :   1.1135 B( 27-C , 28-C ) :   1.6530 B( 27-C , 67-H ) :   0.9505
B( 28-C , 29-C ) :   1.1664 B( 28-C , 68-H ) :   0.9600 B( 29-C , 30-C ) :   1.5828
B( 29-C , 69-H ) :   0.9653 B( 30-C , 31-C ) :   1.1400 B( 30-C , 34-S ) :   1.0436
B( 31-C , 32-C ) :   1.6003 B( 31-C , 70-H ) :   0.9978 B( 32-C , 33-C ) :   1.1808
B( 32-C , 71-H ) :   0.9928 B( 33-C , 34-S ) :   1.0235 B( 33-C , 35-C ) :   1.5330
B( 35-C , 36-C ) :   1.1766 B( 35-C , 39-S ) :   1.0383 B( 36-C , 37-C ) :   1.5974
B( 36-C , 72-H ) :   0.9924 B( 37-C , 38-C ) :   1.1411 B( 37-C , 73-H ) :   0.9968
B( 38-C , 39-S ) :   0.9924 B( 38-C , 40-C ) :   1.6401 B( 40-C , 41-C ) :   1.1661
B( 40-C , 74-H ) :   0.9345 B( 41-C , 42-S ) :   1.0938 B( 41-C , 45-C ) :   1.4086
B( 42-S , 43-C ) :   1.1422 B( 43-C , 44-C ) :   1.5584 B( 43-C , 75-H ) :   0.9633
B( 44-C , 45-C ) :   1.2464 B( 44-C , 49-N ) :   0.9998 B( 45-C , 46-N ) :   1.2205
B( 46-N , 47-C ) :   1.0232 B( 46-N , 76-H ) :   0.8968 B( 47-C , 48-C ) :   1.0794
B( 47-C , 77-H ) :   0.9401 B( 47-C , 78-H ) :   0.9437 B( 48-C , 49-N ) :   0.9615
B( 48-C , 79-H ) :   0.9413 B( 48-C , 80-H ) :   0.9386 B( 49-N , 50-C ) :   1.0701
B( 50-C , 51-O ) :   2.0857 B( 50-C , 52-O ) :   1.1851 B( 52-O , 81-H ) :   0.9541

-----------------------------------------------------------------------------
         ABSORPTION SPECTRUM VIA TRANSITION ELECTRIC DIPOLE MOMENTS
-----------------------------------------------------------------------------
State   Energy  Wavelength   fosc         T2         TX        TY        TZ
        (cm-1)    (nm)                  (au**2)     (au)      (au)      (au)
-----------------------------------------------------------------------------
   0   15626.1    640.0   1.541553792  32.47762  -3.07509  -4.77227   0.49688
   1   17899.3    558.7   1.213560846  22.32040   2.41058   2.81269   2.93228
   2   20380.8    490.7   0.020752766   0.33522   0.09302  -0.17147  -0.54513
   3   23041.2    434.0   0.019264928   0.27526   0.28934   0.02386  -0.43700
   4   24568.9    407.0   0.125436299   1.68079  -0.42020  -1.17398  -0.35496
   5   24993.5    400.1   0.024137344   0.31793  -0.06178   0.28042   0.48527
   6   26128.9    382.7   0.219771108   2.76902  -0.09681  -1.12641  -1.22100
   7   28087.5    356.0   0.195324913   2.28940   0.05376  -0.90561  -1.21094
   8   28756.3    347.8   0.549772895   6.29400  -1.24710   0.74662   2.04482
   9   29313.5    341.1   0.047767904   0.53647   0.11765  -0.42649  -0.58373
  10   30367.6    329.3   0.382363260   4.14516  -1.67480  -0.05025   1.15659
  11   30781.1    324.9   0.006189797   0.06620  -0.15410   0.20482   0.02247
  12   31845.8    314.0   0.004001717   0.04137  -0.09507  -0.16507  -0.07129
  13   32384.8    308.8   0.058164825   0.59128  -0.31559   0.30106   0.63328
  14   33114.5    302.0   0.021091693   0.20969   0.24634  -0.03610  -0.38432
  15   33443.7    299.0   0.096616365   0.95107   0.22203  -0.58498  -0.74804
  16   33766.8    296.1   0.079599848   0.77606   0.11506   0.59906   0.63557
  17   33913.8    294.9   0.024077316   0.23373  -0.43457  -0.12037   0.17431
  18   34838.2    287.0   0.032033305   0.30271   0.24830  -0.21087  -0.44338
  19   35036.0    285.4   0.005648785   0.05308  -0.05320   0.19595   0.10887
  20   35085.9    285.0   0.013890298   0.13033   0.11276   0.27817   0.20060
  21   35453.9    282.1   0.006486307   0.06023  -0.01232  -0.19343  -0.15054
  22   36155.3    276.6   0.108067019   0.98400   0.61010  -0.06723  -0.77927
  23   36996.3    270.3   0.114470226   1.01862   0.07899  -0.68105  -0.74064
  24   37849.4    264.2   0.005653603   0.04917  -0.18933  -0.11535  -0.00492
  25   38432.7    260.2   0.070698037   0.60560   0.67126   0.30783  -0.24546
  26   38744.2    258.1   0.027248535   0.23153   0.04559   0.21462   0.42824
  27   39556.5    252.8   0.050557536   0.42077   0.14856   0.37165   0.51046
  28   39809.8    251.2   0.010438396   0.08632  -0.01167   0.17779   0.23361

FINAL SINGLE POINT ENERGY     -4351.714001682273

DIPOLE MOMENT
-------------
                                X             Y             Z
Electronic contribution:      8.74202       8.62377       4.57689
Nuclear contribution   :    -11.20516      -8.74464      -4.46012
                        -----------------------------------------
Total Dipole Moment    :     -2.46314      -0.12087       0.11677
                        -----------------------------------------
Magnitude (a.u.)       :      2.46887
Magnitude (Debye)      :      6.27536

Rotational constants in cm-1:     0.002511     0.000291     0.000268
Rotational constants in MHz :    75.277376     8.734630     8.039027

                             ****ORCA TERMINATED NORMALLY****
TOTAL RUN TIME: 0 days 0 hours 5 minutes 27 seconds 759 msec
