                         Program Version 4.2.0 -  RELEASE  -
|  1> # ORCA input file
|  2> # SCF done       -177.341272574574          0.000579779860
|  3> ! CAM-B3LYP def2-SVP def2/J RIJCOSX Grid4 TightSCF
|  4> %maxcore 5000
|  5> %tddft
|  6>     Mode sTDDFT
|  7>     Ethresh 5.0
|  8>     maxcore 5000
|  9> end
| 10>
| 11> %pal
| 12>   nprocs 6
| 13>   end
| 14> * xyz 0 1
| 15>    C       10.95880        -1.99977         4.12396
| 16>    C       11.08097        -2.35207         2.83687
| 17>    C       12.28378        -2.43324         2.05879
| 18>    C       12.09657        -2.82487         0.77902
| 19>    C       10.74101        -3.08510         0.43544
| 20>    S        9.70215        -2.80474         1.82129
| 21>    C       10.25089        -3.50223        -0.77774
| 22>    C       10.97430        -3.77617        -1.96488
| 23>    C       10.19757        -4.18960        -2.99912
| 24>    C        8.81066        -4.27164        -2.70365
| 25>    S        8.53679        -3.78565        -1.03848
| 26>    C        7.84527        -4.68073        -3.58648
| 27>    C        6.46577        -4.80136        -3.36568
| 28>    S        5.77006        -4.40354        -1.80818
| 29>    C        4.19387        -4.91678        -2.31204
| 30>    N        3.14276        -4.80993        -1.46177
| 31>    C        3.27769        -4.10075        -0.21522
| 32>    C        4.18592        -5.38294        -3.62495
| 33>    C        5.47763        -5.28446        -4.22662
| 34>    C        5.69868        -5.71856        -5.60913
| 35>    O        4.98929        -6.48727        -6.21704
| 36>    O        6.78422        -5.15598        -6.18536
| 37>    C        7.02559        -5.54039        -7.52911
| 38>    C        3.01548        -5.85837        -4.30711
| 39>    C        1.93576        -6.41603        -3.72116
| 40>    C        0.79501        -6.87762        -4.43847
| 41>    S        0.83600        -6.99457        -6.17365
| 42>    C       -0.72259        -7.78031        -6.21771
| 43>    N       -1.26162        -8.12181        -7.43618
| 44>    C       -2.57389        -7.62225        -7.80821
| 45>    C       -1.25229        -7.94373        -4.95087
| 46>    C       -0.39747        -7.37853        -3.94485
| 47>    C       -0.77191        -7.35641        -2.52747
| 48>    O       -1.53251        -8.11919        -1.98231
| 49>    O       -0.19382        -6.32480        -1.86199
| 50>    C       -0.51124        -6.21572        -0.48387
| 51>    C       -2.46906        -8.64931        -4.64234
| 52>    C       -2.97535        -9.64873        -5.39263
| 53>    C       -4.15836       -10.36900        -5.06844
| 54>    S       -5.06051        -9.95208        -3.62838
| 55>    C       -6.20775       -11.22040        -3.91146
| 56>    N       -7.22609       -11.41896        -3.03690
| 57>    C       -7.27650       -10.69120        -1.79464
| 58>    C       -5.91060       -11.95821        -5.05511
| 59>    C       -4.72826       -11.45724        -5.70023
| 60>    C       -4.19339       -12.06911        -6.92579
| 61>    O       -4.25162       -13.24448        -7.20276
| 62>    O       -3.61774       -11.17180        -7.75062
| 63>    C       -3.06064       -11.70425        -8.94072
| 64>    C       -6.66542       -13.06616        -5.54764
| 65>    C       -7.96436       -13.36304        -5.27759
| 66>    C       -8.60417       -14.51299        -5.78334
| 67>    C       -9.90583       -14.84401        -5.52873
| 68>    C      -10.61320       -15.97994        -5.99994
| 69>    C      -11.90140       -16.05865        -5.57768
| 70>    C      -12.30369       -14.98714        -4.73985
| 71>    S      -10.97034       -13.87125        -4.51087
| 72>    C      -13.53170       -14.78565        -4.16084
| 73>    C      -14.68620       -15.60803        -4.26875
| 74>    C      -15.76248       -15.15581        -3.58750
| 75>    C      -15.54508       -13.92745        -2.87914
| 76>    S      -13.87640       -13.39606        -3.14101
| 77>    C      -16.42137       -13.24651        -2.12783
| 78>    H       11.82422        -1.73252         4.70418
| 79>    H       10.00338        -1.97265         4.61467
| 80>    H       13.23675        -2.19447         2.49683
| 81>    H       12.88702        -2.93963         0.05840
| 82>    H       12.04224        -3.66264        -2.01741
| 83>    H       10.57007        -4.44476        -3.97585
| 84>    H        8.18957        -4.94901        -4.57389
| 85>    H        2.23236        -4.78157        -1.90223
| 86>    H        3.45433        -3.02926        -0.36120
| 87>    H        4.12219        -4.51038         0.33969
| 88>    H        2.37084        -4.23796         0.36877
| 89>    H        7.92081        -5.00828        -7.84057
| 90>    H        6.17799        -5.26679        -8.16081
| 91>    H        7.17527        -6.62024        -7.59564
| 92>    H        3.04011        -5.79399        -5.38651
| 93>    H        1.91578        -6.60038        -2.65898
| 94>    H       -0.59086        -8.01525        -8.18774
| 95>    H       -2.55468        -6.55441        -8.05333
| 96>    H       -3.26813        -7.78275        -6.98815
| 97>    H       -2.92326        -8.18012        -8.67461
| 98>    H        0.12421        -6.88307         0.10322
| 99>    H       -1.55581        -6.48379        -0.31407
|100>    H       -0.33248        -5.17972        -0.20361
|101>    H       -2.94541        -8.39441        -3.70554
|102>    H       -2.45773        -9.96325        -6.28473
|103>    H       -7.59399       -12.36064        -3.01710
|104>    H       -7.25881        -9.62152        -2.00714
|105>    H       -6.42833       -10.92322        -1.13995
|106>    H       -8.20401       -10.93507        -1.28222
|107>    H       -2.35890       -12.50767        -8.70663
|108>    H       -2.54890       -10.88097        -9.43275
|109>    H       -3.84807       -12.10487        -9.58306
|110>    H       -6.13009       -13.71525        -6.22629
|111>    H       -8.58421       -12.69427        -4.69550
|112>    H       -8.02784       -15.18549        -6.40507
|113>    H      -10.13689       -16.70213        -6.64012
|114>    H      -12.57723       -16.85276        -5.84081
|115>    H      -14.67533       -16.51167        -4.85275
|116>    H      -16.71997       -15.64507        -3.55394
|117>    H      -17.42638       -13.60650        -1.99586
|118>    H      -16.15360       -12.32847        -1.63815
|119> *
|120>
|121>                          ****END OF INPUT****

CARTESIAN COORDINATES (ANGSTROEM)
---------------------------------
  C     10.958800   -1.999770    4.123960
  C     11.080970   -2.352070    2.836870
  C     12.283780   -2.433240    2.058790
  C     12.096570   -2.824870    0.779020
  C     10.741010   -3.085100    0.435440
  S      9.702150   -2.804740    1.821290
  C     10.250890   -3.502230   -0.777740
  C     10.974300   -3.776170   -1.964880
  C     10.197570   -4.189600   -2.999120
  C      8.810660   -4.271640   -2.703650
  S      8.536790   -3.785650   -1.038480
  C      7.845270   -4.680730   -3.586480
  C      6.465770   -4.801360   -3.365680
  S      5.770060   -4.403540   -1.808180
  C      4.193870   -4.916780   -2.312040
  N      3.142760   -4.809930   -1.461770
  C      3.277690   -4.100750   -0.215220
  C      4.185920   -5.382940   -3.624950
  C      5.477630   -5.284460   -4.226620
  C      5.698680   -5.718560   -5.609130
  O      4.989290   -6.487270   -6.217040
  O      6.784220   -5.155980   -6.185360
  C      7.025590   -5.540390   -7.529110
  C      3.015480   -5.858370   -4.307110
  C      1.935760   -6.416030   -3.721160
  C      0.795010   -6.877620   -4.438470
  S      0.836000   -6.994570   -6.173650
  C     -0.722590   -7.780310   -6.217710
  N     -1.261620   -8.121810   -7.436180
  C     -2.573890   -7.622250   -7.808210
  C     -1.252290   -7.943730   -4.950870
  C     -0.397470   -7.378530   -3.944850
  C     -0.771910   -7.356410   -2.527470
  O     -1.532510   -8.119190   -1.982310
  O     -0.193820   -6.324800   -1.861990
  C     -0.511240   -6.215720   -0.483870
  C     -2.469060   -8.649310   -4.642340
  C     -2.975350   -9.648730   -5.392630
  C     -4.158360  -10.369000   -5.068440
  S     -5.060510   -9.952080   -3.628380
  C     -6.207750  -11.220400   -3.911460
  N     -7.226090  -11.418960   -3.036900
  C     -7.276500  -10.691200   -1.794640
  C     -5.910600  -11.958210   -5.055110
  C     -4.728260  -11.457240   -5.700230
  C     -4.193390  -12.069110   -6.925790
  O     -4.251620  -13.244480   -7.202760
  O     -3.617740  -11.171800   -7.750620
  C     -3.060640  -11.704250   -8.940720
  C     -6.665420  -13.066160   -5.547640
  C     -7.964360  -13.363040   -5.277590
  C     -8.604170  -14.512990   -5.783340
  C     -9.905830  -14.844010   -5.528730
  C    -10.613200  -15.979940   -5.999940
  C    -11.901400  -16.058650   -5.577680
  C    -12.303690  -14.987140   -4.739850
  S    -10.970340  -13.871250   -4.510870
  C    -13.531700  -14.785650   -4.160840
  C    -14.686200  -15.608030   -4.268750
  C    -15.762480  -15.155810   -3.587500
  C    -15.545080  -13.927450   -2.879140
  S    -13.876400  -13.396060   -3.141010
  C    -16.421370  -13.246510   -2.127830
  H     11.824220   -1.732520    4.704180
  H     10.003380   -1.972650    4.614670
  H     13.236750   -2.194470    2.496830
  H     12.887020   -2.939630    0.058400
  H     12.042240   -3.662640   -2.017410
  H     10.570070   -4.444760   -3.975850
  H      8.189570   -4.949010   -4.573890
  H      2.232360   -4.781570   -1.902230
  H      3.454330   -3.029260   -0.361200
  H      4.122190   -4.510380    0.339690
  H      2.370840   -4.237960    0.368770
  H      7.920810   -5.008280   -7.840570
  H      6.177990   -5.266790   -8.160810
  H      7.175270   -6.620240   -7.595640
  H      3.040110   -5.793990   -5.386510
  H      1.915780   -6.600380   -2.658980
  H     -0.590860   -8.015250   -8.187740
  H     -2.554680   -6.554410   -8.053330
  H     -3.268130   -7.782750   -6.988150
  H     -2.923260   -8.180120   -8.674610
  H      0.124210   -6.883070    0.103220
  H     -1.555810   -6.483790   -0.314070
  H     -0.332480   -5.179720   -0.203610
  H     -2.945410   -8.394410   -3.705540
  H     -2.457730   -9.963250   -6.284730
  H     -7.593990  -12.360640   -3.017100
  H     -7.258810   -9.621520   -2.007140
  H     -6.428330  -10.923220   -1.139950
  H     -8.204010  -10.935070   -1.282220
  H     -2.358900  -12.507670   -8.706630
  H     -2.548900  -10.880970   -9.432750
  H     -3.848070  -12.104870   -9.583060
  H     -6.130090  -13.715250   -6.226290
  H     -8.584210  -12.694270   -4.695500
  H     -8.027840  -15.185490   -6.405070
  H    -10.136890  -16.702130   -6.640120
  H    -12.577230  -16.852760   -5.840810
  H    -14.675330  -16.511670   -4.852750
  H    -16.719970  -15.645070   -3.553940
  H    -17.426380  -13.606500   -1.995860
  H    -16.153600  -12.328470   -1.638150

 Total Charge           Charge          ....    0
 Multiplicity           Mult            ....    1
 Number of Electrons    NEL             ....  504
 Basis Dimension        Dim             .... 1115

ORBITAL ENERGIES
----------------

  NO   OCC          E(Eh)            E(eV)
   0   2.0000     -88.955937     -2420.6141
   1   2.0000     -88.944735     -2420.3093
   2   2.0000     -88.943274     -2420.2695
   3   2.0000     -88.937241     -2420.1054
   4   2.0000     -88.931379     -2419.9458
   5   2.0000     -88.924431     -2419.7568
   6   2.0000     -88.920411     -2419.6474
   7   2.0000     -19.253942      -523.9264
   8   2.0000     -19.253749      -523.9212
   9   2.0000     -19.248708      -523.7840
  10   2.0000     -19.195937      -522.3480
  11   2.0000     -19.195722      -522.3421
  12   2.0000     -19.191675      -522.2320
  13   2.0000     -14.436770      -392.8445
  14   2.0000     -14.430162      -392.6647
  15   2.0000     -14.419815      -392.3831
  16   2.0000     -10.393972      -282.8343
  17   2.0000     -10.393247      -282.8146
  18   2.0000     -10.388680      -282.6904
  19   2.0000     -10.335092      -281.2322
  20   2.0000     -10.327930      -281.0373
  21   2.0000     -10.320130      -280.8250
  22   2.0000     -10.319593      -280.8104
  23   2.0000     -10.318290      -280.7749
  24   2.0000     -10.313227      -280.6372
  25   2.0000     -10.308771      -280.5159
  26   2.0000     -10.301716      -280.3240
  27   2.0000     -10.301257      -280.3115
  28   2.0000     -10.300417      -280.2886
  29   2.0000     -10.300390      -280.2879
  30   2.0000     -10.300193      -280.2825
  31   2.0000     -10.297813      -280.2177
  32   2.0000     -10.294434      -280.1258
  33   2.0000     -10.292691      -280.0784
  34   2.0000     -10.289898      -280.0024
  35   2.0000     -10.288585      -279.9666
  36   2.0000     -10.288372      -279.9608
  37   2.0000     -10.287253      -279.9304
  38   2.0000     -10.283607      -279.8312
  39   2.0000     -10.283357      -279.8244
  40   2.0000     -10.278715      -279.6981
  41   2.0000     -10.278181      -279.6835
  42   2.0000     -10.277722      -279.6710
  43   2.0000     -10.277377      -279.6617
  44   2.0000     -10.273516      -279.5566
  45   2.0000     -10.273336      -279.5517
  46   2.0000     -10.270912      -279.4857
  47   2.0000     -10.269158      -279.4380
  48   2.0000     -10.268897      -279.4309
  49   2.0000     -10.268325      -279.4153
  50   2.0000     -10.268014      -279.4069
  51   2.0000     -10.266192      -279.3573
  52   2.0000     -10.264916      -279.3226
  53   2.0000     -10.262970      -279.2696
  54   2.0000     -10.262681      -279.2618
  55   2.0000     -10.261278      -279.2236
  56   2.0000     -10.261106      -279.2189
  57   2.0000     -10.257914      -279.1320
  58   2.0000     -10.257569      -279.1226
  59   2.0000     -10.255126      -279.0562
  60   2.0000     -10.253114      -279.0014
  61   2.0000     -10.251779      -278.9651
  62   2.0000     -10.251323      -278.9527
  63   2.0000      -8.051450      -219.0911
  64   2.0000      -8.040471      -218.7923
  65   2.0000      -8.039570      -218.7678
  66   2.0000      -8.033216      -218.5949
  67   2.0000      -8.028107      -218.4559
  68   2.0000      -8.020538      -218.2499
  69   2.0000      -8.017069      -218.1555
  70   2.0000      -6.020879      -163.8365
  71   2.0000      -6.016670      -163.7219
  72   2.0000      -6.013276      -163.6295
  73   2.0000      -6.009890      -163.5374
  74   2.0000      -6.008814      -163.5081
  75   2.0000      -6.005734      -163.4243
  76   2.0000      -6.004869      -163.4008
  77   2.0000      -6.003068      -163.3518
  78   2.0000      -6.002264      -163.3299
  79   2.0000      -6.001425      -163.3071
  80   2.0000      -5.998922      -163.2390
  81   2.0000      -5.997950      -163.2125
  82   2.0000      -5.994043      -163.1062
  83   2.0000      -5.994031      -163.1059
  84   2.0000      -5.990291      -163.0041
  85   2.0000      -5.988591      -162.9579
  86   2.0000      -5.986922      -162.9124
  87   2.0000      -5.986452      -162.8997
  88   2.0000      -5.983062      -162.8074
  89   2.0000      -5.981318      -162.7599
  90   2.0000      -5.977527      -162.6568
  91   2.0000      -1.184356       -32.2280
  92   2.0000      -1.182456       -32.1763
  93   2.0000      -1.179666       -32.1003
  94   2.0000      -1.088501       -29.6196
  95   2.0000      -1.088071       -29.6079
  96   2.0000      -1.083541       -29.4847
  97   2.0000      -1.045611       -28.4525
  98   2.0000      -1.038054       -28.2469
  99   2.0000      -1.026180       -27.9238
 100   2.0000      -0.985699       -26.8222
 101   2.0000      -0.973434       -26.4885
 102   2.0000      -0.969403       -26.3788
 103   2.0000      -0.959627       -26.1128
 104   2.0000      -0.957863       -26.0648
 105   2.0000      -0.956787       -26.0355
 106   2.0000      -0.950603       -25.8672
 107   2.0000      -0.895870       -24.3779
 108   2.0000      -0.891573       -24.2609
 109   2.0000      -0.880618       -23.9628
 110   2.0000      -0.871886       -23.7252
 111   2.0000      -0.859333       -23.3837
 112   2.0000      -0.855512       -23.2797
 113   2.0000      -0.850514       -23.1437
 114   2.0000      -0.846940       -23.0464
 115   2.0000      -0.844508       -22.9802
 116   2.0000      -0.837713       -22.7953
 117   2.0000      -0.834233       -22.7006
 118   2.0000      -0.826769       -22.4975
 119   2.0000      -0.819674       -22.3045
 120   2.0000      -0.812807       -22.1176
 121   2.0000      -0.806102       -21.9351
 122   2.0000      -0.800500       -21.7827
 123   2.0000      -0.798981       -21.7414
 124   2.0000      -0.792341       -21.5607
 125   2.0000      -0.790127       -21.5004
 126   2.0000      -0.786783       -21.4095
 127   2.0000      -0.783587       -21.3225
 128   2.0000      -0.762287       -20.7429
 129   2.0000      -0.756421       -20.5833
 130   2.0000      -0.750006       -20.4087
 131   2.0000      -0.735978       -20.0270
 132   2.0000      -0.716951       -19.5092
 133   2.0000      -0.704406       -19.1679
 134   2.0000      -0.697633       -18.9836
 135   2.0000      -0.689956       -18.7747
 136   2.0000      -0.687590       -18.7103
 137   2.0000      -0.675623       -18.3846
 138   2.0000      -0.672302       -18.2943
 139   2.0000      -0.670953       -18.2576
 140   2.0000      -0.661662       -18.0047
 141   2.0000      -0.654245       -17.8029
 142   2.0000      -0.648910       -17.6577
 143   2.0000      -0.641551       -17.4575
 144   2.0000      -0.635311       -17.2877
 145   2.0000      -0.631109       -17.1734
 146   2.0000      -0.624687       -16.9986
 147   2.0000      -0.619811       -16.8659
 148   2.0000      -0.616407       -16.7733
 149   2.0000      -0.614723       -16.7275
 150   2.0000      -0.610646       -16.6165
 151   2.0000      -0.600882       -16.3508
 152   2.0000      -0.598603       -16.2888
 153   2.0000      -0.594881       -16.1875
 154   2.0000      -0.593758       -16.1570
 155   2.0000      -0.590368       -16.0647
 156   2.0000      -0.582292       -15.8450
 157   2.0000      -0.581383       -15.8202
 158   2.0000      -0.578440       -15.7402
 159   2.0000      -0.573587       -15.6081
 160   2.0000      -0.565735       -15.3944
 161   2.0000      -0.563456       -15.3324
 162   2.0000      -0.560505       -15.2521
 163   2.0000      -0.556005       -15.1297
 164   2.0000      -0.551508       -15.0073
 165   2.0000      -0.549609       -14.9556
 166   2.0000      -0.548884       -14.9359
 167   2.0000      -0.543661       -14.7938
 168   2.0000      -0.540290       -14.7020
 169   2.0000      -0.537720       -14.6321
 170   2.0000      -0.536029       -14.5861
 171   2.0000      -0.533894       -14.5280
 172   2.0000      -0.530912       -14.4469
 173   2.0000      -0.529475       -14.4078
 174   2.0000      -0.525377       -14.2962
 175   2.0000      -0.516290       -14.0490
 176   2.0000      -0.512691       -13.9510
 177   2.0000      -0.511534       -13.9195
 178   2.0000      -0.509151       -13.8547
 179   2.0000      -0.501806       -13.6548
 180   2.0000      -0.500502       -13.6194
 181   2.0000      -0.499845       -13.6015
 182   2.0000      -0.496676       -13.5152
 183   2.0000      -0.493282       -13.4229
 184   2.0000      -0.491995       -13.3879
 185   2.0000      -0.489504       -13.3201
 186   2.0000      -0.488051       -13.2805
 187   2.0000      -0.486061       -13.2264
 188   2.0000      -0.483630       -13.1602
 189   2.0000      -0.482913       -13.1407
 190   2.0000      -0.480312       -13.0700
 191   2.0000      -0.478654       -13.0248
 192   2.0000      -0.476751       -12.9730
 193   2.0000      -0.475038       -12.9264
 194   2.0000      -0.474258       -12.9052
 195   2.0000      -0.471624       -12.8335
 196   2.0000      -0.467902       -12.7323
 197   2.0000      -0.466124       -12.6839
 198   2.0000      -0.464907       -12.6508
 199   2.0000      -0.462160       -12.5760
 200   2.0000      -0.459992       -12.5170
 201   2.0000      -0.457093       -12.4381
 202   2.0000      -0.455968       -12.4075
 203   2.0000      -0.454204       -12.3595
 204   2.0000      -0.449950       -12.2438
 205   2.0000      -0.448320       -12.1994
 206   2.0000      -0.445053       -12.1105
 207   2.0000      -0.444726       -12.1016
 208   2.0000      -0.442602       -12.0438
 209   2.0000      -0.441038       -12.0012
 210   2.0000      -0.435870       -11.8606
 211   2.0000      -0.434518       -11.8238
 212   2.0000      -0.431925       -11.7533
 213   2.0000      -0.425226       -11.5710
 214   2.0000      -0.424761       -11.5583
 215   2.0000      -0.417701       -11.3662
 216   2.0000      -0.411555       -11.1990
 217   2.0000      -0.409296       -11.1375
 218   2.0000      -0.407575       -11.0907
 219   2.0000      -0.404676       -11.0118
 220   2.0000      -0.402994       -10.9660
 221   2.0000      -0.399286       -10.8651
 222   2.0000      -0.397686       -10.8216
 223   2.0000      -0.392273       -10.6743
 224   2.0000      -0.389613       -10.6019
 225   2.0000      -0.383332       -10.4310
 226   2.0000      -0.380987       -10.3672
 227   2.0000      -0.377409       -10.2698
 228   2.0000      -0.372322       -10.1314
 229   2.0000      -0.370432       -10.0800
 230   2.0000      -0.368047       -10.0151
 231   2.0000      -0.366213        -9.9652
 232   2.0000      -0.355179        -9.6649
 233   2.0000      -0.354415        -9.6441
 234   2.0000      -0.352435        -9.5903
 235   2.0000      -0.340823        -9.2743
 236   2.0000      -0.336842        -9.1659
 237   2.0000      -0.332725        -9.0539
 238   2.0000      -0.331271        -9.0144
 239   2.0000      -0.322841        -8.7850
 240   2.0000      -0.320610        -8.7243
 241   2.0000      -0.319257        -8.6874
 242   2.0000      -0.317297        -8.6341
 243   2.0000      -0.304652        -8.2900
 244   2.0000      -0.302172        -8.2225
 245   2.0000      -0.299824        -8.1586
 246   2.0000      -0.278912        -7.5896
 247   2.0000      -0.267267        -7.2727
 248   2.0000      -0.243995        -6.6394
 249   2.0000      -0.221745        -6.0340
 250   2.0000      -0.201038        -5.4705
 251   2.0000      -0.191760        -5.2181
 252   0.0000      -0.062215        -1.6930
 253   0.0000      -0.047276        -1.2864
 254   0.0000      -0.018148        -0.4938
 255   0.0000      -0.012500        -0.3401
 256   0.0000       0.002585         0.0703

MULLIKEN ATOMIC CHARGES
-----------------------
   0 C :   -0.035438
   1 C :   -0.060228
   2 C :    0.047495
   3 C :    0.029867
   4 C :   -0.070369
   5 S :    0.071254
   6 C :   -0.033061
   7 C :    0.026562
   8 C :    0.031820
   9 C :   -0.037737
  10 S :    0.049301
  11 C :   -0.007568
  12 C :   -0.092342
  13 S :    0.065123
  14 C :   -0.110770
  15 N :   -0.162545
  16 C :    0.097616
  17 C :    0.119186
  18 C :    0.066714
  19 C :    0.135063
  20 O :   -0.220282
  21 O :   -0.312483
  22 C :    0.197242
  23 C :   -0.040576
  24 C :   -0.027651
  25 C :   -0.091091
  26 S :    0.095404
  27 C :   -0.164254
  28 N :   -0.161328
  29 C :    0.104877
  30 C :    0.123196
  31 C :    0.055555
  32 C :    0.135298
  33 O :   -0.212330
  34 O :   -0.324486
  35 C :    0.177016
  36 C :   -0.056023
  37 C :   -0.000202
  38 C :   -0.097810
  39 S :    0.077697
  40 C :   -0.126751
  41 N :   -0.159616
  42 C :    0.099412
  43 C :    0.132201
  44 C :    0.073489
  45 C :    0.132256
  46 O :   -0.219373
  47 O :   -0.305990
  48 C :    0.196305
  49 C :   -0.053745
  50 C :   -0.043168
  51 C :   -0.014543
  52 C :   -0.024125
  53 C :    0.043186
  54 C :    0.015598
  55 C :   -0.039034
  56 S :    0.045332
  57 C :   -0.074412
  58 C :    0.029337
  59 C :    0.043433
  60 C :   -0.056850
  61 S :    0.062681
  62 C :   -0.041981
  63 H :    0.016986
  64 H :    0.018669
  65 H :   -0.014539
  66 H :   -0.012882
  67 H :   -0.017840
  68 H :   -0.016637
  69 H :   -0.006444
  70 H :    0.141332
  71 H :    0.030593
  72 H :    0.044965
  73 H :    0.028441
  74 H :    0.029323
  75 H :    0.029291
  76 H :    0.031653
  77 H :    0.011006
  78 H :   -0.001988
  79 H :    0.114087
  80 H :    0.009038
  81 H :    0.058430
  82 H :    0.019927
  83 H :    0.032177
  84 H :    0.043095
  85 H :    0.024973
  86 H :    0.004166
  87 H :    0.010572
  88 H :    0.137479
  89 H :    0.039561
  90 H :    0.029155
  91 H :    0.036516
  92 H :    0.033881
  93 H :    0.024278
  94 H :    0.028701
  95 H :    0.011088
  96 H :   -0.006584
  97 H :   -0.015173
  98 H :   -0.017552
  99 H :   -0.020918
 100 H :   -0.016941
 101 H :   -0.019247
 102 H :    0.012018
 103 H :    0.013994
Sum of atomic charges:   -0.0000000

LOEWDIN ATOMIC CHARGES
----------------------
   0 C :   -0.083877
   1 C :   -0.138384
   2 C :   -0.035873
   3 C :   -0.026314
   4 C :   -0.181619
   5 S :    0.343946
   6 C :   -0.178038
   7 C :   -0.042574
   8 C :   -0.030157
   9 C :   -0.160590
  10 S :    0.351179
  11 C :   -0.071516
  12 C :   -0.163202
  13 S :    0.425936
  14 C :   -0.103353
  15 N :   -0.028642
  16 C :    0.013638
  17 C :   -0.098483
  18 C :   -0.090173
  19 C :    0.097442
  20 O :   -0.175499
  21 O :   -0.093474
  22 C :    0.078333
  23 C :   -0.015155
  24 C :   -0.071099
  25 C :   -0.145976
  26 S :    0.416485
  27 C :   -0.122480
  28 N :   -0.059415
  29 C :    0.022422
  30 C :   -0.087269
  31 C :   -0.099761
  32 C :    0.100473
  33 O :   -0.172142
  34 O :   -0.102537
  35 C :    0.074051
  36 C :   -0.030217
  37 C :   -0.050312
  38 C :   -0.153938
  39 S :    0.429130
  40 C :   -0.097342
  41 N :   -0.027673
  42 C :    0.013010
  43 C :   -0.110725
  44 C :   -0.089734
  45 C :    0.100217
  46 O :   -0.177010
  47 O :   -0.087830
  48 C :    0.078100
  49 C :   -0.003631
  50 C :   -0.073728
  51 C :   -0.043394
  52 C :   -0.160164
  53 C :   -0.029931
  54 C :   -0.044859
  55 C :   -0.174036
  56 S :    0.345847
  57 C :   -0.190530
  58 C :   -0.025861
  59 C :   -0.043720
  60 C :   -0.137373
  61 S :    0.336686
  62 C :   -0.094437
  63 H :    0.027341
  64 H :    0.024771
  65 H :    0.032095
  66 H :    0.031731
  67 H :    0.029875
  68 H :    0.032007
  69 H :    0.036743
  70 H :    0.082085
  71 H :    0.017401
  72 H :    0.026237
  73 H :    0.029420
  74 H :    0.023194
  75 H :    0.022422
  76 H :    0.022748
  77 H :    0.021052
  78 H :    0.022789
  79 H :    0.067880
  80 H :    0.011138
  81 H :    0.034060
  82 H :    0.022761
  83 H :    0.022216
  84 H :    0.024556
  85 H :    0.018615
  86 H :    0.016723
  87 H :    0.029597
  88 H :    0.080997
  89 H :    0.024992
  90 H :    0.016522
  91 H :    0.033425
  92 H :    0.023288
  93 H :    0.020399
  94 H :    0.022191
  95 H :    0.032446
  96 H :    0.011897
  97 H :    0.033092
  98 H :    0.031821
  99 H :    0.028389
 100 H :    0.030358
 101 H :    0.030093
 102 H :    0.025127
 103 H :    0.022660

  Mayer bond orders larger than 0.100000
B(  0-C ,  1-C ) :   1.8612 B(  0-C , 63-H ) :   0.9505 B(  0-C , 64-H ) :   0.9421
B(  1-C ,  2-C ) :   1.0816 B(  1-C ,  5-S ) :   1.0080 B(  2-C ,  3-C ) :   1.6584
B(  2-C , 65-H ) :   0.9929 B(  3-C ,  4-C ) :   1.1537 B(  3-C , 66-H ) :   0.9920
B(  4-C ,  5-S ) :   1.0379 B(  4-C ,  6-C ) :   1.5627 B(  6-C ,  7-C ) :   1.1664
B(  6-C , 10-S ) :   1.0314 B(  7-C ,  8-C ) :   1.6063 B(  7-C , 67-H ) :   0.9921
B(  8-C ,  9-C ) :   1.1415 B(  8-C , 68-H ) :   0.9987 B(  9-C , 10-S ) :   1.0204
B(  9-C , 11-C ) :   1.5600 B( 11-C , 12-C ) :   1.2179 B( 11-C , 69-H ) :   0.9528
B( 12-C , 13-S ) :   1.0518 B( 12-C , 18-C ) :   1.4238 B( 13-S , 14-C ) :   1.1199
B( 14-C , 15-N ) :   1.2493 B( 14-C , 17-C ) :   1.3807 B( 15-N , 16-C ) :   1.0136
B( 15-N , 70-H ) :   0.9039 B( 16-C , 71-H ) :   0.9655 B( 16-C , 72-H ) :   0.9645
B( 16-C , 73-H ) :   0.9754 B( 17-C , 18-C ) :   1.2502 B( 17-C , 23-C ) :   1.0987
B( 18-C , 19-C ) :   0.9465 B( 19-C , 20-O ) :   2.0489 B( 19-C , 21-O ) :   1.1786
B( 21-O , 22-C ) :   0.9251 B( 22-C , 74-H ) :   0.9794 B( 22-C , 75-H ) :   0.9763
B( 22-C , 76-H ) :   0.9755 B( 23-C , 24-C ) :   1.6797 B( 23-C , 77-H ) :   0.9374
B( 24-C , 25-C ) :   1.1551 B( 24-C , 78-H ) :   0.9618 B( 25-C , 26-S ) :   1.1070
B( 25-C , 31-C ) :   1.4715 B( 26-S , 27-C ) :   1.1011 B( 27-C , 28-N ) :   1.1952
B( 27-C , 30-C ) :   1.4686 B( 28-N , 29-C ) :   0.9964 B( 28-N , 79-H ) :   0.9282
B( 29-C , 80-H ) :   0.9663 B( 29-C , 81-H ) :   0.9664 B( 29-C , 82-H ) :   0.9770
B( 30-C , 31-C ) :   1.2148 B( 30-C , 36-C ) :   1.0890 B( 31-C , 32-C ) :   0.9444
B( 32-C , 33-O ) :   2.0587 B( 32-C , 34-O ) :   1.1690 B( 34-O , 35-C ) :   0.9269
B( 35-C , 83-H ) :   0.9803 B( 35-C , 84-H ) :   0.9663 B( 35-C , 85-H ) :   0.9796
B( 36-C , 37-C ) :   1.6741 B( 36-C , 86-H ) :   0.9374 B( 37-C , 38-C ) :   1.1652
B( 37-C , 87-H ) :   0.9637 B( 38-C , 39-S ) :   1.0601 B( 38-C , 44-C ) :   1.5037
B( 39-S , 40-C ) :   1.1180 B( 40-C , 41-N ) :   1.2509 B( 40-C , 43-C ) :   1.3835
B( 41-N , 42-C ) :   1.0129 B( 41-N , 88-H ) :   0.9073 B( 42-C , 89-H ) :   0.9663
B( 42-C , 90-H ) :   0.9652 B( 42-C , 91-H ) :   0.9758 B( 43-C , 44-C ) :   1.2084
B( 43-C , 49-C ) :   1.1042 B( 44-C , 45-C ) :   0.9297 B( 45-C , 46-O ) :   2.0419
B( 45-C , 47-O ) :   1.1902 B( 47-O , 48-C ) :   0.9286 B( 48-C , 92-H ) :   0.9737
B( 48-C , 93-H ) :   0.9780 B( 48-C , 94-H ) :   0.9777 B( 49-C , 50-C ) :   1.6086
B( 49-C , 95-H ) :   0.9570 B( 50-C , 51-C ) :   1.1400 B( 50-C , 96-H ) :   0.9669
B( 51-C , 52-C ) :   1.5794 B( 51-C , 97-H ) :   0.9881 B( 52-C , 53-C ) :   1.1335
B( 52-C , 56-S ) :   1.0089 B( 53-C , 54-C ) :   1.6076 B( 53-C , 98-H ) :   0.9987
B( 54-C , 55-C ) :   1.1693 B( 54-C , 99-H ) :   0.9923 B( 55-C , 56-S ) :   1.0379
B( 55-C , 57-C ) :   1.5617 B( 57-C , 58-C ) :   1.1583 B( 57-C , 61-S ) :   1.0289
B( 58-C , 59-C ) :   1.6563 B( 58-C ,100-H ) :   0.9911 B( 59-C , 60-C ) :   1.0829
B( 59-C ,101-H ) :   0.9925 B( 60-C , 61-S ) :   1.0106 B( 60-C , 62-C ) :   1.8603
B( 62-C ,102-H ) :   0.9502 B( 62-C ,103-H ) :   0.9418

-----------------------------------------------------------------------------
         ABSORPTION SPECTRUM VIA TRANSITION ELECTRIC DIPOLE MOMENTS
-----------------------------------------------------------------------------
State   Energy  Wavelength   fosc         T2         TX        TY        TZ
        (cm-1)    (nm)                  (au**2)     (au)      (au)      (au)
-----------------------------------------------------------------------------
   0   16372.9    610.8   1.967200669  39.55473   5.23317   2.16648   2.73406
   1   17850.0    560.2   1.077983268  19.88154   4.06694   1.16398  -1.40950
   2   22012.3    454.3   0.051441297   0.76935  -0.11771  -0.08717  -0.86481
   3   24076.6    415.3   0.297886357   4.07315   1.38112   1.46411   0.14852
   4   24762.6    403.8   0.128453206   1.70775   0.17340   0.66537   1.11129
   5   25043.6    399.3   0.095809736   1.25947   0.31736  -0.12079   1.06966
   6   25241.0    396.2   0.267943535   3.49472  -1.38452   0.61932   1.09282
   7   26890.9    371.9   0.005842943   0.07153   0.06418   0.00352   0.25962
   8   27296.6    366.3   0.020774207   0.25055  -0.18610  -0.12855  -0.44653
   9   27793.0    359.8   0.011338048   0.13430  -0.16015   0.08811   0.31763
  10   28823.1    346.9   0.113543339   1.29687  -0.89342  -0.48210   0.51599
  11   29313.5    341.1   0.135478406   1.52152   0.17491  -0.98770  -0.71789
  12   29773.0    335.9   0.210664846   2.32941   0.57357  -0.29270  -1.38375
  13   30763.4    325.1   0.050894835   0.54465   0.35742   0.31329   0.56458
  14   31380.7    318.7   0.168268590   1.76529   1.22152   0.51542   0.08676
  15   32578.1    307.0   0.122562201   1.23853  -0.75744  -0.81475  -0.03157
  16   32685.3    305.9   0.072949362   0.73476  -0.54275   0.09748   0.65626
  17   32931.5    303.7   0.174368255   1.74314   0.07987   1.01283   0.84317
  18   33539.7    298.2   0.003342687   0.03281   0.00623   0.14703   0.10561
  19   34834.3    287.1   0.018247836   0.17246   0.27090  -0.27545  -0.15231
  20   34911.5    286.4   0.059836925   0.56426   0.48074   0.46991   0.33515
  21   35122.0    284.7   0.133606984   1.25235   0.98810   0.52393  -0.03874
  22   35426.2    282.3   0.007660291   0.07119  -0.08193   0.06535   0.24536
  23   35923.3    278.4   0.000146862   0.00135   0.02591  -0.00270   0.02583
  24   36210.2    276.2   0.015348974   0.13955   0.33944   0.12958   0.08682
  25   36928.1    270.8   0.065856363   0.58711  -0.17715  -0.35890  -0.65338
  26   37189.6    268.9   0.067191202   0.59479   0.44466   0.60688   0.16962
  27   37923.7    263.7   0.073673831   0.63955  -0.69718  -0.28616   0.26760
  28   38130.6    262.3   0.021538454   0.18596   0.41952   0.08035   0.05919
  29   38382.6    260.5   0.022313519   0.19139  -0.30743  -0.23205   0.20742
  30   38926.0    256.9   0.055041628   0.46551  -0.54151  -0.26577  -0.31880
  31   39244.5    254.8   0.001139282   0.00956  -0.05432   0.07864   0.02056
  32   39409.5    253.7   0.050614260   0.42281  -0.49044  -0.42589  -0.02992
  33   40012.8    249.9   0.031210654   0.25679  -0.24805  -0.09100  -0.43241
  34   40300.2    248.1   0.004692143   0.03833   0.19230   0.03634  -0.00562

FINAL SINGLE POINT ENERGY     -5214.630311404160

DIPOLE MOMENT
-------------
                                X             Y             Z
Electronic contribution:     15.95487       4.66562       4.90994
Nuclear contribution   :    -14.11418      -2.93916      -5.03690
                        -----------------------------------------
Total Dipole Moment    :      1.84069       1.72647      -0.12696
                        -----------------------------------------
Magnitude (a.u.)       :      2.52684
Magnitude (Debye)      :      6.42273

Rotational constants in cm-1:     0.002540     0.000207     0.000196
Rotational constants in MHz :    76.157477     6.212848     5.865387

                             ****ORCA TERMINATED NORMALLY****
TOTAL RUN TIME: 0 days 0 hours 8 minutes 0 seconds 586 msec
