                         Program Version 4.2.0 -  RELEASE  -
|  1> # ORCA input file
|  2> # SCF done       -182.119588723905          0.000659872234
|  3> ! CAM-B3LYP def2-SVP def2/J RIJCOSX Grid4 TightSCF
|  4> %maxcore 5000
|  5> %tddft
|  6>     Mode sTDDFT
|  7>     Ethresh 5.0
|  8>     maxcore 5000
|  9> end
| 10>
| 11> %pal
| 12>   nprocs 6
| 13>   end
| 14> * xyz 0 1
| 15>    C        6.04214         2.05953         2.73084
| 16>    C        5.76927         1.43358         1.57816
| 17>    C        5.69496         2.00443         0.26321
| 18>    C        5.39982         1.11839        -0.71288
| 19>    C        5.21835        -0.21726        -0.25330
| 20>    S        5.43321        -0.30229         1.47899
| 21>    C        4.91988        -1.32656        -1.01140
| 22>    C        4.72010        -1.41172        -2.40888
| 23>    C        4.44489        -2.66849        -2.84941
| 24>    C        4.41934        -3.66140        -1.83446
| 25>    S        4.74674        -2.91210        -0.28355
| 26>    C        4.06927        -4.97390        -2.05677
| 27>    C        3.99117        -6.06552        -1.17979
| 28>    S        2.87296        -7.33962        -1.60626
| 29>    C        3.12455        -8.21755        -0.12910
| 30>    C        4.13615        -7.60384         0.62425
| 31>    C        4.63410        -6.39046         0.03124
| 32>    C        5.72226        -5.74149         0.62602
| 33>    C        6.28439        -6.23397         1.77833
| 34>    N        7.26528        -5.41928         2.44702
| 35>    O        7.98988        -4.73954         1.75362
| 36>    O        7.24032        -5.41712         3.65833
| 37>    C        5.82197        -7.45337         2.33768
| 38>    N        6.54334        -8.12636         3.38886
| 39>    O        7.74773        -8.00820         3.39689
| 40>    O        5.89552        -8.82223         4.14090
| 41>    C        4.77085        -8.12215         1.76437
| 42>    C        2.32466        -9.34979         0.14734
| 43>    C        2.05062        -9.83717         1.38569
| 44>    C        1.24513       -10.96918         1.65065
| 45>    C        0.84238       -11.41559         2.89516
| 46>    C        0.03858       -12.55188         2.84724
| 47>    C       -0.18648       -13.01887         1.56973
| 48>    S        0.61609       -12.01105         0.40229
| 49>    C       -0.94791       -14.17380         1.16144
| 50>    C       -0.76252       -14.73243        -0.11196
| 51>    C       -1.47084       -15.85207        -0.46999
| 52>    C       -2.39313       -16.43008         0.41991
| 53>    C       -2.59734       -15.87443         1.67464
| 54>    C       -1.87303       -14.75765         2.03735
| 55>    C       -2.97655       -17.59286        -0.21122
| 56>    C       -2.40375       -17.74608        -1.48622
| 57>    C       -1.41122       -16.63854        -1.75858
| 58>    C       -1.84671       -15.77858        -2.95977
| 59>    C       -3.24024       -15.18609        -2.78831
| 60>    C        0.00169       -17.19690        -2.00893
| 61>    C        0.50810       -18.05931        -0.85906
| 62>    C       -2.75973       -18.79661        -2.29468
| 63>    C       -3.71402       -19.72444        -1.84706
| 64>    C       -4.29865       -19.53583        -0.58556
| 65>    C       -3.93529       -18.49005         0.23695
| 66>    C       -4.11473       -20.87086        -2.62600
| 67>    C       -3.47960       -21.36588        -3.70955
| 68>    C       -3.87888       -22.52853        -4.43035
| 69>    C       -3.17259       -23.10947        -5.45134
| 70>    C       -3.87241       -24.27196        -5.90659
| 71>    C       -5.09973       -24.34367        -5.07608
| 72>    C       -5.09243       -23.31532        -4.20475
| 73>    O       -6.00785       -25.32776        -5.25285
| 74>    C       -7.13303       -25.29200        -4.40861
| 75>    C       -3.49900       -25.14845        -6.88046
| 76>    C       -4.20192       -26.32593        -7.33384
| 77>    C       -3.47287       -26.90797        -8.30990
| 78>    C       -2.26170       -26.14274        -8.54180
| 79>    C       -2.26450       -25.08877        -7.69626
| 80>    O       -1.35709       -24.09727        -7.53028
| 81>    C       -0.21995       -24.16197        -8.35627
| 82>    H        6.23841         3.11708         2.74917
| 83>    H        6.07373         1.53187         3.66648
| 84>    H        5.87011         3.05449         0.11041
| 85>    H        5.30723         1.36991        -1.75441
| 86>    H        4.78225        -0.54813        -3.04602
| 87>    H        4.26313        -2.92305        -3.87875
| 88>    H        3.70020        -5.17594        -3.05634
| 89>    H        6.14454        -4.84803         0.19737
| 90>    H        4.49359        -9.08622         2.16022
| 91>    H        1.84329        -9.81184        -0.70597
| 92>    H        2.41129        -9.32098         2.26413
| 93>    H        1.12974       -10.92201         3.80657
| 94>    H       -0.34780       -13.03452         3.72646
| 95>    H       -0.04932       -14.28196        -0.78777
| 96>    H       -3.30947       -16.30798         2.36062
| 97>    H       -2.03351       -14.31544         3.00830
| 98>    H       -1.82497       -16.39796        -3.85890
| 99>    H       -1.12325       -14.97108        -3.09149
|100>    H       -3.98116       -15.97425        -2.67382
|101>    H       -3.50320       -14.59030        -3.65937
|102>    H       -3.28056       -14.54683        -1.90905
|103>    H        0.68645       -16.36049        -2.16430
|104>    H       -0.01481       -17.78961        -2.92594
|105>    H        0.55921       -17.48165         0.06120
|106>    H        1.50294       -18.43661        -1.08400
|107>    H       -0.15296       -18.90742        -0.69514
|108>    H       -2.32050       -18.90619        -3.27438
|109>    H       -5.04198       -20.24411        -0.24741
|110>    H       -4.38894       -18.37336         1.20999
|111>    H       -4.98830       -21.39038        -2.25526
|112>    H       -2.57583       -20.89284        -4.07054
|113>    H       -2.23698       -22.77748        -5.85394
|114>    H       -5.83696       -23.07840        -3.46995
|115>    H       -7.74893       -26.14642        -4.68377
|116>    H       -7.70283       -24.36795        -4.55014
|117>    H       -6.84016       -25.37429        -3.35698
|118>    H       -5.14227       -26.64865        -6.93659
|119>    H       -3.72142       -27.80207        -8.85321
|120>    H       -1.51845       -26.40607        -9.27024
|121>    H       -0.49633       -24.10027        -9.41374
|122>    H        0.33799       -25.08853        -8.18734
|123>    H        0.40115       -23.30814        -8.09058
|124> *
|125>
|126>                          ****END OF INPUT****

CARTESIAN COORDINATES (ANGSTROEM)
---------------------------------
  C      6.042140    2.059530    2.730840
  C      5.769270    1.433580    1.578160
  C      5.694960    2.004430    0.263210
  C      5.399820    1.118390   -0.712880
  C      5.218350   -0.217260   -0.253300
  S      5.433210   -0.302290    1.478990
  C      4.919880   -1.326560   -1.011400
  C      4.720100   -1.411720   -2.408880
  C      4.444890   -2.668490   -2.849410
  C      4.419340   -3.661400   -1.834460
  S      4.746740   -2.912100   -0.283550
  C      4.069270   -4.973900   -2.056770
  C      3.991170   -6.065520   -1.179790
  S      2.872960   -7.339620   -1.606260
  C      3.124550   -8.217550   -0.129100
  C      4.136150   -7.603840    0.624250
  C      4.634100   -6.390460    0.031240
  C      5.722260   -5.741490    0.626020
  C      6.284390   -6.233970    1.778330
  N      7.265280   -5.419280    2.447020
  O      7.989880   -4.739540    1.753620
  O      7.240320   -5.417120    3.658330
  C      5.821970   -7.453370    2.337680
  N      6.543340   -8.126360    3.388860
  O      7.747730   -8.008200    3.396890
  O      5.895520   -8.822230    4.140900
  C      4.770850   -8.122150    1.764370
  C      2.324660   -9.349790    0.147340
  C      2.050620   -9.837170    1.385690
  C      1.245130  -10.969180    1.650650
  C      0.842380  -11.415590    2.895160
  C      0.038580  -12.551880    2.847240
  C     -0.186480  -13.018870    1.569730
  S      0.616090  -12.011050    0.402290
  C     -0.947910  -14.173800    1.161440
  C     -0.762520  -14.732430   -0.111960
  C     -1.470840  -15.852070   -0.469990
  C     -2.393130  -16.430080    0.419910
  C     -2.597340  -15.874430    1.674640
  C     -1.873030  -14.757650    2.037350
  C     -2.976550  -17.592860   -0.211220
  C     -2.403750  -17.746080   -1.486220
  C     -1.411220  -16.638540   -1.758580
  C     -1.846710  -15.778580   -2.959770
  C     -3.240240  -15.186090   -2.788310
  C      0.001690  -17.196900   -2.008930
  C      0.508100  -18.059310   -0.859060
  C     -2.759730  -18.796610   -2.294680
  C     -3.714020  -19.724440   -1.847060
  C     -4.298650  -19.535830   -0.585560
  C     -3.935290  -18.490050    0.236950
  C     -4.114730  -20.870860   -2.626000
  C     -3.479600  -21.365880   -3.709550
  C     -3.878880  -22.528530   -4.430350
  C     -3.172590  -23.109470   -5.451340
  C     -3.872410  -24.271960   -5.906590
  C     -5.099730  -24.343670   -5.076080
  C     -5.092430  -23.315320   -4.204750
  O     -6.007850  -25.327760   -5.252850
  C     -7.133030  -25.292000   -4.408610
  C     -3.499000  -25.148450   -6.880460
  C     -4.201920  -26.325930   -7.333840
  C     -3.472870  -26.907970   -8.309900
  C     -2.261700  -26.142740   -8.541800
  C     -2.264500  -25.088770   -7.696260
  O     -1.357090  -24.097270   -7.530280
  C     -0.219950  -24.161970   -8.356270
  H      6.238410    3.117080    2.749170
  H      6.073730    1.531870    3.666480
  H      5.870110    3.054490    0.110410
  H      5.307230    1.369910   -1.754410
  H      4.782250   -0.548130   -3.046020
  H      4.263130   -2.923050   -3.878750
  H      3.700200   -5.175940   -3.056340
  H      6.144540   -4.848030    0.197370
  H      4.493590   -9.086220    2.160220
  H      1.843290   -9.811840   -0.705970
  H      2.411290   -9.320980    2.264130
  H      1.129740  -10.922010    3.806570
  H     -0.347800  -13.034520    3.726460
  H     -0.049320  -14.281960   -0.787770
  H     -3.309470  -16.307980    2.360620
  H     -2.033510  -14.315440    3.008300
  H     -1.824970  -16.397960   -3.858900
  H     -1.123250  -14.971080   -3.091490
  H     -3.981160  -15.974250   -2.673820
  H     -3.503200  -14.590300   -3.659370
  H     -3.280560  -14.546830   -1.909050
  H      0.686450  -16.360490   -2.164300
  H     -0.014810  -17.789610   -2.925940
  H      0.559210  -17.481650    0.061200
  H      1.502940  -18.436610   -1.084000
  H     -0.152960  -18.907420   -0.695140
  H     -2.320500  -18.906190   -3.274380
  H     -5.041980  -20.244110   -0.247410
  H     -4.388940  -18.373360    1.209990
  H     -4.988300  -21.390380   -2.255260
  H     -2.575830  -20.892840   -4.070540
  H     -2.236980  -22.777480   -5.853940
  H     -5.836960  -23.078400   -3.469950
  H     -7.748930  -26.146420   -4.683770
  H     -7.702830  -24.367950   -4.550140
  H     -6.840160  -25.374290   -3.356980
  H     -5.142270  -26.648650   -6.936590
  H     -3.721420  -27.802070   -8.853210
  H     -1.518450  -26.406070   -9.270240
  H     -0.496330  -24.100270   -9.413740
  H      0.337990  -25.088530   -8.187340
  H      0.401150  -23.308140   -8.090580

 Total Charge           Charge          ....    0
 Multiplicity           Mult            ....    1
 Number of Electrons    NEL             ....  498
 Basis Dimension        Dim             .... 1164

ORBITAL ENERGIES
----------------

  NO   OCC          E(Eh)            E(eV)
   0   2.0000     -88.975333     -2421.1419
   1   2.0000     -88.955157     -2420.5929
   2   2.0000     -88.951437     -2420.4916
   3   2.0000     -88.943617     -2420.2789
   4   2.0000     -19.246336      -523.7194
   5   2.0000     -19.241899      -523.5987
   6   2.0000     -19.234927      -523.4090
   7   2.0000     -19.233767      -523.3774
   8   2.0000     -19.232379      -523.3396
   9   2.0000     -19.231634      -523.3194
  10   2.0000     -14.640804      -398.3965
  11   2.0000     -14.638765      -398.3411
  12   2.0000     -10.335633      -281.2469
  13   2.0000     -10.334389      -281.2130
  14   2.0000     -10.322275      -280.8834
  15   2.0000     -10.319974      -280.8208
  16   2.0000     -10.319872      -280.8180
  17   2.0000     -10.318964      -280.7933
  18   2.0000     -10.318462      -280.7796
  19   2.0000     -10.318138      -280.7708
  20   2.0000     -10.315790      -280.7069
  21   2.0000     -10.312410      -280.6150
  22   2.0000     -10.312203      -280.6093
  23   2.0000     -10.310914      -280.5742
  24   2.0000     -10.306089      -280.4429
  25   2.0000     -10.303704      -280.3780
  26   2.0000     -10.303184      -280.3639
  27   2.0000     -10.301338      -280.3137
  28   2.0000     -10.300895      -280.3016
  29   2.0000     -10.300442      -280.2893
  30   2.0000     -10.294410      -280.1251
  31   2.0000     -10.293431      -280.0985
  32   2.0000     -10.292982      -280.0863
  33   2.0000     -10.292476      -280.0725
  34   2.0000     -10.291314      -280.0409
  35   2.0000     -10.290514      -280.0191
  36   2.0000     -10.288402      -279.9617
  37   2.0000     -10.285329      -279.8780
  38   2.0000     -10.279581      -279.7216
  39   2.0000     -10.276378      -279.6345
  40   2.0000     -10.276253      -279.6311
  41   2.0000     -10.276177      -279.6290
  42   2.0000     -10.275919      -279.6220
  43   2.0000     -10.274353      -279.5794
  44   2.0000     -10.272149      -279.5194
  45   2.0000     -10.272030      -279.5161
  46   2.0000     -10.271695      -279.5070
  47   2.0000     -10.271625      -279.5051
  48   2.0000     -10.269949      -279.4595
  49   2.0000     -10.268940      -279.4321
  50   2.0000     -10.268572      -279.4221
  51   2.0000     -10.268240      -279.4130
  52   2.0000     -10.267539      -279.3940
  53   2.0000     -10.267522      -279.3935
  54   2.0000     -10.266368      -279.3621
  55   2.0000     -10.266170      -279.3567
  56   2.0000     -10.265970      -279.3512
  57   2.0000     -10.265377      -279.3351
  58   2.0000     -10.261519      -279.2301
  59   2.0000     -10.260998      -279.2159
  60   2.0000     -10.253825      -279.0208
  61   2.0000     -10.247737      -278.8551
  62   2.0000     -10.244387      -278.7640
  63   2.0000     -10.243551      -278.7412
  64   2.0000     -10.242221      -278.7050
  65   2.0000     -10.239978      -278.6440
  66   2.0000     -10.234343      -278.4906
  67   2.0000      -8.070876      -219.6197
  68   2.0000      -8.050616      -219.0684
  69   2.0000      -8.047449      -218.9822
  70   2.0000      -8.040400      -218.7904
  71   2.0000      -6.039850      -164.3527
  72   2.0000      -6.035811      -164.2428
  73   2.0000      -6.033527      -164.1806
  74   2.0000      -6.019799      -163.8071
  75   2.0000      -6.017220      -163.7369
  76   2.0000      -6.015854      -163.6997
  77   2.0000      -6.013120      -163.6253
  78   2.0000      -6.012821      -163.6172
  79   2.0000      -6.010208      -163.5461
  80   2.0000      -6.008326      -163.4949
  81   2.0000      -6.006252      -163.4384
  82   2.0000      -6.000948      -163.2941
  83   2.0000      -1.317939       -35.8629
  84   2.0000      -1.310701       -35.6660
  85   2.0000      -1.148935       -31.2641
  86   2.0000      -1.143386       -31.1131
  87   2.0000      -1.137427       -30.9510
  88   2.0000      -1.131325       -30.7849
  89   2.0000      -1.014936       -27.6178
  90   2.0000      -0.998304       -27.1652
  91   2.0000      -0.990062       -26.9409
  92   2.0000      -0.982175       -26.7263
  93   2.0000      -0.976924       -26.5835
  94   2.0000      -0.972540       -26.4642
  95   2.0000      -0.958906       -26.0932
  96   2.0000      -0.943317       -25.6690
  97   2.0000      -0.935989       -25.4695
  98   2.0000      -0.922007       -25.0891
  99   2.0000      -0.915045       -24.8997
 100   2.0000      -0.896302       -24.3896
 101   2.0000      -0.894161       -24.3314
 102   2.0000      -0.886241       -24.1158
 103   2.0000      -0.882348       -24.0099
 104   2.0000      -0.870583       -23.6898
 105   2.0000      -0.860799       -23.4235
 106   2.0000      -0.850509       -23.1435
 107   2.0000      -0.841703       -22.9039
 108   2.0000      -0.838245       -22.8098
 109   2.0000      -0.835011       -22.7218
 110   2.0000      -0.830211       -22.5912
 111   2.0000      -0.828074       -22.5330
 112   2.0000      -0.825493       -22.4628
 113   2.0000      -0.821753       -22.3610
 114   2.0000      -0.817269       -22.2390
 115   2.0000      -0.808323       -21.9956
 116   2.0000      -0.800724       -21.7888
 117   2.0000      -0.799017       -21.7424
 118   2.0000      -0.789498       -21.4833
 119   2.0000      -0.777469       -21.1560
 120   2.0000      -0.765775       -20.8378
 121   2.0000      -0.759723       -20.6731
 122   2.0000      -0.758345       -20.6356
 123   2.0000      -0.750658       -20.4264
 124   2.0000      -0.739694       -20.1281
 125   2.0000      -0.724370       -19.7111
 126   2.0000      -0.717207       -19.5162
 127   2.0000      -0.708441       -19.2777
 128   2.0000      -0.705935       -19.2095
 129   2.0000      -0.694080       -18.8869
 130   2.0000      -0.685687       -18.6585
 131   2.0000      -0.676190       -18.4001
 132   2.0000      -0.672112       -18.2891
 133   2.0000      -0.671424       -18.2704
 134   2.0000      -0.663555       -18.0563
 135   2.0000      -0.653887       -17.7932
 136   2.0000      -0.649747       -17.6805
 137   2.0000      -0.644701       -17.5432
 138   2.0000      -0.639460       -17.4006
 139   2.0000      -0.636152       -17.3106
 140   2.0000      -0.633435       -17.2366
 141   2.0000      -0.633002       -17.2249
 142   2.0000      -0.627971       -17.0880
 143   2.0000      -0.625832       -17.0298
 144   2.0000      -0.622686       -16.9441
 145   2.0000      -0.619387       -16.8544
 146   2.0000      -0.617677       -16.8078
 147   2.0000      -0.609880       -16.5957
 148   2.0000      -0.608857       -16.5678
 149   2.0000      -0.605368       -16.4729
 150   2.0000      -0.603282       -16.4161
 151   2.0000      -0.597031       -16.2461
 152   2.0000      -0.593273       -16.1438
 153   2.0000      -0.592832       -16.1318
 154   2.0000      -0.590131       -16.0583
 155   2.0000      -0.588907       -16.0250
 156   2.0000      -0.574699       -15.6384
 157   2.0000      -0.572088       -15.5673
 158   2.0000      -0.562204       -15.2983
 159   2.0000      -0.558503       -15.1976
 160   2.0000      -0.551698       -15.0125
 161   2.0000      -0.550766       -14.9871
 162   2.0000      -0.547838       -14.9074
 163   2.0000      -0.545907       -14.8549
 164   2.0000      -0.542084       -14.7509
 165   2.0000      -0.541009       -14.7216
 166   2.0000      -0.539315       -14.6755
 167   2.0000      -0.538748       -14.6601
 168   2.0000      -0.535034       -14.5590
 169   2.0000      -0.531651       -14.4669
 170   2.0000      -0.528596       -14.3838
 171   2.0000      -0.521797       -14.1988
 172   2.0000      -0.520566       -14.1653
 173   2.0000      -0.516156       -14.0453
 174   2.0000      -0.515556       -14.0290
 175   2.0000      -0.515406       -14.0249
 176   2.0000      -0.512466       -13.9449
 177   2.0000      -0.509675       -13.8689
 178   2.0000      -0.506926       -13.7942
 179   2.0000      -0.501922       -13.6580
 180   2.0000      -0.499308       -13.5869
 181   2.0000      -0.498363       -13.5611
 182   2.0000      -0.496006       -13.4970
 183   2.0000      -0.490864       -13.3571
 184   2.0000      -0.488698       -13.2981
 185   2.0000      -0.484547       -13.1852
 186   2.0000      -0.482053       -13.1173
 187   2.0000      -0.479964       -13.0605
 188   2.0000      -0.474730       -12.9181
 189   2.0000      -0.471922       -12.8416
 190   2.0000      -0.471559       -12.8318
 191   2.0000      -0.468212       -12.7407
 192   2.0000      -0.467765       -12.7285
 193   2.0000      -0.464707       -12.6453
 194   2.0000      -0.464214       -12.6319
 195   2.0000      -0.463091       -12.6013
 196   2.0000      -0.460398       -12.5281
 197   2.0000      -0.453813       -12.3489
 198   2.0000      -0.450509       -12.2590
 199   2.0000      -0.449534       -12.2324
 200   2.0000      -0.446464       -12.1489
 201   2.0000      -0.442081       -12.0296
 202   2.0000      -0.439754       -11.9663
 203   2.0000      -0.439154       -11.9500
 204   2.0000      -0.437253       -11.8983
 205   2.0000      -0.435442       -11.8490
 206   2.0000      -0.435127       -11.8404
 207   2.0000      -0.432928       -11.7806
 208   2.0000      -0.427222       -11.6253
 209   2.0000      -0.425821       -11.5872
 210   2.0000      -0.423085       -11.5127
 211   2.0000      -0.422567       -11.4986
 212   2.0000      -0.420134       -11.4324
 213   2.0000      -0.416377       -11.3302
 214   2.0000      -0.413821       -11.2606
 215   2.0000      -0.408027       -11.1030
 216   2.0000      -0.407797       -11.0967
 217   2.0000      -0.405971       -11.0470
 218   2.0000      -0.404476       -11.0063
 219   2.0000      -0.402485       -10.9522
 220   2.0000      -0.393364       -10.7040
 221   2.0000      -0.388489       -10.5713
 222   2.0000      -0.385369       -10.4864
 223   2.0000      -0.384681       -10.4677
 224   2.0000      -0.382709       -10.4140
 225   2.0000      -0.382174       -10.3995
 226   2.0000      -0.380914       -10.3652
 227   2.0000      -0.379745       -10.3334
 228   2.0000      -0.375712       -10.2236
 229   2.0000      -0.374252       -10.1839
 230   2.0000      -0.368429       -10.0255
 231   2.0000      -0.367430        -9.9983
 232   2.0000      -0.360147        -9.8001
 233   2.0000      -0.355691        -9.6788
 234   2.0000      -0.342740        -9.3264
 235   2.0000      -0.340480        -9.2649
 236   2.0000      -0.337372        -9.1804
 237   2.0000      -0.329260        -8.9596
 238   2.0000      -0.325776        -8.8648
 239   2.0000      -0.322887        -8.7862
 240   2.0000      -0.319084        -8.6827
 241   2.0000      -0.312975        -8.5165
 242   2.0000      -0.308114        -8.3842
 243   2.0000      -0.289612        -7.8808
 244   2.0000      -0.274117        -7.4591
 245   2.0000      -0.254660        -6.9297
 246   2.0000      -0.250677        -6.8213
 247   2.0000      -0.232707        -6.3323
 248   2.0000      -0.213037        -5.7970
 249   0.0000      -0.088959        -2.4207
 250   0.0000      -0.067759        -1.8438
 251   0.0000      -0.057119        -1.5543
 252   0.0000      -0.038503        -1.0477
 253   0.0000      -0.028451        -0.7742

MULLIKEN ATOMIC CHARGES
-----------------------
   0 C :   -0.019627
   1 C :   -0.071087
   2 C :    0.061016
   3 C :    0.028490
   4 C :   -0.060641
   5 S :    0.098505
   6 C :   -0.060109
   7 C :    0.040569
   8 C :    0.024192
   9 C :   -0.023194
  10 S :    0.085284
  11 C :   -0.012454
  12 C :   -0.128456
  13 S :    0.168882
  14 C :   -0.112629
  15 C :    0.111150
  16 C :    0.135665
  17 C :   -0.073164
  18 C :    0.097642
  19 N :    0.257520
  20 O :   -0.232613
  21 O :   -0.231465
  22 C :    0.107849
  23 N :    0.254313
  24 O :   -0.225974
  25 O :   -0.240118
  26 C :   -0.078226
  27 C :    0.021873
  28 C :    0.016652
  29 C :   -0.054824
  30 C :    0.021119
  31 C :    0.011924
  32 C :   -0.077377
  33 S :    0.098294
  34 C :    0.156435
  35 C :   -0.119692
  36 C :    0.010223
  37 C :    0.112659
  38 C :   -0.048689
  39 C :   -0.029433
  40 C :    0.109608
  41 C :    0.007900
  42 C :   -0.137497
  43 C :    0.068243
  44 C :    0.024246
  45 C :    0.068851
  46 C :    0.025969
  47 C :   -0.090987
  48 C :    0.126484
  49 C :   -0.021240
  50 C :   -0.045513
  51 C :   -0.009965
  52 C :    0.016767
  53 C :    0.141907
  54 C :   -0.104733
  55 C :    0.060781
  56 C :    0.209587
  57 C :   -0.161981
  58 O :   -0.297857
  59 C :    0.188733
  60 C :   -0.000722
  61 C :   -0.021665
  62 C :    0.059404
  63 C :   -0.139059
  64 C :    0.196588
  65 O :   -0.304061
  66 C :    0.189737
  67 H :    0.024536
  68 H :    0.030285
  69 H :   -0.007101
  70 H :   -0.009653
  71 H :   -0.010810
  72 H :   -0.010410
  73 H :   -0.009035
  74 H :    0.009465
  75 H :    0.001144
  76 H :   -0.006852
  77 H :    0.005422
  78 H :   -0.011990
  79 H :   -0.016620
  80 H :   -0.029152
  81 H :   -0.035087
  82 H :   -0.029946
  83 H :   -0.001560
  84 H :   -0.003477
  85 H :    0.023980
  86 H :    0.008126
  87 H :    0.021015
  88 H :   -0.002347
  89 H :   -0.003516
  90 H :    0.021380
  91 H :    0.008013
  92 H :    0.022723
  93 H :   -0.041191
  94 H :   -0.031185
  95 H :   -0.038291
  96 H :   -0.029053
  97 H :   -0.027608
  98 H :   -0.026720
  99 H :   -0.041401
 100 H :    0.035949
 101 H :    0.021448
 102 H :    0.021222
 103 H :   -0.024399
 104 H :   -0.023819
 105 H :   -0.036894
 106 H :    0.020757
 107 H :    0.020466
 108 H :    0.032179
Sum of atomic charges:   -0.0000000

LOEWDIN ATOMIC CHARGES
----------------------
   0 C :   -0.061261
   1 C :   -0.141010
   2 C :   -0.021963
   3 C :   -0.027937
   4 C :   -0.166664
   5 S :    0.366965
   6 C :   -0.187779
   7 C :   -0.026725
   8 C :   -0.038139
   9 C :   -0.140523
  10 S :    0.398411
  11 C :   -0.098444
  12 C :   -0.160964
  13 S :    0.481291
  14 C :   -0.162051
  15 C :   -0.047948
  16 C :   -0.055165
  17 C :    0.019674
  18 C :   -0.033683
  19 N :    0.284172
  20 O :   -0.199853
  21 O :   -0.197095
  22 C :   -0.031660
  23 N :    0.283714
  24 O :   -0.192580
  25 O :   -0.205385
  26 C :    0.021359
  27 C :   -0.064987
  28 C :   -0.022677
  29 C :   -0.177096
  30 C :   -0.041878
  31 C :   -0.060717
  32 C :   -0.148870
  33 S :    0.429186
  34 C :   -0.037914
  35 C :   -0.028739
  36 C :    0.006197
  37 C :   -0.015751
  38 C :   -0.016613
  39 C :   -0.014156
  40 C :   -0.019506
  41 C :    0.004632
  42 C :   -0.035444
  43 C :   -0.011475
  44 C :   -0.057894
  45 C :   -0.011952
  46 C :   -0.057463
  47 C :   -0.017047
  48 C :   -0.022105
  49 C :   -0.018569
  50 C :   -0.019481
  51 C :   -0.014955
  52 C :   -0.017224
  53 C :   -0.000228
  54 C :   -0.057166
  55 C :    0.015212
  56 C :    0.057062
  57 C :   -0.106609
  58 O :   -0.083847
  59 C :    0.080436
  60 C :    0.011432
  61 C :   -0.065779
  62 C :   -0.001181
  63 C :   -0.114316
  64 C :    0.045795
  65 O :   -0.090011
  66 C :    0.080032
  67 H :    0.030831
  68 H :    0.030106
  69 H :    0.035305
  70 H :    0.033113
  71 H :    0.033031
  72 H :    0.033559
  73 H :    0.034660
  74 H :    0.027417
  75 H :    0.042335
  76 H :    0.024382
  77 H :    0.038813
  78 H :    0.032616
  79 H :    0.029561
  80 H :    0.017369
  81 H :    0.027558
  82 H :    0.026613
  83 H :    0.020207
  84 H :    0.019328
  85 H :    0.026344
  86 H :    0.023702
  87 H :    0.025108
  88 H :    0.019707
  89 H :    0.019611
  90 H :    0.025453
  91 H :    0.023875
  92 H :    0.026028
  93 H :    0.023302
  94 H :    0.025172
  95 H :    0.026068
  96 H :    0.024964
  97 H :    0.027489
  98 H :    0.019799
  99 H :    0.015918
 100 H :    0.027288
 101 H :    0.016351
 102 H :    0.016098
 103 H :    0.019189
 104 H :    0.020798
 105 H :    0.017112
 106 H :    0.015541
 107 H :    0.015728
 108 H :    0.025459

  Mayer bond orders larger than 0.100000
B(  0-C ,  1-C ) :   1.8644 B(  0-C , 67-H ) :   0.9512 B(  0-C , 68-H ) :   0.9416
B(  1-C ,  2-C ) :   1.0793 B(  1-C ,  5-S ) :   1.0076 B(  2-C ,  3-C ) :   1.6627
B(  2-C , 69-H ) :   0.9927 B(  3-C ,  4-C ) :   1.1514 B(  3-C , 70-H ) :   0.9924
B(  4-C ,  5-S ) :   1.0603 B(  4-C ,  6-C ) :   1.5455 B(  6-C ,  7-C ) :   1.1753
B(  6-C , 10-S ) :   1.0330 B(  7-C ,  8-C ) :   1.5972 B(  7-C , 71-H ) :   0.9925
B(  8-C ,  9-C ) :   1.1446 B(  8-C , 72-H ) :   0.9983 B(  9-C , 10-S ) :   1.0434
B(  9-C , 11-C ) :   1.5949 B( 11-C , 12-C ) :   1.1820 B( 11-C , 73-H ) :   0.9394
B( 12-C , 13-S ) :   1.1487 B( 12-C , 16-C ) :   1.3183 B( 13-S , 14-C ) :   1.1482
B( 14-C , 15-C ) :   1.3460 B( 14-C , 27-C ) :   1.1607 B( 15-C , 16-C ) :   1.1889
B( 15-C , 26-C ) :   1.1616 B( 16-C , 17-C ) :   1.1619 B( 17-C , 18-C ) :   1.5624
B( 17-C , 74-H ) :   0.9677 B( 18-C , 19-N ) :   0.8791 B( 18-C , 22-C ) :   1.2145
B( 19-N , 20-O ) :   1.5417 B( 19-N , 21-O ) :   1.5534 B( 20-O , 21-O ) :   0.2715
B( 22-C , 23-N ) :   0.8767 B( 22-C , 26-C ) :   1.5464 B( 23-N , 24-O ) :   1.5614
B( 23-N , 25-O ) :   1.5349 B( 24-O , 25-O ) :   0.2724 B( 26-C , 75-H ) :   0.9899
B( 27-C , 28-C ) :   1.6279 B( 27-C , 76-H ) :   0.9482 B( 28-C , 29-C ) :   1.1852
B( 28-C , 77-H ) :   0.9730 B( 29-C , 30-C ) :   1.4625 B( 29-C , 33-S ) :   1.0977
B( 30-C , 31-C ) :   1.2599 B( 30-C , 78-H ) :   1.0012 B( 31-C , 32-C ) :   1.5169
B( 31-C , 79-H ) :   0.9940 B( 32-C , 33-S ) :   1.1331 B( 32-C , 34-C ) :   1.0483
B( 34-C , 35-C ) :   1.2867 B( 34-C , 39-C ) :   1.3612 B( 35-C , 36-C ) :   1.4121
B( 35-C , 80-H ) :   0.9945 B( 36-C , 37-C ) :   1.3664 B( 36-C , 42-C ) :   0.9136
B( 37-C , 38-C ) :   1.3332 B( 37-C , 40-C ) :   0.9974 B( 38-C , 39-C ) :   1.3867
B( 38-C , 81-H ) :   0.9918 B( 39-C , 82-H ) :   0.9885 B( 40-C , 41-C ) :   1.3551
B( 40-C , 50-C ) :   1.3417 B( 41-C , 42-C ) :   0.9150 B( 41-C , 47-C ) :   1.4061
B( 42-C , 43-C ) :   1.0339 B( 42-C , 45-C ) :   1.0420 B( 43-C , 44-C ) :   1.1021
B( 43-C , 83-H ) :   0.9399 B( 43-C , 84-H ) :   0.9394 B( 44-C , 85-H ) :   0.9643
B( 44-C , 86-H ) :   0.9638 B( 44-C , 87-H ) :   0.9641 B( 45-C , 46-C ) :   1.1009
B( 45-C , 88-H ) :   0.9382 B( 45-C , 89-H ) :   0.9383 B( 46-C , 90-H ) :   0.9643
B( 46-C , 91-H ) :   0.9640 B( 46-C , 92-H ) :   0.9644 B( 47-C , 48-C ) :   1.3006
B( 47-C , 93-H ) :   1.0018 B( 48-C , 49-C ) :   1.3346 B( 48-C , 51-C ) :   1.0574
B( 49-C , 50-C ) :   1.3774 B( 49-C , 94-H ) :   0.9927 B( 50-C , 95-H ) :   0.9908
B( 51-C , 52-C ) :   1.6630 B( 51-C , 96-H ) :   0.9814 B( 52-C , 53-C ) :   1.1178
B( 52-C , 97-H ) :   0.9742 B( 53-C , 54-C ) :   1.5296 B( 53-C , 57-C ) :   1.0161
B( 54-C , 55-C ) :   1.1061 B( 54-C , 98-H ) :   1.0248 B( 55-C , 56-C ) :   1.0413
B( 55-C , 60-C ) :   1.5453 B( 56-C , 57-C ) :   1.5967 B( 56-C , 58-O ) :   1.1616
B( 57-C , 99-H ) :   1.0174 B( 58-O , 59-C ) :   0.9609 B( 59-C ,100-H ) :   0.9802
B( 59-C ,101-H ) :   0.9680 B( 59-C ,102-H ) :   0.9674 B( 60-C , 61-C ) :   1.1076
B( 60-C , 64-C ) :   1.0389 B( 61-C , 62-C ) :   1.6542 B( 61-C ,103-H ) :   1.0128
B( 62-C , 63-C ) :   1.0384 B( 62-C ,104-H ) :   1.0004 B( 63-C , 64-C ) :   1.6022
B( 63-C ,105-H ) :   1.0170 B( 64-C , 65-O ) :   1.1490 B( 65-O , 66-C ) :   0.9628
B( 66-C ,106-H ) :   0.9674 B( 66-C ,107-H ) :   0.9673 B( 66-C ,108-H ) :   0.9811

-----------------------------------------------------------------------------
         ABSORPTION SPECTRUM VIA TRANSITION ELECTRIC DIPOLE MOMENTS
-----------------------------------------------------------------------------
State   Energy  Wavelength   fosc         T2         TX        TY        TZ
        (cm-1)    (nm)                  (au**2)     (au)      (au)      (au)
-----------------------------------------------------------------------------
   0   12963.0    771.4   1.294221227  32.86836   1.69060   5.47808   0.03027
   1   18110.8    552.2   0.349016279   6.34429  -0.02201  -1.76478  -1.79704
   2   18994.3    526.5   0.073415409   1.27245   0.95047   0.45569   0.40174
   3   19108.3    523.3   0.092532671   1.59422  -1.08554   0.62628   0.15362
   4   20657.8    484.1   0.521087133   8.30429  -1.71215  -2.31788   0.01487
   5   22454.8    445.3   0.256507700   3.76068  -0.39643  -1.64490  -0.94754
   6   24520.9    407.8   0.508332635   6.82477   0.77845   2.20821   1.15869
   7   25295.0    395.3   0.010497162   0.13662  -0.08654  -0.06147  -0.35405
   8   27260.2    366.8   0.958970365  11.58114   0.31122   2.15646   2.61418
   9   27396.9    365.0   0.255858867   3.07450  -1.10227  -1.15124   0.73084
  10   28378.0    352.4   0.048478563   0.56240   0.69137  -0.25862   0.13238
  11   29116.5    343.4   0.020256365   0.22903   0.06050  -0.47266  -0.04432
  12   30287.0    330.2   0.010502975   0.11416  -0.07708   0.21962   0.24493
  13   30790.8    324.8   0.066580555   0.71187  -0.01992   0.66931   0.51333
  14   31504.6    317.4   0.025571154   0.26721   0.43466   0.09425   0.26344
  15   32150.6    311.0   0.112870697   1.15576   0.01505  -0.05739  -1.07342
  16   32378.3    308.8   0.028514464   0.28993  -0.20034  -0.33881   0.36742
  17   32744.1    305.4   0.261867170   2.63283   0.63530   0.67397   1.33229
  18   33256.2    300.7   0.032411707   0.32085  -0.14202   0.30136   0.45811
  19   33481.5    298.7   0.268228272   2.63739   0.24763  -1.00173  -1.25404
  20   34339.2    291.2   0.085601603   0.82067  -0.47186  -0.33365  -0.69763
  21   34723.3    288.0   0.010291155   0.09757   0.06880  -0.19784   0.23173
  22   34994.9    285.8   0.099273212   0.93390   0.71105   0.54087   0.36847
  23   35621.8    280.7   0.044907430   0.41503  -0.57158   0.25170  -0.15803
  24   35880.4    278.7   0.072093163   0.66147  -0.47887   0.00720  -0.65735
  25   36154.6    276.6   0.024757414   0.22543  -0.06020   0.07782  -0.46449
  26   36482.6    274.1   0.008881461   0.08014  -0.04237   0.04814  -0.27574
  27   36771.9    271.9   0.081202299   0.72699   0.04393   0.82722   0.20189
  28   37141.2    269.2   0.006502355   0.05764   0.22807  -0.05153   0.05446
  29   37286.6    268.2   0.035725964   0.31543  -0.40098  -0.18653   0.34620
  30   37331.8    267.9   0.104763380   0.92386  -0.01350  -0.95410   0.11567
  31   37337.5    267.8   0.011255774   0.09924  -0.09384   0.10013   0.28357
  32   38096.1    262.5   0.046566796   0.40241   0.57657  -0.22983   0.13101
  33   38327.0    260.9   0.140783319   1.20927   0.45613   0.10713   0.99486
  34   38413.0    260.3   0.010747614   0.09211  -0.09515  -0.21190   0.19534
  35   39022.5    256.3   0.109032219   0.91985   0.26345  -0.53559  -0.75072
  36   39134.9    255.5   0.015058352   0.12667   0.10784  -0.32389  -0.10070
  37   39377.0    254.0   0.059118156   0.49426  -0.34270  -0.58363  -0.19025
  38   39791.7    251.3   0.018446533   0.15262   0.05117   0.19867  -0.33246
  39   39876.1    250.8   0.083676604   0.69082  -0.28435  -0.35644  -0.69493

FINAL SINGLE POINT ENERGY     -4270.563532753418

DIPOLE MOMENT
-------------
                                X             Y             Z
Electronic contribution:     63.42939     114.36742      41.87459
Nuclear contribution   :    -65.91742    -113.53402     -44.26414
                        -----------------------------------------
Total Dipole Moment    :     -2.48803       0.83339      -2.38956
                        -----------------------------------------
Magnitude (a.u.)       :      3.54892
Magnitude (Debye)      :      9.02064

Rotational constants in cm-1:     0.002241     0.000187     0.000183
Rotational constants in MHz :    67.196909     5.610841     5.476600

                             ****ORCA TERMINATED NORMALLY****
TOTAL RUN TIME: 0 days 0 hours 10 minutes 10 seconds 358 msec
