                         Program Version 4.2.0 -  RELEASE  -
|  1> # ORCA input file
|  2> # SCF done       -191.987487530368          0.000539667414
|  3> ! CAM-B3LYP def2-SVP def2/J RIJCOSX Grid4 TightSCF
|  4> %maxcore 5000
|  5> %tddft
|  6>     Mode sTDDFT
|  7>     Ethresh 5.0
|  8>     maxcore 5000
|  9> end
| 10>
| 11> %pal
| 12>   nprocs 6
| 13>   end
| 14> * xyz 0 1
| 15>    C        9.74350        -9.51328       -12.13537
| 16>    C        8.99523        -8.65198       -11.43416
| 17>    C        8.60753        -7.32028       -11.80791
| 18>    C        7.84475        -6.68483       -10.89380
| 19>    C        7.56641        -7.45337        -9.72531
| 20>    S        8.31872        -9.02986        -9.84098
| 21>    C        6.82140        -7.07461        -8.63710
| 22>    C        6.15367        -5.84024        -8.42166
| 23>    C        5.48405        -5.77611        -7.24597
| 24>    C        5.58268        -6.95280        -6.44398
| 25>    S        6.56806        -8.14404        -7.26951
| 26>    C        4.92385        -7.13945        -5.26484
| 27>    C        4.95801        -8.25145        -4.37883
| 28>    O        3.82136        -8.48289        -3.68142
| 29>    C        4.00859        -9.55996        -2.88110
| 30>    C        5.29537       -10.02216        -3.03291
| 31>    C        5.91262        -9.18657        -3.98709
| 32>    C        7.35573        -9.28108        -4.32058
| 33>    F        7.91139        -8.09968        -4.63348
| 34>    F        8.06085        -9.75309        -3.27419
| 35>    F        7.62779       -10.12066        -5.33897
| 36>    C        2.93299       -10.06515        -2.08593
| 37>    C        1.70516        -9.51850        -2.08066
| 38>    C        0.60522       -10.03365        -1.28752
| 39>    C        0.81949       -10.44078        -0.00457
| 40>    S       -0.58475       -10.98631         0.82148
| 41>    C       -1.52816       -10.70739        -0.60918
| 42>    C       -0.77920       -10.18668        -1.67569
| 43>    C       -1.42954        -9.95120        -2.91074
| 44>    C       -0.62759        -9.38259        -4.05170
| 45>    C       -0.60912        -7.85181        -4.00797
| 46>    C       -2.78397       -10.22132        -3.05801
| 47>    C       -3.48286        -9.93541        -4.36213
| 48>    C       -3.43157       -11.14097        -5.30609
| 49>    C       -3.52629       -10.77366        -1.98579
| 50>    C       -4.92356       -11.14369        -1.88240
| 51>    C       -5.24299       -11.56206        -0.61882
| 52>    S       -3.93260       -11.57801         0.48278
| 53>    C       -2.87699       -10.97802        -0.75842
| 54>    C       -5.91921       -11.17551        -2.92884
| 55>    C       -7.23914       -11.02553        -2.69694
| 56>    C       -8.25171       -11.12348        -3.69514
| 57>    S       -7.85237       -11.02728        -5.37713
| 58>    C       -9.51073       -11.18757        -5.81624
| 59>    C      -10.34211       -11.32742        -4.75533
| 60>    C      -11.81685       -11.48554        -4.91381
| 61>    C       -9.63264       -11.30298        -3.50731
| 62>    C      -10.12670       -11.52446        -2.19490
| 63>    C      -11.36758       -11.82127        -1.71723
| 64>    C      -11.58805       -12.10490        -0.34264
| 65>    C      -10.58455       -12.30615         0.56382
| 66>    C      -10.75068       -12.55607         1.93266
| 67>    C       -9.68070       -12.67713         2.79216
| 68>    C       -9.72457       -12.94632         4.21284
| 69>    C      -10.83965       -13.19297         4.97549
| 70>    C      -10.80964       -13.44670         6.36164
| 71>    N      -10.85415       -13.65683         7.48991
| 72>    C      -12.16528       -13.23891         4.49910
| 73>    N      -13.27120       -13.29944         4.19369
| 74>    C       -8.35186       -12.93029         4.71468
| 75>    C       -7.47816       -12.67249         3.63126
| 76>    C       -8.26734       -12.51025         2.39807
| 77>    O       -7.80375       -12.27578         1.29443
| 78>    C       -6.11440       -12.59297         3.77251
| 79>    C       -5.58341       -12.77867         5.05270
| 80>    C       -6.46125       -13.03729         6.13136
| 81>    C       -7.84173       -13.11674         5.98552
| 82>    S       -5.59379       -13.23582         7.62443
| 83>    C       -4.08624       -12.97034         6.78835
| 84>    C       -4.22158       -12.74592         5.46026
| 85>   Br       -2.47603       -13.01866         7.74929
| 86>    H       10.13379        -9.24376       -13.10087
| 87>    H        9.97700       -10.49297       -11.76078
| 88>    H        8.92204        -6.90126       -12.74732
| 89>    H        7.46644        -5.68447       -11.00800
| 90>    H        6.18777        -5.04398        -9.14345
| 91>    H        4.92027        -4.92406        -6.90934
| 92>    H        4.20207        -6.38270        -4.98480
| 93>    H        5.75331       -10.84322        -2.52108
| 94>    H        3.15362       -10.95752        -1.51938
| 95>    H        1.53941        -8.62911        -2.66781
| 96>    H        1.75021       -10.40713         0.52743
| 97>    H        0.39052        -9.76840        -3.99279
| 98>    H       -1.03151        -9.70698        -5.00871
| 99>    H       -0.28769        -7.49390        -3.03245
|100>    H       -1.60321        -7.44962        -4.19131
|101>    H        0.06606        -7.46029        -4.76590
|102>    H       -3.03053        -9.07740        -4.85654
|103>    H       -4.51874        -9.66501        -4.15563
|104>    H       -2.41544       -11.31628        -5.65193
|105>    H       -4.06554       -10.96953        -6.17353
|106>    H       -3.76256       -12.04672        -4.80301
|107>    H       -6.19222       -11.91756        -0.26789
|108>    H       -5.59928       -11.39781        -3.93420
|109>    H       -7.56244       -10.80836        -1.68944
|110>    H       -9.77326       -11.17327        -6.85590
|111>    H      -12.08777       -11.40622        -5.96402
|112>    H      -12.34591       -10.71252        -4.35882
|113>    H      -12.13638       -12.46053        -4.54815
|114>    H       -9.35041       -11.47033        -1.44826
|115>    H      -12.23161       -11.84293        -2.36128
|116>    H      -12.61586       -12.18207        -0.00957
|117>    H       -9.56250       -12.27904         0.22481
|118>    H      -11.75750       -12.64364         2.31894
|119>    H       -5.47567       -12.39316         2.92573
|120>    H       -8.46528       -13.31416         6.84121
|121>    H       -3.39973       -12.56415         4.79184
|122> *
|123>
|124>                          ****END OF INPUT****

CARTESIAN COORDINATES (ANGSTROEM)
---------------------------------
  C      9.743500   -9.513280  -12.135370
  C      8.995230   -8.651980  -11.434160
  C      8.607530   -7.320280  -11.807910
  C      7.844750   -6.684830  -10.893800
  C      7.566410   -7.453370   -9.725310
  S      8.318720   -9.029860   -9.840980
  C      6.821400   -7.074610   -8.637100
  C      6.153670   -5.840240   -8.421660
  C      5.484050   -5.776110   -7.245970
  C      5.582680   -6.952800   -6.443980
  S      6.568060   -8.144040   -7.269510
  C      4.923850   -7.139450   -5.264840
  C      4.958010   -8.251450   -4.378830
  O      3.821360   -8.482890   -3.681420
  C      4.008590   -9.559960   -2.881100
  C      5.295370  -10.022160   -3.032910
  C      5.912620   -9.186570   -3.987090
  C      7.355730   -9.281080   -4.320580
  F      7.911390   -8.099680   -4.633480
  F      8.060850   -9.753090   -3.274190
  F      7.627790  -10.120660   -5.338970
  C      2.932990  -10.065150   -2.085930
  C      1.705160   -9.518500   -2.080660
  C      0.605220  -10.033650   -1.287520
  C      0.819490  -10.440780   -0.004570
  S     -0.584750  -10.986310    0.821480
  C     -1.528160  -10.707390   -0.609180
  C     -0.779200  -10.186680   -1.675690
  C     -1.429540   -9.951200   -2.910740
  C     -0.627590   -9.382590   -4.051700
  C     -0.609120   -7.851810   -4.007970
  C     -2.783970  -10.221320   -3.058010
  C     -3.482860   -9.935410   -4.362130
  C     -3.431570  -11.140970   -5.306090
  C     -3.526290  -10.773660   -1.985790
  C     -4.923560  -11.143690   -1.882400
  C     -5.242990  -11.562060   -0.618820
  S     -3.932600  -11.578010    0.482780
  C     -2.876990  -10.978020   -0.758420
  C     -5.919210  -11.175510   -2.928840
  C     -7.239140  -11.025530   -2.696940
  C     -8.251710  -11.123480   -3.695140
  S     -7.852370  -11.027280   -5.377130
  C     -9.510730  -11.187570   -5.816240
  C    -10.342110  -11.327420   -4.755330
  C    -11.816850  -11.485540   -4.913810
  C     -9.632640  -11.302980   -3.507310
  C    -10.126700  -11.524460   -2.194900
  C    -11.367580  -11.821270   -1.717230
  C    -11.588050  -12.104900   -0.342640
  C    -10.584550  -12.306150    0.563820
  C    -10.750680  -12.556070    1.932660
  C     -9.680700  -12.677130    2.792160
  C     -9.724570  -12.946320    4.212840
  C    -10.839650  -13.192970    4.975490
  C    -10.809640  -13.446700    6.361640
  N    -10.854150  -13.656830    7.489910
  C    -12.165280  -13.238910    4.499100
  N    -13.271200  -13.299440    4.193690
  C     -8.351860  -12.930290    4.714680
  C     -7.478160  -12.672490    3.631260
  C     -8.267340  -12.510250    2.398070
  O     -7.803750  -12.275780    1.294430
  C     -6.114400  -12.592970    3.772510
  C     -5.583410  -12.778670    5.052700
  C     -6.461250  -13.037290    6.131360
  C     -7.841730  -13.116740    5.985520
  S     -5.593790  -13.235820    7.624430
  C     -4.086240  -12.970340    6.788350
  C     -4.221580  -12.745920    5.460260
  Br    -2.476030  -13.018660    7.749290
  H     10.133790   -9.243760  -13.100870
  H      9.977000  -10.492970  -11.760780
  H      8.922040   -6.901260  -12.747320
  H      7.466440   -5.684470  -11.008000
  H      6.187770   -5.043980   -9.143450
  H      4.920270   -4.924060   -6.909340
  H      4.202070   -6.382700   -4.984800
  H      5.753310  -10.843220   -2.521080
  H      3.153620  -10.957520   -1.519380
  H      1.539410   -8.629110   -2.667810
  H      1.750210  -10.407130    0.527430
  H      0.390520   -9.768400   -3.992790
  H     -1.031510   -9.706980   -5.008710
  H     -0.287690   -7.493900   -3.032450
  H     -1.603210   -7.449620   -4.191310
  H      0.066060   -7.460290   -4.765900
  H     -3.030530   -9.077400   -4.856540
  H     -4.518740   -9.665010   -4.155630
  H     -2.415440  -11.316280   -5.651930
  H     -4.065540  -10.969530   -6.173530
  H     -3.762560  -12.046720   -4.803010
  H     -6.192220  -11.917560   -0.267890
  H     -5.599280  -11.397810   -3.934200
  H     -7.562440  -10.808360   -1.689440
  H     -9.773260  -11.173270   -6.855900
  H    -12.087770  -11.406220   -5.964020
  H    -12.345910  -10.712520   -4.358820
  H    -12.136380  -12.460530   -4.548150
  H     -9.350410  -11.470330   -1.448260
  H    -12.231610  -11.842930   -2.361280
  H    -12.615860  -12.182070   -0.009570
  H     -9.562500  -12.279040    0.224810
  H    -11.757500  -12.643640    2.318940
  H     -5.475670  -12.393160    2.925730
  H     -8.465280  -13.314160    6.841210
  H     -3.399730  -12.564150    4.791840

 Total Charge           Charge          ....    0
 Multiplicity           Mult            ....    1
 Number of Electrons    NEL             ....  566
 Basis Dimension        Dim             .... 1216

ORBITAL ENERGIES
----------------

  NO   OCC          E(Eh)            E(eV)
   0   2.0000    -482.881970    -13139.8864
   1   2.0000     -88.971379     -2421.0343
   2   2.0000     -88.960467     -2420.7374
   3   2.0000     -88.953406     -2420.5452
   4   2.0000     -88.950742     -2420.4728
   5   2.0000     -88.939803     -2420.1751
   6   2.0000     -88.938476     -2420.1390
   7   2.0000     -62.559678     -1702.3354
   8   2.0000     -56.393626     -1534.5486
   9   2.0000     -56.390918     -1534.4749
  10   2.0000     -56.390879     -1534.4738
  11   2.0000     -24.785476      -674.4471
  12   2.0000     -24.783620      -674.3966
  13   2.0000     -24.780641      -674.3155
  14   2.0000     -19.291792      -524.9563
  15   2.0000     -19.216905      -522.9186
  16   2.0000     -14.409439      -392.1008
  17   2.0000     -14.407741      -392.0546
  18   2.0000     -10.507344      -285.9194
  19   2.0000     -10.366016      -282.0736
  20   2.0000     -10.354686      -281.7653
  21   2.0000     -10.344685      -281.4932
  22   2.0000     -10.334615      -281.2192
  23   2.0000     -10.333386      -281.1857
  24   2.0000     -10.330406      -281.1046
  25   2.0000     -10.321154      -280.8529
  26   2.0000     -10.314328      -280.6671
  27   2.0000     -10.312693      -280.6226
  28   2.0000     -10.312683      -280.6224
  29   2.0000     -10.312003      -280.6039
  30   2.0000     -10.311226      -280.5827
  31   2.0000     -10.308354      -280.5046
  32   2.0000     -10.307039      -280.4688
  33   2.0000     -10.306970      -280.4669
  34   2.0000     -10.303028      -280.3596
  35   2.0000     -10.302901      -280.3562
  36   2.0000     -10.301244      -280.3111
  37   2.0000     -10.300540      -280.2920
  38   2.0000     -10.297299      -280.2037
  39   2.0000     -10.296800      -280.1902
  40   2.0000     -10.296756      -280.1890
  41   2.0000     -10.296201      -280.1739
  42   2.0000     -10.293510      -280.1007
  43   2.0000     -10.292601      -280.0759
  44   2.0000     -10.292539      -280.0742
  45   2.0000     -10.290661      -280.0231
  46   2.0000     -10.290270      -280.0125
  47   2.0000     -10.289582      -279.9938
  48   2.0000     -10.288380      -279.9610
  49   2.0000     -10.287352      -279.9331
  50   2.0000     -10.287132      -279.9271
  51   2.0000     -10.286783      -279.9176
  52   2.0000     -10.286743      -279.9165
  53   2.0000     -10.286183      -279.9013
  54   2.0000     -10.285487      -279.8823
  55   2.0000     -10.283689      -279.8334
  56   2.0000     -10.281877      -279.7841
  57   2.0000     -10.281379      -279.7705
  58   2.0000     -10.281251      -279.7671
  59   2.0000     -10.281126      -279.7637
  60   2.0000     -10.281061      -279.7619
  61   2.0000     -10.280630      -279.7502
  62   2.0000     -10.278768      -279.6995
  63   2.0000     -10.278471      -279.6914
  64   2.0000     -10.277235      -279.6578
  65   2.0000     -10.276575      -279.6398
  66   2.0000     -10.275101      -279.5997
  67   2.0000     -10.273439      -279.5545
  68   2.0000     -10.272984      -279.5421
  69   2.0000     -10.271623      -279.5051
  70   2.0000     -10.270526      -279.4752
  71   2.0000     -10.265777      -279.3460
  72   2.0000     -10.262867      -279.2668
  73   2.0000     -10.259328      -279.1705
  74   2.0000     -10.257449      -279.1194
  75   2.0000      -8.789097      -239.1635
  76   2.0000      -8.067363      -219.5241
  77   2.0000      -8.056428      -219.2265
  78   2.0000      -8.048945      -219.0229
  79   2.0000      -8.046957      -218.9688
  80   2.0000      -8.036114      -218.6738
  81   2.0000      -8.035275      -218.6509
  82   2.0000      -6.625396      -180.2862
  83   2.0000      -6.610837      -179.8900
  84   2.0000      -6.610630      -179.8844
  85   2.0000      -6.037060      -164.2767
  86   2.0000      -6.032781      -164.1603
  87   2.0000      -6.028573      -164.0458
  88   2.0000      -6.025632      -163.9658
  89   2.0000      -6.021425      -163.8513
  90   2.0000      -6.018748      -163.7785
  91   2.0000      -6.018406      -163.7691
  92   2.0000      -6.016478      -163.7167
  93   2.0000      -6.014217      -163.6552
  94   2.0000      -6.012221      -163.6008
  95   2.0000      -6.010828      -163.5629
  96   2.0000      -6.008632      -163.5032
  97   2.0000      -6.005885      -163.4284
  98   2.0000      -6.005078      -163.4065
  99   2.0000      -6.001842      -163.3184
 100   2.0000      -6.001182      -163.3005
 101   2.0000      -5.996795      -163.1811
 102   2.0000      -5.995770      -163.1532
 103   2.0000      -2.741247       -74.5931
 104   2.0000      -2.737182       -74.4825
 105   2.0000      -2.737051       -74.4789
 106   2.0000      -2.725472       -74.1639
 107   2.0000      -2.725449       -74.1632
 108   2.0000      -1.373281       -37.3689
 109   2.0000      -1.276635       -34.7390
 110   2.0000      -1.272562       -34.6282
 111   2.0000      -1.211368       -32.9630
 112   2.0000      -1.129663       -30.7397
 113   2.0000      -1.017619       -27.6908
 114   2.0000      -1.007442       -27.4139
 115   2.0000      -1.001126       -27.2420
 116   2.0000      -0.992470       -27.0065
 117   2.0000      -0.992437       -27.0056
 118   2.0000      -0.987420       -26.8691
 119   2.0000      -0.983854       -26.7720
 120   2.0000      -0.970741       -26.4152
 121   2.0000      -0.969730       -26.3877
 122   2.0000      -0.939933       -25.5769
 123   2.0000      -0.927012       -25.2253
 124   2.0000      -0.925071       -25.1725
 125   2.0000      -0.918103       -24.9828
 126   2.0000      -0.913668       -24.8622
 127   2.0000      -0.906480       -24.6666
 128   2.0000      -0.903285       -24.5796
 129   2.0000      -0.896366       -24.3914
 130   2.0000      -0.890023       -24.2188
 131   2.0000      -0.881198       -23.9786
 132   2.0000      -0.872642       -23.7458
 133   2.0000      -0.871432       -23.7129
 134   2.0000      -0.869046       -23.6479
 135   2.0000      -0.858638       -23.3647
 136   2.0000      -0.852944       -23.2098
 137   2.0000      -0.845858       -23.0170
 138   2.0000      -0.845283       -23.0013
 139   2.0000      -0.839561       -22.8456
 140   2.0000      -0.824824       -22.4446
 141   2.0000      -0.822123       -22.3711
 142   2.0000      -0.819498       -22.2997
 143   2.0000      -0.812248       -22.1024
 144   2.0000      -0.799545       -21.7567
 145   2.0000      -0.792532       -21.5659
 146   2.0000      -0.787005       -21.4155
 147   2.0000      -0.783848       -21.3296
 148   2.0000      -0.764262       -20.7966
 149   2.0000      -0.761157       -20.7121
 150   2.0000      -0.754260       -20.5245
 151   2.0000      -0.752373       -20.4731
 152   2.0000      -0.728495       -19.8234
 153   2.0000      -0.722287       -19.6544
 154   2.0000      -0.721430       -19.6311
 155   2.0000      -0.712858       -19.3978
 156   2.0000      -0.705045       -19.1853
 157   2.0000      -0.700507       -19.0618
 158   2.0000      -0.692915       -18.8552
 159   2.0000      -0.691228       -18.8093
 160   2.0000      -0.688605       -18.7379
 161   2.0000      -0.685764       -18.6606
 162   2.0000      -0.682095       -18.5607
 163   2.0000      -0.677612       -18.4388
 164   2.0000      -0.667231       -18.1563
 165   2.0000      -0.656554       -17.8657
 166   2.0000      -0.653295       -17.7770
 167   2.0000      -0.652689       -17.7606
 168   2.0000      -0.651517       -17.7287
 169   2.0000      -0.646653       -17.5963
 170   2.0000      -0.639861       -17.4115
 171   2.0000      -0.634433       -17.2638
 172   2.0000      -0.627473       -17.0744
 173   2.0000      -0.623814       -16.9748
 174   2.0000      -0.620709       -16.8904
 175   2.0000      -0.612267       -16.6606
 176   2.0000      -0.610616       -16.6157
 177   2.0000      -0.605339       -16.4721
 178   2.0000      -0.603955       -16.4345
 179   2.0000      -0.599339       -16.3088
 180   2.0000      -0.597777       -16.2663
 181   2.0000      -0.590048       -16.0560
 182   2.0000      -0.585892       -15.9429
 183   2.0000      -0.582135       -15.8407
 184   2.0000      -0.570624       -15.5275
 185   2.0000      -0.564898       -15.3717
 186   2.0000      -0.560903       -15.2629
 187   2.0000      -0.558045       -15.1852
 188   2.0000      -0.552895       -15.0450
 189   2.0000      -0.546072       -14.8594
 190   2.0000      -0.545085       -14.8325
 191   2.0000      -0.542186       -14.7536
 192   2.0000      -0.540437       -14.7060
 193   2.0000      -0.535657       -14.5760
 194   2.0000      -0.534738       -14.5510
 195   2.0000      -0.533553       -14.5187
 196   2.0000      -0.533361       -14.5135
 197   2.0000      -0.529687       -14.4135
 198   2.0000      -0.527435       -14.3522
 199   2.0000      -0.523376       -14.2418
 200   2.0000      -0.521417       -14.1885
 201   2.0000      -0.518375       -14.1057
 202   2.0000      -0.514897       -14.0111
 203   2.0000      -0.513010       -13.9597
 204   2.0000      -0.510506       -13.8916
 205   2.0000      -0.508151       -13.8275
 206   2.0000      -0.506738       -13.7890
 207   2.0000      -0.504164       -13.7190
 208   2.0000      -0.503342       -13.6966
 209   2.0000      -0.499701       -13.5976
 210   2.0000      -0.497899       -13.5485
 211   2.0000      -0.495786       -13.4910
 212   2.0000      -0.492390       -13.3986
 213   2.0000      -0.491740       -13.3809
 214   2.0000      -0.490939       -13.3591
 215   2.0000      -0.489953       -13.3323
 216   2.0000      -0.489586       -13.3223
 217   2.0000      -0.488860       -13.3026
 218   2.0000      -0.488485       -13.2924
 219   2.0000      -0.485061       -13.1992
 220   2.0000      -0.480629       -13.0786
 221   2.0000      -0.479220       -13.0402
 222   2.0000      -0.476608       -12.9692
 223   2.0000      -0.470540       -12.8040
 224   2.0000      -0.470229       -12.7956
 225   2.0000      -0.468792       -12.7565
 226   2.0000      -0.464670       -12.6443
 227   2.0000      -0.462821       -12.5940
 228   2.0000      -0.460507       -12.5310
 229   2.0000      -0.458697       -12.4818
 230   2.0000      -0.458181       -12.4677
 231   2.0000      -0.456014       -12.4088
 232   2.0000      -0.455682       -12.3997
 233   2.0000      -0.453101       -12.3295
 234   2.0000      -0.452546       -12.3144
 235   2.0000      -0.448364       -12.2006
 236   2.0000      -0.445189       -12.1142
 237   2.0000      -0.444869       -12.1055
 238   2.0000      -0.442983       -12.0542
 239   2.0000      -0.442422       -12.0389
 240   2.0000      -0.440201       -11.9785
 241   2.0000      -0.438103       -11.9214
 242   2.0000      -0.436165       -11.8686
 243   2.0000      -0.434856       -11.8330
 244   2.0000      -0.433261       -11.7896
 245   2.0000      -0.428760       -11.6671
 246   2.0000      -0.427998       -11.6464
 247   2.0000      -0.423973       -11.5369
 248   2.0000      -0.421578       -11.4717
 249   2.0000      -0.420540       -11.4435
 250   2.0000      -0.420058       -11.4304
 251   2.0000      -0.419065       -11.4034
 252   2.0000      -0.417674       -11.3655
 253   2.0000      -0.414324       -11.2743
 254   2.0000      -0.409760       -11.1501
 255   2.0000      -0.408579       -11.1180
 256   2.0000      -0.401191       -10.9170
 257   2.0000      -0.399598       -10.8736
 258   2.0000      -0.394993       -10.7483
 259   2.0000      -0.389915       -10.6101
 260   2.0000      -0.387173       -10.5355
 261   2.0000      -0.386102       -10.5064
 262   2.0000      -0.380354       -10.3500
 263   2.0000      -0.378981       -10.3126
 264   2.0000      -0.373641       -10.1673
 265   2.0000      -0.371450       -10.1077
 266   2.0000      -0.365431        -9.9439
 267   2.0000      -0.354973        -9.6593
 268   2.0000      -0.346914        -9.4400
 269   2.0000      -0.337172        -9.1749
 270   2.0000      -0.334921        -9.1137
 271   2.0000      -0.334224        -9.0947
 272   2.0000      -0.325857        -8.8670
 273   2.0000      -0.320968        -8.7340
 274   2.0000      -0.314852        -8.5676
 275   2.0000      -0.311739        -8.4829
 276   2.0000      -0.295360        -8.0372
 277   2.0000      -0.289332        -7.8731
 278   2.0000      -0.284233        -7.7344
 279   2.0000      -0.268230        -7.2989
 280   2.0000      -0.258362        -7.0304
 281   2.0000      -0.244870        -6.6633
 282   2.0000      -0.219445        -5.9714
 283   0.0000      -0.093984        -2.5574
 284   0.0000      -0.067161        -1.8275
 285   0.0000      -0.060674        -1.6510
 286   0.0000      -0.034517        -0.9393
 287   0.0000      -0.016337        -0.4446

MULLIKEN ATOMIC CHARGES
-----------------------
   0 C :   -0.025829
   1 C :   -0.065531
   2 C :    0.056430
   3 C :    0.029930
   4 C :   -0.063492
   5 S :    0.090406
   6 C :   -0.063561
   7 C :    0.039716
   8 C :    0.027301
   9 C :   -0.005561
  10 S :    0.100707
  11 C :   -0.087364
  12 C :    0.165221
  13 O :   -0.206457
  14 C :    0.181671
  15 C :   -0.072187
  16 C :   -0.139946
  17 C :    0.533354
  18 F :   -0.158984
  19 F :   -0.169707
  20 F :   -0.167217
  21 C :   -0.021935
  22 C :   -0.023813
  23 C :    0.073325
  24 C :   -0.119769
  25 S :    0.119258
  26 C :   -0.138672
  27 C :    0.115109
  28 C :   -0.119548
  29 C :    0.022978
  30 C :    0.042007
  31 C :   -0.123399
  32 C :    0.013186
  33 C :    0.043719
  34 C :    0.114988
  35 C :    0.073878
  36 C :   -0.115320
  37 S :    0.094722
  38 C :   -0.131734
  39 C :   -0.033474
  40 C :   -0.009020
  41 C :   -0.117373
  42 S :    0.112274
  43 C :   -0.119157
  44 C :   -0.087229
  45 C :    0.120642
  46 C :    0.145659
  47 C :    0.005426
  48 C :   -0.022035
  49 C :    0.060236
  50 C :   -0.028441
  51 C :    0.006954
  52 C :   -0.106459
  53 C :    0.326566
  54 C :   -0.356376
  55 C :   -0.186049
  56 N :    0.145559
  57 C :   -0.190112
  58 N :    0.140080
  59 C :    0.014623
  60 C :    0.001972
  61 C :    0.159624
  62 O :   -0.178832
  63 C :   -0.060732
  64 C :    0.117019
  65 C :   -0.095302
  66 C :   -0.021143
  67 S :    0.184758
  68 C :   -0.122612
  69 C :    0.039040
  70 Br:    0.020313
  71 H :    0.020697
  72 H :    0.024310
  73 H :   -0.010736
  74 H :   -0.011786
  75 H :   -0.011995
  76 H :   -0.011927
  77 H :    0.000696
  78 H :   -0.006681
  79 H :   -0.007437
  80 H :    0.011677
  81 H :    0.018266
  82 H :    0.017194
  83 H :   -0.005968
  84 H :    0.016523
  85 H :    0.005525
  86 H :    0.017929
  87 H :   -0.000938
  88 H :    0.010277
  89 H :    0.008785
  90 H :    0.015639
  91 H :    0.020112
  92 H :    0.025692
  93 H :    0.002432
  94 H :    0.019298
  95 H :    0.015963
  96 H :    0.007055
  97 H :    0.034894
  98 H :    0.036033
  99 H :   -0.017738
 100 H :   -0.024049
 101 H :    0.003912
 102 H :    0.030941
 103 H :    0.006475
 104 H :   -0.035492
 105 H :   -0.007601
 106 H :   -0.002260
Sum of atomic charges:   -0.0000000

LOEWDIN ATOMIC CHARGES
----------------------
   0 C :   -0.070935
   1 C :   -0.139942
   2 C :   -0.026772
   3 C :   -0.027159
   4 C :   -0.170637
   5 S :    0.359112
   6 C :   -0.184961
   7 C :   -0.024630
   8 C :   -0.036659
   9 C :   -0.129168
  10 S :    0.387340
  11 C :   -0.096704
  12 C :    0.049018
  13 O :    0.015450
  14 C :    0.030458
  15 C :   -0.045424
  16 C :   -0.137153
  17 C :    0.163126
  18 F :   -0.058857
  19 F :   -0.066838
  20 F :   -0.068840
  21 C :   -0.040498
  22 C :   -0.012686
  23 C :   -0.060818
  24 C :   -0.168535
  25 S :    0.406227
  26 C :   -0.177054
  27 C :   -0.042569
  28 C :   -0.018410
  29 C :   -0.031896
  30 C :   -0.050218
  31 C :   -0.022208
  32 C :   -0.032926
  33 C :   -0.052040
  34 C :   -0.040548
  35 C :   -0.070418
  36 C :   -0.151159
  37 S :    0.417610
  38 C :   -0.178658
  39 C :   -0.004455
  40 C :   -0.051329
  41 C :   -0.137546
  42 S :    0.440345
  43 C :   -0.191398
  44 C :   -0.047647
  45 C :   -0.043434
  46 C :   -0.074992
  47 C :    0.041108
  48 C :   -0.061849
  49 C :    0.045449
  50 C :   -0.051850
  51 C :    0.073843
  52 C :   -0.109574
  53 C :    0.076021
  54 C :   -0.147071
  55 C :   -0.018330
  56 N :   -0.059786
  57 C :   -0.019848
  58 N :   -0.058505
  59 C :   -0.018673
  60 C :   -0.050690
  61 C :    0.095904
  62 O :   -0.166787
  63 C :    0.019632
  64 C :   -0.033435
  65 C :   -0.143910
  66 C :   -0.010478
  67 S :    0.431005
  68 C :   -0.272320
  69 C :   -0.069336
  70 Br:    0.134314
  71 H :    0.029163
  72 H :    0.027603
  73 H :    0.033919
  74 H :    0.032291
  75 H :    0.031983
  76 H :    0.032906
  77 H :    0.040491
  78 H :    0.035060
  79 H :    0.036071
  80 H :    0.031300
  81 H :    0.022914
  82 H :    0.031500
  83 H :    0.024862
  84 H :    0.022434
  85 H :    0.023068
  86 H :    0.025297
  87 H :    0.026371
  88 H :    0.027909
  89 H :    0.024680
  90 H :    0.024321
  91 H :    0.022891
  92 H :    0.020420
  93 H :    0.024627
  94 H :    0.035790
  95 H :    0.022418
  96 H :    0.034006
  97 H :    0.035921
  98 H :    0.036524
  99 H :    0.035158
 100 H :    0.026913
 101 H :    0.035402
 102 H :    0.026039
 103 H :    0.041092
 104 H :    0.031022
 105 H :    0.040869
 106 H :    0.039369

  Mayer bond orders larger than 0.100000
B(  0-C ,  1-C ) :   1.8681 B(  0-C , 71-H ) :   0.9510 B(  0-C , 72-H ) :   0.9415
B(  1-C ,  2-C ) :   1.0772 B(  1-C ,  5-S ) :   1.0070 B(  2-C ,  3-C ) :   1.6692
B(  2-C , 73-H ) :   0.9927 B(  3-C ,  4-C ) :   1.1447 B(  3-C , 74-H ) :   0.9912
B(  4-C ,  5-S ) :   1.0509 B(  4-C ,  6-C ) :   1.5701 B(  6-C ,  7-C ) :   1.1573
B(  6-C , 10-S ) :   1.0420 B(  7-C ,  8-C ) :   1.6289 B(  7-C , 75-H ) :   0.9913
B(  8-C ,  9-C ) :   1.1171 B(  8-C , 76-H ) :   0.9987 B(  9-C , 10-S ) :   1.0520
B(  9-C , 11-C ) :   1.6406 B( 11-C , 12-C ) :   1.1038 B( 11-C , 77-H ) :   0.9516
B( 12-C , 13-O ) :   1.1324 B( 12-C , 16-C ) :   1.4886 B( 13-O , 14-C ) :   1.1292
B( 14-C , 15-C ) :   1.4529 B( 14-C , 21-C ) :   1.1202 B( 15-C , 16-C ) :   1.2139
B( 15-C , 78-H ) :   1.0209 B( 16-C , 17-C ) :   0.9612 B( 17-C , 18-F ) :   1.1683
B( 17-C , 19-F ) :   1.1623 B( 17-C , 20-F ) :   1.1596 B( 21-C , 22-C ) :   1.7464
B( 21-C , 79-H ) :   0.9705 B( 22-C , 23-C ) :   0.9991 B( 22-C , 80-H ) :   0.9531
B( 23-C , 24-C ) :   1.6179 B( 23-C , 27-C ) :   1.1522 B( 24-C , 25-S ) :   1.1099
B( 24-C , 81-H ) :   0.9649 B( 25-S , 26-C ) :   1.0764 B( 26-C , 27-C ) :   1.3704
B( 26-C , 38-C ) :   1.3702 B( 27-C , 28-C ) :   1.2622 B( 28-C , 29-C ) :   1.0625
B( 28-C , 31-C ) :   1.5147 B( 29-C , 30-C ) :   1.1104 B( 29-C , 82-H ) :   0.9183
B( 29-C , 83-H ) :   0.9083 B( 30-C , 84-H ) :   0.9594 B( 30-C , 85-H ) :   0.9570
B( 30-C , 86-H ) :   0.9665 B( 31-C , 32-C ) :   1.0593 B( 31-C , 34-C ) :   1.2673
B( 32-C , 33-C ) :   1.1109 B( 32-C , 87-H ) :   0.9100 B( 32-C , 88-H ) :   0.9226
B( 33-C , 89-H ) :   0.9555 B( 33-C , 90-H ) :   0.9652 B( 33-C , 91-H ) :   0.9572
B( 34-C , 35-C ) :   1.1285 B( 34-C , 38-C ) :   1.3789 B( 35-C , 36-C ) :   1.5873
B( 35-C , 39-C ) :   1.0427 B( 36-C , 37-S ) :   1.1338 B( 36-C , 92-H ) :   0.9492
B( 37-S , 38-C ) :   1.0668 B( 39-C , 40-C ) :   1.7355 B( 39-C , 93-H ) :   0.9594
B( 40-C , 41-C ) :   1.1271 B( 40-C , 94-H ) :   0.9593 B( 41-C , 42-S ) :   1.1681
B( 41-C , 46-C ) :   1.3745 B( 42-S , 43-C ) :   1.1100 B( 43-C , 44-C ) :   1.6360
B( 43-C , 95-H ) :   0.9649 B( 44-C , 45-C ) :   1.1002 B( 44-C , 46-C ) :   1.1842
B( 45-C , 96-H ) :   0.9442 B( 45-C , 97-H ) :   0.9430 B( 45-C , 98-H ) :   0.9402
B( 46-C , 47-C ) :   1.1776 B( 47-C , 48-C ) :   1.6100 B( 47-C , 99-H ) :   0.9457
B( 48-C , 49-C ) :   1.1563 B( 48-C ,100-H ) :   0.9816 B( 49-C , 50-C ) :   1.5336
B( 49-C ,101-H ) :   0.9818 B( 50-C , 51-C ) :   1.2185 B( 50-C ,102-H ) :   0.9547
B( 51-C , 52-C ) :   1.4807 B( 51-C ,103-H ) :   0.9633 B( 52-C , 53-C ) :   1.0720
B( 52-C , 61-C ) :   0.9842 B( 53-C , 54-C ) :   1.6166 B( 53-C , 59-C ) :   0.9987
B( 54-C , 55-C ) :   1.1445 B( 54-C , 57-C ) :   1.1494 B( 55-C , 56-N ) :   2.9656
B( 57-C , 58-N ) :   2.9584 B( 59-C , 60-C ) :   1.2740 B( 59-C , 66-C ) :   1.4159
B( 60-C , 61-C ) :   0.9605 B( 60-C , 63-C ) :   1.4183 B( 61-C , 62-O ) :   2.0654
B( 63-C , 64-C ) :   1.2532 B( 63-C ,104-H ) :   1.0145 B( 64-C , 65-C ) :   1.3067
B( 64-C , 69-C ) :   1.1625 B( 65-C , 66-C ) :   1.3254 B( 65-C , 67-S ) :   1.0858
B( 66-C ,105-H ) :   0.9793 B( 67-S , 68-C ) :   1.0851 B( 68-C , 69-C ) :   1.6190
B( 68-C , 70-Br) :   1.0164 B( 69-C ,106-H ) :   1.0001

-----------------------------------------------------------------------------
         ABSORPTION SPECTRUM VIA TRANSITION ELECTRIC DIPOLE MOMENTS
-----------------------------------------------------------------------------
State   Energy  Wavelength   fosc         T2         TX        TY        TZ
        (cm-1)    (nm)                  (au**2)     (au)      (au)      (au)
-----------------------------------------------------------------------------
   0   16733.5    597.6   0.672494454  13.23058  -1.45863  -0.79130   3.23679
   1   19151.7    522.1   1.397351380  24.02000   2.91095   0.12646  -3.94086
   2   20987.9    476.5   0.001597042   0.02505   0.00267   0.05443  -0.14860
   3   23016.9    434.5   0.557789278   7.97808  -0.63791   0.44217  -2.71581
   4   24266.5    412.1   0.075788892   1.02819   0.29219  -0.16319   0.95718
   5   25642.8    390.0   0.005682443   0.07295  -0.23117  -0.02907  -0.13663
   6   27175.4    368.0   0.183744973   2.22595  -1.33520   0.00169  -0.66572
   7   27795.7    359.8   0.039567898   0.46864   0.13106  -0.65545  -0.14782
   8   28234.6    354.2   0.001166018   0.01360   0.10495  -0.04296   0.02714
   9   28625.7    349.3   0.000394970   0.00454   0.06722   0.00248   0.00428
  10   29287.7    341.4   0.065514916   0.73643  -0.76978  -0.14179  -0.35179
  11   29526.1    338.7   0.106877064   1.19167  -1.00075  -0.14039  -0.41286
  12   29824.6    335.3   0.107559286   1.18727   0.98308   0.22595   0.41203
  13   30065.8    332.6   0.391517464   4.28701  -1.74972  -0.85974  -0.69736
  14   30347.6    329.5   0.339425857   3.68211   0.94005  -0.92561   1.39344
  15   30756.1    325.1   0.001865315   0.01997   0.01067  -0.10123  -0.09800
  16   32216.9    310.4   0.007234700   0.07393  -0.18952   0.04129  -0.19054
  17   32557.1    307.2   0.020753788   0.20986   0.44121  -0.00442   0.12318
  18   32651.9    306.3   0.735126215   7.41189  -2.68110  -0.11353  -0.45905
  19   33055.6    302.5   0.004844499   0.04825   0.20957   0.00106   0.06578
  20   33123.5    301.9   0.052425088   0.52105   0.00815   0.67884  -0.24527
  21   33178.5    301.4   0.003022090   0.02999   0.12625  -0.09130   0.07559
  22   33583.7    297.8   0.078117149   0.76576   0.75792  -0.08914   0.42822
  23   33988.7    294.2   0.057838878   0.56022   0.51091  -0.29688  -0.45940
  24   34768.7    287.6   0.212688056   2.01387  -1.36799  -0.02347  -0.37672
  25   35022.9    285.5   0.101055789   0.94991  -0.79649   0.51193   0.23118
  26   35197.5    284.1   0.129541306   1.21164  -0.78695  -0.41527   0.64800
  27   35788.3    279.4   0.033902756   0.31187   0.34463   0.13847  -0.41704
  28   36215.0    276.1   0.024593971   0.22357  -0.16051   0.10048   0.43325
  29   36452.3    274.3   0.183975390   1.66154   0.87965   0.33576  -0.88035
  30   36908.0    270.9   0.334005472   2.97926  -0.66463  -0.43116   1.53350
  31   37050.6    269.9   0.007010738   0.06229   0.19407  -0.10005   0.12092
  32   37321.2    267.9   0.200269804   1.76659  -1.01956  -0.15363  -0.83874
  33   37853.0    264.2   0.177663041   1.54516   1.14412   0.25277  -0.41504
  34   38034.2    262.9   0.032463727   0.28100   0.38482  -0.06828   0.35812
  35   38139.4    262.2   0.131591408   1.13587   0.06566   0.22234  -1.04025
  36   39372.6    254.0   0.020173607   0.16868   0.20434   0.22403  -0.27701
  37   39711.8    251.8   0.068793737   0.57030   0.35008   0.10696   0.66053
  38   39984.0    250.1   0.094585459   0.77878   0.12211  -0.18557  -0.85407
  39   40221.9    248.6   0.059628038   0.48805  -0.44322   0.02853   0.53925

FINAL SINGLE POINT ENERGY     -7712.059410405655

DIPOLE MOMENT
-------------
                                X             Y             Z
Electronic contribution:     46.17380     -37.97706     156.34674
Nuclear contribution   :    -45.10626      39.55876    -160.23797
                        -----------------------------------------
Total Dipole Moment    :      1.06754       1.58170      -3.89123
                        -----------------------------------------
Magnitude (a.u.)       :      4.33394
Magnitude (Debye)      :     11.01601

Rotational constants in cm-1:     0.001051     0.000234     0.000195
Rotational constants in MHz :    31.495785     7.026813     5.834278

                             ****ORCA TERMINATED NORMALLY****
TOTAL RUN TIME: 0 days 0 hours 9 minutes 58 seconds 437 msec
