                         Program Version 4.2.0 -  RELEASE  -
|  1> # ORCA input file
|  2> # SCF done       -156.793912634957          0.000910436163
|  3> ! CAM-B3LYP def2-SVP def2/J RIJCOSX Grid4 TightSCF
|  4> %maxcore 5000
|  5> %tddft
|  6>     Mode sTDDFT
|  7>     Ethresh 5.0
|  8>     maxcore 5000
|  9> end
| 10>
| 11> %pal
| 12>   nprocs 6
| 13>   end
| 14> * xyz 0 1
| 15>    C       14.68988        -3.02628        -0.14963
| 16>    C       13.87518        -3.76169        -0.91845
| 17>    C       14.15180        -4.32020        -2.21093
| 18>    C       13.12938        -5.02286        -2.74679
| 19>    C       11.96465        -5.07791        -1.93160
| 20>    S       12.22544        -4.19324        -0.44111
| 21>    C       10.77861        -5.71421        -2.20998
| 22>    C       10.42576        -6.44810        -3.36853
| 23>    C        9.16913        -6.95933        -3.33073
| 24>    C        8.42681        -6.65498        -2.15324
| 25>    S        9.44035        -5.70482        -1.07886
| 26>    C        7.15401        -7.12321        -1.94994
| 27>    C        6.17578        -6.96732        -0.94371
| 28>    S        4.93200        -8.20343        -0.98173
| 29>    C        4.09978        -7.50032         0.36812
| 30>    C        4.73836        -6.33600         0.78627
| 31>    C        5.90522        -6.03660         0.06176
| 32>    C        6.69622        -4.78500         0.27424
| 33>    C        6.53540        -3.82013        -0.90126
| 34>    C        4.22267        -5.51211         1.92806
| 35>    C        4.88361        -5.93058         3.24335
| 36>    C        2.92987        -8.09974         0.89911
| 37>    C        2.32801        -9.20521         0.39572
| 38>    C        1.13987        -9.75872         0.94347
| 39>    C        0.49447       -10.82306         0.42272
| 40>    C       -0.73402       -11.34596         0.97328
| 41>    N       -1.29976       -12.36556         0.31647
| 42>    C       -2.43449       -12.83452         0.79913
| 43>    C       -3.04046       -12.31770         1.93407
| 44>    C       -2.37281       -11.25922         2.56624
| 45>    N       -1.22678       -10.78882         2.07717
| 46>    C       -2.83967       -10.59962         3.77095
| 47>    C       -4.02184       -10.82111         4.37073
| 48>    C       -4.42751       -10.13627         5.55852
| 49>    C       -5.76957       -10.28281         6.27383
| 50>    N       -5.86731        -9.52690         7.34960
| 51>    C       -4.69345        -8.86522         7.42008
| 52>    C       -3.88389        -7.96332         8.06319
| 53>    S       -2.53132        -8.08684         6.94019
| 54>    C       -3.80824        -9.22432         6.33119
| 55>    C       -6.74614       -11.17861         5.79894
| 56>    C       -8.05114       -11.34447         6.17356
| 57>    C       -8.91957       -12.37600         5.63958
| 58>    C       -8.62958       -13.26847         4.63297
| 59>    C       -9.52755       -14.24979         4.16458
| 60>    N      -10.20629       -15.07001         3.73382
| 61>    C       -7.43084       -13.33439         3.89555
| 62>    N       -6.49643       -13.45485         3.23503
| 63>    C      -10.19434       -12.29500         6.34315
| 64>    C      -10.15277       -11.19500         7.23268
| 65>    C       -8.83335       -10.52521         7.13965
| 66>    O       -8.51873        -9.50488         7.70074
| 67>    C      -11.21388       -10.84581         8.03040
| 68>    C      -12.37240       -11.62689         7.95601
| 69>    C      -12.40297       -12.72955         7.06974
| 70>    C      -11.33167       -13.07837         6.25742
| 71>    S      -13.92868       -13.56050         7.13603
| 72>    C      -14.49583       -12.42953         8.33565
| 73>    C      -13.59191       -11.47879         8.67156
| 74>   Br      -16.22828       -12.61023         9.03125
| 75>    H       15.68576        -2.78656        -0.47792
| 76>    H       14.37996        -2.65500         0.80991
| 77>    H       15.10770        -4.16843        -2.67993
| 78>    H       13.16402        -5.50919        -3.70557
| 79>    H       11.10577        -6.57304        -4.19177
| 80>    H        8.73168        -7.54362        -4.12143
| 81>    H        6.83641        -7.81398        -2.72590
| 82>    H        7.74949        -5.03086         0.40295
| 83>    H        6.36895        -4.29043         1.18737
| 84>    H        6.86603        -4.28116        -1.82811
| 85>    H        7.12632        -2.92377        -0.73149
| 86>    H        5.49179        -3.53386        -1.01570
| 87>    H        3.14197        -5.63100         2.01063
| 88>    H        4.41538        -4.45487         1.74051
| 89>    H        4.66979        -6.97524         3.45793
| 90>    H        4.50943        -5.32350         4.06431
| 91>    H        5.96289        -5.80919         3.18467
| 92>    H        2.49510        -7.62764         1.76961
| 93>    H        2.75239        -9.69050        -0.47436
| 94>    H        0.72032        -9.28737         1.82229
| 95>    H        0.86026       -11.33170        -0.45724
| 96>    H       -2.87517       -13.65867         0.25178
| 97>    H       -3.96720       -12.72369         2.30159
| 98>    H       -2.15236        -9.86809         4.17478
| 99>    H       -4.71277       -11.53741         3.95056
|100>    H       -3.96155        -7.34431         8.93503
|101>    H       -6.38925       -11.83944         5.02299
|102>    H      -11.15074        -9.99721         8.69333
|103>    H      -11.40724       -13.92708         5.59872
|104>    H      -13.77561       -10.70394         9.39327
|105> *
|106>
|107>                          ****END OF INPUT****

CARTESIAN COORDINATES (ANGSTROEM)
---------------------------------
  C     14.689880   -3.026280   -0.149630
  C     13.875180   -3.761690   -0.918450
  C     14.151800   -4.320200   -2.210930
  C     13.129380   -5.022860   -2.746790
  C     11.964650   -5.077910   -1.931600
  S     12.225440   -4.193240   -0.441110
  C     10.778610   -5.714210   -2.209980
  C     10.425760   -6.448100   -3.368530
  C      9.169130   -6.959330   -3.330730
  C      8.426810   -6.654980   -2.153240
  S      9.440350   -5.704820   -1.078860
  C      7.154010   -7.123210   -1.949940
  C      6.175780   -6.967320   -0.943710
  S      4.932000   -8.203430   -0.981730
  C      4.099780   -7.500320    0.368120
  C      4.738360   -6.336000    0.786270
  C      5.905220   -6.036600    0.061760
  C      6.696220   -4.785000    0.274240
  C      6.535400   -3.820130   -0.901260
  C      4.222670   -5.512110    1.928060
  C      4.883610   -5.930580    3.243350
  C      2.929870   -8.099740    0.899110
  C      2.328010   -9.205210    0.395720
  C      1.139870   -9.758720    0.943470
  C      0.494470  -10.823060    0.422720
  C     -0.734020  -11.345960    0.973280
  N     -1.299760  -12.365560    0.316470
  C     -2.434490  -12.834520    0.799130
  C     -3.040460  -12.317700    1.934070
  C     -2.372810  -11.259220    2.566240
  N     -1.226780  -10.788820    2.077170
  C     -2.839670  -10.599620    3.770950
  C     -4.021840  -10.821110    4.370730
  C     -4.427510  -10.136270    5.558520
  C     -5.769570  -10.282810    6.273830
  N     -5.867310   -9.526900    7.349600
  C     -4.693450   -8.865220    7.420080
  C     -3.883890   -7.963320    8.063190
  S     -2.531320   -8.086840    6.940190
  C     -3.808240   -9.224320    6.331190
  C     -6.746140  -11.178610    5.798940
  C     -8.051140  -11.344470    6.173560
  C     -8.919570  -12.376000    5.639580
  C     -8.629580  -13.268470    4.632970
  C     -9.527550  -14.249790    4.164580
  N    -10.206290  -15.070010    3.733820
  C     -7.430840  -13.334390    3.895550
  N     -6.496430  -13.454850    3.235030
  C    -10.194340  -12.295000    6.343150
  C    -10.152770  -11.195000    7.232680
  C     -8.833350  -10.525210    7.139650
  O     -8.518730   -9.504880    7.700740
  C    -11.213880  -10.845810    8.030400
  C    -12.372400  -11.626890    7.956010
  C    -12.402970  -12.729550    7.069740
  C    -11.331670  -13.078370    6.257420
  S    -13.928680  -13.560500    7.136030
  C    -14.495830  -12.429530    8.335650
  C    -13.591910  -11.478790    8.671560
  Br   -16.228280  -12.610230    9.031250
  H     15.685760   -2.786560   -0.477920
  H     14.379960   -2.655000    0.809910
  H     15.107700   -4.168430   -2.679930
  H     13.164020   -5.509190   -3.705570
  H     11.105770   -6.573040   -4.191770
  H      8.731680   -7.543620   -4.121430
  H      6.836410   -7.813980   -2.725900
  H      7.749490   -5.030860    0.402950
  H      6.368950   -4.290430    1.187370
  H      6.866030   -4.281160   -1.828110
  H      7.126320   -2.923770   -0.731490
  H      5.491790   -3.533860   -1.015700
  H      3.141970   -5.631000    2.010630
  H      4.415380   -4.454870    1.740510
  H      4.669790   -6.975240    3.457930
  H      4.509430   -5.323500    4.064310
  H      5.962890   -5.809190    3.184670
  H      2.495100   -7.627640    1.769610
  H      2.752390   -9.690500   -0.474360
  H      0.720320   -9.287370    1.822290
  H      0.860260  -11.331700   -0.457240
  H     -2.875170  -13.658670    0.251780
  H     -3.967200  -12.723690    2.301590
  H     -2.152360   -9.868090    4.174780
  H     -4.712770  -11.537410    3.950560
  H     -3.961550   -7.344310    8.935030
  H     -6.389250  -11.839440    5.022990
  H    -11.150740   -9.997210    8.693330
  H    -11.407240  -13.927080    5.598720
  H    -13.775610  -10.703940    9.393270

 Total Charge           Charge          ....    0
 Multiplicity           Mult            ....    1
 Number of Electrons    NEL             ....  476
 Basis Dimension        Dim             .... 1028

ORBITAL ENERGIES
----------------

  NO   OCC          E(Eh)            E(eV)
   0   2.0000    -482.888250    -13140.0573
   1   2.0000     -88.978175     -2421.2192
   2   2.0000     -88.965963     -2420.8869
   3   2.0000     -88.939188     -2420.1584
   4   2.0000     -88.936877     -2420.0955
   5   2.0000     -88.931925     -2419.9607
   6   2.0000     -62.565965     -1702.5065
   7   2.0000     -56.399922     -1534.7199
   8   2.0000     -56.397192     -1534.6456
   9   2.0000     -56.397166     -1534.6449
  10   2.0000     -19.213573      -522.8279
  11   2.0000     -14.431475      -392.7004
  12   2.0000     -14.421747      -392.4357
  13   2.0000     -14.418975      -392.3603
  14   2.0000     -14.395539      -391.7225
  15   2.0000     -14.391500      -391.6126
  16   2.0000     -10.366551      -282.0882
  17   2.0000     -10.362357      -281.9741
  18   2.0000     -10.351170      -281.6696
  19   2.0000     -10.350231      -281.6441
  20   2.0000     -10.349032      -281.6115
  21   2.0000     -10.335047      -281.2309
  22   2.0000     -10.333460      -281.1877
  23   2.0000     -10.328647      -281.0568
  24   2.0000     -10.325610      -280.9741
  25   2.0000     -10.324665      -280.9484
  26   2.0000     -10.319209      -280.8000
  27   2.0000     -10.318291      -280.7750
  28   2.0000     -10.312145      -280.6077
  29   2.0000     -10.312074      -280.6058
  30   2.0000     -10.311493      -280.5900
  31   2.0000     -10.311387      -280.5871
  32   2.0000     -10.309830      -280.5447
  33   2.0000     -10.306155      -280.4447
  34   2.0000     -10.305056      -280.4148
  35   2.0000     -10.304726      -280.4059
  36   2.0000     -10.302634      -280.3489
  37   2.0000     -10.302608      -280.3482
  38   2.0000     -10.302606      -280.3482
  39   2.0000     -10.301911      -280.3292
  40   2.0000     -10.300603      -280.2937
  41   2.0000     -10.299446      -280.2622
  42   2.0000     -10.294550      -280.1290
  43   2.0000     -10.291793      -280.0539
  44   2.0000     -10.290482      -280.0182
  45   2.0000     -10.285885      -279.8932
  46   2.0000     -10.283948      -279.8405
  47   2.0000     -10.283883      -279.8387
  48   2.0000     -10.280496      -279.7465
  49   2.0000     -10.279408      -279.7169
  50   2.0000     -10.278418      -279.6900
  51   2.0000     -10.278162      -279.6830
  52   2.0000     -10.274220      -279.5757
  53   2.0000     -10.269676      -279.4521
  54   2.0000     -10.267891      -279.4035
  55   2.0000     -10.267575      -279.3949
  56   2.0000     -10.264814      -279.3198
  57   2.0000     -10.263982      -279.2971
  58   2.0000     -10.263725      -279.2902
  59   2.0000     -10.263528      -279.2848
  60   2.0000     -10.257436      -279.1190
  61   2.0000     -10.252972      -278.9975
  62   2.0000     -10.252647      -278.9887
  63   2.0000     -10.244835      -278.7761
  64   2.0000      -8.795389      -239.3347
  65   2.0000      -8.074241      -219.7113
  66   2.0000      -8.060473      -219.3366
  67   2.0000      -8.034750      -218.6367
  68   2.0000      -8.032768      -218.5827
  69   2.0000      -8.028676      -218.4714
  70   2.0000      -6.631721      -180.4583
  71   2.0000      -6.617132      -180.0613
  72   2.0000      -6.616882      -180.0545
  73   2.0000      -6.043939      -164.4639
  74   2.0000      -6.039660      -164.3475
  75   2.0000      -6.035419      -164.2321
  76   2.0000      -6.030960      -164.1108
  77   2.0000      -6.027166      -164.0075
  78   2.0000      -6.019780      -163.8065
  79   2.0000      -6.004562      -163.3924
  80   2.0000      -6.001914      -163.3204
  81   2.0000      -6.000540      -163.2830
  82   2.0000      -5.998521      -163.2281
  83   2.0000      -5.998123      -163.2172
  84   2.0000      -5.995597      -163.1485
  85   2.0000      -5.994773      -163.1261
  86   2.0000      -5.994603      -163.1215
  87   2.0000      -5.989163      -162.9734
  88   2.0000      -2.747571       -74.7652
  89   2.0000      -2.743497       -74.6544
  90   2.0000      -2.743332       -74.6499
  91   2.0000      -2.731732       -74.3342
  92   2.0000      -2.731713       -74.3337
  93   2.0000      -1.130032       -30.7497
  94   2.0000      -1.075359       -29.2620
  95   2.0000      -1.067111       -29.0376
  96   2.0000      -1.029791       -28.0220
  97   2.0000      -1.020625       -27.7726
  98   2.0000      -1.004268       -27.3275
  99   2.0000      -0.995186       -27.0804
 100   2.0000      -0.986525       -26.8447
 101   2.0000      -0.979089       -26.6424
 102   2.0000      -0.974955       -26.5299
 103   2.0000      -0.967049       -26.3147
 104   2.0000      -0.961685       -26.1688
 105   2.0000      -0.947278       -25.7768
 106   2.0000      -0.920239       -25.0410
 107   2.0000      -0.913334       -24.8531
 108   2.0000      -0.906248       -24.6603
 109   2.0000      -0.901846       -24.5405
 110   2.0000      -0.890474       -24.2310
 111   2.0000      -0.889492       -24.2043
 112   2.0000      -0.882583       -24.0163
 113   2.0000      -0.871505       -23.7149
 114   2.0000      -0.865817       -23.5601
 115   2.0000      -0.860822       -23.4242
 116   2.0000      -0.844035       -22.9674
 117   2.0000      -0.837196       -22.7813
 118   2.0000      -0.835662       -22.7395
 119   2.0000      -0.832633       -22.6571
 120   2.0000      -0.823136       -22.3987
 121   2.0000      -0.813464       -22.1355
 122   2.0000      -0.800913       -21.7939
 123   2.0000      -0.796072       -21.6622
 124   2.0000      -0.782933       -21.3047
 125   2.0000      -0.768251       -20.9052
 126   2.0000      -0.766226       -20.8501
 127   2.0000      -0.765173       -20.8214
 128   2.0000      -0.753248       -20.4969
 129   2.0000      -0.737463       -20.0674
 130   2.0000      -0.732860       -19.9421
 131   2.0000      -0.720720       -19.6118
 132   2.0000      -0.703745       -19.1499
 133   2.0000      -0.700009       -19.0482
 134   2.0000      -0.696995       -18.9662
 135   2.0000      -0.692913       -18.8551
 136   2.0000      -0.684993       -18.6396
 137   2.0000      -0.682193       -18.5634
 138   2.0000      -0.670183       -18.2366
 139   2.0000      -0.665448       -18.1078
 140   2.0000      -0.659131       -17.9359
 141   2.0000      -0.649499       -17.6738
 142   2.0000      -0.642485       -17.4829
 143   2.0000      -0.631575       -17.1860
 144   2.0000      -0.626695       -17.0532
 145   2.0000      -0.623704       -16.9719
 146   2.0000      -0.617055       -16.7909
 147   2.0000      -0.615251       -16.7418
 148   2.0000      -0.610338       -16.6082
 149   2.0000      -0.603561       -16.4237
 150   2.0000      -0.599562       -16.3149
 151   2.0000      -0.592685       -16.1278
 152   2.0000      -0.591841       -16.1048
 153   2.0000      -0.579519       -15.7695
 154   2.0000      -0.576380       -15.6841
 155   2.0000      -0.568250       -15.4629
 156   2.0000      -0.564742       -15.3674
 157   2.0000      -0.559843       -15.2341
 158   2.0000      -0.550693       -14.9851
 159   2.0000      -0.545218       -14.8361
 160   2.0000      -0.542410       -14.7597
 161   2.0000      -0.537956       -14.6385
 162   2.0000      -0.534794       -14.5525
 163   2.0000      -0.530423       -14.4335
 164   2.0000      -0.529877       -14.4187
 165   2.0000      -0.528811       -14.3897
 166   2.0000      -0.525042       -14.2871
 167   2.0000      -0.520632       -14.1671
 168   2.0000      -0.514813       -14.0088
 169   2.0000      -0.513199       -13.9649
 170   2.0000      -0.511897       -13.9294
 171   2.0000      -0.510070       -13.8797
 172   2.0000      -0.508707       -13.8426
 173   2.0000      -0.506815       -13.7911
 174   2.0000      -0.503819       -13.7096
 175   2.0000      -0.500460       -13.6182
 176   2.0000      -0.497534       -13.5386
 177   2.0000      -0.495949       -13.4955
 178   2.0000      -0.490756       -13.3542
 179   2.0000      -0.490142       -13.3374
 180   2.0000      -0.486132       -13.2283
 181   2.0000      -0.484977       -13.1969
 182   2.0000      -0.482766       -13.1367
 183   2.0000      -0.478965       -13.0333
 184   2.0000      -0.473065       -12.8728
 185   2.0000      -0.472566       -12.8592
 186   2.0000      -0.468525       -12.7492
 187   2.0000      -0.464827       -12.6486
 188   2.0000      -0.462650       -12.5893
 189   2.0000      -0.460924       -12.5424
 190   2.0000      -0.456289       -12.4163
 191   2.0000      -0.452155       -12.3038
 192   2.0000      -0.451017       -12.2728
 193   2.0000      -0.450159       -12.2495
 194   2.0000      -0.446021       -12.1369
 195   2.0000      -0.444545       -12.0967
 196   2.0000      -0.443365       -12.0646
 197   2.0000      -0.442676       -12.0458
 198   2.0000      -0.438602       -11.9350
 199   2.0000      -0.436577       -11.8799
 200   2.0000      -0.436457       -11.8766
 201   2.0000      -0.431951       -11.7540
 202   2.0000      -0.431683       -11.7467
 203   2.0000      -0.425521       -11.5790
 204   2.0000      -0.425313       -11.5734
 205   2.0000      -0.422877       -11.5071
 206   2.0000      -0.421412       -11.4672
 207   2.0000      -0.416915       -11.3448
 208   2.0000      -0.415214       -11.2985
 209   2.0000      -0.413038       -11.2393
 210   2.0000      -0.409821       -11.1518
 211   2.0000      -0.406908       -11.0725
 212   2.0000      -0.402641       -10.9564
 213   2.0000      -0.395800       -10.7703
 214   2.0000      -0.389904       -10.6098
 215   2.0000      -0.388855       -10.5813
 216   2.0000      -0.384041       -10.4503
 217   2.0000      -0.381532       -10.3820
 218   2.0000      -0.377557       -10.2739
 219   2.0000      -0.376508       -10.2453
 220   2.0000      -0.375449       -10.2165
 221   2.0000      -0.364164        -9.9094
 222   2.0000      -0.361727        -9.8431
 223   2.0000      -0.359804        -9.7908
 224   2.0000      -0.340705        -9.2711
 225   2.0000      -0.334602        -9.1050
 226   2.0000      -0.331494        -9.0204
 227   2.0000      -0.321549        -8.7498
 228   2.0000      -0.317900        -8.6505
 229   2.0000      -0.316932        -8.6242
 230   2.0000      -0.309873        -8.4321
 231   2.0000      -0.299825        -8.1586
 232   2.0000      -0.297982        -8.1085
 233   2.0000      -0.296837        -8.0773
 234   2.0000      -0.289059        -7.8657
 235   2.0000      -0.273209        -7.4344
 236   2.0000      -0.251278        -6.8376
 237   2.0000      -0.205407        -5.5894
 238   0.0000      -0.117511        -3.1976
 239   0.0000      -0.074157        -2.0179
 240   0.0000      -0.066010        -1.7962
 241   0.0000      -0.051032        -1.3886
 242   0.0000      -0.029037        -0.7901

MULLIKEN ATOMIC CHARGES
-----------------------
   0 C :   -0.032912
   1 C :   -0.061213
   2 C :    0.050857
   3 C :    0.029619
   4 C :   -0.065977
   5 S :    0.072840
   6 C :   -0.041419
   7 C :    0.028150
   8 C :    0.029320
   9 C :   -0.020983
  10 S :    0.057169
  11 C :   -0.012821
  12 C :   -0.128677
  13 S :    0.091293
  14 C :   -0.080200
  15 C :   -0.072136
  16 C :   -0.038139
  17 C :    0.049381
  18 C :    0.033490
  19 C :    0.049434
  20 C :    0.032770
  21 C :    0.007148
  22 C :    0.009006
  23 C :    0.050017
  24 C :    0.023875
  25 C :   -0.058017
  26 N :   -0.073442
  27 C :    0.073768
  28 C :   -0.061879
  29 C :    0.036737
  30 N :   -0.069509
  31 C :    0.044164
  32 C :    0.036707
  33 C :   -0.079290
  34 C :   -0.032154
  35 N :    0.016161
  36 C :    0.164216
  37 C :   -0.115278
  38 S :    0.105106
  39 C :   -0.025736
  40 C :   -0.032510
  41 C :   -0.031041
  42 C :    0.311108
  43 C :   -0.354221
  44 C :   -0.185604
  45 N :    0.153641
  46 C :   -0.161686
  47 N :    0.148667
  48 C :    0.018375
  49 C :   -0.017554
  50 C :    0.127068
  51 O :   -0.090273
  52 C :   -0.075855
  53 C :    0.123798
  54 C :   -0.091543
  55 C :   -0.021668
  56 S :    0.187429
  57 C :   -0.120918
  58 C :    0.036402
  59 Br:    0.026942
  60 H :    0.017113
  61 H :    0.019343
  62 H :   -0.014262
  63 H :   -0.013821
  64 H :   -0.016546
  65 H :   -0.012747
  66 H :   -0.009199
  67 H :    0.028143
  68 H :   -0.011065
  69 H :    0.022048
  70 H :    0.011429
  71 H :    0.005736
  72 H :    0.004936
  73 H :    0.008896
  74 H :    0.011877
  75 H :    0.013786
  76 H :    0.014487
  77 H :   -0.016206
  78 H :   -0.005177
  79 H :   -0.001981
  80 H :   -0.019510
  81 H :    0.005024
  82 H :    0.004886
  83 H :   -0.016921
  84 H :   -0.001663
  85 H :    0.041854
  86 H :   -0.027586
  87 H :   -0.007412
  88 H :   -0.006131
  89 H :   -0.001332
Sum of atomic charges:   -0.0000000

LOEWDIN ATOMIC CHARGES
----------------------
   0 C :   -0.081872
   1 C :   -0.138590
   2 C :   -0.034711
   3 C :   -0.025973
   4 C :   -0.181462
   5 S :    0.345776
   6 C :   -0.180359
   7 C :   -0.040931
   8 C :   -0.029584
   9 C :   -0.154744
  10 S :    0.392612
  11 C :   -0.082022
  12 C :   -0.167081
  13 S :    0.424503
  14 C :   -0.177687
  15 C :   -0.045012
  16 C :   -0.049663
  17 C :   -0.040300
  18 C :   -0.049888
  19 C :   -0.030579
  20 C :   -0.048683
  21 C :   -0.030701
  22 C :   -0.032925
  23 C :    0.010195
  24 C :   -0.047654
  25 C :    0.027925
  26 N :   -0.093969
  27 C :    0.047981
  28 C :   -0.062094
  29 C :    0.026514
  30 N :   -0.091457
  31 C :    0.009257
  32 C :   -0.022443
  33 C :   -0.044123
  34 C :    0.014936
  35 N :   -0.033879
  36 C :   -0.078775
  37 C :   -0.037135
  38 S :    0.323033
  39 C :   -0.127221
  40 C :    0.042599
  41 C :   -0.053039
  42 C :    0.078766
  43 C :   -0.140933
  44 C :   -0.018249
  45 N :   -0.048740
  46 C :   -0.007476
  47 N :   -0.059891
  48 C :   -0.025426
  49 C :   -0.047085
  50 C :    0.072945
  51 O :   -0.100239
  52 C :    0.020982
  53 C :   -0.028672
  54 C :   -0.144137
  55 C :   -0.008181
  56 S :    0.432730
  57 C :   -0.269063
  58 C :   -0.070383
  59 Br:    0.139520
  60 H :    0.027491
  61 H :    0.025206
  62 H :    0.032365
  63 H :    0.031798
  64 H :    0.030556
  65 H :    0.032401
  66 H :    0.032869
  67 H :    0.011011
  68 H :    0.024790
  69 H :    0.023140
  70 H :    0.023580
  71 H :    0.022250
  72 H :    0.026812
  73 H :    0.027585
  74 H :    0.024799
  75 H :    0.023082
  76 H :    0.024458
  77 H :    0.030720
  78 H :    0.021397
  79 H :    0.029113
  80 H :    0.030084
  81 H :    0.026415
  82 H :    0.033850
  83 H :    0.032710
  84 H :    0.031032
  85 H :    0.030279
  86 H :    0.040630
  87 H :    0.041724
  88 H :    0.040994
  89 H :    0.039614

  Mayer bond orders larger than 0.100000
B(  0-C ,  1-C ) :   1.8633 B(  0-C , 60-H ) :   0.9505 B(  0-C , 61-H ) :   0.9417
B(  1-C ,  2-C ) :   1.0813 B(  1-C ,  5-S ) :   1.0086 B(  2-C ,  3-C ) :   1.6601
B(  2-C , 62-H ) :   0.9927 B(  3-C ,  4-C ) :   1.1530 B(  3-C , 63-H ) :   0.9917
B(  4-C ,  5-S ) :   1.0393 B(  4-C ,  6-C ) :   1.5584 B(  6-C ,  7-C ) :   1.1643
B(  6-C , 10-S ) :   1.0304 B(  7-C ,  8-C ) :   1.6135 B(  7-C , 64-H ) :   0.9917
B(  8-C ,  9-C ) :   1.1245 B(  8-C , 65-H ) :   0.9992 B(  9-C , 10-S ) :   1.0241
B(  9-C , 11-C ) :   1.6352 B( 11-C , 12-C ) :   1.1400 B( 11-C , 66-H ) :   0.9318
B( 12-C , 13-S ) :   1.1162 B( 12-C , 14-C ) :   0.1000 B( 12-C , 16-C ) :   1.4576
B( 13-S , 14-C ) :   1.1006 B( 14-C , 15-C ) :   1.4696 B( 14-C , 21-C ) :   1.1404
B( 15-C , 16-C ) :   1.3224 B( 15-C , 19-C ) :   1.0780 B( 16-C , 17-C ) :   1.0791
B( 17-C , 18-C ) :   1.1053 B( 17-C , 67-H ) :   0.9083 B( 17-C , 68-H ) :   0.9081
B( 18-C , 69-H ) :   0.9708 B( 18-C , 70-H ) :   0.9648 B( 18-C , 71-H ) :   0.9633
B( 19-C , 20-C ) :   1.1042 B( 19-C , 72-H ) :   0.9185 B( 19-C , 73-H ) :   0.9191
B( 20-C , 74-H ) :   0.9666 B( 20-C , 75-H ) :   0.9669 B( 20-C , 76-H ) :   0.9689
B( 21-C , 22-C ) :   1.6380 B( 21-C , 77-H ) :   0.9733 B( 22-C , 23-C ) :   1.1209
B( 22-C , 78-H ) :   0.9831 B( 23-C , 24-C ) :   1.6520 B( 23-C , 79-H ) :   0.9771
B( 24-C , 25-C ) :   1.0417 B( 24-C , 80-H ) :   0.9781 B( 25-C , 26-N ) :   1.5118
B( 25-C , 30-N ) :   1.5203 B( 26-N , 27-C ) :   1.5469 B( 27-C , 28-C ) :   1.3883
B( 27-C , 81-H ) :   0.9781 B( 28-C , 29-C ) :   1.3422 B( 28-C , 82-H ) :   0.9623
B( 29-C , 30-N ) :   1.5102 B( 29-C , 31-C ) :   1.0452 B( 31-C , 32-C ) :   1.7051
B( 31-C , 83-H ) :   0.9891 B( 32-C , 33-C ) :   1.0873 B( 32-C , 84-H ) :   0.9492
B( 33-C , 34-C ) :   0.9761 B( 33-C , 39-C ) :   1.8194 B( 34-C , 35-N ) :   1.7219
B( 34-C , 40-C ) :   1.1661 B( 35-N , 36-C ) :   1.2657 B( 36-C , 37-C ) :   1.4580
B( 36-C , 39-C ) :   1.0798 B( 37-C , 38-S ) :   1.0496 B( 37-C , 85-H ) :   1.0087
B( 38-S , 39-C ) :   0.8826 B( 40-C , 41-C ) :   1.6192 B( 40-C , 86-H ) :   0.9179
B( 41-C , 42-C ) :   1.0742 B( 41-C , 50-C ) :   0.8989 B( 42-C , 43-C ) :   1.6066
B( 42-C , 48-C ) :   1.0065 B( 43-C , 44-C ) :   1.1479 B( 43-C , 46-C ) :   1.1436
B( 44-C , 45-N ) :   2.9661 B( 46-C , 47-N ) :   2.9569 B( 48-C , 49-C ) :   1.2730
B( 48-C , 55-C ) :   1.3960 B( 49-C , 50-C ) :   0.9281 B( 49-C , 52-C ) :   1.4279
B( 50-C , 51-O ) :   2.3094 B( 52-C , 53-C ) :   1.2437 B( 52-C , 87-H ) :   1.0174
B( 53-C , 54-C ) :   1.3006 B( 53-C , 58-C ) :   1.1645 B( 54-C , 55-C ) :   1.3411
B( 54-C , 56-S ) :   1.0837 B( 55-C , 88-H ) :   0.9802 B( 56-S , 57-C ) :   1.0870
B( 57-C , 58-C ) :   1.6154 B( 57-C , 59-Br) :   1.0207 B( 58-C , 89-H ) :   1.0013

-----------------------------------------------------------------------------
         ABSORPTION SPECTRUM VIA TRANSITION ELECTRIC DIPOLE MOMENTS
-----------------------------------------------------------------------------
State   Energy  Wavelength   fosc         T2         TX        TY        TZ
        (cm-1)    (nm)                  (au**2)     (au)      (au)      (au)
-----------------------------------------------------------------------------
   0   11953.1    836.6   0.000361871   0.00997   0.05831  -0.03694  -0.07212
   1   14561.5    686.7   0.269376960   6.09017   2.18198   1.15279   0.01383
   2   17124.8    583.9   2.031687337  39.05764  -5.67254  -2.46368   0.90013
   3   18972.1    527.1   0.003780195   0.06560   0.19549  -0.16537  -0.00563
   4   19894.1    502.7   0.089182638   1.47582   0.79810   0.75623   0.51669
   5   21227.1    471.1   0.036688555   0.56900   0.63101   0.35902   0.20476
   6   21964.3    455.3   0.106481489   1.59600   0.83287   0.80525   0.50388
   7   23838.4    419.5   0.188611922   2.60476  -1.41977   0.02904   0.76693
   8   24471.2    408.6   0.004170314   0.05610  -0.15491   0.15884  -0.08292
   9   25155.3    397.5   0.188014861   2.46058  -1.04669  -1.00994  -0.58740
  10   26092.3    383.3   0.010539147   0.13297  -0.22007  -0.28198   0.07094
  11   26482.6    377.6   0.040831705   0.50759   0.09161  -0.52132  -0.47689
  12   26915.8    371.5   0.018554453   0.22694  -0.26527   0.08790   0.38581
  13   27371.5    365.3   0.304760896   3.66552   1.02159   0.46346  -1.55148
  14   27772.9    360.1   0.001508404   0.01788   0.05219  -0.07308   0.09907
  15   28988.3    345.0   0.058722556   0.66689  -0.77706  -0.05048   0.24602
  16   29396.8    340.2   0.038863651   0.43523   0.17679   0.47393   0.42352
  17   30228.8    330.8   0.034075680   0.37111   0.56938   0.05591  -0.20925
  18   30484.6    328.0   0.098835194   1.06735   0.98144   0.29334  -0.13440
  19   31270.6    319.8   0.000063557   0.00067   0.02524   0.00180  -0.00539
  20   31691.6    315.5   0.619670567   6.43714   2.34902   0.14364  -0.94794
  21   31804.1    314.4   0.019135753   0.19808  -0.22284   0.11486   0.36774
  22   32161.0    310.9   0.051995548   0.53225  -0.70291   0.01201   0.19497
  23   32685.7    305.9   0.083786709   0.84390  -0.25202   0.50343   0.72592
  24   32898.7    304.0   0.002927268   0.02929  -0.08480   0.08243  -0.12372
  25   33104.0    302.1   0.079796518   0.79356   0.13567  -0.44584  -0.75920
  26   33695.1    296.8   0.014964741   0.14621  -0.19873  -0.32180   0.05626
  27   34283.9    291.7   0.112697676   1.08218   0.71787   0.73911   0.14341
  28   34528.0    289.6   0.005448614   0.05195   0.13901   0.16062   0.08263
  29   34595.2    289.1   0.220352833   2.09690   0.38182   1.09432   0.86809
  30   34867.0    286.8   0.000700519   0.00661   0.03621   0.05882  -0.04293
  31   35045.2    285.3   0.270155533   2.53782  -1.31167  -0.90228   0.05679
  32   35979.9    277.9   0.007818149   0.07154   0.19545   0.13392  -0.12410
  33   36286.9    275.6   0.115010322   1.04343  -0.10219   0.67701   0.75805
  34   36604.5    273.2   0.068640165   0.61733   0.14462  -0.51352  -0.57682
  35   36885.1    271.1   0.000418736   0.00374   0.03788  -0.03910   0.02782
  36   37110.8    269.5   0.289139360   2.56497   0.07689  -1.01702  -1.23480
  37   37696.3    265.3   0.011088170   0.09684   0.22192  -0.04689  -0.21305
  38   38144.6    262.2   0.010633110   0.09177   0.20764   0.15226  -0.15961
  39   38463.3    260.0   0.058520828   0.50089   0.63418   0.25862  -0.17837
  40   38617.2    259.0   0.170044949   1.44963   0.06686   0.88874   0.80951
  41   38912.7    257.0   0.060270150   0.50990  -0.29313   0.37444   0.53270
  42   39052.7    256.1   0.013380819   0.11280  -0.14978   0.08934   0.28703
  43   39128.9    255.6   0.214520302   1.80487   0.02445  -0.91763  -0.98094
  44   39946.7    250.3   0.122741453   1.01155  -0.95315  -0.25695   0.19242
  45   40053.7    249.7   0.010411265   0.08557  -0.24840   0.05984   0.14244
  46   40180.8    248.9   0.009956103   0.08157  -0.26705   0.07349   0.06968

FINAL SINGLE POINT ENERGY     -6757.423087126005

DIPOLE MOMENT
-------------
                                X             Y             Z
Electronic contribution:   -266.82879     -81.42117     103.79284
Nuclear contribution   :    266.77278      82.94944    -102.43249
                        -----------------------------------------
Total Dipole Moment    :     -0.05601       1.52826       1.36035
                        -----------------------------------------
Magnitude (a.u.)       :      2.04677
Magnitude (Debye)      :      5.20248

Rotational constants in cm-1:     0.003963     0.000169     0.000164
Rotational constants in MHz :   118.810074     5.079821     4.909984

                             ****ORCA TERMINATED NORMALLY****
TOTAL RUN TIME: 0 days 0 hours 9 minutes 54 seconds 319 msec
