                         Program Version 4.2.0 -  RELEASE  -
|  1> # ORCA input file
|  2> # SCF done       -156.145699879713          0.000623607488
|  3> ! CAM-B3LYP def2-SVP def2/J RIJCOSX Grid4 TightSCF
|  4> %maxcore 5000
|  5> %tddft
|  6>     Mode sTDDFT
|  7>     Ethresh 5.0
|  8>     maxcore 5000
|  9> end
| 10>
| 11> %pal
| 12>   nprocs 6
| 13>   end
| 14> * xyz 0 1
| 15>    C       -0.56275        -4.27096        -4.66879
| 16>    C        0.49650        -3.83341        -3.97613
| 17>    C        1.19388        -2.58745        -4.12937
| 18>    C        2.22890        -2.41765        -3.27885
| 19>    C        2.43986        -3.50729        -2.38595
| 20>    S        1.26080        -4.76804        -2.67943
| 21>    C        3.40129        -3.62186        -1.41157
| 22>    C        4.40885        -2.68926        -1.05629
| 23>    C        5.20427        -3.10264        -0.03573
| 24>    C        4.87472        -4.38492         0.47881
| 25>    S        3.51096        -5.04762        -0.39488
| 26>    C        5.49147        -5.04777         1.50831
| 27>    C        5.07078        -6.31667         1.94635
| 28>    O        4.03674        -6.92294         1.33460
| 29>    C        3.80824        -8.11736         1.93701
| 30>    C        4.72095        -8.29048         2.96624
| 31>    C        5.53031        -7.14736         2.97460
| 32>    C        6.65541        -6.84640         3.89051
| 33>    F        6.41442        -5.77669         4.67906
| 34>    F        6.94001        -7.86387         4.71148
| 35>    F        7.79723        -6.55317         3.23372
| 36>    C        2.76262        -8.95258         1.46793
| 37>    C        1.99726        -8.62240         0.39799
| 38>    C        0.94150        -9.41945        -0.13162
| 39>    C        0.24880        -9.04201        -1.27577
| 40>    C       -0.77188        -9.79723        -1.85638
| 41>    C       -1.20594       -11.00678        -1.33414
| 42>    C       -0.55214       -11.42292        -0.13841
| 43>    C        0.51449       -10.64725         0.44986
| 44>    N        0.91483       -11.29431         1.52510
| 45>    O        0.15937       -12.39186         1.60761
| 46>    N       -0.72627       -12.48697         0.61759
| 47>    C       -2.22283       -11.84780        -1.88886
| 48>    O       -2.61582       -12.90046        -1.15095
| 49>    C       -3.54491       -13.60174        -1.83376
| 50>    C       -3.76782       -12.98883        -3.05726
| 51>    C       -2.92610       -11.86577        -3.09505
| 52>    C       -2.82968       -10.93825        -4.24934
| 53>    F       -1.57433       -10.80752        -4.72395
| 54>    F       -3.57802       -11.34424        -5.28317
| 55>    F       -3.24248        -9.68352        -3.96467
| 56>    C       -4.11450       -14.76999        -1.26774
| 57>    C       -3.79293       -15.18494        -0.00884
| 58>    C       -4.26006       -16.32632         0.66966
| 59>    C       -5.03127       -17.36548         0.21151
| 60>    C       -5.42538       -18.47917         1.00354
| 61>    C       -6.13967       -19.42497         0.34184
| 62>    C       -6.36067       -19.12421        -1.02543
| 63>    S       -5.63659       -17.57490        -1.42127
| 64>    C       -7.01635       -19.88597        -1.96205
| 65>    C       -7.63136       -21.15521        -1.76250
| 66>    C       -8.18600       -21.68626        -2.87345
| 67>    C       -8.05437       -20.87333        -4.04944
| 68>    S       -7.18229       -19.38849        -3.63336
| 69>    C       -8.49354       -21.14238        -5.28595
| 70>    H       -0.99331        -3.66967        -5.45009
| 71>    H       -1.01254        -5.22716        -4.47381
| 72>    H        0.88367        -1.87470        -4.87273
| 73>    H        2.85817        -1.54576        -3.25334
| 74>    H        4.51443        -1.74522        -1.56031
| 75>    H        6.01968        -2.53378         0.37465
| 76>    H        6.32660        -4.58874         2.01260
| 77>    H        4.79480        -9.13292         3.62266
| 78>    H        2.59859        -9.87853         1.99711
| 79>    H        2.19376        -7.69257        -0.11942
| 80>    H        0.52168        -8.11026        -1.74959
| 81>    H       -1.23366        -9.40275        -2.74455
| 82>    H       -4.44264       -13.30647        -3.82504
| 83>    H       -4.82404       -15.29538        -1.88627
| 84>    H       -3.10025       -14.56225         0.54274
| 85>    H       -3.94923       -16.41686         1.70328
| 86>    H       -5.15688       -18.53963         2.04386
| 87>    H       -6.50704       -20.33009         0.79109
| 88>    H       -7.63536       -21.62841        -0.79643
| 89>    H       -8.69008       -22.63549        -2.91742
| 90>    H       -9.01739       -22.05842        -5.49547
| 91>    H       -8.33981       -20.46037        -6.10209
| 92> *
| 93>
| 94>                          ****END OF INPUT****

CARTESIAN COORDINATES (ANGSTROEM)
---------------------------------
  C     -0.562750   -4.270960   -4.668790
  C      0.496500   -3.833410   -3.976130
  C      1.193880   -2.587450   -4.129370
  C      2.228900   -2.417650   -3.278850
  C      2.439860   -3.507290   -2.385950
  S      1.260800   -4.768040   -2.679430
  C      3.401290   -3.621860   -1.411570
  C      4.408850   -2.689260   -1.056290
  C      5.204270   -3.102640   -0.035730
  C      4.874720   -4.384920    0.478810
  S      3.510960   -5.047620   -0.394880
  C      5.491470   -5.047770    1.508310
  C      5.070780   -6.316670    1.946350
  O      4.036740   -6.922940    1.334600
  C      3.808240   -8.117360    1.937010
  C      4.720950   -8.290480    2.966240
  C      5.530310   -7.147360    2.974600
  C      6.655410   -6.846400    3.890510
  F      6.414420   -5.776690    4.679060
  F      6.940010   -7.863870    4.711480
  F      7.797230   -6.553170    3.233720
  C      2.762620   -8.952580    1.467930
  C      1.997260   -8.622400    0.397990
  C      0.941500   -9.419450   -0.131620
  C      0.248800   -9.042010   -1.275770
  C     -0.771880   -9.797230   -1.856380
  C     -1.205940  -11.006780   -1.334140
  C     -0.552140  -11.422920   -0.138410
  C      0.514490  -10.647250    0.449860
  N      0.914830  -11.294310    1.525100
  O      0.159370  -12.391860    1.607610
  N     -0.726270  -12.486970    0.617590
  C     -2.222830  -11.847800   -1.888860
  O     -2.615820  -12.900460   -1.150950
  C     -3.544910  -13.601740   -1.833760
  C     -3.767820  -12.988830   -3.057260
  C     -2.926100  -11.865770   -3.095050
  C     -2.829680  -10.938250   -4.249340
  F     -1.574330  -10.807520   -4.723950
  F     -3.578020  -11.344240   -5.283170
  F     -3.242480   -9.683520   -3.964670
  C     -4.114500  -14.769990   -1.267740
  C     -3.792930  -15.184940   -0.008840
  C     -4.260060  -16.326320    0.669660
  C     -5.031270  -17.365480    0.211510
  C     -5.425380  -18.479170    1.003540
  C     -6.139670  -19.424970    0.341840
  C     -6.360670  -19.124210   -1.025430
  S     -5.636590  -17.574900   -1.421270
  C     -7.016350  -19.885970   -1.962050
  C     -7.631360  -21.155210   -1.762500
  C     -8.186000  -21.686260   -2.873450
  C     -8.054370  -20.873330   -4.049440
  S     -7.182290  -19.388490   -3.633360
  C     -8.493540  -21.142380   -5.285950
  H     -0.993310   -3.669670   -5.450090
  H     -1.012540   -5.227160   -4.473810
  H      0.883670   -1.874700   -4.872730
  H      2.858170   -1.545760   -3.253340
  H      4.514430   -1.745220   -1.560310
  H      6.019680   -2.533780    0.374650
  H      6.326600   -4.588740    2.012600
  H      4.794800   -9.132920    3.622660
  H      2.598590   -9.878530    1.997110
  H      2.193760   -7.692570   -0.119420
  H      0.521680   -8.110260   -1.749590
  H     -1.233660   -9.402750   -2.744550
  H     -4.442640  -13.306470   -3.825040
  H     -4.824040  -15.295380   -1.886270
  H     -3.100250  -14.562250    0.542740
  H     -3.949230  -16.416860    1.703280
  H     -5.156880  -18.539630    2.043860
  H     -6.507040  -20.330090    0.791090
  H     -7.635360  -21.628410   -0.796430
  H     -8.690080  -22.635490   -2.917420
  H     -9.017390  -22.058420   -5.495470
  H     -8.339810  -20.460370   -6.102090

 Total Charge           Charge          ....    0
 Multiplicity           Mult            ....    1
 Number of Electrons    NEL             ....  418
 Basis Dimension        Dim             ....  896

ORBITAL ENERGIES
----------------

  NO   OCC          E(Eh)            E(eV)
   0   2.0000     -88.945490     -2420.3298
   1   2.0000     -88.945091     -2420.3190
   2   2.0000     -88.943761     -2420.2828
   3   2.0000     -88.938611     -2420.1427
   4   2.0000     -24.797589      -674.7767
   5   2.0000     -24.794179      -674.6839
   6   2.0000     -24.793505      -674.6656
   7   2.0000     -24.792863      -674.6481
   8   2.0000     -24.786335      -674.4705
   9   2.0000     -24.784193      -674.4122
  10   2.0000     -19.345730      -526.4241
  11   2.0000     -19.297342      -525.1074
  12   2.0000     -19.292834      -524.9847
  13   2.0000     -14.472459      -393.8156
  14   2.0000     -14.471369      -393.7860
  15   2.0000     -10.517637      -286.1994
  16   2.0000     -10.510611      -286.0083
  17   2.0000     -10.347262      -281.5633
  18   2.0000     -10.345625      -281.5188
  19   2.0000     -10.332697      -281.1670
  20   2.0000     -10.332401      -281.1589
  21   2.0000     -10.319301      -280.8025
  22   2.0000     -10.317968      -280.7662
  23   2.0000     -10.316758      -280.7333
  24   2.0000     -10.314199      -280.6636
  25   2.0000     -10.311658      -280.5945
  26   2.0000     -10.310950      -280.5752
  27   2.0000     -10.307179      -280.4726
  28   2.0000     -10.306781      -280.4618
  29   2.0000     -10.306670      -280.4588
  30   2.0000     -10.305758      -280.4339
  31   2.0000     -10.304040      -280.3872
  32   2.0000     -10.297566      -280.2110
  33   2.0000     -10.294121      -280.1173
  34   2.0000     -10.292379      -280.0699
  35   2.0000     -10.291359      -280.0421
  36   2.0000     -10.290555      -280.0202
  37   2.0000     -10.290112      -280.0082
  38   2.0000     -10.289683      -279.9965
  39   2.0000     -10.286231      -279.9026
  40   2.0000     -10.286134      -279.8999
  41   2.0000     -10.285659      -279.8870
  42   2.0000     -10.285502      -279.8827
  43   2.0000     -10.284235      -279.8483
  44   2.0000     -10.284023      -279.8425
  45   2.0000     -10.283365      -279.8246
  46   2.0000     -10.280806      -279.7550
  47   2.0000     -10.278920      -279.7036
  48   2.0000     -10.278326      -279.6875
  49   2.0000     -10.276285      -279.6319
  50   2.0000     -10.274910      -279.5945
  51   2.0000     -10.273488      -279.5558
  52   2.0000     -10.271378      -279.4984
  53   2.0000     -10.270908      -279.4856
  54   2.0000     -10.270441      -279.4729
  55   2.0000      -8.041639      -218.8241
  56   2.0000      -8.040778      -218.8007
  57   2.0000      -8.039555      -218.7674
  58   2.0000      -8.035366      -218.6534
  59   2.0000      -6.011456      -163.5800
  60   2.0000      -6.010738      -163.5605
  61   2.0000      -6.009288      -163.5210
  62   2.0000      -6.007561      -163.4741
  63   2.0000      -6.006336      -163.4407
  64   2.0000      -6.005263      -163.4115
  65   2.0000      -6.005212      -163.4101
  66   2.0000      -6.002196      -163.3281
  67   2.0000      -6.001617      -163.3123
  68   2.0000      -6.001263      -163.3027
  69   2.0000      -6.000545      -163.2831
  70   2.0000      -5.995863      -163.1557
  71   2.0000      -1.384596       -37.6768
  72   2.0000      -1.377265       -37.4773
  73   2.0000      -1.298325       -35.3292
  74   2.0000      -1.288244       -35.0549
  75   2.0000      -1.283479       -34.9252
  76   2.0000      -1.282752       -34.9055
  77   2.0000      -1.274808       -34.6893
  78   2.0000      -1.218916       -33.1684
  79   2.0000      -1.217681       -33.1348
  80   2.0000      -1.003874       -27.3168
  81   2.0000      -0.996260       -27.1096
  82   2.0000      -0.993720       -27.0405
  83   2.0000      -0.990992       -26.9663
  84   2.0000      -0.974058       -26.5055
  85   2.0000      -0.968066       -26.3424
  86   2.0000      -0.924937       -25.1688
  87   2.0000      -0.922816       -25.1111
  88   2.0000      -0.918171       -24.9847
  89   2.0000      -0.913424       -24.8555
  90   2.0000      -0.908153       -24.7121
  91   2.0000      -0.896696       -24.4003
  92   2.0000      -0.883696       -24.0466
  93   2.0000      -0.874373       -23.7929
  94   2.0000      -0.861563       -23.4443
  95   2.0000      -0.849566       -23.1179
  96   2.0000      -0.847401       -23.0590
  97   2.0000      -0.843488       -22.9525
  98   2.0000      -0.825931       -22.4747
  99   2.0000      -0.822012       -22.3681
 100   2.0000      -0.818426       -22.2705
 101   2.0000      -0.809583       -22.0299
 102   2.0000      -0.796383       -21.6707
 103   2.0000      -0.793059       -21.5802
 104   2.0000      -0.782640       -21.2967
 105   2.0000      -0.765169       -20.8213
 106   2.0000      -0.757932       -20.6244
 107   2.0000      -0.744310       -20.2537
 108   2.0000      -0.736354       -20.0372
 109   2.0000      -0.727871       -19.8064
 110   2.0000      -0.714685       -19.4476
 111   2.0000      -0.712767       -19.3954
 112   2.0000      -0.703869       -19.1533
 113   2.0000      -0.689813       -18.7708
 114   2.0000      -0.688156       -18.7257
 115   2.0000      -0.686536       -18.6816
 116   2.0000      -0.679820       -18.4988
 117   2.0000      -0.669034       -18.2053
 118   2.0000      -0.667321       -18.1587
 119   2.0000      -0.660326       -17.9684
 120   2.0000      -0.659630       -17.9495
 121   2.0000      -0.659197       -17.9377
 122   2.0000      -0.654214       -17.8021
 123   2.0000      -0.645006       -17.5515
 124   2.0000      -0.634194       -17.2573
 125   2.0000      -0.630291       -17.1511
 126   2.0000      -0.626438       -17.0462
 127   2.0000      -0.619650       -16.8615
 128   2.0000      -0.613705       -16.6998
 129   2.0000      -0.611893       -16.6505
 130   2.0000      -0.604692       -16.4545
 131   2.0000      -0.601981       -16.3807
 132   2.0000      -0.598132       -16.2760
 133   2.0000      -0.597777       -16.2663
 134   2.0000      -0.589529       -16.0419
 135   2.0000      -0.578936       -15.7536
 136   2.0000      -0.574084       -15.6216
 137   2.0000      -0.573527       -15.6065
 138   2.0000      -0.565645       -15.3920
 139   2.0000      -0.563426       -15.3316
 140   2.0000      -0.558274       -15.1914
 141   2.0000      -0.553889       -15.0721
 142   2.0000      -0.547652       -14.9024
 143   2.0000      -0.545671       -14.8485
 144   2.0000      -0.543189       -14.7809
 145   2.0000      -0.539449       -14.6792
 146   2.0000      -0.536865       -14.6088
 147   2.0000      -0.536233       -14.5917
 148   2.0000      -0.535362       -14.5679
 149   2.0000      -0.523201       -14.2370
 150   2.0000      -0.522285       -14.2121
 151   2.0000      -0.514925       -14.0118
 152   2.0000      -0.513486       -13.9727
 153   2.0000      -0.510339       -13.8870
 154   2.0000      -0.505402       -13.7527
 155   2.0000      -0.504095       -13.7171
 156   2.0000      -0.501694       -13.6518
 157   2.0000      -0.500321       -13.6144
 158   2.0000      -0.497520       -13.5382
 159   2.0000      -0.496459       -13.5093
 160   2.0000      -0.494655       -13.4602
 161   2.0000      -0.494416       -13.4537
 162   2.0000      -0.493337       -13.4244
 163   2.0000      -0.489434       -13.3182
 164   2.0000      -0.488676       -13.2975
 165   2.0000      -0.484192       -13.1755
 166   2.0000      -0.481546       -13.1035
 167   2.0000      -0.480822       -13.0838
 168   2.0000      -0.474632       -12.9154
 169   2.0000      -0.473567       -12.8864
 170   2.0000      -0.473410       -12.8821
 171   2.0000      -0.466822       -12.7029
 172   2.0000      -0.466153       -12.6847
 173   2.0000      -0.464458       -12.6385
 174   2.0000      -0.464174       -12.6308
 175   2.0000      -0.460672       -12.5355
 176   2.0000      -0.458212       -12.4686
 177   2.0000      -0.454281       -12.3616
 178   2.0000      -0.452769       -12.3205
 179   2.0000      -0.451820       -12.2946
 180   2.0000      -0.445869       -12.1327
 181   2.0000      -0.435556       -11.8521
 182   2.0000      -0.432673       -11.7736
 183   2.0000      -0.431595       -11.7443
 184   2.0000      -0.423281       -11.5181
 185   2.0000      -0.421349       -11.4655
 186   2.0000      -0.417839       -11.3700
 187   2.0000      -0.407715       -11.0945
 188   2.0000      -0.403460       -10.9787
 189   2.0000      -0.395554       -10.7636
 190   2.0000      -0.394564       -10.7366
 191   2.0000      -0.393141       -10.6979
 192   2.0000      -0.381994       -10.3946
 193   2.0000      -0.381008       -10.3677
 194   2.0000      -0.374965       -10.2033
 195   2.0000      -0.372479       -10.1357
 196   2.0000      -0.371289       -10.1033
 197   2.0000      -0.357860        -9.7379
 198   2.0000      -0.347119        -9.4456
 199   2.0000      -0.341343        -9.2884
 200   2.0000      -0.337022        -9.1708
 201   2.0000      -0.335146        -9.1198
 202   2.0000      -0.324717        -8.8360
 203   2.0000      -0.319687        -8.6991
 204   2.0000      -0.305873        -8.3232
 205   2.0000      -0.280106        -7.6221
 206   2.0000      -0.255472        -6.9517
 207   2.0000      -0.221336        -6.0229
 208   2.0000      -0.208904        -5.6846
 209   0.0000      -0.086136        -2.3439
 210   0.0000      -0.069693        -1.8965
 211   0.0000      -0.056124        -1.5272
 212   0.0000      -0.003982        -0.1084
 213   0.0000      -0.003266        -0.0889

MULLIKEN ATOMIC CHARGES
-----------------------
   0 C :   -0.023472
   1 C :   -0.062554
   2 C :    0.053814
   3 C :    0.030341
   4 C :   -0.061352
   5 S :    0.076455
   6 C :   -0.039365
   7 C :    0.034776
   8 C :    0.025210
   9 C :    0.000451
  10 S :    0.087478
  11 C :   -0.049972
  12 C :    0.140952
  13 O :   -0.225023
  14 C :    0.192585
  15 C :   -0.052157
  16 C :   -0.112426
  17 C :    0.518568
  18 F :   -0.171595
  19 F :   -0.153871
  20 F :   -0.172048
  21 C :   -0.003053
  22 C :   -0.044687
  23 C :    0.112670
  24 C :   -0.041424
  25 C :   -0.033514
  26 C :    0.053281
  27 C :   -0.034678
  28 C :   -0.027989
  29 N :    0.031603
  30 O :   -0.097360
  31 N :    0.067150
  32 C :    0.130464
  33 O :   -0.182309
  34 C :    0.186412
  35 C :   -0.070098
  36 C :   -0.140764
  37 C :    0.534573
  38 F :   -0.169318
  39 F :   -0.152825
  40 F :   -0.172551
  41 C :   -0.036958
  42 C :    0.015731
  43 C :   -0.009132
  44 C :   -0.018906
  45 C :    0.037615
  46 C :    0.025619
  47 C :   -0.040424
  48 S :    0.060400
  49 C :   -0.061586
  50 C :    0.028157
  51 C :    0.056003
  52 C :   -0.066129
  53 S :    0.082467
  54 C :   -0.027410
  55 H :    0.024783
  56 H :    0.025799
  57 H :   -0.007357
  58 H :   -0.008429
  59 H :   -0.013841
  60 H :   -0.008730
  61 H :    0.002384
  62 H :   -0.000394
  63 H :    0.014568
  64 H :   -0.018172
  65 H :   -0.016990
  66 H :   -0.016199
  67 H :   -0.005676
  68 H :    0.000089
  69 H :    0.015939
  70 H :   -0.012314
  71 H :   -0.011817
  72 H :   -0.015268
  73 H :   -0.010223
  74 H :   -0.010826
  75 H :    0.021060
  76 H :    0.023788
Sum of atomic charges:    0.0000000

LOEWDIN ATOMIC CHARGES
----------------------
   0 C :   -0.065958
   1 C :   -0.140078
   2 C :   -0.025054
   3 C :   -0.026725
   4 C :   -0.167209
   5 S :    0.351218
   6 C :   -0.189854
   7 C :   -0.024224
   8 C :   -0.036550
   9 C :   -0.128324
  10 S :    0.394554
  11 C :   -0.087828
  12 C :    0.054952
  13 O :    0.013379
  14 C :    0.031027
  15 C :   -0.029652
  16 C :   -0.133437
  17 C :    0.169541
  18 F :   -0.073387
  19 F :   -0.054242
  20 F :   -0.071180
  21 C :   -0.023311
  22 C :   -0.024947
  23 C :   -0.021390
  24 C :   -0.009871
  25 C :   -0.001600
  26 C :   -0.049758
  27 C :   -0.047646
  28 C :   -0.043845
  29 N :   -0.028633
  30 O :    0.069326
  31 N :   -0.020050
  32 C :    0.051095
  33 O :    0.044087
  34 C :    0.043752
  35 C :   -0.047855
  36 C :   -0.123212
  37 C :    0.172733
  38 F :   -0.065998
  39 F :   -0.052692
  40 F :   -0.070218
  41 C :   -0.057280
  42 C :   -0.016627
  43 C :   -0.066671
  44 C :   -0.137397
  45 C :   -0.031054
  46 C :   -0.035908
  47 C :   -0.182109
  48 S :    0.380810
  49 C :   -0.172538
  50 C :   -0.026442
  51 C :   -0.028389
  52 C :   -0.139524
  53 S :    0.352590
  54 C :   -0.073347
  55 H :    0.031000
  56 H :    0.028202
  57 H :    0.035227
  58 H :    0.033736
  59 H :    0.031505
  60 H :    0.034919
  61 H :    0.041913
  62 H :    0.039330
  63 H :    0.038940
  64 H :    0.026752
  65 H :    0.033677
  66 H :    0.028752
  67 H :    0.036051
  68 H :    0.020452
  69 H :    0.038787
  70 H :    0.035638
  71 H :    0.033841
  72 H :    0.031000
  73 H :    0.032903
  74 H :    0.033940
  75 H :    0.029277
  76 H :    0.027110

  Mayer bond orders larger than 0.100000
B(  0-C ,  1-C ) :   1.8653 B(  0-C , 55-H ) :   0.9511 B(  0-C , 56-H ) :   0.9425
B(  1-C ,  2-C ) :   1.0782 B(  1-C ,  5-S ) :   1.0047 B(  2-C ,  3-C ) :   1.6631
B(  2-C , 57-H ) :   0.9929 B(  3-C ,  4-C ) :   1.1526 B(  3-C , 58-H ) :   0.9914
B(  4-C ,  5-S ) :   1.0509 B(  4-C ,  6-C ) :   1.5538 B(  6-C ,  7-C ) :   1.1747
B(  6-C , 10-S ) :   1.0128 B(  7-C ,  8-C ) :   1.6071 B(  7-C , 59-H ) :   0.9934
B(  8-C ,  9-C ) :   1.1356 B(  8-C , 60-H ) :   1.0002 B(  9-C , 10-S ) :   1.0610
B(  9-C , 11-C ) :   1.5500 B( 11-C , 12-C ) :   1.2156 B( 11-C , 61-H ) :   0.9563
B( 12-C , 13-O ) :   1.1399 B( 12-C , 16-C ) :   1.3884 B( 13-O , 14-C ) :   1.1096
B( 14-C , 15-C ) :   1.4067 B( 14-C , 21-C ) :   1.1544 B( 15-C , 16-C ) :   1.2761
B( 15-C , 62-H ) :   1.0202 B( 16-C , 17-C ) :   0.9535 B( 17-C , 18-F ) :   1.1687
B( 17-C , 19-F ) :   1.1860 B( 17-C , 20-F ) :   1.1558 B( 21-C , 22-C ) :   1.6138
B( 21-C , 63-H ) :   0.9439 B( 22-C , 23-C ) :   1.1420 B( 22-C , 64-H ) :   0.9761
B( 23-C , 24-C ) :   1.4348 B( 23-C , 26-C ) :   0.1095 B( 23-C , 28-C ) :   1.1002
B( 24-C , 25-C ) :   1.2311 B( 24-C , 65-H ) :   0.9939 B( 25-C , 26-C ) :   1.4804
B( 25-C , 66-H ) :   0.9826 B( 26-C , 27-C ) :   1.1182 B( 26-C , 32-C ) :   1.0864
B( 27-C , 28-C ) :   1.1481 B( 27-C , 31-N ) :   1.6207 B( 28-C , 29-N ) :   1.5987
B( 29-N , 30-O ) :   1.0538 B( 29-N , 31-N ) :   0.1791 B( 30-O , 31-N ) :   1.0558
B( 32-C , 33-O ) :   1.2022 B( 32-C , 34-C ) :   0.1063 B( 32-C , 36-C ) :   1.4408
B( 33-O , 34-C ) :   1.1415 B( 34-C , 35-C ) :   1.3925 B( 34-C , 41-C ) :   1.1930
B( 35-C , 36-C ) :   1.2661 B( 35-C , 67-H ) :   1.0195 B( 36-C , 37-C ) :   0.9446
B( 37-C , 38-F ) :   1.1608 B( 37-C , 39-F ) :   1.1823 B( 37-C , 40-F ) :   1.1358
B( 41-C , 42-C ) :   1.6026 B( 41-C , 68-H ) :   0.9415 B( 42-C , 43-C ) :   1.1960
B( 42-C , 69-H ) :   0.9656 B( 43-C , 44-C ) :   1.5730 B( 43-C , 70-H ) :   0.9640
B( 44-C , 45-C ) :   1.1404 B( 44-C , 48-S ) :   1.0423 B( 45-C , 46-C ) :   1.6065
B( 45-C , 71-H ) :   0.9983 B( 46-C , 47-C ) :   1.1703 B( 46-C , 72-H ) :   0.9920
B( 47-C , 48-S ) :   1.0293 B( 47-C , 49-C ) :   1.5578 B( 49-C , 50-C ) :   1.1507
B( 49-C , 53-S ) :   1.0472 B( 50-C , 51-C ) :   1.6625 B( 50-C , 73-H ) :   0.9918
B( 51-C , 52-C ) :   1.0798 B( 51-C , 74-H ) :   0.9925 B( 52-C , 53-S ) :   1.0068
B( 52-C , 54-C ) :   1.8661 B( 54-C , 75-H ) :   0.9502 B( 54-C , 76-H ) :   0.9416

-----------------------------------------------------------------------------
         ABSORPTION SPECTRUM VIA TRANSITION ELECTRIC DIPOLE MOMENTS
-----------------------------------------------------------------------------
State   Energy  Wavelength   fosc         T2         TX        TY        TZ
        (cm-1)    (nm)                  (au**2)     (au)      (au)      (au)
-----------------------------------------------------------------------------
   0   13009.8    768.6   1.233513221  31.21387  -2.71357  -4.88367  -0.01091
   1   16574.8    603.3   0.581349946  11.54691   2.36113   1.32225   2.05515
   2   18821.7    531.3   0.369511719   6.46315   1.74971   0.49168   1.77761
   3   20355.9    491.3   0.274748509   4.44346  -0.01971   2.05073  -0.48740
   4   23211.3    430.8   0.326321407   4.62831  -1.79223   0.03043  -1.18966
   5   23854.5    419.2   0.024438476   0.33727   0.53055   0.23268   0.04061
   6   25763.0    388.2   0.362317753   4.62986   1.32142   0.40726   1.64859
   7   26960.4    370.9   0.080718630   0.98565   0.61829   0.09957   0.77036
   8   28814.0    347.1   0.007805213   0.08918  -0.27632  -0.10999  -0.02697
   9   29316.1    341.1   0.092744396   1.04150   0.84304   0.47933   0.31784
  10   30629.2    326.5   0.201621729   2.16709  -1.02541  -0.93960   0.48246
  11   31274.2    319.8   0.510490691   5.37375   1.23311   0.19401   1.95335
  12   32449.5    308.2   0.088242018   0.89525  -0.64762  -0.68029  -0.11418
  13   33587.0    297.7   0.048119373   0.47165  -0.54826  -0.31695  -0.26572
  14   33864.8    295.3   0.148824331   1.44678   0.57034  -0.10068   1.05421
  15   34893.7    286.6   0.101502624   0.95765  -0.08287  -0.69845   0.68040
  16   35308.0    283.2   0.074659790   0.69613   0.54329   0.34491   0.53104
  17   35670.9    280.3   0.149909280   1.38353  -0.38585   0.32937  -1.06121
  18   35986.8    277.9   0.008535003   0.07808  -0.00027  -0.18226   0.21180
  19   36137.1    276.7   0.009311730   0.08483  -0.05524   0.16153  -0.23598
  20   36723.6    272.3   0.018658508   0.16727  -0.25717  -0.25379   0.19162
  21   37743.3    264.9   0.012917696   0.11267  -0.10214   0.14692  -0.28400
  22   38623.3    258.9   0.155255949   1.32335  -0.75485   0.01866  -0.86787
  23   39115.2    255.7   0.050589740   0.42579   0.11496   0.33690   0.54687
  24   39210.9    255.0   0.062960848   0.52861  -0.09922  -0.47740   0.53931
  25   39849.4    250.9   0.006175353   0.05102  -0.06589  -0.12271   0.17781
  26   40229.3    248.6   0.205442471   1.68122   0.39093  -0.37074   1.17938

FINAL SINGLE POINT ENERGY     -4060.882152916100

DIPOLE MOMENT
-------------
                                X             Y             Z
Electronic contribution:     35.20922      24.43675      14.55839
Nuclear contribution   :    -36.44228     -24.29816     -15.58493
                        -----------------------------------------
Total Dipole Moment    :     -1.23306       0.13859      -1.02655
                        -----------------------------------------
Magnitude (a.u.)       :      1.61042
Magnitude (Debye)      :      4.09335

Rotational constants in cm-1:     0.002355     0.000403     0.000348
Rotational constants in MHz :    70.586341    12.073565    10.434722

                             ****ORCA TERMINATED NORMALLY****
TOTAL RUN TIME: 0 days 0 hours 5 minutes 56 seconds 781 msec
