                         Program Version 4.2.0 -  RELEASE  -
|  1> # ORCA input file
|  2> # SCF done       -161.897142223581          0.000746880005
|  3> ! CAM-B3LYP def2-SVP def2/J RIJCOSX Grid4 TightSCF
|  4> %maxcore 5000
|  5> %tddft
|  6>     Mode sTDDFT
|  7>     Ethresh 5.0
|  8>     maxcore 5000
|  9> end
| 10>
| 11> %pal
| 12>   nprocs 6
| 13>   end
| 14> * xyz 0 1
| 15>    C        5.23912        -2.55929         8.50012
| 16>    C        5.77812        -2.32985         7.29559
| 17>    C        6.61506        -1.23184         6.90321
| 18>    C        7.00573        -1.26059         5.61064
| 19>    C        6.51777        -2.37576         4.87285
| 20>    S        5.53351        -3.39840         5.90433
| 21>    C        6.74151        -2.66270         3.54961
| 22>    C        7.49172        -1.91008         2.60971
| 23>    C        7.51511        -2.44826         1.36483
| 24>    C        6.78961        -3.66388         1.23380
| 25>    S        6.07530        -4.09475         2.78125
| 26>    C        6.65234        -4.38846         0.08400
| 27>    C        5.95295        -5.59623        -0.09122
| 28>    S        5.13848        -6.45476         1.18095
| 29>    C        4.63791        -7.71825         0.10793
| 30>    C        5.06888        -7.46656        -1.19775
| 31>    C        5.81946        -6.26885        -1.30877
| 32>    O        6.40033        -5.71500        -2.39691
| 33>    C        6.34234        -6.38038        -3.63746
| 34>    C        4.69686        -8.27812        -2.28193
| 35>    N        4.36883        -8.92096        -3.17671
| 36>    C        3.89531        -8.83746         0.62916
| 37>    C        3.20868        -8.69629         1.84789
| 38>    C        2.51133        -9.75948         2.36036
| 39>    C        2.48198       -10.98981         1.67917
| 40>    C        3.16901       -11.14496         0.48444
| 41>    C        3.87137       -10.07440        -0.02960
| 42>    C        1.67825       -11.91804         2.44036
| 43>    C        1.20861       -11.26673         3.59432
| 44>    C        1.70403        -9.83863         3.63552
| 45>    C        0.53510        -8.83649         3.62222
| 46>    C       -0.39166        -9.02494         2.42733
| 47>    C        2.58686        -9.58276         4.87124
| 48>    C        3.77148       -10.53717         4.95973
| 49>    C        0.41127       -11.93224         4.49204
| 50>    C        0.06560       -13.27573         4.26362
| 51>    C        0.54192       -13.90502         3.10355
| 52>    C        1.33955       -13.24134         2.19613
| 53>    C       -0.77222       -13.94656         5.22733
| 54>    C       -1.06993       -15.26373         5.22163
| 55>    C       -1.89893       -15.94986         6.14897
| 56>    S       -2.07243       -17.67346         5.95971
| 57>    C       -3.13896       -17.79248         7.31803
| 58>    C       -3.34632       -16.52172         7.89263
| 59>    C       -2.64733       -15.48643         7.23209
| 60>    O       -2.63816       -14.16783         7.52817
| 61>    C       -3.44317       -13.70005         8.58644
| 62>    C       -4.17999       -16.41111         9.01269
| 63>    N       -4.87317       -16.39049         9.93017
| 64>    C       -3.70364       -18.99216         7.76675
| 65>    C       -3.51924       -20.24331         7.23236
| 66>    C       -4.10543       -21.44194         7.71611
| 67>    C       -3.76503       -22.55629         7.01702
| 68>    C       -2.88700       -22.30743         5.93366
| 69>    S       -2.51321       -20.59346         5.84164
| 70>    C       -2.35917       -23.21094         5.04255
| 71>    C       -2.57386       -24.61773         5.00648
| 72>    C       -1.91752       -25.25631         4.01318
| 73>    C       -1.12631       -24.39828         3.17778
| 74>    S       -1.28053       -22.72885         3.74970
| 75>    C       -0.37374       -24.74478         2.12494
| 76>    H        5.41332        -1.88221         9.31763
| 77>    H        4.62182        -3.41817         8.68878
| 78>    H        6.88429        -0.46842         7.61164
| 79>    H        7.63346        -0.51800         5.15028
| 80>    H        7.98515        -0.99450         2.88241
| 81>    H        8.02892        -2.01784         0.52316
| 82>    H        7.12813        -4.00627        -0.80929
| 83>    H        6.93739        -5.77335        -4.31823
| 84>    H        5.31746        -6.44724        -4.01081
| 85>    H        6.76979        -7.38472        -3.57742
| 86>    H        3.23222        -7.74504         2.36023
| 87>    H        3.16455       -12.08971        -0.03747
| 88>    H        4.42666       -10.20114        -0.94424
| 89>    H        0.94388        -7.82396         3.60916
| 90>    H       -0.03610        -8.95457         4.54552
| 91>    H        0.15154        -8.89077         1.49451
| 92>    H       -1.20015        -8.29827         2.46257
| 93>    H       -0.82476       -10.02279         2.43082
| 94>    H        1.97103        -9.68602         5.76724
| 95>    H        2.95264        -8.55455         4.83247
| 96>    H        3.43088       -11.56864         5.01937
| 97>    H        4.36285       -10.31715         5.84552
| 98>    H        4.41119       -10.43686         4.08577
| 99>    H        0.04587       -11.43826         5.38143
|100>    H        0.27167       -14.93013         2.90440
|101>    H        1.69158       -13.74407         1.30761
|102>    H       -1.17450       -13.32809         6.01604
|103>    H       -0.65237       -15.90871         4.46015
|104>    H       -3.29865       -12.62082         8.60719
|105>    H       -3.13589       -14.12701         9.54493
|106>    H       -4.50015       -13.92208         8.41608
|107>    H       -4.35381       -18.91809         8.62958
|108>    H       -4.76035       -21.43273         8.56953
|109>    H       -4.11750       -23.54555         7.24734
|110>    H       -3.21051       -25.10414         5.72412
|111>    H       -1.95719       -26.31531         3.82936
|112>    H       -0.30736       -25.77175         1.81157
|113>    H        0.18314       -24.01661         1.56433
|114> *
|115>
|116>                          ****END OF INPUT****

CARTESIAN COORDINATES (ANGSTROEM)
---------------------------------
  C      5.239120   -2.559290    8.500120
  C      5.778120   -2.329850    7.295590
  C      6.615060   -1.231840    6.903210
  C      7.005730   -1.260590    5.610640
  C      6.517770   -2.375760    4.872850
  S      5.533510   -3.398400    5.904330
  C      6.741510   -2.662700    3.549610
  C      7.491720   -1.910080    2.609710
  C      7.515110   -2.448260    1.364830
  C      6.789610   -3.663880    1.233800
  S      6.075300   -4.094750    2.781250
  C      6.652340   -4.388460    0.084000
  C      5.952950   -5.596230   -0.091220
  S      5.138480   -6.454760    1.180950
  C      4.637910   -7.718250    0.107930
  C      5.068880   -7.466560   -1.197750
  C      5.819460   -6.268850   -1.308770
  O      6.400330   -5.715000   -2.396910
  C      6.342340   -6.380380   -3.637460
  C      4.696860   -8.278120   -2.281930
  N      4.368830   -8.920960   -3.176710
  C      3.895310   -8.837460    0.629160
  C      3.208680   -8.696290    1.847890
  C      2.511330   -9.759480    2.360360
  C      2.481980  -10.989810    1.679170
  C      3.169010  -11.144960    0.484440
  C      3.871370  -10.074400   -0.029600
  C      1.678250  -11.918040    2.440360
  C      1.208610  -11.266730    3.594320
  C      1.704030   -9.838630    3.635520
  C      0.535100   -8.836490    3.622220
  C     -0.391660   -9.024940    2.427330
  C      2.586860   -9.582760    4.871240
  C      3.771480  -10.537170    4.959730
  C      0.411270  -11.932240    4.492040
  C      0.065600  -13.275730    4.263620
  C      0.541920  -13.905020    3.103550
  C      1.339550  -13.241340    2.196130
  C     -0.772220  -13.946560    5.227330
  C     -1.069930  -15.263730    5.221630
  C     -1.898930  -15.949860    6.148970
  S     -2.072430  -17.673460    5.959710
  C     -3.138960  -17.792480    7.318030
  C     -3.346320  -16.521720    7.892630
  C     -2.647330  -15.486430    7.232090
  O     -2.638160  -14.167830    7.528170
  C     -3.443170  -13.700050    8.586440
  C     -4.179990  -16.411110    9.012690
  N     -4.873170  -16.390490    9.930170
  C     -3.703640  -18.992160    7.766750
  C     -3.519240  -20.243310    7.232360
  C     -4.105430  -21.441940    7.716110
  C     -3.765030  -22.556290    7.017020
  C     -2.887000  -22.307430    5.933660
  S     -2.513210  -20.593460    5.841640
  C     -2.359170  -23.210940    5.042550
  C     -2.573860  -24.617730    5.006480
  C     -1.917520  -25.256310    4.013180
  C     -1.126310  -24.398280    3.177780
  S     -1.280530  -22.728850    3.749700
  C     -0.373740  -24.744780    2.124940
  H      5.413320   -1.882210    9.317630
  H      4.621820   -3.418170    8.688780
  H      6.884290   -0.468420    7.611640
  H      7.633460   -0.518000    5.150280
  H      7.985150   -0.994500    2.882410
  H      8.028920   -2.017840    0.523160
  H      7.128130   -4.006270   -0.809290
  H      6.937390   -5.773350   -4.318230
  H      5.317460   -6.447240   -4.010810
  H      6.769790   -7.384720   -3.577420
  H      3.232220   -7.745040    2.360230
  H      3.164550  -12.089710   -0.037470
  H      4.426660  -10.201140   -0.944240
  H      0.943880   -7.823960    3.609160
  H     -0.036100   -8.954570    4.545520
  H      0.151540   -8.890770    1.494510
  H     -1.200150   -8.298270    2.462570
  H     -0.824760  -10.022790    2.430820
  H      1.971030   -9.686020    5.767240
  H      2.952640   -8.554550    4.832470
  H      3.430880  -11.568640    5.019370
  H      4.362850  -10.317150    5.845520
  H      4.411190  -10.436860    4.085770
  H      0.045870  -11.438260    5.381430
  H      0.271670  -14.930130    2.904400
  H      1.691580  -13.744070    1.307610
  H     -1.174500  -13.328090    6.016040
  H     -0.652370  -15.908710    4.460150
  H     -3.298650  -12.620820    8.607190
  H     -3.135890  -14.127010    9.544930
  H     -4.500150  -13.922080    8.416080
  H     -4.353810  -18.918090    8.629580
  H     -4.760350  -21.432730    8.569530
  H     -4.117500  -23.545550    7.247340
  H     -3.210510  -25.104140    5.724120
  H     -1.957190  -26.315310    3.829360
  H     -0.307360  -25.771750    1.811570
  H      0.183140  -24.016610    1.564330

 Total Charge           Charge          ....    0
 Multiplicity           Mult            ....    1
 Number of Electrons    NEL             ....  470
 Basis Dimension        Dim             .... 1068

ORBITAL ENERGIES
----------------

  NO   OCC          E(Eh)            E(eV)
   0   2.0000     -88.961884     -2420.7759
   1   2.0000     -88.961262     -2420.7590
   2   2.0000     -88.949146     -2420.4293
   3   2.0000     -88.943653     -2420.2798
   4   2.0000     -88.937724     -2420.1185
   5   2.0000     -88.931591     -2419.9516
   6   2.0000     -19.255396      -523.9660
   7   2.0000     -19.253803      -523.9226
   8   2.0000     -14.399381      -391.8271
   9   2.0000     -14.397267      -391.7695
  10   2.0000     -10.345384      -281.5122
  11   2.0000     -10.345268      -281.5091
  12   2.0000     -10.320880      -280.8454
  13   2.0000     -10.319551      -280.8093
  14   2.0000     -10.318661      -280.7850
  15   2.0000     -10.318127      -280.7705
  16   2.0000     -10.317391      -280.7505
  17   2.0000     -10.312931      -280.6291
  18   2.0000     -10.311457      -280.5890
  19   2.0000     -10.311255      -280.5835
  20   2.0000     -10.306488      -280.4538
  21   2.0000     -10.304251      -280.3929
  22   2.0000     -10.302914      -280.3565
  23   2.0000     -10.302262      -280.3388
  24   2.0000     -10.301840      -280.3273
  25   2.0000     -10.301662      -280.3225
  26   2.0000     -10.300197      -280.2826
  27   2.0000     -10.298401      -280.2337
  28   2.0000     -10.295059      -280.1428
  29   2.0000     -10.294309      -280.1224
  30   2.0000     -10.293926      -280.1120
  31   2.0000     -10.290946      -280.0309
  32   2.0000     -10.290318      -280.0138
  33   2.0000     -10.285766      -279.8899
  34   2.0000     -10.284117      -279.8450
  35   2.0000     -10.284016      -279.8423
  36   2.0000     -10.283487      -279.8279
  37   2.0000     -10.278921      -279.7037
  38   2.0000     -10.278066      -279.6804
  39   2.0000     -10.277937      -279.6769
  40   2.0000     -10.277895      -279.6758
  41   2.0000     -10.276553      -279.6392
  42   2.0000     -10.272469      -279.5281
  43   2.0000     -10.271509      -279.5020
  44   2.0000     -10.269628      -279.4508
  45   2.0000     -10.269225      -279.4398
  46   2.0000     -10.266839      -279.3749
  47   2.0000     -10.266679      -279.3705
  48   2.0000     -10.265857      -279.3482
  49   2.0000     -10.264119      -279.3009
  50   2.0000     -10.263873      -279.2942
  51   2.0000     -10.263088      -279.2728
  52   2.0000     -10.261519      -279.2301
  53   2.0000     -10.260723      -279.2085
  54   2.0000     -10.260619      -279.2056
  55   2.0000     -10.260185      -279.1938
  56   2.0000     -10.259834      -279.1843
  57   2.0000     -10.256504      -279.0937
  58   2.0000     -10.256424      -279.0915
  59   2.0000     -10.239320      -278.6261
  60   2.0000     -10.239205      -278.6229
  61   2.0000      -8.056674      -219.2332
  62   2.0000      -8.056369      -219.2249
  63   2.0000      -8.045216      -218.9215
  64   2.0000      -8.040445      -218.7916
  65   2.0000      -8.033851      -218.6122
  66   2.0000      -8.028253      -218.4599
  67   2.0000      -6.025883      -163.9726
  68   2.0000      -6.025597      -163.9648
  69   2.0000      -6.021878      -163.8636
  70   2.0000      -6.021595      -163.8559
  71   2.0000      -6.018860      -163.7815
  72   2.0000      -6.018481      -163.7712
  73   2.0000      -6.014984      -163.6760
  74   2.0000      -6.010882      -163.5644
  75   2.0000      -6.010270      -163.5478
  76   2.0000      -6.006319      -163.4403
  77   2.0000      -6.006103      -163.4344
  78   2.0000      -6.003681      -163.3685
  79   2.0000      -6.000963      -163.2945
  80   2.0000      -5.999597      -163.2573
  81   2.0000      -5.998102      -163.2167
  82   2.0000      -5.994623      -163.1220
  83   2.0000      -5.994186      -163.1101
  84   2.0000      -5.988760      -162.9624
  85   2.0000      -1.159414       -31.5492
  86   2.0000      -1.157916       -31.5085
  87   2.0000      -1.001130       -27.2421
  88   2.0000      -1.000313       -27.2199
  89   2.0000      -0.993865       -27.0444
  90   2.0000      -0.985624       -26.8202
  91   2.0000      -0.981884       -26.7184
  92   2.0000      -0.977564       -26.6009
  93   2.0000      -0.977151       -26.5896
  94   2.0000      -0.971038       -26.4233
  95   2.0000      -0.961488       -26.1634
  96   2.0000      -0.938616       -25.5411
  97   2.0000      -0.914765       -24.8920
  98   2.0000      -0.901083       -24.5197
  99   2.0000      -0.891860       -24.2687
 100   2.0000      -0.884707       -24.0741
 101   2.0000      -0.873618       -23.7724
 102   2.0000      -0.864152       -23.5148
 103   2.0000      -0.861671       -23.4473
 104   2.0000      -0.855203       -23.2712
 105   2.0000      -0.849682       -23.1210
 106   2.0000      -0.842298       -22.9201
 107   2.0000      -0.837863       -22.7994
 108   2.0000      -0.833026       -22.6678
 109   2.0000      -0.830260       -22.5925
 110   2.0000      -0.828341       -22.5403
 111   2.0000      -0.826486       -22.4898
 112   2.0000      -0.823966       -22.4212
 113   2.0000      -0.821342       -22.3499
 114   2.0000      -0.812024       -22.0963
 115   2.0000      -0.799640       -21.7593
 116   2.0000      -0.796166       -21.6648
 117   2.0000      -0.783204       -21.3121
 118   2.0000      -0.764105       -20.7923
 119   2.0000      -0.754967       -20.5437
 120   2.0000      -0.751341       -20.4450
 121   2.0000      -0.734693       -19.9920
 122   2.0000      -0.721191       -19.6246
 123   2.0000      -0.713375       -19.4119
 124   2.0000      -0.712412       -19.3857
 125   2.0000      -0.701598       -19.0915
 126   2.0000      -0.690050       -18.7772
 127   2.0000      -0.681606       -18.5474
 128   2.0000      -0.675539       -18.3824
 129   2.0000      -0.673376       -18.3235
 130   2.0000      -0.667293       -18.1580
 131   2.0000      -0.666490       -18.1361
 132   2.0000      -0.654231       -17.8025
 133   2.0000      -0.649890       -17.6844
 134   2.0000      -0.644113       -17.5272
 135   2.0000      -0.641958       -17.4686
 136   2.0000      -0.631210       -17.1761
 137   2.0000      -0.623899       -16.9771
 138   2.0000      -0.622363       -16.9353
 139   2.0000      -0.616934       -16.7876
 140   2.0000      -0.612606       -16.6698
 141   2.0000      -0.610287       -16.6068
 142   2.0000      -0.603665       -16.4266
 143   2.0000      -0.596757       -16.2386
 144   2.0000      -0.592879       -16.1331
 145   2.0000      -0.587531       -15.9875
 146   2.0000      -0.587285       -15.9808
 147   2.0000      -0.571870       -15.5614
 148   2.0000      -0.566695       -15.4206
 149   2.0000      -0.559705       -15.2304
 150   2.0000      -0.559478       -15.2242
 151   2.0000      -0.558468       -15.1967
 152   2.0000      -0.557006       -15.1569
 153   2.0000      -0.550496       -14.9798
 154   2.0000      -0.545470       -14.8430
 155   2.0000      -0.536552       -14.6003
 156   2.0000      -0.536209       -14.5910
 157   2.0000      -0.533763       -14.5244
 158   2.0000      -0.527711       -14.3597
 159   2.0000      -0.518990       -14.1224
 160   2.0000      -0.517779       -14.0895
 161   2.0000      -0.513184       -13.9645
 162   2.0000      -0.511743       -13.9252
 163   2.0000      -0.510919       -13.9028
 164   2.0000      -0.510620       -13.8947
 165   2.0000      -0.509971       -13.8770
 166   2.0000      -0.503370       -13.6974
 167   2.0000      -0.503112       -13.6904
 168   2.0000      -0.498988       -13.5782
 169   2.0000      -0.497134       -13.5277
 170   2.0000      -0.495334       -13.4787
 171   2.0000      -0.492515       -13.4020
 172   2.0000      -0.492171       -13.3927
 173   2.0000      -0.487114       -13.2551
 174   2.0000      -0.485719       -13.2171
 175   2.0000      -0.483363       -13.1530
 176   2.0000      -0.481020       -13.0892
 177   2.0000      -0.479367       -13.0442
 178   2.0000      -0.473472       -12.8838
 179   2.0000      -0.471140       -12.8204
 180   2.0000      -0.468051       -12.7363
 181   2.0000      -0.464660       -12.6440
 182   2.0000      -0.464046       -12.6273
 183   2.0000      -0.463319       -12.6076
 184   2.0000      -0.459132       -12.4936
 185   2.0000      -0.456660       -12.4263
 186   2.0000      -0.455315       -12.3898
 187   2.0000      -0.453228       -12.3330
 188   2.0000      -0.445402       -12.1200
 189   2.0000      -0.443312       -12.0631
 190   2.0000      -0.440093       -11.9755
 191   2.0000      -0.438940       -11.9442
 192   2.0000      -0.437052       -11.8928
 193   2.0000      -0.435645       -11.8545
 194   2.0000      -0.434630       -11.8269
 195   2.0000      -0.432783       -11.7766
 196   2.0000      -0.432106       -11.7582
 197   2.0000      -0.428041       -11.6476
 198   2.0000      -0.427425       -11.6308
 199   2.0000      -0.423093       -11.5129
 200   2.0000      -0.418439       -11.3863
 201   2.0000      -0.417821       -11.3695
 202   2.0000      -0.417394       -11.3579
 203   2.0000      -0.416354       -11.3296
 204   2.0000      -0.414876       -11.2893
 205   2.0000      -0.410145       -11.1606
 206   2.0000      -0.407825       -11.0975
 207   2.0000      -0.406431       -11.0595
 208   2.0000      -0.400351       -10.8941
 209   2.0000      -0.396675       -10.7941
 210   2.0000      -0.393880       -10.7180
 211   2.0000      -0.390319       -10.6211
 212   2.0000      -0.389535       -10.5998
 213   2.0000      -0.386159       -10.5079
 214   2.0000      -0.384925       -10.4743
 215   2.0000      -0.382855       -10.4180
 216   2.0000      -0.377192       -10.2639
 217   2.0000      -0.376440       -10.2434
 218   2.0000      -0.373819       -10.1721
 219   2.0000      -0.357820        -9.7368
 220   2.0000      -0.343103        -9.3363
 221   2.0000      -0.341173        -9.2838
 222   2.0000      -0.331733        -9.0269
 223   2.0000      -0.331163        -9.0114
 224   2.0000      -0.322843        -8.7850
 225   2.0000      -0.315988        -8.5985
 226   2.0000      -0.315460        -8.5841
 227   2.0000      -0.309074        -8.4103
 228   2.0000      -0.306002        -8.3267
 229   2.0000      -0.303279        -8.2527
 230   2.0000      -0.291500        -7.9321
 231   2.0000      -0.270676        -7.3655
 232   2.0000      -0.250558        -6.8180
 233   2.0000      -0.214291        -5.8312
 234   2.0000      -0.204620        -5.5680
 235   0.0000      -0.078909        -2.1472
 236   0.0000      -0.063483        -1.7275
 237   0.0000      -0.030042        -0.8175
 238   0.0000      -0.011345        -0.3087
 239   0.0000       0.005895         0.1604

MULLIKEN ATOMIC CHARGES
-----------------------
   0 C :   -0.033015
   1 C :   -0.062930
   2 C :    0.048579
   3 C :    0.031078
   4 C :   -0.072160
   5 S :    0.073528
   6 C :   -0.032490
   7 C :    0.025485
   8 C :    0.037529
   9 C :   -0.026316
  10 S :    0.049099
  11 C :   -0.004574
  12 C :   -0.160472
  13 S :    0.124054
  14 C :   -0.045584
  15 C :   -0.063538
  16 C :    0.217987
  17 O :   -0.306571
  18 C :    0.183255
  19 C :   -0.274204
  20 N :    0.126829
  21 C :    0.101010
  22 C :   -0.117739
  23 C :    0.023487
  24 C :    0.111416
  25 C :   -0.057358
  26 C :   -0.022798
  27 C :    0.107469
  28 C :    0.024303
  29 C :   -0.139990
  30 C :    0.066236
  31 C :    0.026461
  32 C :    0.068924
  33 C :    0.024768
  34 C :   -0.116134
  35 C :    0.133666
  36 C :   -0.015712
  37 C :   -0.043473
  38 C :   -0.030390
  39 C :    0.066401
  40 C :   -0.150746
  41 S :    0.123530
  42 C :   -0.042645
  43 C :   -0.106064
  44 C :    0.239798
  45 O :   -0.306918
  46 C :    0.182485
  47 C :   -0.255810
  48 N :    0.110478
  49 C :   -0.033831
  50 C :   -0.027681
  51 C :    0.028019
  52 C :    0.038045
  53 C :   -0.042154
  54 S :    0.067179
  55 C :   -0.062798
  56 C :    0.029978
  57 C :    0.055400
  58 C :   -0.066077
  59 S :    0.088070
  60 C :   -0.023470
  61 H :    0.017794
  62 H :    0.019522
  63 H :   -0.013585
  64 H :   -0.013465
  65 H :   -0.017891
  66 H :   -0.014844
  67 H :   -0.001809
  68 H :    0.032910
  69 H :    0.044823
  70 H :    0.038089
  71 H :   -0.023403
  72 H :   -0.032128
  73 H :   -0.010812
  74 H :   -0.000896
  75 H :   -0.003373
  76 H :    0.021268
  77 H :    0.008370
  78 H :    0.022059
  79 H :   -0.002678
  80 H :   -0.001277
  81 H :    0.022635
  82 H :    0.008429
  83 H :    0.021135
  84 H :   -0.044567
  85 H :   -0.032311
  86 H :   -0.038479
  87 H :   -0.012658
  88 H :   -0.029106
  89 H :    0.034223
  90 H :    0.043678
  91 H :    0.043106
  92 H :    0.008384
  93 H :   -0.005326
  94 H :   -0.013208
  95 H :   -0.008320
  96 H :   -0.006742
  97 H :    0.023707
  98 H :    0.025843
Sum of atomic charges:   -0.0000000

LOEWDIN ATOMIC CHARGES
----------------------
   0 C :   -0.082438
   1 C :   -0.138604
   2 C :   -0.034859
   3 C :   -0.026252
   4 C :   -0.180948
   5 S :    0.345240
   6 C :   -0.178020
   7 C :   -0.040535
   8 C :   -0.029688
   9 C :   -0.158204
  10 S :    0.351081
  11 C :   -0.063530
  12 C :   -0.214497
  13 S :    0.470039
  14 C :   -0.124548
  15 C :   -0.146847
  16 C :    0.043502
  17 O :   -0.093782
  18 C :    0.080869
  19 C :   -0.030855
  20 N :   -0.075048
  21 C :   -0.048855
  22 C :   -0.024692
  23 C :    0.004208
  24 C :   -0.009187
  25 C :   -0.016507
  26 C :   -0.006337
  27 C :   -0.023898
  28 C :    0.004173
  29 C :   -0.035068
  30 C :   -0.011892
  31 C :   -0.057598
  32 C :   -0.011649
  33 C :   -0.057776
  34 C :   -0.023416
  35 C :   -0.018925
  36 C :   -0.017365
  37 C :   -0.015408
  38 C :   -0.021266
  39 C :   -0.044152
  40 C :   -0.205210
  41 S :    0.458107
  42 C :   -0.140317
  43 C :   -0.149475
  44 C :    0.043013
  45 O :   -0.086403
  46 C :    0.080559
  47 C :   -0.036142
  48 N :   -0.081544
  49 C :   -0.082901
  50 C :   -0.140396
  51 C :   -0.033005
  52 C :   -0.029569
  53 C :   -0.184222
  54 S :    0.369228
  55 C :   -0.167155
  56 C :   -0.026916
  57 C :   -0.024479
  58 C :   -0.140375
  59 S :    0.357742
  60 C :   -0.066706
  61 H :    0.027641
  62 H :    0.025181
  63 H :    0.032500
  64 H :    0.031707
  65 H :    0.030142
  66 H :    0.032947
  67 H :    0.042131
  68 H :    0.028516
  69 H :    0.023542
  70 H :    0.022007
  71 H :    0.017951
  72 H :    0.029032
  73 H :    0.033773
  74 H :    0.020206
  75 H :    0.019550
  76 H :    0.025522
  77 H :    0.023710
  78 H :    0.025937
  79 H :    0.019800
  80 H :    0.020325
  81 H :    0.025877
  82 H :    0.023891
  83 H :    0.025195
  84 H :    0.023035
  85 H :    0.024037
  86 H :    0.026404
  87 H :    0.026497
  88 H :    0.022959
  89 H :    0.029030
  90 H :    0.024173
  91 H :    0.024218
  92 H :    0.046265
  93 H :    0.036283
  94 H :    0.032244
  95 H :    0.033643
  96 H :    0.035224
  97 H :    0.030440
  98 H :    0.028166

  Mayer bond orders larger than 0.100000
B(  0-C ,  1-C ) :   1.8650 B(  0-C , 61-H ) :   0.9502 B(  0-C , 62-H ) :   0.9412
B(  1-C ,  2-C ) :   1.0808 B(  1-C ,  5-S ) :   1.0077 B(  2-C ,  3-C ) :   1.6609
B(  2-C , 63-H ) :   0.9924 B(  3-C ,  4-C ) :   1.1523 B(  3-C , 64-H ) :   0.9916
B(  4-C ,  5-S ) :   1.0388 B(  4-C ,  6-C ) :   1.5671 B(  6-C ,  7-C ) :   1.1634
B(  6-C , 10-S ) :   1.0332 B(  7-C ,  8-C ) :   1.6127 B(  7-C , 65-H ) :   0.9919
B(  8-C ,  9-C ) :   1.1330 B(  8-C , 66-H ) :   1.0001 B(  9-C , 10-S ) :   1.0226
B(  9-C , 11-C ) :   1.5696 B( 11-C , 12-C ) :   1.1807 B( 11-C , 67-H ) :   0.9671
B( 12-C , 13-S ) :   1.0756 B( 12-C , 14-C ) :   0.1030 B( 12-C , 16-C ) :   1.4324
B( 13-S , 14-C ) :   1.1679 B( 14-C , 15-C ) :   1.4432 B( 14-C , 21-C ) :   1.0787
B( 15-C , 16-C ) :   1.2242 B( 15-C , 19-C ) :   1.1184 B( 16-C , 17-O ) :   1.2176
B( 17-O , 18-C ) :   0.9336 B( 18-C , 68-H ) :   0.9742 B( 18-C , 69-H ) :   0.9690
B( 18-C , 70-H ) :   0.9687 B( 19-C , 20-N ) :   2.9500 B( 21-C , 22-C ) :   1.2643
B( 21-C , 26-C ) :   1.3496 B( 22-C , 23-C ) :   1.4146 B( 22-C , 71-H ) :   0.9930
B( 23-C , 24-C ) :   1.3544 B( 23-C , 29-C ) :   0.9143 B( 24-C , 25-C ) :   1.3349
B( 24-C , 27-C ) :   1.0003 B( 25-C , 26-C ) :   1.3969 B( 25-C , 72-H ) :   0.9930
B( 26-C , 73-H ) :   0.9795 B( 27-C , 28-C ) :   1.3671 B( 27-C , 37-C ) :   1.3238
B( 28-C , 29-C ) :   0.9144 B( 28-C , 34-C ) :   1.3730 B( 29-C , 30-C ) :   1.0372
B( 29-C , 32-C ) :   1.0377 B( 30-C , 31-C ) :   1.1018 B( 30-C , 74-H ) :   0.9397
B( 30-C , 75-H ) :   0.9391 B( 31-C , 76-H ) :   0.9645 B( 31-C , 77-H ) :   0.9637
B( 31-C , 78-H ) :   0.9643 B( 32-C , 33-C ) :   1.0990 B( 32-C , 79-H ) :   0.9396
B( 32-C , 80-H ) :   0.9393 B( 33-C , 81-H ) :   0.9646 B( 33-C , 82-H ) :   0.9642
B( 33-C , 83-H ) :   0.9647 B( 34-C , 35-C ) :   1.2838 B( 34-C , 84-H ) :   1.0156
B( 35-C , 36-C ) :   1.3374 B( 35-C , 38-C ) :   1.0610 B( 36-C , 37-C ) :   1.4058
B( 36-C , 85-H ) :   0.9829 B( 37-C , 86-H ) :   0.9897 B( 38-C , 39-C ) :   1.6824
B( 38-C , 87-H ) :   0.9848 B( 39-C , 40-C ) :   1.1319 B( 39-C , 88-H ) :   0.9398
B( 40-C , 41-S ) :   1.1074 B( 40-C , 44-C ) :   1.4228 B( 41-S , 42-C ) :   1.1168
B( 42-C , 43-C ) :   1.3923 B( 42-C , 49-C ) :   1.2364 B( 43-C , 44-C ) :   1.2508
B( 43-C , 47-C ) :   1.1230 B( 44-C , 45-O ) :   1.1898 B( 45-O , 46-C ) :   0.9339
B( 46-C , 89-H ) :   0.9732 B( 46-C , 90-H ) :   0.9681 B( 46-C , 91-H ) :   0.9679
B( 47-C , 48-N ) :   2.9560 B( 49-C , 50-C ) :   1.5438 B( 49-C , 92-H ) :   0.9578
B( 50-C , 51-C ) :   1.1409 B( 50-C , 54-S ) :   1.0474 B( 51-C , 52-C ) :   1.6004
B( 51-C , 93-H ) :   1.0008 B( 52-C , 53-C ) :   1.1707 B( 52-C , 94-H ) :   0.9923
B( 53-C , 54-S ) :   1.0294 B( 53-C , 55-C ) :   1.5566 B( 55-C , 56-C ) :   1.1495
B( 55-C , 59-S ) :   1.0532 B( 56-C , 57-C ) :   1.6630 B( 56-C , 95-H ) :   0.9923
B( 57-C , 58-C ) :   1.0785 B( 57-C , 96-H ) :   0.9931 B( 58-C , 59-S ) :   1.0061
B( 58-C , 60-C ) :   1.8648 B( 60-C , 97-H ) :   0.9509 B( 60-C , 98-H ) :   0.9420

-----------------------------------------------------------------------------
         ABSORPTION SPECTRUM VIA TRANSITION ELECTRIC DIPOLE MOMENTS
-----------------------------------------------------------------------------
State   Energy  Wavelength   fosc         T2         TX        TY        TZ
        (cm-1)    (nm)                  (au**2)     (au)      (au)      (au)
-----------------------------------------------------------------------------
   0   15768.4    634.2   1.980567381  41.35029   1.02446   6.15195   1.56663
   1   17282.8    578.6   0.344725583   6.56652   1.12604   0.95964   2.09228
   2   21283.2    469.9   0.173927132   2.69033  -0.45932   0.72689   1.39678
   3   23861.8    419.1   0.257414554   3.55145  -0.75518  -0.57431   1.62829
   4   24160.0    413.9   0.262932785   3.58281  -1.18937  -0.06357   1.47111
   5   25100.0    398.4   1.154299974  15.13982   1.84391   0.37394  -3.40587
   6   28182.7    354.8   0.761369453   8.89382  -1.82485  -0.85359   2.19889
   7   29258.0    341.8   0.171040229   1.92455  -0.40415  -1.07614   0.77662
   8   30307.9    329.9   0.048415275   0.52590  -0.41339  -0.50640   0.31395
   9   31162.5    320.9   0.013277454   0.14027  -0.16703  -0.31396   0.11745
  10   31359.8    318.9   0.000738118   0.00775   0.08751   0.00928   0.00207
  11   31415.1    318.3   0.043985784   0.46095   0.37742  -0.18503  -0.53317
  12   31524.7    317.2   0.012628345   0.13188  -0.10747  -0.30027   0.17368
  13   32610.1    306.7   0.040138633   0.40522   0.33582   0.37717  -0.38753
  14   32823.2    304.7   0.002941901   0.02951   0.03575   0.10020   0.13487
  15   33748.4    296.3   0.053160067   0.51857  -0.52297  -0.47584   0.13657
  16   34546.4    289.5   0.008266121   0.07877  -0.13332   0.03190   0.24491
  17   35022.9    285.5   0.028911478   0.27177  -0.28530  -0.23563   0.36722
  18   35523.8    281.5   0.026268701   0.24344   0.23519   0.29643  -0.31663
  19   35637.5    280.6   0.012840968   0.11862   0.15212  -0.14581  -0.27243
  20   36315.9    275.4   0.011299107   0.10243   0.06011  -0.29006  -0.12117
  21   36557.0    273.5   0.050942382   0.45876  -0.33113  -0.52786   0.26547
  22   36947.6    270.7   0.160591086   1.43090   0.65327   0.46028  -0.89010
  23   37208.0    268.8   0.080157266   0.70922  -0.03078   0.83564   0.09988
  24   37767.7    264.8   0.009604462   0.08372   0.01397   0.10475  -0.26936
  25   37923.7    263.7   0.004681484   0.04064   0.19547   0.02328   0.04345
  26   38620.8    258.9   0.005754612   0.04905  -0.10957  -0.12652   0.14506
  27   38971.3    256.6   0.160316951   1.35429  -0.35759   0.46653   1.00437
  28   39060.6    256.0   0.011618678   0.09792   0.05200  -0.18170  -0.24941
  29   39721.8    251.8   0.040281040   0.33385  -0.19920  -0.53155   0.10777
  30   39774.6    251.4   0.002101670   0.01740  -0.10564  -0.07555  -0.02297

FINAL SINGLE POINT ENERGY     -4611.694744556979

DIPOLE MOMENT
-------------
                                X             Y             Z
Electronic contribution:     -1.21556     -19.12876      -1.66174
Nuclear contribution   :      1.85531      18.37785       1.80248
                        -----------------------------------------
Total Dipole Moment    :      0.63975      -0.75090       0.14074
                        -----------------------------------------
Magnitude (a.u.)       :      0.99647
Magnitude (Debye)      :      2.53282

Rotational constants in cm-1:     0.001822     0.000285     0.000255
Rotational constants in MHz :    54.623476     8.544599     7.629822

                             ****ORCA TERMINATED NORMALLY****
TOTAL RUN TIME: 0 days 0 hours 15 minutes 15 seconds 577 msec
