                         Program Version 4.2.0 -  RELEASE  -
|  1> # ORCA input file
|  2> # SCF done       -185.781569648812          0.000644050648
|  3> ! CAM-B3LYP def2-SVP def2/J RIJCOSX Grid4 TightSCF
|  4> %maxcore 5000
|  5> %tddft
|  6>     Mode sTDDFT
|  7>     Ethresh 5.0
|  8>     maxcore 5000
|  9> end
| 10>
| 11> %pal
| 12>   nprocs 6
| 13>   end
| 14> * xyz 0 1
| 15>    C       -2.20618         4.45342       -15.91642
| 16>    C       -2.21620         4.43401       -14.57775
| 17>    C       -2.96472         5.28216       -13.69251
| 18>    C       -2.76828         5.03097       -12.38134
| 19>    C       -1.85435         3.96758       -12.11866
| 20>    S       -1.25246         3.29820       -13.61747
| 21>    C       -1.46655         3.49408       -10.88931
| 22>    C       -1.87352         3.95132        -9.61030
| 23>    C       -1.31258         3.27159        -8.57879
| 24>    C       -0.42800         2.23067        -8.97477
| 25>    S       -0.33266         2.16111       -10.72091
| 26>    C        0.23681         1.39458        -8.11675
| 27>    C        1.10249         0.33998        -8.44476
| 28>    C        1.72445        -0.50243        -7.51163
| 29>    C        1.70914        -0.22379        -6.14952
| 30>    N        1.76796         0.08814        -5.04276
| 31>    C        2.51991        -1.50335        -8.12676
| 32>    C        2.54691        -1.35452        -9.50824
| 33>    S        1.54160        -0.07855       -10.08931
| 34>    S        3.62083        -2.43421       -10.33647
| 35>    C        4.03058        -3.12087        -8.79976
| 36>    C        3.35228        -2.57933        -7.71696
| 37>    C        3.68949        -3.24318        -6.50265
| 38>    C        3.07799        -3.02637        -5.25673
| 39>    N        2.57072        -2.90051        -4.23630
| 40>    C        4.65064        -4.20815        -6.69064
| 41>    S        5.14710        -4.35750        -8.37139
| 42>    N        5.22352        -5.01687        -5.71482
| 43>    C        6.58925        -5.16822        -5.71594
| 44>    S        7.31852        -6.74071        -5.70766
| 45>    C        8.88031        -6.00632        -5.86895
| 46>    N       10.00823        -6.83802        -5.88978
| 47>    O       11.09405        -6.30693        -6.02598
| 48>    O        9.81327        -8.03374        -5.76951
| 49>    C        8.82971        -4.64047        -5.93553
| 50>    C        7.52052        -4.13416        -5.81683
| 51>    C        7.24017        -2.71883        -5.73743
| 52>    C        6.20990        -2.17929        -5.05921
| 53>    C        5.88436        -0.78976        -4.98191
| 54>    S        4.55884        -0.28236        -3.99731
| 55>    C        4.77090         1.36943        -4.45494
| 56>    C        3.91455         2.47052        -3.94152
| 57>    O        4.33076         3.59932        -3.89869
| 58>    O        2.69682         2.14604        -3.53595
| 59>    C        5.83398         1.52886        -5.30677
| 60>    C        6.45719         0.30962        -5.61699
| 61>    O        7.46935         0.10760        -6.50650
| 62>    C        8.29232         1.05224        -6.92539
| 63>    C        9.19497         0.78602        -7.90602
| 64>    C       10.36700         1.65961        -8.15067
| 65>    O       10.53233         2.78712        -7.74885
| 66>    C       11.29999         0.82586        -8.94011
| 67>    C       12.56706         1.11800        -9.35459
| 68>    C       13.30115         0.14179       -10.06628
| 69>    C       12.70620        -1.12555       -10.33507
| 70>    C       13.44906        -2.09857       -11.03356
| 71>    C       14.72171        -1.82494       -11.44999
| 72>    C       15.30787        -0.57000       -11.18739
| 73>    C       14.61375         0.39345       -10.50997
| 74>    F       16.55556        -0.32876       -11.60867
| 75>    F       15.42577        -2.74814       -12.11547
| 76>    C       11.38741        -1.39656        -9.90531
| 77>    C       10.69441        -0.43377        -9.22043
| 78>    C        9.33700        -0.42458        -8.68978
| 79>    C        8.34023        -1.31346        -8.99698
| 80>    C        6.97911        -1.10102        -8.70076
| 81>    N        5.85001        -0.95694        -8.54691
| 82>    C        8.52840        -2.51419        -9.71106
| 83>    N        8.61151        -3.52698       -10.24517
| 84>    H       -2.80671         5.16150       -16.45987
| 85>    H       -1.60430         3.77076       -16.48790
| 86>    H       -3.61678         6.04267       -14.08380
| 87>    H       -3.24612         5.56779       -11.58142
| 88>    H       -2.56537         4.76546        -9.49219
| 89>    H       -1.49824         3.47363        -7.53896
| 90>    H        0.07232         1.54976        -7.05748
| 91>    H        4.68403        -5.81529        -5.40238
| 92>    H        9.71177        -4.03262        -6.02674
| 93>    H        7.96765        -2.08242        -6.21674
| 94>    H        5.55224        -2.82351        -4.49204
| 95>    H        2.38698         1.25618        -3.82885
| 96>    H        6.10865         2.48828        -5.70633
| 97>    H        8.30911         2.01617        -6.42697
| 98>    H       13.00617         2.08021        -9.13968
| 99>    H       13.01520        -3.06393       -11.24266
|100>    H       15.07779         1.34775       -10.31595
|101>    H       10.95963        -2.36394       -10.11759
|102> *
|103>
|104>                          ****END OF INPUT****

CARTESIAN COORDINATES (ANGSTROEM)
---------------------------------
  C     -2.206180    4.453420  -15.916420
  C     -2.216200    4.434010  -14.577750
  C     -2.964720    5.282160  -13.692510
  C     -2.768280    5.030970  -12.381340
  C     -1.854350    3.967580  -12.118660
  S     -1.252460    3.298200  -13.617470
  C     -1.466550    3.494080  -10.889310
  C     -1.873520    3.951320   -9.610300
  C     -1.312580    3.271590   -8.578790
  C     -0.428000    2.230670   -8.974770
  S     -0.332660    2.161110  -10.720910
  C      0.236810    1.394580   -8.116750
  C      1.102490    0.339980   -8.444760
  C      1.724450   -0.502430   -7.511630
  C      1.709140   -0.223790   -6.149520
  N      1.767960    0.088140   -5.042760
  C      2.519910   -1.503350   -8.126760
  C      2.546910   -1.354520   -9.508240
  S      1.541600   -0.078550  -10.089310
  S      3.620830   -2.434210  -10.336470
  C      4.030580   -3.120870   -8.799760
  C      3.352280   -2.579330   -7.716960
  C      3.689490   -3.243180   -6.502650
  C      3.077990   -3.026370   -5.256730
  N      2.570720   -2.900510   -4.236300
  C      4.650640   -4.208150   -6.690640
  S      5.147100   -4.357500   -8.371390
  N      5.223520   -5.016870   -5.714820
  C      6.589250   -5.168220   -5.715940
  S      7.318520   -6.740710   -5.707660
  C      8.880310   -6.006320   -5.868950
  N     10.008230   -6.838020   -5.889780
  O     11.094050   -6.306930   -6.025980
  O      9.813270   -8.033740   -5.769510
  C      8.829710   -4.640470   -5.935530
  C      7.520520   -4.134160   -5.816830
  C      7.240170   -2.718830   -5.737430
  C      6.209900   -2.179290   -5.059210
  C      5.884360   -0.789760   -4.981910
  S      4.558840   -0.282360   -3.997310
  C      4.770900    1.369430   -4.454940
  C      3.914550    2.470520   -3.941520
  O      4.330760    3.599320   -3.898690
  O      2.696820    2.146040   -3.535950
  C      5.833980    1.528860   -5.306770
  C      6.457190    0.309620   -5.616990
  O      7.469350    0.107600   -6.506500
  C      8.292320    1.052240   -6.925390
  C      9.194970    0.786020   -7.906020
  C     10.367000    1.659610   -8.150670
  O     10.532330    2.787120   -7.748850
  C     11.299990    0.825860   -8.940110
  C     12.567060    1.118000   -9.354590
  C     13.301150    0.141790  -10.066280
  C     12.706200   -1.125550  -10.335070
  C     13.449060   -2.098570  -11.033560
  C     14.721710   -1.824940  -11.449990
  C     15.307870   -0.570000  -11.187390
  C     14.613750    0.393450  -10.509970
  F     16.555560   -0.328760  -11.608670
  F     15.425770   -2.748140  -12.115470
  C     11.387410   -1.396560   -9.905310
  C     10.694410   -0.433770   -9.220430
  C      9.337000   -0.424580   -8.689780
  C      8.340230   -1.313460   -8.996980
  C      6.979110   -1.101020   -8.700760
  N      5.850010   -0.956940   -8.546910
  C      8.528400   -2.514190   -9.711060
  N      8.611510   -3.526980  -10.245170
  H     -2.806710    5.161500  -16.459870
  H     -1.604300    3.770760  -16.487900
  H     -3.616780    6.042670  -14.083800
  H     -3.246120    5.567790  -11.581420
  H     -2.565370    4.765460   -9.492190
  H     -1.498240    3.473630   -7.538960
  H      0.072320    1.549760   -7.057480
  H      4.684030   -5.815290   -5.402380
  H      9.711770   -4.032620   -6.026740
  H      7.967650   -2.082420   -6.216740
  H      5.552240   -2.823510   -4.492040
  H      2.386980    1.256180   -3.828850
  H      6.108650    2.488280   -5.706330
  H      8.309110    2.016170   -6.426970
  H     13.006170    2.080210   -9.139680
  H     13.015200   -3.063930  -11.242660
  H     15.077790    1.347750  -10.315950
  H     10.959630   -2.363940  -10.117590

 Total Charge           Charge          ....    0
 Multiplicity           Mult            ....    1
 Number of Electrons    NEL             ....  526
 Basis Dimension        Dim             .... 1084

ORBITAL ENERGIES
----------------

  NO   OCC          E(Eh)            E(eV)
   0   2.0000     -88.986380     -2421.4425
   1   2.0000     -88.985530     -2421.4194
   2   2.0000     -88.984983     -2421.4045
   3   2.0000     -88.982711     -2421.3427
   4   2.0000     -88.968682     -2420.9609
   5   2.0000     -88.960873     -2420.7484
   6   2.0000     -88.954658     -2420.5793
   7   2.0000     -24.801258      -674.8765
   8   2.0000     -24.800369      -674.8523
   9   2.0000     -19.318792      -525.6911
  10   2.0000     -19.236981      -523.4649
  11   2.0000     -19.236036      -523.4391
  12   2.0000     -19.229257      -523.2547
  13   2.0000     -19.221262      -523.0371
  14   2.0000     -19.177742      -521.8529
  15   2.0000     -14.648557      -398.6075
  16   2.0000     -14.477892      -393.9635
  17   2.0000     -14.425443      -392.5363
  18   2.0000     -14.422940      -392.4682
  19   2.0000     -14.420083      -392.3904
  20   2.0000     -14.416125      -392.2827
  21   2.0000     -10.393170      -282.8125
  22   2.0000     -10.389285      -282.7068
  23   2.0000     -10.384861      -282.5864
  24   2.0000     -10.384273      -282.5704
  25   2.0000     -10.376195      -282.3506
  26   2.0000     -10.367239      -282.1069
  27   2.0000     -10.365164      -282.0504
  28   2.0000     -10.354797      -281.7683
  29   2.0000     -10.351589      -281.6811
  30   2.0000     -10.350432      -281.6496
  31   2.0000     -10.342979      -281.4468
  32   2.0000     -10.337759      -281.3047
  33   2.0000     -10.336339      -281.2661
  34   2.0000     -10.332165      -281.1525
  35   2.0000     -10.329496      -281.0799
  36   2.0000     -10.328916      -281.0641
  37   2.0000     -10.328067      -281.0410
  38   2.0000     -10.327769      -281.0329
  39   2.0000     -10.326598      -281.0010
  40   2.0000     -10.324258      -280.9373
  41   2.0000     -10.321399      -280.8595
  42   2.0000     -10.321328      -280.8576
  43   2.0000     -10.316720      -280.7322
  44   2.0000     -10.316252      -280.7195
  45   2.0000     -10.315015      -280.6858
  46   2.0000     -10.314973      -280.6847
  47   2.0000     -10.314723      -280.6779
  48   2.0000     -10.313562      -280.6463
  49   2.0000     -10.308544      -280.5097
  50   2.0000     -10.307973      -280.4942
  51   2.0000     -10.307580      -280.4835
  52   2.0000     -10.307363      -280.4776
  53   2.0000     -10.306614      -280.4572
  54   2.0000     -10.306519      -280.4546
  55   2.0000     -10.304552      -280.4011
  56   2.0000     -10.303878      -280.3828
  57   2.0000     -10.303661      -280.3769
  58   2.0000     -10.303166      -280.3634
  59   2.0000     -10.301433      -280.3162
  60   2.0000     -10.301345      -280.3138
  61   2.0000     -10.300216      -280.2831
  62   2.0000     -10.299377      -280.2603
  63   2.0000     -10.294982      -280.1407
  64   2.0000     -10.294746      -280.1343
  65   2.0000     -10.292839      -280.0824
  66   2.0000     -10.292026      -280.0603
  67   2.0000     -10.288218      -279.9566
  68   2.0000     -10.287173      -279.9282
  69   2.0000      -8.081474      -219.9081
  70   2.0000      -8.081319      -219.9039
  71   2.0000      -8.079690      -219.8596
  72   2.0000      -8.077487      -219.7996
  73   2.0000      -8.063708      -219.4247
  74   2.0000      -8.056978      -219.2415
  75   2.0000      -8.051323      -219.0876
  76   2.0000      -6.050973      -164.6553
  77   2.0000      -6.050832      -164.6515
  78   2.0000      -6.049324      -164.6105
  79   2.0000      -6.047513      -164.5612
  80   2.0000      -6.046721      -164.5396
  81   2.0000      -6.046653      -164.5378
  82   2.0000      -6.045015      -164.4932
  83   2.0000      -6.043267      -164.4457
  84   2.0000      -6.043107      -164.4413
  85   2.0000      -6.042931      -164.4365
  86   2.0000      -6.041294      -164.3920
  87   2.0000      -6.038277      -164.3099
  88   2.0000      -6.032825      -164.1615
  89   2.0000      -6.028635      -164.0475
  90   2.0000      -6.026761      -163.9965
  91   2.0000      -6.026129      -163.9793
  92   2.0000      -6.022673      -163.8853
  93   2.0000      -6.021155      -163.8439
  94   2.0000      -6.017841      -163.7538
  95   2.0000      -6.017166      -163.7354
  96   2.0000      -6.011906      -163.5923
  97   2.0000      -1.324165       -36.0324
  98   2.0000      -1.318402       -35.8755
  99   2.0000      -1.309249       -35.6265
 100   2.0000      -1.229813       -33.4649
 101   2.0000      -1.160442       -31.5772
 102   2.0000      -1.137776       -30.9605
 103   2.0000      -1.137539       -30.9540
 104   2.0000      -1.091838       -29.7104
 105   2.0000      -1.074021       -29.2256
 106   2.0000      -1.037792       -28.2398
 107   2.0000      -1.026652       -27.9366
 108   2.0000      -1.014297       -27.6004
 109   2.0000      -1.010417       -27.4949
 110   2.0000      -1.007659       -27.4198
 111   2.0000      -1.006053       -27.3761
 112   2.0000      -1.001258       -27.2456
 113   2.0000      -1.000447       -27.2235
 114   2.0000      -0.997642       -27.1472
 115   2.0000      -0.989527       -26.9264
 116   2.0000      -0.986055       -26.8319
 117   2.0000      -0.981810       -26.7164
 118   2.0000      -0.941806       -25.6278
 119   2.0000      -0.937509       -25.5109
 120   2.0000      -0.918707       -24.9993
 121   2.0000      -0.911466       -24.8023
 122   2.0000      -0.904520       -24.6133
 123   2.0000      -0.897500       -24.4222
 124   2.0000      -0.892796       -24.2942
 125   2.0000      -0.889227       -24.1971
 126   2.0000      -0.885043       -24.0832
 127   2.0000      -0.874894       -23.8071
 128   2.0000      -0.868337       -23.6287
 129   2.0000      -0.864377       -23.5209
 130   2.0000      -0.859505       -23.3883
 131   2.0000      -0.845566       -23.0090
 132   2.0000      -0.840939       -22.8831
 133   2.0000      -0.837596       -22.7921
 134   2.0000      -0.825962       -22.4756
 135   2.0000      -0.823022       -22.3956
 136   2.0000      -0.812001       -22.0957
 137   2.0000      -0.798587       -21.7307
 138   2.0000      -0.784973       -21.3602
 139   2.0000      -0.774141       -21.0654
 140   2.0000      -0.769584       -20.9415
 141   2.0000      -0.751509       -20.4496
 142   2.0000      -0.746465       -20.3123
 143   2.0000      -0.731755       -19.9121
 144   2.0000      -0.729495       -19.8506
 145   2.0000      -0.725013       -19.7286
 146   2.0000      -0.720033       -19.5931
 147   2.0000      -0.708314       -19.2742
 148   2.0000      -0.697590       -18.9824
 149   2.0000      -0.694537       -18.8993
 150   2.0000      -0.693376       -18.8677
 151   2.0000      -0.687226       -18.7004
 152   2.0000      -0.681145       -18.5349
 153   2.0000      -0.676451       -18.4072
 154   2.0000      -0.670393       -18.2423
 155   2.0000      -0.662436       -18.0258
 156   2.0000      -0.659639       -17.9497
 157   2.0000      -0.652676       -17.7602
 158   2.0000      -0.647983       -17.6325
 159   2.0000      -0.644841       -17.5470
 160   2.0000      -0.641975       -17.4690
 161   2.0000      -0.635878       -17.3031
 162   2.0000      -0.635526       -17.2935
 163   2.0000      -0.631951       -17.1963
 164   2.0000      -0.629563       -17.1313
 165   2.0000      -0.620546       -16.8859
 166   2.0000      -0.614256       -16.7148
 167   2.0000      -0.610835       -16.6217
 168   2.0000      -0.610089       -16.6014
 169   2.0000      -0.604739       -16.4558
 170   2.0000      -0.601472       -16.3669
 171   2.0000      -0.590733       -16.0747
 172   2.0000      -0.589354       -16.0371
 173   2.0000      -0.588525       -16.0146
 174   2.0000      -0.587445       -15.9852
 175   2.0000      -0.579363       -15.7653
 176   2.0000      -0.574437       -15.6312
 177   2.0000      -0.567638       -15.4462
 178   2.0000      -0.564814       -15.3694
 179   2.0000      -0.557620       -15.1736
 180   2.0000      -0.556538       -15.1442
 181   2.0000      -0.549947       -14.9648
 182   2.0000      -0.548474       -14.9247
 183   2.0000      -0.546583       -14.8733
 184   2.0000      -0.543092       -14.7783
 185   2.0000      -0.540984       -14.7209
 186   2.0000      -0.537624       -14.6295
 187   2.0000      -0.535489       -14.5714
 188   2.0000      -0.530563       -14.4374
 189   2.0000      -0.529378       -14.4051
 190   2.0000      -0.525055       -14.2875
 191   2.0000      -0.524691       -14.2776
 192   2.0000      -0.522042       -14.2055
 193   2.0000      -0.520017       -14.1504
 194   2.0000      -0.518164       -14.1000
 195   2.0000      -0.513239       -13.9660
 196   2.0000      -0.510755       -13.8983
 197   2.0000      -0.509867       -13.8742
 198   2.0000      -0.507157       -13.8004
 199   2.0000      -0.505702       -13.7609
 200   2.0000      -0.502749       -13.6805
 201   2.0000      -0.501735       -13.6529
 202   2.0000      -0.495858       -13.4930
 203   2.0000      -0.494542       -13.4572
 204   2.0000      -0.490751       -13.3540
 205   2.0000      -0.488876       -13.3030
 206   2.0000      -0.488682       -13.2977
 207   2.0000      -0.482994       -13.1429
 208   2.0000      -0.482052       -13.1173
 209   2.0000      -0.477244       -12.9865
 210   2.0000      -0.474382       -12.9086
 211   2.0000      -0.473340       -12.8802
 212   2.0000      -0.471659       -12.8345
 213   2.0000      -0.468869       -12.7586
 214   2.0000      -0.466257       -12.6875
 215   2.0000      -0.465217       -12.6592
 216   2.0000      -0.459958       -12.5161
 217   2.0000      -0.458311       -12.4713
 218   2.0000      -0.454116       -12.3571
 219   2.0000      -0.452577       -12.3153
 220   2.0000      -0.451250       -12.2791
 221   2.0000      -0.448222       -12.1967
 222   2.0000      -0.447420       -12.1749
 223   2.0000      -0.443350       -12.0642
 224   2.0000      -0.441190       -12.0054
 225   2.0000      -0.439837       -11.9686
 226   2.0000      -0.436111       -11.8672
 227   2.0000      -0.434090       -11.8122
 228   2.0000      -0.433657       -11.8004
 229   2.0000      -0.429614       -11.6904
 230   2.0000      -0.428636       -11.6638
 231   2.0000      -0.427397       -11.6301
 232   2.0000      -0.421719       -11.4756
 233   2.0000      -0.419374       -11.4118
 234   2.0000      -0.414516       -11.2796
 235   2.0000      -0.411120       -11.1872
 236   2.0000      -0.405951       -11.0465
 237   2.0000      -0.402187       -10.9441
 238   2.0000      -0.400207       -10.8902
 239   2.0000      -0.397350       -10.8125
 240   2.0000      -0.387932       -10.5562
 241   2.0000      -0.385740       -10.4965
 242   2.0000      -0.384136       -10.4529
 243   2.0000      -0.377009       -10.2589
 244   2.0000      -0.374347       -10.1865
 245   2.0000      -0.368394       -10.0245
 246   2.0000      -0.364999        -9.9321
 247   2.0000      -0.355088        -9.6624
 248   2.0000      -0.351043        -9.5524
 249   2.0000      -0.349792        -9.5183
 250   2.0000      -0.348942        -9.4952
 251   2.0000      -0.341450        -9.2913
 252   2.0000      -0.340785        -9.2732
 253   2.0000      -0.334308        -9.0970
 254   2.0000      -0.325926        -8.8689
 255   2.0000      -0.322158        -8.7664
 256   2.0000      -0.319792        -8.7020
 257   2.0000      -0.310702        -8.4546
 258   2.0000      -0.302602        -8.2342
 259   2.0000      -0.292809        -7.9677
 260   2.0000      -0.285991        -7.7822
 261   2.0000      -0.264597        -7.2001
 262   2.0000      -0.233466        -6.3529
 263   0.0000      -0.090981        -2.4757
 264   0.0000      -0.086852        -2.3634
 265   0.0000      -0.060984        -1.6595
 266   0.0000      -0.057987        -1.5779
 267   0.0000      -0.041485        -1.1289

MULLIKEN ATOMIC CHARGES
-----------------------
   0 C :   -0.017320
   1 C :   -0.070456
   2 C :    0.060861
   3 C :    0.030507
   4 C :   -0.059378
   5 S :    0.093709
   6 C :   -0.043076
   7 C :    0.042120
   8 C :    0.028375
   9 C :   -0.019680
  10 S :    0.068066
  11 C :   -0.058690
  12 C :   -0.058962
  13 C :   -0.050088
  14 C :   -0.215751
  15 N :    0.105138
  16 C :    0.162134
  17 C :   -0.216581
  18 S :    0.150056
  19 S :    0.195935
  20 C :   -0.229114
  21 C :    0.153282
  22 C :    0.057927
  23 C :   -0.345377
  24 N :    0.227216
  25 C :   -0.177098
  26 S :    0.185078
  27 N :   -0.057099
  28 C :   -0.141422
  29 S :    0.182755
  30 C :   -0.013841
  31 N :    0.279864
  32 O :   -0.250934
  33 O :   -0.262776
  34 C :    0.012871
  35 C :    0.101056
  36 C :   -0.021950
  37 C :    0.075730
  38 C :   -0.155712
  39 S :    0.203059
  40 C :   -0.179091
  41 C :    0.192307
  42 O :   -0.193109
  43 O :   -0.171661
  44 C :   -0.040553
  45 C :    0.234396
  46 O :   -0.221734
  47 C :    0.169611
  48 C :   -0.137678
  49 C :    0.148601
  50 O :   -0.134674
  51 C :   -0.007112
  52 C :   -0.079680
  53 C :    0.113183
  54 C :    0.115152
  55 C :   -0.105701
  56 C :    0.243966
  57 C :    0.240815
  58 C :   -0.104910
  59 F :   -0.169241
  60 F :   -0.168924
  61 C :   -0.088904
  62 C :    0.048961
  63 C :    0.295936
  64 C :   -0.339528
  65 C :   -0.197958
  66 N :    0.160979
  67 C :   -0.190449
  68 N :    0.154907
  69 H :    0.028221
  70 H :    0.029640
  71 H :   -0.003063
  72 H :   -0.005124
  73 H :   -0.006066
  74 H :    0.000160
  75 H :    0.011806
  76 H :    0.156689
  77 H :    0.007599
  78 H :   -0.001390
  79 H :    0.001473
  80 H :    0.186587
  81 H :    0.005894
  82 H :    0.052055
  83 H :   -0.007365
  84 H :    0.007666
  85 H :    0.000613
  86 H :   -0.003739
Sum of atomic charges:   -0.0000000

LOEWDIN ATOMIC CHARGES
----------------------
   0 C :   -0.058064
   1 C :   -0.140745
   2 C :   -0.017984
   3 C :   -0.026325
   4 C :   -0.160766
   5 S :    0.362683
   6 C :   -0.186315
   7 C :   -0.020568
   8 C :   -0.033160
   9 C :   -0.131341
  10 S :    0.368580
  11 C :   -0.090958
  12 C :   -0.117882
  13 C :   -0.125227
  14 C :    0.023878
  15 N :   -0.072755
  16 C :   -0.051873
  17 C :   -0.333209
  18 S :    0.446784
  19 S :    0.436009
  20 C :   -0.320335
  21 C :   -0.061883
  22 C :   -0.104127
  23 C :   -0.045343
  24 N :   -0.043717
  25 C :   -0.110900
  26 S :    0.452962
  27 N :   -0.017758
  28 C :   -0.128143
  29 S :    0.458753
  30 C :   -0.208140
  31 N :    0.274420
  32 O :   -0.216272
  33 O :   -0.227573
  34 C :    0.002197
  35 C :   -0.089852
  36 C :   -0.027065
  37 C :   -0.031625
  38 C :   -0.186202
  39 S :    0.520806
  40 C :   -0.223015
  41 C :    0.053792
  42 O :   -0.174342
  43 O :   -0.033374
  44 C :   -0.052773
  45 C :    0.006089
  46 O :    0.024786
  47 C :    0.156512
  48 C :   -0.133432
  49 C :    0.082151
  50 O :   -0.142959
  51 C :   -0.054549
  52 C :    0.032420
  53 C :   -0.008274
  54 C :   -0.006074
  55 C :   -0.028756
  56 C :    0.067979
  57 C :    0.068516
  58 C :   -0.032296
  59 F :   -0.047334
  60 F :   -0.046443
  61 C :    0.016577
  62 C :   -0.023410
  63 C :    0.076498
  64 C :   -0.142777
  65 C :   -0.019106
  66 N :   -0.059986
  67 C :   -0.023188
  68 N :   -0.054758
  69 H :    0.032500
  70 H :    0.029960
  71 H :    0.037118
  72 H :    0.034941
  73 H :    0.035021
  74 H :    0.038612
  75 H :    0.047750
  76 H :    0.095054
  77 H :    0.044839
  78 H :    0.024686
  79 H :    0.031225
  80 H :    0.050754
  81 H :    0.041049
  82 H :    0.041742
  83 H :    0.041570
  84 H :    0.048016
  85 H :    0.045410
  86 H :    0.040315

  Mayer bond orders larger than 0.100000
B(  0-C ,  1-C ) :   1.8706 B(  0-C , 69-H ) :   0.9507 B(  0-C , 70-H ) :   0.9415
B(  1-C ,  2-C ) :   1.0754 B(  1-C ,  5-S ) :   1.0035 B(  2-C ,  3-C ) :   1.6701
B(  2-C , 71-H ) :   0.9930 B(  3-C ,  4-C ) :   1.1429 B(  3-C , 72-H ) :   0.9926
B(  4-C ,  5-S ) :   1.0596 B(  4-C ,  6-C ) :   1.5618 B(  6-C ,  7-C ) :   1.1677
B(  6-C , 10-S ) :   1.0246 B(  7-C ,  8-C ) :   1.6067 B(  7-C , 73-H ) :   0.9925
B(  8-C ,  9-C ) :   1.1359 B(  8-C , 74-H ) :   1.0015 B(  9-C , 10-S ) :   1.0518
B(  9-C , 11-C ) :   1.5553 B( 11-C , 12-C ) :   1.2269 B( 11-C , 75-H ) :   0.9626
B( 12-C , 13-C ) :   1.4094 B( 12-C , 18-S ) :   1.1190 B( 13-C , 14-C ) :   1.2172
B( 13-C , 16-C ) :   1.2419 B( 14-C , 15-N ) :   2.8257 B( 15-N , 80-H ) :   0.1410
B( 16-C , 17-C ) :   1.4189 B( 16-C , 21-C ) :   1.0875 B( 17-C , 18-S ) :   1.0757
B( 17-C , 19-S ) :   1.0842 B( 19-S , 20-C ) :   1.0967 B( 20-C , 21-C ) :   1.4084
B( 20-C , 26-S ) :   1.0967 B( 21-C , 22-C ) :   1.2594 B( 22-C , 23-C ) :   1.1682
B( 22-C , 25-C ) :   1.4718 B( 23-C , 24-N ) :   2.9703 B( 25-C , 26-S ) :   1.1349
B( 25-C , 27-N ) :   1.1305 B( 27-N , 28-C ) :   1.1573 B( 27-N , 76-H ) :   0.9012
B( 28-C , 29-S ) :   1.1430 B( 28-C , 35-C ) :   1.4208 B( 29-S , 30-C ) :   1.0943
B( 30-C , 31-N ) :   0.9658 B( 30-C , 34-C ) :   1.4834 B( 31-N , 32-O ) :   1.5376
B( 31-N , 33-O ) :   1.5161 B( 32-O , 33-O ) :   0.2597 B( 34-C , 35-C ) :   1.2209
B( 34-C , 77-H ) :   1.0050 B( 35-C , 36-C ) :   1.0784 B( 36-C , 37-C ) :   1.7405
B( 36-C , 78-H ) :   0.9594 B( 37-C , 38-C ) :   1.1331 B( 37-C , 79-H ) :   0.9393
B( 38-C , 39-S ) :   1.1733 B( 38-C , 40-C ) :   0.1007 B( 38-C , 45-C ) :   1.4507
B( 39-S , 40-C ) :   1.1467 B( 40-C , 41-C ) :   0.9046 B( 40-C , 44-C ) :   1.5117
B( 41-C , 42-O ) :   2.1733 B( 41-C , 43-O ) :   1.2872 B( 43-O , 80-H ) :   0.8953
B( 44-C , 45-C ) :   1.2278 B( 44-C , 81-H ) :   1.0084 B( 45-C , 46-O ) :   0.9938
B( 46-O , 47-C ) :   1.1933 B( 47-C , 48-C ) :   1.6213 B( 47-C , 82-H ) :   0.9393
B( 48-C , 49-C ) :   0.9542 B( 48-C , 63-C ) :   1.0321 B( 49-C , 50-O ) :   2.2916
B( 49-C , 51-C ) :   0.9166 B( 51-C , 52-C ) :   1.4776 B( 51-C , 62-C ) :   1.2148
B( 52-C , 53-C ) :   1.1923 B( 52-C , 83-H ) :   1.0162 B( 53-C , 54-C ) :   1.2581
B( 53-C , 58-C ) :   1.1947 B( 54-C , 55-C ) :   1.1879 B( 54-C , 61-C ) :   1.2153
B( 55-C , 56-C ) :   1.4412 B( 55-C , 58-C ) :   0.1082 B( 55-C , 84-H ) :   1.0069
B( 56-C , 57-C ) :   1.1902 B( 56-C , 60-F ) :   1.1369 B( 57-C , 58-C ) :   1.4428
B( 57-C , 59-F ) :   1.1355 B( 58-C , 85-H ) :   1.0070 B( 61-C , 62-C ) :   1.4514
B( 61-C , 86-H ) :   0.9941 B( 62-C , 63-C ) :   1.0146 B( 63-C , 64-C ) :   1.6435
B( 64-C , 65-C ) :   1.1708 B( 64-C , 67-C ) :   1.1321 B( 65-C , 66-N ) :   2.9566
B( 67-C , 68-N ) :   2.9764

-----------------------------------------------------------------------------
         ABSORPTION SPECTRUM VIA TRANSITION ELECTRIC DIPOLE MOMENTS
-----------------------------------------------------------------------------
State   Energy  Wavelength   fosc         T2         TX        TY        TZ
        (cm-1)    (nm)                  (au**2)     (au)      (au)      (au)
-----------------------------------------------------------------------------
   0   18089.6    552.8   1.471685068  26.78318   2.69190  -2.85814   3.37162
   1   19892.8    502.7   0.063718037   1.05449   0.40621   0.43360  -0.83754
   2   20049.4    498.8   0.016096272   0.26430   0.21412   0.17400  -0.43380
   3   26497.2    377.4   0.016734939   0.20792  -0.15997  -0.00374   0.42699
   4   26877.9    372.1   0.108241856   1.32579  -1.09923   0.28896  -0.18436
   5   27041.3    369.8   0.019725211   0.24014   0.37126  -0.28296  -0.14913
   6   27636.3    361.8   0.012689468   0.15116  -0.37315   0.05470   0.09447
   7   28033.5    356.7   0.019594158   0.23010   0.37459  -0.22242  -0.20079
   8   28150.1    355.2   0.000508394   0.00595   0.04449  -0.02862  -0.05610
   9   28453.5    351.5   0.035080989   0.40589  -0.34222   0.22466  -0.48816
  10   28900.9    346.0   0.106799298   1.21656   0.59240   0.92301  -0.11691
  11   29305.5    341.2   0.012659417   0.14221   0.07592  -0.04416   0.36674
  12   29551.3    338.4   0.086388718   0.96240  -0.72589  -0.03189   0.65914
  13   29667.4    337.1   0.009401672   0.10433   0.01578   0.11323  -0.30209
  14   30545.6    327.4   0.225212920   2.42728  -1.04761  -1.14242   0.15710
  15   30913.9    323.5   0.224920538   2.39525   0.99492  -0.87915  -0.79528
  16   31403.3    318.4   0.002141399   0.02245  -0.03705   0.04987  -0.13634
  17   31826.3    314.2   0.513457921   5.31121   1.24115  -1.36209  -1.38400
  18   31899.2    313.5   0.013107405   0.13527   0.26005   0.25958  -0.01636
  19   32134.4    311.2   0.040721859   0.41719  -0.32591  -0.33232  -0.44781
  20   32389.0    308.7   0.034791948   0.35364   0.31817  -0.49704   0.07318
  21   32531.6    307.4   0.549403725   5.55983  -1.28131   1.96686  -0.22261
  22   32820.6    304.7   0.100585684   1.00894   0.44410  -0.89358   0.11501
  23   33480.4    298.7   0.057306628   0.56349   0.70086   0.26261  -0.05765
  24   33726.4    296.5   0.014205308   0.13866   0.19219  -0.30243   0.10131
  25   34126.1    293.0   0.001111487   0.01072  -0.09786  -0.03189  -0.01138
  26   34160.6    292.7   0.132977365   1.28153   0.96164  -0.48063  -0.35463
  27   35179.9    284.3   0.682726305   6.38893  -2.41606  -0.22268   0.70850
  28   35562.2    281.2   0.393041847   3.63852  -1.71169  -0.77340   0.33243
  29   35708.8    280.0   0.005531105   0.05099  -0.17802   0.02665   0.13636
  30   36399.2    274.7   0.074236580   0.67143   0.67595  -0.27567  -0.37220
  31   36733.4    272.2   0.068124615   0.61055  -0.04167   0.29371   0.72287
  32   36935.9    270.7   0.043492751   0.38765   0.24741  -0.38313  -0.42386
  33   37310.5    268.0   0.005013155   0.04423   0.01802  -0.06904   0.19785
  34   37569.4    266.2   0.067692418   0.59317  -0.75524   0.01744   0.14995
  35   37918.2    263.7   0.011389614   0.09889   0.26753  -0.14011  -0.08766
  36   38400.7    260.4   0.028247550   0.24217   0.38242  -0.27055  -0.15075
  37   38446.9    260.1   0.038397665   0.32879  -0.31704   0.41507  -0.23663
  38   38606.6    259.0   0.015591992   0.13296   0.32021   0.03669  -0.17052
  39   38851.7    257.4   0.028844206   0.24441   0.26761  -0.27446   0.31221
  40   38879.2    257.2   0.058291467   0.49359  -0.11125   0.09871  -0.68663
  41   39012.6    256.3   0.006456247   0.05448   0.08265  -0.07170  -0.20618
  42   39159.9    255.4   0.026536036   0.22308   0.20859  -0.29063   0.30840
  43   39304.2    254.4   0.051111587   0.42811  -0.28778   0.34166   0.47808
  44   39648.3    252.2   0.088231063   0.73261   0.27585  -0.49748   0.63956
  45   40021.5    249.9   0.011185674   0.09201   0.28301  -0.03047   0.10482
  46   40148.4    249.1   0.193981686   1.59063  -0.81937   0.59369   0.75286

FINAL SINGLE POINT ENERGY     -5602.282260135960

DIPOLE MOMENT
-------------
                                X             Y             Z
Electronic contribution:     35.09434     -30.82101       0.82514
Nuclear contribution   :    -37.40675      32.19694      -4.06479
                        -----------------------------------------
Total Dipole Moment    :     -2.31241       1.37593      -3.23966
                        -----------------------------------------
Magnitude (a.u.)       :      4.21139
Magnitude (Debye)      :     10.70450

Rotational constants in cm-1:     0.001109     0.000491     0.000419
Rotational constants in MHz :    33.246926    14.729925    12.572852

                             ****ORCA TERMINATED NORMALLY****
TOTAL RUN TIME: 0 days 0 hours 8 minutes 25 seconds 955 msec
