                         Program Version 4.2.0 -  RELEASE  -
|  1> # ORCA input file
|  2> # SCF done       -158.714409939467          0.001921276678
|  3> ! CAM-B3LYP def2-SVP def2/J RIJCOSX Grid4 TightSCF
|  4> %maxcore 5000
|  5> %tddft
|  6>     Mode sTDDFT
|  7>     Ethresh 5.0
|  8>     maxcore 5000
|  9> end
| 10>
| 11> %pal
| 12>   nprocs 6
| 13>   end
| 14> * xyz 0 1
| 15>    C       17.24270        -1.85606        -4.20909
| 16>    C       16.49908        -1.95987        -3.09929
| 17>    C       16.60297        -1.18332        -1.89637
| 18>    C       15.70893        -1.51409        -0.93888
| 19>    C       14.82347        -2.56912        -1.30162
| 20>    S       15.18761        -3.13832        -2.91809
| 21>    C       13.80633        -3.10208        -0.54685
| 22>    C       13.42158        -2.74846         0.77054
| 23>    C       12.37657        -3.47024         1.24920
| 24>    C       11.86725        -4.43702         0.34109
| 25>    S       12.77053        -4.38568        -1.15715
| 26>    C       10.84851        -5.31123         0.60745
| 27>    C       10.30166        -6.28782        -0.23923
| 28>    S       10.66501        -6.49628        -1.92140
| 29>    C        9.60787        -7.86716        -2.01640
| 30>    C        9.46497        -8.56926        -3.27517
| 31>    O       10.02965        -8.28299        -4.30404
| 32>    O        8.61764        -9.61863        -3.18795
| 33>    C        9.00104        -8.15171        -0.81194
| 34>    C        9.38606        -7.26697         0.19476
| 35>    O        9.05536        -7.26661         1.50528
| 36>    C        8.61798        -8.36109         2.15904
| 37>    C        8.83180        -8.38899         3.49338
| 38>    C        8.54287        -9.43412         4.39089
| 39>    C        9.00867        -9.40850         5.68054
| 40>    C        8.86816       -10.38059         6.70103
| 41>    C        9.49071       -10.06141         7.87133
| 42>    C       10.16142        -8.81879         7.84232
| 43>    S        9.97093        -8.06241         6.28093
| 44>    C       10.89768        -8.19016         8.82949
| 45>    C       11.18717        -8.61518        10.14134
| 46>    C       11.95414        -7.73234        10.84095
| 47>    C       12.31598        -6.56230        10.12158
| 48>    S       11.64358        -6.63722         8.51074
| 49>    C       13.03479        -5.52458        10.66915
| 50>    C       13.44856        -4.30270        10.11224
| 51>    S       14.05117        -3.08735        11.21022
| 52>    C       14.28711        -1.93849         9.92258
| 53>    C       14.79156        -0.58176        10.11981
| 54>    O       14.99688         0.16617         9.19851
| 55>    O       15.02302        -0.19848        11.39070
| 56>    C       13.92977        -2.48288         8.71186
| 57>    C       13.48071        -3.80618         8.79873
| 58>    O       13.04598        -4.58037         7.77065
| 59>    C       13.57166        -4.56632         6.52898
| 60>    C       14.69890        -3.96376         6.09843
| 61>    C       15.22652        -4.01446         4.77934
| 62>    C       14.84162        -4.75714         3.69994
| 63>    C       15.48506        -4.72984         2.42789
| 64>    C       14.99451        -5.60734         1.51826
| 65>    C       13.92491        -6.40110         2.00447
| 66>    S       13.54460        -5.94749         3.65696
| 67>    C       13.25237        -7.41014         1.36472
| 68>    C       13.39208        -7.83909         0.01613
| 69>    C       12.58697        -8.86931        -0.32598
| 70>    C       11.75260        -9.35001         0.73811
| 71>    S       12.04788        -8.38417         2.19046
| 72>    C       10.87413       -10.36249         0.69970
| 73>    H       18.02914        -1.12483        -4.27754
| 74>    H       17.07966        -2.49101        -5.06057
| 75>    H       17.34421        -0.40900        -1.80687
| 76>    H       15.64254        -1.03477         0.02180
| 77>    H       13.93004        -1.98037         1.32483
| 78>    H       11.94922        -3.35064         2.22902
| 79>    H       10.42475        -5.27981         1.60277
| 80>    H        8.55257       -10.04437        -4.05680
| 81>    H        8.31372        -8.96970        -0.69944
| 82>    H        8.15655        -9.16104         1.59625
| 83>    H        9.34635        -7.52970         3.90379
| 84>    H        7.98573       -10.29610         4.05252
| 85>    H        8.31422       -11.28799         6.53627
| 86>    H        9.48887       -10.68372         8.74853
| 87>    H       10.82589        -9.54873        10.53494
| 88>    H       12.27267        -7.87916        11.85822
| 89>    H       13.28669        -5.64582        11.71630
| 90>    H       14.81273        -0.89026        12.03153
| 91>    H       13.96616        -1.90734         7.80506
| 92>    H       12.94875        -5.16802         5.88348
| 93>    H       15.28746        -3.38808         6.79915
| 94>    H       16.08910        -3.38139         4.61075
| 95>    H       16.30709        -4.06090         2.24004
| 96>    H       15.37587        -5.72474         0.51974
| 97>    H       14.07474        -7.35342        -0.65828
| 98>    H       12.54704        -9.32077        -1.30153
| 99>    H       10.72047       -10.91953        -0.20793
|100>    H       10.31443       -10.65623         1.56916
|101> *
|102>
|103>                          ****END OF INPUT****

CARTESIAN COORDINATES (ANGSTROEM)
---------------------------------
  C     17.242700   -1.856060   -4.209090
  C     16.499080   -1.959870   -3.099290
  C     16.602970   -1.183320   -1.896370
  C     15.708930   -1.514090   -0.938880
  C     14.823470   -2.569120   -1.301620
  S     15.187610   -3.138320   -2.918090
  C     13.806330   -3.102080   -0.546850
  C     13.421580   -2.748460    0.770540
  C     12.376570   -3.470240    1.249200
  C     11.867250   -4.437020    0.341090
  S     12.770530   -4.385680   -1.157150
  C     10.848510   -5.311230    0.607450
  C     10.301660   -6.287820   -0.239230
  S     10.665010   -6.496280   -1.921400
  C      9.607870   -7.867160   -2.016400
  C      9.464970   -8.569260   -3.275170
  O     10.029650   -8.282990   -4.304040
  O      8.617640   -9.618630   -3.187950
  C      9.001040   -8.151710   -0.811940
  C      9.386060   -7.266970    0.194760
  O      9.055360   -7.266610    1.505280
  C      8.617980   -8.361090    2.159040
  C      8.831800   -8.388990    3.493380
  C      8.542870   -9.434120    4.390890
  C      9.008670   -9.408500    5.680540
  C      8.868160  -10.380590    6.701030
  C      9.490710  -10.061410    7.871330
  C     10.161420   -8.818790    7.842320
  S      9.970930   -8.062410    6.280930
  C     10.897680   -8.190160    8.829490
  C     11.187170   -8.615180   10.141340
  C     11.954140   -7.732340   10.840950
  C     12.315980   -6.562300   10.121580
  S     11.643580   -6.637220    8.510740
  C     13.034790   -5.524580   10.669150
  C     13.448560   -4.302700   10.112240
  S     14.051170   -3.087350   11.210220
  C     14.287110   -1.938490    9.922580
  C     14.791560   -0.581760   10.119810
  O     14.996880    0.166170    9.198510
  O     15.023020   -0.198480   11.390700
  C     13.929770   -2.482880    8.711860
  C     13.480710   -3.806180    8.798730
  O     13.045980   -4.580370    7.770650
  C     13.571660   -4.566320    6.528980
  C     14.698900   -3.963760    6.098430
  C     15.226520   -4.014460    4.779340
  C     14.841620   -4.757140    3.699940
  C     15.485060   -4.729840    2.427890
  C     14.994510   -5.607340    1.518260
  C     13.924910   -6.401100    2.004470
  S     13.544600   -5.947490    3.656960
  C     13.252370   -7.410140    1.364720
  C     13.392080   -7.839090    0.016130
  C     12.586970   -8.869310   -0.325980
  C     11.752600   -9.350010    0.738110
  S     12.047880   -8.384170    2.190460
  C     10.874130  -10.362490    0.699700
  H     18.029140   -1.124830   -4.277540
  H     17.079660   -2.491010   -5.060570
  H     17.344210   -0.409000   -1.806870
  H     15.642540   -1.034770    0.021800
  H     13.930040   -1.980370    1.324830
  H     11.949220   -3.350640    2.229020
  H     10.424750   -5.279810    1.602770
  H      8.552570  -10.044370   -4.056800
  H      8.313720   -8.969700   -0.699440
  H      8.156550   -9.161040    1.596250
  H      9.346350   -7.529700    3.903790
  H      7.985730  -10.296100    4.052520
  H      8.314220  -11.287990    6.536270
  H      9.488870  -10.683720    8.748530
  H     10.825890   -9.548730   10.534940
  H     12.272670   -7.879160   11.858220
  H     13.286690   -5.645820   11.716300
  H     14.812730   -0.890260   12.031530
  H     13.966160   -1.907340    7.805060
  H     12.948750   -5.168020    5.883480
  H     15.287460   -3.388080    6.799150
  H     16.089100   -3.381390    4.610750
  H     16.307090   -4.060900    2.240040
  H     15.375870   -5.724740    0.519740
  H     14.074740   -7.353420   -0.658280
  H     12.547040   -9.320770   -1.301530
  H     10.720470  -10.919530   -0.207930
  H     10.314430  -10.656230    1.569160

 Total Charge           Charge          ....    0
 Multiplicity           Mult            ....    1
 Number of Electrons    NEL             ....  468
 Basis Dimension        Dim             ....  984

ORBITAL ENERGIES
----------------

  NO   OCC          E(Eh)            E(eV)
   0   2.0000     -88.967767     -2420.9360
   1   2.0000     -88.958165     -2420.6747
   2   2.0000     -88.943801     -2420.2839
   3   2.0000     -88.939124     -2420.1566
   4   2.0000     -88.939113     -2420.1563
   5   2.0000     -88.937648     -2420.1164
   6   2.0000     -88.937546     -2420.1137
   7   2.0000     -88.931717     -2419.9550
   8   2.0000     -19.276248      -524.5334
   9   2.0000     -19.273678      -524.4634
  10   2.0000     -19.254633      -523.9452
  11   2.0000     -19.253741      -523.9209
  12   2.0000     -19.193906      -522.2927
  13   2.0000     -19.187060      -522.1065
  14   2.0000     -10.399108      -282.9741
  15   2.0000     -10.398090      -282.9464
  16   2.0000     -10.343880      -281.4713
  17   2.0000     -10.340575      -281.3814
  18   2.0000     -10.337520      -281.2982
  19   2.0000     -10.334320      -281.2111
  20   2.0000     -10.317111      -280.7429
  21   2.0000     -10.310291      -280.5573
  22   2.0000     -10.309343      -280.5315
  23   2.0000     -10.308917      -280.5199
  24   2.0000     -10.306177      -280.4453
  25   2.0000     -10.305669      -280.4315
  26   2.0000     -10.304743      -280.4063
  27   2.0000     -10.303375      -280.3691
  28   2.0000     -10.302720      -280.3513
  29   2.0000     -10.302423      -280.3432
  30   2.0000     -10.300806      -280.2992
  31   2.0000     -10.300201      -280.2827
  32   2.0000     -10.299428      -280.2617
  33   2.0000     -10.298770      -280.2438
  34   2.0000     -10.297730      -280.2155
  35   2.0000     -10.297395      -280.2064
  36   2.0000     -10.288812      -279.9728
  37   2.0000     -10.288268      -279.9580
  38   2.0000     -10.285944      -279.8948
  39   2.0000     -10.285896      -279.8935
  40   2.0000     -10.285261      -279.8762
  41   2.0000     -10.285195      -279.8744
  42   2.0000     -10.284451      -279.8541
  43   2.0000     -10.284244      -279.8485
  44   2.0000     -10.283835      -279.8374
  45   2.0000     -10.281597      -279.7765
  46   2.0000     -10.279669      -279.7240
  47   2.0000     -10.278648      -279.6962
  48   2.0000     -10.277469      -279.6642
  49   2.0000     -10.276354      -279.6338
  50   2.0000     -10.275546      -279.6118
  51   2.0000     -10.275317      -279.6056
  52   2.0000     -10.274900      -279.5942
  53   2.0000     -10.274082      -279.5720
  54   2.0000     -10.270841      -279.4838
  55   2.0000     -10.269374      -279.4439
  56   2.0000     -10.267990      -279.4062
  57   2.0000     -10.263510      -279.2843
  58   2.0000      -8.063580      -219.4212
  59   2.0000      -8.052400      -219.1169
  60   2.0000      -8.039543      -218.7671
  61   2.0000      -8.035566      -218.6589
  62   2.0000      -8.034538      -218.6309
  63   2.0000      -8.034198      -218.6217
  64   2.0000      -8.033308      -218.5974
  65   2.0000      -8.027618      -218.4426
  66   2.0000      -6.032869      -164.1627
  67   2.0000      -6.029021      -164.0580
  68   2.0000      -6.025428      -163.9602
  69   2.0000      -6.021735      -163.8598
  70   2.0000      -6.017614      -163.7476
  71   2.0000      -6.014525      -163.6635
  72   2.0000      -6.009305      -163.5215
  73   2.0000      -6.005299      -163.4125
  74   2.0000      -6.005264      -163.4115
  75   2.0000      -6.004270      -163.3845
  76   2.0000      -6.004017      -163.3776
  77   2.0000      -6.003112      -163.3530
  78   2.0000      -6.001309      -163.3039
  79   2.0000      -6.000472      -163.2811
  80   2.0000      -6.000305      -163.2766
  81   2.0000      -6.000110      -163.2713
  82   2.0000      -5.998885      -163.2380
  83   2.0000      -5.997451      -163.1989
  84   2.0000      -5.996387      -163.1700
  85   2.0000      -5.995566      -163.1477
  86   2.0000      -5.994743      -163.1253
  87   2.0000      -5.994168      -163.1096
  88   2.0000      -5.993564      -163.0932
  89   2.0000      -5.988208      -162.9474
  90   2.0000      -1.184508       -32.2321
  91   2.0000      -1.184367       -32.2283
  92   2.0000      -1.179109       -32.0852
  93   2.0000      -1.174441       -31.9582
  94   2.0000      -1.087006       -29.5789
  95   2.0000      -1.083769       -29.4909
  96   2.0000      -0.993411       -27.0321
  97   2.0000      -0.992378       -27.0040
  98   2.0000      -0.988818       -26.9071
  99   2.0000      -0.984071       -26.7779
 100   2.0000      -0.981963       -26.7206
 101   2.0000      -0.969114       -26.3709
 102   2.0000      -0.965751       -26.2794
 103   2.0000      -0.959992       -26.1227
 104   2.0000      -0.907869       -24.7044
 105   2.0000      -0.898283       -24.4435
 106   2.0000      -0.891610       -24.2619
 107   2.0000      -0.888014       -24.1641
 108   2.0000      -0.868199       -23.6249
 109   2.0000      -0.865152       -23.5420
 110   2.0000      -0.859593       -23.3907
 111   2.0000      -0.848194       -23.0805
 112   2.0000      -0.846246       -23.0275
 113   2.0000      -0.843019       -22.9397
 114   2.0000      -0.836418       -22.7601
 115   2.0000      -0.832092       -22.6424
 116   2.0000      -0.825335       -22.4585
 117   2.0000      -0.819318       -22.2948
 118   2.0000      -0.818372       -22.2690
 119   2.0000      -0.815580       -22.1931
 120   2.0000      -0.809824       -22.0364
 121   2.0000      -0.806344       -21.9417
 122   2.0000      -0.782529       -21.2937
 123   2.0000      -0.780016       -21.2253
 124   2.0000      -0.771508       -20.9938
 125   2.0000      -0.750582       -20.4244
 126   2.0000      -0.740073       -20.1384
 127   2.0000      -0.735772       -20.0214
 128   2.0000      -0.714486       -19.4422
 129   2.0000      -0.704117       -19.1600
 130   2.0000      -0.696827       -18.9616
 131   2.0000      -0.690639       -18.7932
 132   2.0000      -0.681766       -18.5518
 133   2.0000      -0.674586       -18.3564
 134   2.0000      -0.667985       -18.1768
 135   2.0000      -0.667192       -18.1552
 136   2.0000      -0.665470       -18.1084
 137   2.0000      -0.652649       -17.7595
 138   2.0000      -0.647477       -17.6188
 139   2.0000      -0.639160       -17.3924
 140   2.0000      -0.634855       -17.2753
 141   2.0000      -0.622958       -16.9516
 142   2.0000      -0.622305       -16.9338
 143   2.0000      -0.617920       -16.8145
 144   2.0000      -0.617450       -16.8017
 145   2.0000      -0.612702       -16.6725
 146   2.0000      -0.605271       -16.4703
 147   2.0000      -0.602440       -16.3932
 148   2.0000      -0.596863       -16.2415
 149   2.0000      -0.593683       -16.1549
 150   2.0000      -0.589353       -16.0371
 151   2.0000      -0.584430       -15.9032
 152   2.0000      -0.581240       -15.8163
 153   2.0000      -0.580778       -15.8038
 154   2.0000      -0.575556       -15.6617
 155   2.0000      -0.558804       -15.2058
 156   2.0000      -0.556847       -15.1526
 157   2.0000      -0.548774       -14.9329
 158   2.0000      -0.547740       -14.9048
 159   2.0000      -0.544209       -14.8087
 160   2.0000      -0.542642       -14.7660
 161   2.0000      -0.538001       -14.6397
 162   2.0000      -0.533818       -14.5259
 163   2.0000      -0.529687       -14.4135
 164   2.0000      -0.525758       -14.3066
 165   2.0000      -0.524875       -14.2826
 166   2.0000      -0.521843       -14.2001
 167   2.0000      -0.519937       -14.1482
 168   2.0000      -0.513825       -13.9819
 169   2.0000      -0.510993       -13.9048
 170   2.0000      -0.503230       -13.6936
 171   2.0000      -0.502552       -13.6751
 172   2.0000      -0.501053       -13.6343
 173   2.0000      -0.498228       -13.5575
 174   2.0000      -0.495839       -13.4925
 175   2.0000      -0.492803       -13.4098
 176   2.0000      -0.489045       -13.3076
 177   2.0000      -0.486848       -13.2478
 178   2.0000      -0.483184       -13.1481
 179   2.0000      -0.481577       -13.1044
 180   2.0000      -0.480288       -13.0693
 181   2.0000      -0.477512       -12.9938
 182   2.0000      -0.474115       -12.9013
 183   2.0000      -0.471233       -12.8229
 184   2.0000      -0.470486       -12.8026
 185   2.0000      -0.468693       -12.7538
 186   2.0000      -0.466793       -12.7021
 187   2.0000      -0.465890       -12.6775
 188   2.0000      -0.463763       -12.6196
 189   2.0000      -0.458999       -12.4900
 190   2.0000      -0.457445       -12.4477
 191   2.0000      -0.455345       -12.3906
 192   2.0000      -0.453395       -12.3375
 193   2.0000      -0.450676       -12.2635
 194   2.0000      -0.446141       -12.1401
 195   2.0000      -0.439135       -11.9495
 196   2.0000      -0.433957       -11.8086
 197   2.0000      -0.432363       -11.7652
 198   2.0000      -0.431846       -11.7511
 199   2.0000      -0.428789       -11.6679
 200   2.0000      -0.425883       -11.5889
 201   2.0000      -0.420246       -11.4355
 202   2.0000      -0.418292       -11.3823
 203   2.0000      -0.413241       -11.2449
 204   2.0000      -0.411578       -11.1996
 205   2.0000      -0.410732       -11.1766
 206   2.0000      -0.404057       -10.9950
 207   2.0000      -0.399824       -10.8798
 208   2.0000      -0.391671       -10.6579
 209   2.0000      -0.390855       -10.6357
 210   2.0000      -0.388642       -10.5755
 211   2.0000      -0.385884       -10.5004
 212   2.0000      -0.384456       -10.4616
 213   2.0000      -0.380016       -10.3408
 214   2.0000      -0.367934       -10.0120
 215   2.0000      -0.358987        -9.7685
 216   2.0000      -0.349542        -9.5115
 217   2.0000      -0.344502        -9.3744
 218   2.0000      -0.342357        -9.3160
 219   2.0000      -0.337303        -9.1785
 220   2.0000      -0.335808        -9.1378
 221   2.0000      -0.332702        -9.0533
 222   2.0000      -0.328039        -8.9264
 223   2.0000      -0.321325        -8.7437
 224   2.0000      -0.321134        -8.7385
 225   2.0000      -0.318279        -8.6608
 226   2.0000      -0.315694        -8.5905
 227   2.0000      -0.307793        -8.3755
 228   2.0000      -0.287377        -7.8199
 229   2.0000      -0.283150        -7.7049
 230   2.0000      -0.267176        -7.2702
 231   2.0000      -0.217630        -5.9220
 232   2.0000      -0.213287        -5.8038
 233   2.0000      -0.202151        -5.5008
 234   0.0000      -0.078543        -2.1373
 235   0.0000      -0.068187        -1.8555
 236   0.0000      -0.056028        -1.5246
 237   0.0000      -0.022531        -0.6131
 238   0.0000      -0.011115        -0.3025

MULLIKEN ATOMIC CHARGES
-----------------------
   0 C :   -0.028373
   1 C :   -0.063738
   2 C :    0.049626
   3 C :    0.030735
   4 C :   -0.071049
   5 S :    0.079548
   6 C :   -0.058842
   7 C :    0.055261
   8 C :    0.032718
   9 C :   -0.026310
  10 S :    0.060371
  11 C :    0.016023
  12 C :   -0.161221
  13 S :    0.178685
  14 C :   -0.177590
  15 C :    0.151724
  16 O :   -0.199009
  17 O :   -0.190242
  18 C :   -0.016891
  19 C :    0.256920
  20 O :   -0.231289
  21 C :    0.133638
  22 C :    0.002959
  23 C :    0.000750
  24 C :   -0.030528
  25 C :    0.042322
  26 C :    0.021890
  27 C :   -0.042898
  28 S :    0.060069
  29 C :   -0.044628
  30 C :    0.040006
  31 C :    0.017020
  32 C :   -0.006600
  33 S :    0.096526
  34 C :   -0.013314
  35 C :   -0.127092
  36 S :    0.092388
  37 C :   -0.162773
  38 C :    0.177721
  39 O :   -0.179927
  40 O :   -0.161974
  41 C :   -0.044511
  42 C :    0.234948
  43 O :   -0.258140
  44 C :    0.158146
  45 C :   -0.039830
  46 C :   -0.021495
  47 C :   -0.030096
  48 C :    0.046936
  49 C :    0.030570
  50 C :   -0.025845
  51 S :    0.034643
  52 C :   -0.066930
  53 C :    0.031413
  54 C :    0.062064
  55 C :   -0.077091
  56 S :    0.076389
  57 C :   -0.033863
  58 H :    0.021666
  59 H :    0.023816
  60 H :   -0.009038
  61 H :   -0.011380
  62 H :   -0.014775
  63 H :   -0.008902
  64 H :    0.001537
  65 H :    0.190366
  66 H :   -0.004253
  67 H :    0.008291
  68 H :    0.020218
  69 H :   -0.017289
  70 H :   -0.013978
  71 H :   -0.014109
  72 H :   -0.016046
  73 H :   -0.015781
  74 H :   -0.019150
  75 H :    0.177469
  76 H :    0.017264
  77 H :    0.022542
  78 H :    0.012347
  79 H :   -0.013541
  80 H :   -0.018780
  81 H :   -0.010239
  82 H :   -0.008648
  83 H :   -0.011457
  84 H :    0.017620
  85 H :    0.014309
Sum of atomic charges:    0.0000000

LOEWDIN ATOMIC CHARGES
----------------------
   0 C :   -0.074467
   1 C :   -0.139664
   2 C :   -0.029640
   3 C :   -0.027814
   4 C :   -0.177689
   5 S :    0.350417
   6 C :   -0.180757
   7 C :   -0.029392
   8 C :   -0.027152
   9 C :   -0.144411
  10 S :    0.366111
  11 C :   -0.070507
  12 C :   -0.184678
  13 S :    0.483484
  14 C :   -0.237544
  15 C :    0.055286
  16 O :   -0.194870
  17 O :   -0.054895
  18 C :   -0.046764
  19 C :    0.008665
  20 O :   -0.021517
  21 C :    0.068591
  22 C :   -0.079605
  23 C :   -0.047281
  24 C :   -0.150249
  25 C :   -0.028662
  26 C :   -0.037117
  27 C :   -0.168401
  28 S :    0.372689
  29 C :   -0.194531
  30 C :   -0.026161
  31 C :   -0.043066
  32 C :   -0.132761
  33 S :    0.401977
  34 C :   -0.104870
  35 C :   -0.166553
  36 S :    0.419558
  37 C :   -0.244286
  38 C :    0.061064
  39 O :   -0.168729
  40 O :   -0.037394
  41 C :   -0.030590
  42 C :    0.002107
  43 O :   -0.037132
  44 C :    0.062690
  45 C :   -0.101848
  46 C :   -0.058718
  47 C :   -0.152497
  48 C :   -0.030192
  49 C :   -0.035605
  50 C :   -0.175112
  51 S :    0.367726
  52 C :   -0.176209
  53 C :   -0.023958
  54 C :   -0.035867
  55 C :   -0.135558
  56 S :    0.367201
  57 C :   -0.091057
  58 H :    0.029233
  59 H :    0.027185
  60 H :    0.034136
  61 H :    0.032702
  62 H :    0.031151
  63 H :    0.033692
  64 H :    0.040802
  65 H :    0.099208
  66 H :    0.034401
  67 H :    0.016539
  68 H :    0.026302
  69 H :    0.030538
  70 H :    0.032982
  71 H :    0.031456
  72 H :    0.030865
  73 H :    0.030938
  74 H :    0.031860
  75 H :    0.077345
  76 H :    0.045259
  77 H :    0.008815
  78 H :    0.036105
  79 H :    0.034667
  80 H :    0.030274
  81 H :    0.032127
  82 H :    0.030301
  83 H :    0.032442
  84 H :    0.026751
  85 H :    0.020129

  Mayer bond orders larger than 0.100000
B(  0-C ,  1-C ) :   1.8661 B(  0-C , 58-H ) :   0.9510 B(  0-C , 59-H ) :   0.9410
B(  1-C ,  2-C ) :   1.0790 B(  1-C ,  5-S ) :   1.0045 B(  2-C ,  3-C ) :   1.6605
B(  2-C , 60-H ) :   0.9934 B(  3-C ,  4-C ) :   1.1478 B(  3-C , 61-H ) :   0.9933
B(  4-C ,  5-S ) :   1.0447 B(  4-C ,  6-C ) :   1.5655 B(  6-C ,  7-C ) :   1.1652
B(  6-C , 10-S ) :   1.0279 B(  7-C ,  8-C ) :   1.6039 B(  7-C , 62-H ) :   0.9898
B(  8-C ,  9-C ) :   1.1311 B(  8-C , 63-H ) :   1.0031 B(  9-C , 10-S ) :   1.0308
B(  9-C , 11-C ) :   1.5713 B( 11-C , 12-C ) :   1.1830 B( 11-C , 64-H ) :   0.9673
B( 12-C , 13-S ) :   1.1251 B( 12-C , 14-C ) :   0.1119 B( 12-C , 19-C ) :   1.4105
B( 13-S , 14-C ) :   1.1202 B( 14-C , 15-C ) :   1.0029 B( 14-C , 18-C ) :   1.4383
B( 15-C , 16-O ) :   2.1689 B( 15-C , 17-O ) :   1.2702 B( 17-O , 65-H ) :   0.9436
B( 18-C , 19-C ) :   1.2545 B( 18-C , 66-H ) :   1.0049 B( 19-C , 20-O ) :   1.0951
B( 20-O , 21-C ) :   1.0581 B( 21-C , 22-C ) :   1.6841 B( 21-C , 67-H ) :   0.9716
B( 22-C , 23-C ) :   1.1298 B( 22-C , 68-H ) :   0.9575 B( 23-C , 24-C ) :   1.6069
B( 23-C , 69-H ) :   0.9785 B( 24-C , 25-C ) :   1.1393 B( 24-C , 28-S ) :   1.0254
B( 25-C , 26-C ) :   1.5928 B( 25-C , 70-H ) :   0.9974 B( 26-C , 27-C ) :   1.1906
B( 26-C , 71-H ) :   0.9941 B( 27-C , 28-S ) :   1.0572 B( 27-C , 29-C ) :   1.4995
B( 29-C , 30-C ) :   1.1935 B( 29-C , 33-S ) :   1.0205 B( 30-C , 31-C ) :   1.5832
B( 30-C , 72-H ) :   0.9937 B( 31-C , 32-C ) :   1.1454 B( 31-C , 73-H ) :   0.9993
B( 32-C , 33-S ) :   1.0649 B( 32-C , 34-C ) :   1.5982 B( 34-C , 35-C ) :   1.1608
B( 34-C , 74-H ) :   0.9392 B( 35-C , 36-S ) :   1.1384 B( 35-C , 42-C ) :   1.4202
B( 36-S , 37-C ) :   1.0768 B( 37-C , 38-C ) :   0.9512 B( 37-C , 41-C ) :   1.4997
B( 38-C , 39-O ) :   2.1935 B( 38-C , 40-O ) :   1.2326 B( 40-O , 75-H ) :   0.9521
B( 41-C , 42-C ) :   1.2365 B( 41-C , 76-H ) :   1.0081 B( 42-C , 43-O ) :   1.0566
B( 43-O , 44-C ) :   1.0532 B( 44-C , 45-C ) :   1.6711 B( 44-C , 77-H ) :   0.9692
B( 45-C , 46-C ) :   1.1726 B( 45-C , 78-H ) :   0.9531 B( 46-C , 47-C ) :   1.6326
B( 46-C , 79-H ) :   0.9614 B( 47-C , 48-C ) :   1.1246 B( 47-C , 51-S ) :   1.0208
B( 48-C , 49-C ) :   1.6111 B( 48-C , 80-H ) :   0.9984 B( 49-C , 50-C ) :   1.1674
B( 49-C , 81-H ) :   0.9925 B( 50-C , 51-S ) :   1.0239 B( 50-C , 52-C ) :   1.5666
B( 52-C , 53-C ) :   1.1512 B( 52-C , 56-S ) :   1.0310 B( 53-C , 54-C ) :   1.6438
B( 53-C , 82-H ) :   0.9944 B( 54-C , 55-C ) :   1.0816 B( 54-C , 83-H ) :   0.9939
B( 55-C , 56-S ) :   1.0191 B( 55-C , 57-C ) :   1.8500 B( 57-C , 84-H ) :   0.9445
B( 57-C , 85-H ) :   0.9333

-----------------------------------------------------------------------------
         ABSORPTION SPECTRUM VIA TRANSITION ELECTRIC DIPOLE MOMENTS
-----------------------------------------------------------------------------
State   Energy  Wavelength   fosc         T2         TX        TY        TZ
        (cm-1)    (nm)                  (au**2)     (au)      (au)      (au)
-----------------------------------------------------------------------------
   0   12886.2    776.0   0.174661099   4.46217   0.86340   0.77576   1.76491
   1   14440.9    692.5   0.174921137   3.98771  -1.24760  -0.76852  -1.35669
   2   15398.9    649.4   0.236127229   5.04814   0.49054   0.07738  -2.19124
   3   16005.8    624.8   0.165004989   3.39387   0.66792   0.30096  -1.69032
   4   17976.0    556.3   0.649814976  11.90066   2.50004   2.32489  -0.49536
   5   18454.9    541.9   0.078994014   1.40915   0.90731   0.65820  -0.39078
   6   18998.9    526.3   0.064650953   1.12027  -0.30058  -0.27534   0.97679
   7   20269.7    493.3   0.110615490   1.79657  -0.99858  -0.22302   0.86584
   8   21202.0    471.7   1.985104774  30.82352   2.92053   3.91185   2.64414
   9   23997.6    416.7   0.092104616   1.26354   0.44967   0.04189   1.02936
  10   25922.4    385.8   0.137835811   1.75050   0.28708   1.03439  -0.77338
  11   26628.9    375.5   0.048205301   0.59596  -0.39241  -0.25066   0.61575
  12   27656.5    361.6   0.112572905   1.34002   0.25138   0.67242  -0.90812
  13   28276.8    353.6   0.349261583   4.06627   0.09862  -1.26350   1.56848
  14   29165.0    342.9   0.143394049   1.61862   0.40131   0.00550  -1.20729
  15   29891.5    334.5   0.038118381   0.41982   0.42272  -0.10699  -0.47925
  16   29997.2    333.4   0.027132987   0.29778   0.16530   0.34256   0.39129
  17   30174.5    331.4   0.068581644   0.74824   0.23358  -0.08608  -0.82842
  18   30989.6    322.7   0.007441137   0.07905   0.15151  -0.12529   0.20098
  19   31485.0    317.6   0.019378571   0.20263  -0.19916  -0.31512   0.25231
  20   31591.2    316.5   0.035952486   0.37466  -0.11289  -0.01554   0.60139
  21   31967.6    312.8   0.071621569   0.73758   0.08432  -0.33937  -0.78441
  22   32344.2    309.2   0.018299804   0.18626  -0.03630   0.30888   0.29923
  23   32728.2    305.5   0.098379916   0.98960   0.06201  -0.31500  -0.94156
  24   33023.0    302.8   0.013020446   0.12980  -0.09386  -0.04068   0.34545
  25   33091.6    302.2   0.236759511   2.35540   0.44823   0.06115  -1.46654
  26   33596.6    297.6   0.046694522   0.45756  -0.16447  -0.19108   0.62769
  27   33871.0    295.2   0.192193379   1.86804   0.41991   0.98592  -0.84834
  28   33974.1    294.3   0.023351927   0.22628   0.23103  -0.32740  -0.25636
  29   34335.2    291.2   0.000958555   0.00919  -0.03451   0.04607   0.07666
  30   34434.5    290.4   0.086718142   0.82907  -0.13206   0.42575   0.79395
  31   34516.5    289.7   0.019276549   0.18386  -0.18143   0.30821   0.23653
  32   34919.7    286.4   0.043069113   0.40604  -0.05977  -0.27543  -0.57150
  33   35047.0    285.3   0.004619921   0.04340  -0.15518  -0.12849  -0.05298
  34   35274.6    283.5   0.130736516   1.22014  -0.29725   0.54323   0.91471
  35   35631.6    280.6   0.011315988   0.10455  -0.28121  -0.04386  -0.15346
  36   35920.8    278.4   0.011499112   0.10539   0.25613   0.19676  -0.03269
  37   36074.9    277.2   0.037660962   0.34369   0.41730   0.19530   0.36249
  38   36621.1    273.1   0.008306600   0.07467   0.23648   0.11350   0.07662
  39   36919.4    270.9   0.018184867   0.16216   0.06762  -0.07609  -0.38961
  40   37141.2    269.2   0.063314688   0.56121  -0.20694  -0.62766  -0.35275
  41   37557.8    266.3   0.001279531   0.01122   0.06027   0.08039   0.03347
  42   37815.6    264.4   0.010666608   0.09286  -0.26897  -0.06733  -0.12642
  43   38180.7    261.9   0.012861002   0.11089  -0.08113  -0.32031  -0.04142
  44   38232.0    261.6   0.007810051   0.06725  -0.20025  -0.10639   0.12582
  45   38755.1    258.0   0.012760523   0.10840   0.21591  -0.15370   0.19534
  46   39377.6    254.0   0.109465112   0.91517   0.62827   0.49704  -0.52288
  47   39417.0    253.7   0.001161910   0.00970  -0.07127   0.05915   0.03356
  48   39642.4    252.3   0.002327386   0.01933   0.02445  -0.13328   0.03110
  49   39964.1    250.2   0.034084843   0.28078   0.43140   0.24204   0.18998
  50   40028.3    249.8   0.043740075   0.35974   0.26687   0.16600  -0.51085
  51   40179.0    248.9   0.073563580   0.60275  -0.15202  -0.39411  -0.65140

FINAL SINGLE POINT ENERGY     -5326.586935742269

DIPOLE MOMENT
-------------
                                X             Y             Z
Electronic contribution:     -5.99674       5.55082       7.64349
Nuclear contribution   :      5.62377      -7.69817      -6.99362
                        -----------------------------------------
Total Dipole Moment    :     -0.37297      -2.14736       0.64987
                        -----------------------------------------
Magnitude (a.u.)       :      2.27433
Magnitude (Debye)      :      5.78089

Rotational constants in cm-1:     0.001449     0.000771     0.000535
Rotational constants in MHz :    43.449402    23.105589    16.033492

                             ****ORCA TERMINATED NORMALLY****
TOTAL RUN TIME: 0 days 0 hours 13 minutes 49 seconds 477 msec
