                         Program Version 4.2.0 -  RELEASE  -
|  1> # ORCA input file
|  2> # SCF done       -184.869801663602          0.000837861003
|  3> ! CAM-B3LYP def2-SVP def2/J RIJCOSX Grid4 TightSCF
|  4> %maxcore 5000
|  5> %tddft
|  6>     Mode sTDDFT
|  7>     Ethresh 5.0
|  8>     maxcore 5000
|  9> end
| 10>
| 11> %pal
| 12>   nprocs 6
| 13>   end
| 14> * xyz 0 1
| 15>    C       14.99570        -7.83411        -3.61896
| 16>    C       13.78965        -7.41566        -4.02512
| 17>    C       13.49002        -6.49209        -5.08257
| 18>    C       12.17239        -6.25938        -5.26535
| 19>    C       11.31999        -6.97341        -4.37588
| 20>    S       12.27628        -7.96166        -3.28570
| 21>    C        9.94951        -6.94283        -4.32737
| 22>    C        9.06090        -6.19780        -5.14607
| 23>    C        7.75232        -6.39042        -4.85438
| 24>    C        7.49954        -7.30256        -3.78524
| 25>    S        9.04013        -7.89036        -3.16549
| 26>    C        6.25110        -7.65556        -3.36775
| 27>    C        5.82708        -8.56215        -2.34470
| 28>    C        4.44867        -8.84888        -2.25692
| 29>    C        3.98708        -9.74007        -1.32313
| 30>    C        4.87930       -10.32339        -0.40252
| 31>    C        6.23632       -10.03685        -0.46240
| 32>    C        6.70055        -9.17622        -1.43352
| 33>    C        4.12711       -11.14729         0.51496
| 34>    C        2.76916       -11.08613         0.15994
| 35>    C        2.57601       -10.22374        -1.07068
| 36>    C        2.07242       -11.15379        -2.19904
| 37>    C        1.97571       -10.53185        -3.58582
| 38>    C        1.60300        -9.06328        -0.81469
| 39>    C        2.01742        -8.21323         0.38106
| 40>    C        1.82551       -11.78397         0.87256
| 41>    C        2.21978       -12.55663         1.97409
| 42>    C        3.57416       -12.58282         2.33210
| 43>    C        4.52976       -11.89628         1.61181
| 44>    C        1.27765       -13.33116         2.75530
| 45>    C        0.05381       -13.70956         2.35428
| 46>    C       -0.88723       -14.50509         3.11528
| 47>    C       -0.76965       -14.68240         4.50095
| 48>    C       -1.68533       -15.45727         5.17202
| 49>    C       -2.76444       -16.03225         4.47995
| 50>    C       -2.89844       -15.86183         3.11049
| 51>    C       -1.95922       -15.10387         2.44258
| 52>    C       -3.60272       -16.73543         5.42648
| 53>    C       -3.03086       -16.61675         6.70528
| 54>    C       -1.77741       -15.76242         6.65637
| 55>    C       -1.96561       -14.42379         7.40089
| 56>    C       -2.13142       -14.51734         8.91230
| 57>    C       -0.59007       -16.60244         7.16891
| 58>    C        0.76740       -15.91139         7.20071
| 59>    C       -3.59363       -17.28028         7.76967
| 60>    C       -4.75799       -18.03633         7.58086
| 61>    C       -5.36786       -18.06108         6.32586
| 62>    C       -4.78362       -17.43768         5.23997
| 63>    C       -5.32882       -18.80487         8.68126
| 64>    C       -4.63071       -19.53937         9.56204
| 65>    C       -3.21533       -19.81710         9.49375
| 66>    C       -2.52680       -20.00640         8.27781
| 67>    C       -1.08585       -20.09898         8.21925
| 68>    N       -0.47782       -20.11114         7.01972
| 69>    C       -1.20216       -20.08237         5.92913
| 70>    C       -2.63246       -20.17108         5.99718
| 71>    N       -3.24411       -20.13481         7.15191
| 72>    C       -3.38580       -20.32799         4.80912
| 73>    N       -3.95191       -20.45294         3.82055
| 74>    C       -0.55725       -19.97781         4.67292
| 75>    N       -0.06443       -19.86029         3.64515
| 76>    C       -0.30685       -20.14161         9.38877
| 77>    C       -1.00450       -20.10254        10.60194
| 78>    C       -2.44055       -19.93954        10.65709
| 79>    N       -2.89067       -19.90228        11.91504
| 80>    S       -1.64692       -20.05599        12.91878
| 81>    N       -0.46766       -20.16068        11.83082
| 82>    C        1.14843       -20.30479         9.36299
| 83>    C        1.96635       -19.77266         8.44033
| 84>    N        1.76778       -21.03923        10.36940
| 85>    N        1.07683       -21.72187        11.14124
| 86>    H       15.89050        -7.47671        -4.09724
| 87>    H       15.10934        -8.53314        -2.81089
| 88>    H       14.28064        -6.04456        -5.65852
| 89>    H       11.77121        -5.59673        -6.01185
| 90>    H        9.41895        -5.54803        -5.92450
| 91>    H        6.93932        -5.91188        -5.37248
| 92>    H        5.44407        -7.18924        -3.92280
| 93>    H        3.77035        -8.35281        -2.93574
| 94>    H        6.92218       -10.47985         0.24403
| 95>    H        7.75457        -8.95536        -1.47435
| 96>    H        1.08734       -11.52431        -1.90614
| 97>    H        2.74564       -12.01380        -2.24801
| 98>    H        1.32994        -9.65750        -3.58535
| 99>    H        1.55567       -11.25953        -4.27720
|100>    H        2.95819       -10.24799        -3.95262
|101>    H        0.60463        -9.47101        -0.64197
|102>    H        1.55870        -8.43006        -1.70192
|103>    H        2.03950        -8.81198         1.28889
|104>    H        1.31326        -7.39644         0.52384
|105>    H        3.00817        -7.79146         0.22549
|106>    H        0.78158       -11.72406         0.60455
|107>    H        3.87390       -13.17225         3.18731
|108>    H        5.57017       -11.94026         1.89774
|109>    H        1.64728       -13.65707         3.71884
|110>    H       -0.27744       -13.45080         1.35698
|111>    H        0.02481       -14.18175         5.03092
|112>    H       -3.72422       -16.31039         2.57939
|113>    H       -2.04771       -14.96573         1.37431
|114>    H       -2.84974       -13.93808         6.97870
|115>    H       -1.10934       -13.78621         7.17363
|116>    H       -3.04508       -15.04439         9.17221
|117>    H       -2.19296       -13.51425         9.33016
|118>    H       -1.28809       -15.02388         9.37476
|119>    H       -0.51199       -17.48175         6.52334
|120>    H       -0.83111       -16.95732         8.17426
|121>    H        1.11707       -15.70161         6.19419
|122>    H        1.49381       -16.56649         7.67865
|123>    H        0.72960       -14.98394         7.76556
|124>    H       -3.15094       -17.24496         8.75490
|125>    H       -6.27701       -18.62889         6.19562
|126>    H       -5.23204       -17.51009         4.26117
|127>    H       -6.40516       -18.75291         8.78628
|128>    H       -5.12976       -19.96115        10.42443
|129>    H        1.59323       -19.16919         7.63492
|130>    H        3.02156       -19.97965         8.47951
|131>    H        1.66227       -22.13881        11.87496
|132> *
|133>
|134>                          ****END OF INPUT****

CARTESIAN COORDINATES (ANGSTROEM)
---------------------------------
  C     14.995700   -7.834110   -3.618960
  C     13.789650   -7.415660   -4.025120
  C     13.490020   -6.492090   -5.082570
  C     12.172390   -6.259380   -5.265350
  C     11.319990   -6.973410   -4.375880
  S     12.276280   -7.961660   -3.285700
  C      9.949510   -6.942830   -4.327370
  C      9.060900   -6.197800   -5.146070
  C      7.752320   -6.390420   -4.854380
  C      7.499540   -7.302560   -3.785240
  S      9.040130   -7.890360   -3.165490
  C      6.251100   -7.655560   -3.367750
  C      5.827080   -8.562150   -2.344700
  C      4.448670   -8.848880   -2.256920
  C      3.987080   -9.740070   -1.323130
  C      4.879300  -10.323390   -0.402520
  C      6.236320  -10.036850   -0.462400
  C      6.700550   -9.176220   -1.433520
  C      4.127110  -11.147290    0.514960
  C      2.769160  -11.086130    0.159940
  C      2.576010  -10.223740   -1.070680
  C      2.072420  -11.153790   -2.199040
  C      1.975710  -10.531850   -3.585820
  C      1.603000   -9.063280   -0.814690
  C      2.017420   -8.213230    0.381060
  C      1.825510  -11.783970    0.872560
  C      2.219780  -12.556630    1.974090
  C      3.574160  -12.582820    2.332100
  C      4.529760  -11.896280    1.611810
  C      1.277650  -13.331160    2.755300
  C      0.053810  -13.709560    2.354280
  C     -0.887230  -14.505090    3.115280
  C     -0.769650  -14.682400    4.500950
  C     -1.685330  -15.457270    5.172020
  C     -2.764440  -16.032250    4.479950
  C     -2.898440  -15.861830    3.110490
  C     -1.959220  -15.103870    2.442580
  C     -3.602720  -16.735430    5.426480
  C     -3.030860  -16.616750    6.705280
  C     -1.777410  -15.762420    6.656370
  C     -1.965610  -14.423790    7.400890
  C     -2.131420  -14.517340    8.912300
  C     -0.590070  -16.602440    7.168910
  C      0.767400  -15.911390    7.200710
  C     -3.593630  -17.280280    7.769670
  C     -4.757990  -18.036330    7.580860
  C     -5.367860  -18.061080    6.325860
  C     -4.783620  -17.437680    5.239970
  C     -5.328820  -18.804870    8.681260
  C     -4.630710  -19.539370    9.562040
  C     -3.215330  -19.817100    9.493750
  C     -2.526800  -20.006400    8.277810
  C     -1.085850  -20.098980    8.219250
  N     -0.477820  -20.111140    7.019720
  C     -1.202160  -20.082370    5.929130
  C     -2.632460  -20.171080    5.997180
  N     -3.244110  -20.134810    7.151910
  C     -3.385800  -20.327990    4.809120
  N     -3.951910  -20.452940    3.820550
  C     -0.557250  -19.977810    4.672920
  N     -0.064430  -19.860290    3.645150
  C     -0.306850  -20.141610    9.388770
  C     -1.004500  -20.102540   10.601940
  C     -2.440550  -19.939540   10.657090
  N     -2.890670  -19.902280   11.915040
  S     -1.646920  -20.055990   12.918780
  N     -0.467660  -20.160680   11.830820
  C      1.148430  -20.304790    9.362990
  C      1.966350  -19.772660    8.440330
  N      1.767780  -21.039230   10.369400
  N      1.076830  -21.721870   11.141240
  H     15.890500   -7.476710   -4.097240
  H     15.109340   -8.533140   -2.810890
  H     14.280640   -6.044560   -5.658520
  H     11.771210   -5.596730   -6.011850
  H      9.418950   -5.548030   -5.924500
  H      6.939320   -5.911880   -5.372480
  H      5.444070   -7.189240   -3.922800
  H      3.770350   -8.352810   -2.935740
  H      6.922180  -10.479850    0.244030
  H      7.754570   -8.955360   -1.474350
  H      1.087340  -11.524310   -1.906140
  H      2.745640  -12.013800   -2.248010
  H      1.329940   -9.657500   -3.585350
  H      1.555670  -11.259530   -4.277200
  H      2.958190  -10.247990   -3.952620
  H      0.604630   -9.471010   -0.641970
  H      1.558700   -8.430060   -1.701920
  H      2.039500   -8.811980    1.288890
  H      1.313260   -7.396440    0.523840
  H      3.008170   -7.791460    0.225490
  H      0.781580  -11.724060    0.604550
  H      3.873900  -13.172250    3.187310
  H      5.570170  -11.940260    1.897740
  H      1.647280  -13.657070    3.718840
  H     -0.277440  -13.450800    1.356980
  H      0.024810  -14.181750    5.030920
  H     -3.724220  -16.310390    2.579390
  H     -2.047710  -14.965730    1.374310
  H     -2.849740  -13.938080    6.978700
  H     -1.109340  -13.786210    7.173630
  H     -3.045080  -15.044390    9.172210
  H     -2.192960  -13.514250    9.330160
  H     -1.288090  -15.023880    9.374760
  H     -0.511990  -17.481750    6.523340
  H     -0.831110  -16.957320    8.174260
  H      1.117070  -15.701610    6.194190
  H      1.493810  -16.566490    7.678650
  H      0.729600  -14.983940    7.765560
  H     -3.150940  -17.244960    8.754900
  H     -6.277010  -18.628890    6.195620
  H     -5.232040  -17.510090    4.261170
  H     -6.405160  -18.752910    8.786280
  H     -5.129760  -19.961150   10.424430
  H      1.593230  -19.169190    7.634920
  H      3.021560  -19.979650    8.479510
  H      1.662270  -22.138810   11.874960

 Total Charge           Charge          ....    0
 Multiplicity           Mult            ....    1
 Number of Electrons    NEL             ....  510
 Basis Dimension        Dim             .... 1236

ORBITAL ENERGIES
----------------

  NO   OCC          E(Eh)            E(eV)
   0   2.0000     -89.042496     -2422.9695
   1   2.0000     -88.935298     -2420.0525
   2   2.0000     -88.929880     -2419.9051
   3   2.0000     -14.455393      -393.3512
   4   2.0000     -14.453451      -393.2984
   5   2.0000     -14.448801      -393.1719
   6   2.0000     -14.448041      -393.1512
   7   2.0000     -14.446170      -393.1003
   8   2.0000     -14.443320      -393.0227
   9   2.0000     -14.425878      -392.5481
  10   2.0000     -14.422447      -392.4547
  11   2.0000     -10.376913      -282.3702
  12   2.0000     -10.372460      -282.2490
  13   2.0000     -10.343207      -281.4530
  14   2.0000     -10.338990      -281.3382
  15   2.0000     -10.336286      -281.2646
  16   2.0000     -10.335668      -281.2478
  17   2.0000     -10.318706      -280.7863
  18   2.0000     -10.317086      -280.7422
  19   2.0000     -10.312843      -280.6267
  20   2.0000     -10.310673      -280.5677
  21   2.0000     -10.310080      -280.5515
  22   2.0000     -10.300795      -280.2989
  23   2.0000     -10.299683      -280.2686
  24   2.0000     -10.298794      -280.2444
  25   2.0000     -10.297077      -280.1977
  26   2.0000     -10.286427      -279.9079
  27   2.0000     -10.282399      -279.7983
  28   2.0000     -10.282113      -279.7905
  29   2.0000     -10.280897      -279.7574
  30   2.0000     -10.279005      -279.7059
  31   2.0000     -10.277901      -279.6759
  32   2.0000     -10.276967      -279.6505
  33   2.0000     -10.276617      -279.6410
  34   2.0000     -10.276266      -279.6314
  35   2.0000     -10.270519      -279.4750
  36   2.0000     -10.270251      -279.4677
  37   2.0000     -10.269226      -279.4398
  38   2.0000     -10.268613      -279.4232
  39   2.0000     -10.268021      -279.4071
  40   2.0000     -10.267836      -279.4020
  41   2.0000     -10.267306      -279.3876
  42   2.0000     -10.267274      -279.3867
  43   2.0000     -10.266979      -279.3787
  44   2.0000     -10.266538      -279.3667
  45   2.0000     -10.265802      -279.3467
  46   2.0000     -10.263207      -279.2761
  47   2.0000     -10.262866      -279.2668
  48   2.0000     -10.262443      -279.2553
  49   2.0000     -10.262392      -279.2539
  50   2.0000     -10.262102      -279.2460
  51   2.0000     -10.261772      -279.2370
  52   2.0000     -10.261564      -279.2314
  53   2.0000     -10.261432      -279.2278
  54   2.0000     -10.261162      -279.2204
  55   2.0000     -10.260925      -279.2140
  56   2.0000     -10.260912      -279.2136
  57   2.0000     -10.260792      -279.2103
  58   2.0000     -10.260237      -279.1952
  59   2.0000     -10.259647      -279.1792
  60   2.0000     -10.259371      -279.1717
  61   2.0000     -10.259059      -279.1632
  62   2.0000     -10.259026      -279.1623
  63   2.0000     -10.258671      -279.1526
  64   2.0000     -10.258113      -279.1375
  65   2.0000     -10.256280      -279.0876
  66   2.0000     -10.256084      -279.0822
  67   2.0000     -10.254562      -279.0408
  68   2.0000     -10.252495      -278.9846
  69   2.0000     -10.245430      -278.7923
  70   2.0000     -10.239772      -278.6384
  71   2.0000      -8.133490      -221.3235
  72   2.0000      -8.030962      -218.5336
  73   2.0000      -8.026537      -218.4132
  74   2.0000      -6.104349      -166.1078
  75   2.0000      -6.096798      -165.9023
  76   2.0000      -6.096635      -165.8979
  77   2.0000      -6.000814      -163.2904
  78   2.0000      -5.996752      -163.1799
  79   2.0000      -5.996419      -163.1708
  80   2.0000      -5.992443      -163.0627
  81   2.0000      -5.991770      -163.0443
  82   2.0000      -5.987034      -162.9155
  83   2.0000      -1.135552       -30.8999
  84   2.0000      -1.114296       -30.3215
  85   2.0000      -1.111713       -30.2512
  86   2.0000      -1.040796       -28.3215
  87   2.0000      -1.008544       -27.4439
  88   2.0000      -0.998324       -27.1658
  89   2.0000      -0.988116       -26.8880
  90   2.0000      -0.983360       -26.7586
  91   2.0000      -0.982961       -26.7477
  92   2.0000      -0.977356       -26.5952
  93   2.0000      -0.973900       -26.5012
  94   2.0000      -0.960382       -26.1333
  95   2.0000      -0.943110       -25.6633
  96   2.0000      -0.935298       -25.4507
  97   2.0000      -0.921462       -25.0743
  98   2.0000      -0.914204       -24.8767
  99   2.0000      -0.908824       -24.7304
 100   2.0000      -0.901650       -24.5352
 101   2.0000      -0.892306       -24.2809
 102   2.0000      -0.883914       -24.0525
 103   2.0000      -0.878017       -23.8921
 104   2.0000      -0.866929       -23.5903
 105   2.0000      -0.854630       -23.2557
 106   2.0000      -0.842305       -22.9203
 107   2.0000      -0.837078       -22.7781
 108   2.0000      -0.835302       -22.7297
 109   2.0000      -0.833380       -22.6774
 110   2.0000      -0.829767       -22.5791
 111   2.0000      -0.828452       -22.5433
 112   2.0000      -0.826398       -22.4874
 113   2.0000      -0.824734       -22.4422
 114   2.0000      -0.824612       -22.4388
 115   2.0000      -0.818793       -22.2805
 116   2.0000      -0.810814       -22.0634
 117   2.0000      -0.804210       -21.8837
 118   2.0000      -0.792826       -21.5739
 119   2.0000      -0.779155       -21.2019
 120   2.0000      -0.766582       -20.8598
 121   2.0000      -0.765888       -20.8409
 122   2.0000      -0.761168       -20.7124
 123   2.0000      -0.755918       -20.5696
 124   2.0000      -0.745175       -20.2772
 125   2.0000      -0.731809       -19.9135
 126   2.0000      -0.720884       -19.6163
 127   2.0000      -0.712123       -19.3778
 128   2.0000      -0.706781       -19.2325
 129   2.0000      -0.706100       -19.2140
 130   2.0000      -0.695291       -18.9198
 131   2.0000      -0.691877       -18.8269
 132   2.0000      -0.685217       -18.6457
 133   2.0000      -0.683223       -18.5914
 134   2.0000      -0.677714       -18.4415
 135   2.0000      -0.671925       -18.2840
 136   2.0000      -0.667849       -18.1731
 137   2.0000      -0.664852       -18.0915
 138   2.0000      -0.658207       -17.9107
 139   2.0000      -0.650952       -17.7133
 140   2.0000      -0.646338       -17.5878
 141   2.0000      -0.645727       -17.5711
 142   2.0000      -0.635042       -17.2804
 143   2.0000      -0.629765       -17.1368
 144   2.0000      -0.624912       -17.0047
 145   2.0000      -0.618123       -16.8200
 146   2.0000      -0.615939       -16.7605
 147   2.0000      -0.612713       -16.6728
 148   2.0000      -0.610079       -16.6011
 149   2.0000      -0.603660       -16.4264
 150   2.0000      -0.591189       -16.0871
 151   2.0000      -0.588815       -16.0225
 152   2.0000      -0.587724       -15.9928
 153   2.0000      -0.586492       -15.9592
 154   2.0000      -0.580830       -15.8052
 155   2.0000      -0.577161       -15.7053
 156   2.0000      -0.569713       -15.5027
 157   2.0000      -0.565671       -15.3927
 158   2.0000      -0.559922       -15.2363
 159   2.0000      -0.554600       -15.0914
 160   2.0000      -0.552864       -15.0442
 161   2.0000      -0.550172       -14.9709
 162   2.0000      -0.542796       -14.7702
 163   2.0000      -0.539174       -14.6717
 164   2.0000      -0.535591       -14.5742
 165   2.0000      -0.530947       -14.4478
 166   2.0000      -0.528823       -14.3900
 167   2.0000      -0.525622       -14.3029
 168   2.0000      -0.522692       -14.2232
 169   2.0000      -0.521168       -14.1817
 170   2.0000      -0.516747       -14.0614
 171   2.0000      -0.515327       -14.0228
 172   2.0000      -0.514401       -13.9976
 173   2.0000      -0.509839       -13.8734
 174   2.0000      -0.508476       -13.8363
 175   2.0000      -0.506919       -13.7940
 176   2.0000      -0.505276       -13.7493
 177   2.0000      -0.503777       -13.7085
 178   2.0000      -0.500359       -13.6155
 179   2.0000      -0.496115       -13.5000
 180   2.0000      -0.492634       -13.4053
 181   2.0000      -0.490949       -13.3594
 182   2.0000      -0.488408       -13.2903
 183   2.0000      -0.486535       -13.2393
 184   2.0000      -0.485922       -13.2226
 185   2.0000      -0.484764       -13.1911
 186   2.0000      -0.483041       -13.1442
 187   2.0000      -0.481183       -13.0937
 188   2.0000      -0.479987       -13.0611
 189   2.0000      -0.478602       -13.0234
 190   2.0000      -0.477170       -12.9844
 191   2.0000      -0.473680       -12.8895
 192   2.0000      -0.472109       -12.8467
 193   2.0000      -0.470229       -12.7956
 194   2.0000      -0.467132       -12.7113
 195   2.0000      -0.462560       -12.5869
 196   2.0000      -0.461117       -12.5476
 197   2.0000      -0.456948       -12.4342
 198   2.0000      -0.453137       -12.3305
 199   2.0000      -0.451567       -12.2878
 200   2.0000      -0.450515       -12.2591
 201   2.0000      -0.449662       -12.2359
 202   2.0000      -0.448656       -12.2086
 203   2.0000      -0.445765       -12.1299
 204   2.0000      -0.443317       -12.0633
 205   2.0000      -0.440373       -11.9832
 206   2.0000      -0.439039       -11.9469
 207   2.0000      -0.438727       -11.9384
 208   2.0000      -0.435725       -11.8567
 209   2.0000      -0.432827       -11.7778
 210   2.0000      -0.432323       -11.7641
 211   2.0000      -0.431832       -11.7508
 212   2.0000      -0.429016       -11.6741
 213   2.0000      -0.426820       -11.6144
 214   2.0000      -0.423519       -11.5245
 215   2.0000      -0.422745       -11.5035
 216   2.0000      -0.419626       -11.4186
 217   2.0000      -0.419089       -11.4040
 218   2.0000      -0.417600       -11.3635
 219   2.0000      -0.412670       -11.2293
 220   2.0000      -0.411898       -11.2083
 221   2.0000      -0.410146       -11.1606
 222   2.0000      -0.409653       -11.1472
 223   2.0000      -0.407838       -11.0978
 224   2.0000      -0.405860       -11.0440
 225   2.0000      -0.404379       -11.0037
 226   2.0000      -0.403778       -10.9874
 227   2.0000      -0.395528       -10.7629
 228   2.0000      -0.392496       -10.6804
 229   2.0000      -0.386182       -10.5086
 230   2.0000      -0.384167       -10.4537
 231   2.0000      -0.382256       -10.4017
 232   2.0000      -0.376823       -10.2539
 233   2.0000      -0.375530       -10.2187
 234   2.0000      -0.375263       -10.2114
 235   2.0000      -0.373604       -10.1663
 236   2.0000      -0.370582       -10.0841
 237   2.0000      -0.365760        -9.9528
 238   2.0000      -0.357259        -9.7215
 239   2.0000      -0.349411        -9.5080
 240   2.0000      -0.341053        -9.2805
 241   2.0000      -0.337774        -9.1913
 242   2.0000      -0.329938        -8.9781
 243   2.0000      -0.327648        -8.9157
 244   2.0000      -0.317490        -8.6393
 245   2.0000      -0.316398        -8.6096
 246   2.0000      -0.309610        -8.4249
 247   2.0000      -0.308548        -8.3960
 248   2.0000      -0.304618        -8.2891
 249   2.0000      -0.299852        -8.1594
 250   2.0000      -0.283237        -7.7073
 251   2.0000      -0.277641        -7.5550
 252   2.0000      -0.266260        -7.2453
 253   2.0000      -0.241572        -6.5735
 254   2.0000      -0.209526        -5.7015
 255   0.0000      -0.113131        -3.0784
 256   0.0000      -0.057362        -1.5609
 257   0.0000      -0.045319        -1.2332
 258   0.0000      -0.035762        -0.9731
 259   0.0000      -0.032039        -0.8718

MULLIKEN ATOMIC CHARGES
-----------------------
   0 C :   -0.034360
   1 C :   -0.060888
   2 C :    0.050606
   3 C :    0.030585
   4 C :   -0.070109
   5 S :    0.074432
   6 C :   -0.035489
   7 C :    0.028431
   8 C :    0.033609
   9 C :   -0.005766
  10 S :    0.050932
  11 C :   -0.041108
  12 C :    0.123248
  13 C :   -0.121942
  14 C :    0.030658
  15 C :    0.102075
  16 C :   -0.054967
  17 C :   -0.021306
  18 C :    0.100606
  19 C :    0.012687
  20 C :   -0.128218
  21 C :    0.078219
  22 C :    0.030591
  23 C :    0.055385
  24 C :    0.022641
  25 C :   -0.093959
  26 C :    0.123410
  27 C :   -0.022775
  28 C :   -0.046474
  29 C :   -0.001033
  30 C :   -0.000144
  31 C :    0.131544
  32 C :   -0.113381
  33 C :    0.038846
  34 C :    0.087821
  35 C :   -0.045133
  36 C :   -0.023564
  37 C :    0.089594
  38 C :    0.012186
  39 C :   -0.103249
  40 C :    0.058236
  41 C :    0.032542
  42 C :    0.015682
  43 C :    0.040928
  44 C :   -0.079068
  45 C :    0.057641
  46 C :    0.007120
  47 C :   -0.058017
  48 C :    0.037181
  49 C :   -0.041897
  50 C :    0.020504
  51 C :   -0.076480
  52 C :   -0.038013
  53 N :    0.052176
  54 C :   -0.132747
  55 C :   -0.127735
  56 N :    0.081498
  57 C :   -0.204608
  58 N :    0.226880
  59 C :   -0.216757
  60 N :    0.242148
  61 C :    0.116513
  62 C :    0.012016
  63 C :    0.022748
  64 N :   -0.271693
  65 S :    0.538979
  66 N :   -0.275353
  67 C :   -0.110941
  68 C :    0.066779
  69 N :   -0.125133
  70 N :   -0.053189
  71 H :    0.016446
  72 H :    0.019775
  73 H :   -0.014331
  74 H :   -0.013806
  75 H :   -0.017570
  76 H :   -0.016064
  77 H :   -0.028328
  78 H :   -0.040885
  79 H :   -0.037249
  80 H :   -0.018478
  81 H :   -0.007955
  82 H :    0.007035
  83 H :    0.000894
  84 H :    0.011287
  85 H :    0.020529
  86 H :   -0.004495
  87 H :    0.004028
  88 H :    0.022112
  89 H :    0.006765
  90 H :    0.020666
  91 H :   -0.041938
  92 H :   -0.032504
  93 H :   -0.037504
  94 H :   -0.025528
  95 H :   -0.024520
  96 H :   -0.036738
  97 H :   -0.031875
  98 H :   -0.027917
  99 H :    0.007551
 100 H :    0.004427
 101 H :    0.017839
 102 H :    0.012552
 103 H :    0.002543
 104 H :    0.017115
 105 H :    0.005586
 106 H :    0.019685
 107 H :    0.007090
 108 H :    0.004634
 109 H :   -0.023375
 110 H :   -0.026420
 111 H :   -0.025982
 112 H :    0.010351
 113 H :    0.010469
 114 H :    0.037683
 115 H :    0.029297
 116 H :    0.114926
Sum of atomic charges:   -0.0000000

LOEWDIN ATOMIC CHARGES
----------------------
   0 C :   -0.082379
   1 C :   -0.138862
   2 C :   -0.034313
   3 C :   -0.026300
   4 C :   -0.180300
   5 S :    0.345792
   6 C :   -0.180128
   7 C :   -0.039222
   8 C :   -0.029263
   9 C :   -0.146300
  10 S :    0.372403
  11 C :   -0.051565
  12 C :   -0.029682
  13 C :   -0.020437
  14 C :    0.000160
  15 C :   -0.015390
  16 C :   -0.017990
  17 C :   -0.024169
  18 C :   -0.019979
  19 C :    0.006682
  20 C :   -0.034146
  21 C :   -0.009697
  22 C :   -0.059840
  23 C :   -0.015318
  24 C :   -0.056835
  25 C :   -0.019985
  26 C :   -0.022609
  27 C :   -0.021463
  28 C :   -0.019809
  29 C :   -0.018643
  30 C :   -0.019337
  31 C :   -0.020434
  32 C :   -0.020348
  33 C :    0.003926
  34 C :   -0.022275
  35 C :   -0.015405
  36 C :   -0.017260
  37 C :   -0.018781
  38 C :   -0.002816
  39 C :   -0.030883
  40 C :   -0.013481
  41 C :   -0.059404
  42 C :   -0.020799
  43 C :   -0.057188
  44 C :   -0.029803
  45 C :   -0.035178
  46 C :   -0.011209
  47 C :   -0.015095
  48 C :    0.024968
  49 C :   -0.027742
  50 C :   -0.007368
  51 C :   -0.010929
  52 C :   -0.002689
  53 N :    0.003356
  54 C :   -0.024323
  55 C :   -0.029966
  56 N :    0.026052
  57 C :   -0.029526
  58 N :   -0.016613
  59 C :   -0.037404
  60 N :   -0.004026
  61 C :   -0.026923
  62 C :   -0.038210
  63 C :   -0.045255
  64 N :   -0.294402
  65 S :    0.679707
  66 N :   -0.266737
  67 C :   -0.043343
  68 C :    0.028880
  69 N :   -0.030939
  70 N :   -0.026968
  71 H :    0.027178
  72 H :    0.025232
  73 H :    0.032248
  74 H :    0.031518
  75 H :    0.030101
  76 H :    0.031724
  77 H :    0.031211
  78 H :    0.021961
  79 H :    0.026804
  80 H :    0.011251
  81 H :    0.018573
  82 H :    0.027372
  83 H :    0.018835
  84 H :    0.027043
  85 H :    0.024158
  86 H :    0.019300
  87 H :    0.018629
  88 H :    0.025544
  89 H :    0.022683
  90 H :    0.025659
  91 H :    0.021821
  92 H :    0.024478
  93 H :    0.025947
  94 H :    0.023547
  95 H :    0.024645
  96 H :    0.021229
  97 H :    0.028674
  98 H :    0.026290
  99 H :    0.029307
 100 H :    0.019631
 101 H :    0.024028
 102 H :    0.028263
 103 H :    0.019295
 104 H :    0.022860
 105 H :    0.016387
 106 H :    0.025174
 107 H :    0.026015
 108 H :    0.021233
 109 H :    0.022977
 110 H :    0.028661
 111 H :    0.030477
 112 H :    0.036582
 113 H :    0.039074
 114 H :    0.027714
 115 H :    0.033421
 116 H :    0.051003

  Mayer bond orders larger than 0.100000
B(  0-C ,  1-C ) :   1.8643 B(  0-C , 71-H ) :   0.9509 B(  0-C , 72-H ) :   0.9423
B(  1-C ,  2-C ) :   1.0783 B(  1-C ,  5-S ) :   1.0086 B(  2-C ,  3-C ) :   1.6655
B(  2-C , 73-H ) :   0.9927 B(  3-C ,  4-C ) :   1.1480 B(  3-C , 74-H ) :   0.9913
B(  4-C ,  5-S ) :   1.0376 B(  4-C ,  6-C ) :   1.5737 B(  6-C ,  7-C ) :   1.1557
B(  6-C , 10-S ) :   1.0271 B(  7-C ,  8-C ) :   1.6259 B(  7-C , 75-H ) :   0.9918
B(  8-C ,  9-C ) :   1.1165 B(  8-C , 76-H ) :   0.9990 B(  9-C , 10-S ) :   1.0218
B(  9-C , 11-C ) :   1.6132 B( 11-C , 12-C ) :   1.1004 B( 11-C , 77-H ) :   0.9702
B( 12-C , 13-C ) :   1.2628 B( 12-C , 17-C ) :   1.3247 B( 13-C , 14-C ) :   1.3957
B( 13-C , 78-H ) :   1.0058 B( 14-C , 15-C ) :   1.3731 B( 14-C , 20-C ) :   0.9183
B( 15-C , 16-C ) :   1.3336 B( 15-C , 18-C ) :   1.0007 B( 16-C , 17-C ) :   1.4105
B( 16-C , 79-H ) :   0.9895 B( 17-C , 80-H ) :   0.9702 B( 18-C , 19-C ) :   1.3682
B( 18-C , 28-C ) :   1.3416 B( 19-C , 20-C ) :   0.9244 B( 19-C , 25-C ) :   1.3994
B( 20-C , 21-C ) :   1.0157 B( 20-C , 23-C ) :   1.0317 B( 21-C , 22-C ) :   1.1151
B( 21-C , 81-H ) :   0.9362 B( 21-C , 82-H ) :   0.9393 B( 22-C , 83-H ) :   0.9626
B( 22-C , 84-H ) :   0.9594 B( 22-C , 85-H ) :   0.9604 B( 23-C , 24-C ) :   1.1027
B( 23-C , 86-H ) :   0.9393 B( 23-C , 87-H ) :   0.9382 B( 24-C , 88-H ) :   0.9636
B( 24-C , 89-H ) :   0.9647 B( 24-C , 90-H ) :   0.9657 B( 25-C , 26-C ) :   1.3099
B( 25-C , 91-H ) :   0.9980 B( 26-C , 27-C ) :   1.3406 B( 26-C , 29-C ) :   1.0491
B( 27-C , 28-C ) :   1.3743 B( 27-C , 92-H ) :   0.9927 B( 28-C , 93-H ) :   0.9912
B( 29-C , 30-C ) :   1.7299 B( 29-C , 94-H ) :   0.9736 B( 30-C , 31-C ) :   1.0517
B( 30-C , 95-H ) :   0.9742 B( 31-C , 32-C ) :   1.3110 B( 31-C , 36-C ) :   1.3394
B( 32-C , 33-C ) :   1.4040 B( 32-C , 96-H ) :   0.9888 B( 33-C , 34-C ) :   1.3802
B( 33-C , 39-C ) :   0.9266 B( 34-C , 35-C ) :   1.3456 B( 34-C , 37-C ) :   0.9891
B( 35-C , 36-C ) :   1.3734 B( 35-C , 97-H ) :   0.9925 B( 36-C , 98-H ) :   0.9936
B( 37-C , 38-C ) :   1.3919 B( 37-C , 47-C ) :   1.3388 B( 38-C , 39-C ) :   0.9242
B( 38-C , 44-C ) :   1.4085 B( 39-C , 40-C ) :   1.0080 B( 39-C , 42-C ) :   1.0055
B( 40-C , 41-C ) :   1.1108 B( 40-C , 99-H ) :   0.9370 B( 40-C ,100-H ) :   0.9396
B( 41-C ,101-H ) :   0.9607 B( 41-C ,102-H ) :   0.9598 B( 41-C ,103-H ) :   0.9618
B( 42-C , 43-C ) :   1.1142 B( 42-C ,104-H ) :   0.9355 B( 42-C ,105-H ) :   0.9373
B( 43-C ,106-H ) :   0.9599 B( 43-C ,107-H ) :   0.9579 B( 43-C ,108-H ) :   0.9587
B( 44-C , 45-C ) :   1.3258 B( 44-C ,109-H ) :   0.9829 B( 45-C , 46-C ) :   1.3660
B( 45-C , 48-C ) :   0.9919 B( 46-C , 47-C ) :   1.3554 B( 46-C ,110-H ) :   0.9971
B( 47-C ,111-H ) :   0.9952 B( 48-C , 49-C ) :   1.8130 B( 48-C ,112-H ) :   0.9627
B( 49-C , 50-C ) :   1.0875 B( 49-C ,113-H ) :   0.9550 B( 50-C , 51-C ) :   1.2797
B( 50-C , 61-C ) :   0.1393 B( 50-C , 63-C ) :   1.2386 B( 51-C , 52-C ) :   1.0992
B( 51-C , 56-N ) :   1.4359 B( 52-C , 53-N ) :   1.4149 B( 52-C , 61-C ) :   1.3323
B( 53-N , 54-C ) :   1.7455 B( 54-C , 55-C ) :   1.1824 B( 54-C , 59-C ) :   1.1454
B( 55-C , 56-N ) :   1.7400 B( 55-C , 57-C ) :   1.1537 B( 57-C , 58-N ) :   3.0355
B( 59-C , 60-N ) :   3.0526 B( 61-C , 62-C ) :   1.2631 B( 61-C , 67-C ) :   0.9289
B( 62-C , 63-C ) :   1.1127 B( 62-C , 66-N ) :   1.4378 B( 63-C , 64-N ) :   1.5215
B( 64-N , 65-S ) :   1.2879 B( 64-N , 66-N ) :   0.1638 B( 65-S , 66-N ) :   1.3037
B( 67-C , 68-C ) :   1.9251 B( 67-C , 69-N ) :   1.1820 B( 68-C , 70-N ) :   0.1024
B( 68-C ,114-H ) :   0.9259 B( 68-C ,115-H ) :   0.9256 B( 69-N , 70-N ) :   1.8082
B( 70-N ,116-H ) :   0.9378

-----------------------------------------------------------------------------
         ABSORPTION SPECTRUM VIA TRANSITION ELECTRIC DIPOLE MOMENTS
-----------------------------------------------------------------------------
State   Energy  Wavelength   fosc         T2         TX        TY        TZ
        (cm-1)    (nm)                  (au**2)     (au)      (au)      (au)
-----------------------------------------------------------------------------
   0   11929.2    838.3   0.019620057   0.54146   0.49559  -0.42031   0.34524
   1   14724.2    679.2   0.029344208   0.65609   0.62435  -0.34345   0.38513
   2   15536.9    643.6   0.012799778   0.27122   0.51489  -0.03822  -0.06812
   3   18784.8    532.3   0.062900453   1.10236  -0.96951   0.35524  -0.19027
   4   19537.2    511.8   2.069370727  34.86992   5.25140   1.73546  -2.06903
   5   22575.5    443.0   0.004851515   0.07075   0.19910   0.00769  -0.17620
   6   23173.8    431.5   0.034841386   0.49496  -0.52857   0.27250  -0.37593
   7   24555.8    407.2   0.006131673   0.08221  -0.16394  -0.16035  -0.17209
   8   25186.8    397.0   0.023841681   0.31163  -0.10419   0.43752  -0.33068
   9   25812.1    387.4   0.005608304   0.07153  -0.26344  -0.01777  -0.04258
  10   27545.9    363.0   0.793569630   9.48425  -0.59611  -2.23440   2.03380
  11   28137.8    355.4   0.123416890   1.44398  -0.12564  -0.81849   0.87079
  12   28235.1    354.2   0.036065202   0.42051   0.16692   0.05417   0.62427
  13   28767.9    347.6   0.045779995   0.52389   0.03301   0.19459  -0.69637
  14   29046.9    344.3   0.190324855   2.15710  -0.60938  -0.75997   1.09918
  15   29358.3    340.6   0.097492553   1.09324  -0.63271  -0.65038   0.51954
  16   30274.7    330.3   0.033326587   0.36240   0.23427   0.25102   0.49448
  17   30762.2    325.1   0.031305494   0.33503  -0.07439  -0.04686  -0.57210
  18   31578.2    316.7   0.007298316   0.07609  -0.23753   0.07454  -0.11878
  19   31733.8    315.1   0.036261752   0.37619  -0.24996   0.25629  -0.49802
  20   32087.7    311.6   0.015066688   0.15458   0.06278   0.38808   0.00557
  21   32599.8    306.8   0.010258040   0.10359   0.11074   0.05675  -0.29683
  22   32758.1    305.3   0.014375607   0.14447   0.26934   0.12654  -0.23646
  23   33481.2    298.7   0.180427549   1.77410   1.18402   0.59579  -0.13127
  24   33522.7    298.3   0.001144662   0.01124   0.08032   0.04381  -0.05357
  25   33775.6    296.1   0.336743428   3.28225   1.40847   0.12080  -1.13308
  26   33957.0    294.5   0.125714329   1.21880   0.38089   0.19065  -1.01851
  27   34390.1    290.8   0.137513074   1.31639  -0.76035  -0.02498  -0.85886
  28   34620.3    288.8   0.033737562   0.32082   0.32125  -0.05286  -0.46349
  29   34917.9    286.4   0.245350272   2.31320  -0.39028  -0.13012  -1.46423
  30   35107.5    284.8   0.082673798   0.77525   0.28148  -0.46123  -0.69519
  31   35530.1    281.5   0.007642123   0.07081   0.13827   0.00216  -0.22735
  32   35747.0    279.7   0.194247969   1.78893  -0.50436  -0.72328   1.00569
  33   35867.6    278.8   0.022524708   0.20674  -0.04122  -0.04302   0.45077
  34   36343.9    275.1   0.019474589   0.17641  -0.40054  -0.01190   0.12581
  35   36716.9    272.4   0.062901944   0.56399  -0.10603   0.04082   0.74235
  36   36932.2    270.8   0.029813954   0.26576   0.36651  -0.36249   0.00562
  37   37279.6    268.2   0.063149129   0.55766  -0.61777  -0.19491   0.37153
  38   37707.5    265.2   0.104365040   0.91118   0.46160   0.32394   0.77017
  39   37919.1    263.7   0.357007646   3.09952   0.29187  -0.64744   1.61095
  40   38576.1    259.2   0.219152014   1.87026  -0.11860  -0.01228   1.36237
  41   38758.7    258.0   0.065535352   0.55665   0.36397  -0.09900  -0.64372
  42   38959.5    256.7   0.004196305   0.03546  -0.07395  -0.14273  -0.09808
  43   39159.6    255.4   0.024686470   0.20754   0.14343  -0.09512   0.42180
  44   39416.1    253.7   0.014167214   0.11833  -0.25581   0.22676   0.03833
  45   39556.8    252.8   0.028655554   0.23849   0.09344  -0.07779  -0.47297
  46   39961.9    250.2   0.030542258   0.25161  -0.29324  -0.33476   0.23143
  47   40127.4    249.2   0.006188870   0.05077   0.09059   0.18510   0.09114
  48   40307.9    248.1   0.025796511   0.21069   0.10821   0.04192   0.44410

FINAL SINGLE POINT ENERGY     -3942.584810407820

DIPOLE MOMENT
-------------
                                X             Y             Z
Electronic contribution:     -5.64320     -65.38603      41.85844
Nuclear contribution   :      5.52606      66.45110     -40.26587
                        -----------------------------------------
Total Dipole Moment    :     -0.11715       1.06507       1.59257
                        -----------------------------------------
Magnitude (a.u.)       :      1.91948
Magnitude (Debye)      :      4.87892

Rotational constants in cm-1:     0.002076     0.000228     0.000216
Rotational constants in MHz :    62.223680     6.842210     6.460693

                             ****ORCA TERMINATED NORMALLY****
TOTAL RUN TIME: 0 days 0 hours 12 minutes 8 seconds 191 msec
