                         Program Version 4.2.0 -  RELEASE  -
|  1> # ORCA input file
|  2> # SCF done       -138.524868604994          0.000649081229
|  3> ! CAM-B3LYP def2-SVP def2/J RIJCOSX Grid4 TightSCF
|  4> %maxcore 5000
|  5> %tddft
|  6>     Mode sTDDFT
|  7>     Ethresh 5.0
|  8>     maxcore 5000
|  9> end
| 10>
| 11> %pal
| 12>   nprocs 6
| 13>   end
| 14> * xyz 0 1
| 15>    C       -3.64445        -5.91423         3.51533
| 16>    C       -2.55900        -6.18303         2.77548
| 17>    C       -2.51190        -6.75519         1.46155
| 18>    C       -1.26390        -6.90744         0.96264
| 19>    C       -0.22563        -6.47473         1.83058
| 20>    S       -0.90761        -5.85786         3.32550
| 21>    C        1.12977        -6.50790         1.59937
| 22>    C        1.79714        -6.97318         0.44048
| 23>    C        3.15203        -6.88270         0.51138
| 24>    C        3.63686        -6.34269         1.72853
| 25>    S        2.29509        -5.94547         2.78647
| 26>    C        4.95155        -6.15193         2.06937
| 27>    C        5.39645        -5.63367         3.29806
| 28>    O        4.50761        -5.25851         4.25409
| 29>    C        5.20878        -4.82900         5.31334
| 30>    C        6.54861        -4.90686         5.09266
| 31>    C        6.69929        -5.43129         3.78161
| 32>    N        7.83621        -5.65488         3.04846
| 33>    C        9.10593        -5.89077         3.48296
| 34>    C        9.50130        -6.12911         4.76380
| 35>    C       10.83265        -6.39373         5.11227
| 36>    C       11.25281        -6.71345         6.38445
| 37>    C       12.55269        -7.07844         6.78823
| 38>    C       12.65976        -7.39791         8.11494
| 39>    C       11.45664        -7.28308         8.82901
| 40>    S       10.17011        -6.75547         7.77090
| 41>    C       11.23251        -7.55641        10.17605
| 42>    C       12.12983        -8.08899        11.10949
| 43>    C       11.57236        -8.29282        12.34777
| 44>    C       10.23312        -7.89220        12.45821
| 45>    S        9.67383        -7.28309        10.92040
| 46>    C        9.43668        -8.10010        13.58970
| 47>    C        8.18931        -7.61948        13.91948
| 48>    C        7.47072        -6.52001        13.43929
| 49>    C        6.15796        -6.20800        13.82528
| 50>    C        5.69441        -5.00416        13.35727
| 51>    C        6.63966        -4.29797        12.60147
| 52>    S        8.11793        -5.22334        12.46429
| 53>    C        6.52251        -3.03048        12.04066
| 54>    C        5.41830        -2.16196        12.10714
| 55>    C        5.62566        -0.95688        11.49817
| 56>    C        6.90916        -0.81369        10.92427
| 57>    S        7.83821        -2.28322        11.16315
| 58>    C        7.39996         0.30592        10.29582
| 59>    C        8.68614         0.40458         9.73219
| 60>    O        9.47992        -0.70500         9.70714
| 61>    C       10.60677        -0.39512         9.05630
| 62>    C       10.59767         0.90399         8.65285
| 63>    C        9.36561         1.45260         9.09507
| 64>    N        8.99299         2.75653         8.89364
| 65>    C        8.11036         3.50003         9.63630
| 66>    C        7.80321         4.76508         9.36386
| 67>    H       -4.62999        -6.12846         3.14139
| 68>    H       -3.56742        -5.48156         4.49566
| 69>    H       -3.41762        -7.02769         0.94916
| 70>    H       -1.04641        -7.32080        -0.00655
| 71>    H        1.26159        -7.35967        -0.40817
| 72>    H        3.82498        -7.18854        -0.27099
| 73>    H        5.70406        -6.43910         1.34860
| 74>    H        4.65097        -4.48832         6.16255
| 75>    H        7.31984        -4.59644         5.76503
| 76>    H        7.68020        -5.74560         2.05459
| 77>    H        9.84044        -5.90745         2.68849
| 78>    H        8.76968        -6.17379         5.55540
| 79>    H       11.58412        -6.37615         4.33344
| 80>    H       13.37045        -7.10801         6.08940
| 81>    H       13.57502        -7.70551         8.58849
| 82>    H       13.14902        -8.32494        10.86121
| 83>    H       12.10629        -8.70694        13.18578
| 84>    H        9.87285        -8.79375        14.30079
| 85>    H        7.69543        -8.12809        14.74064
| 86>    H        5.57735        -6.87907        14.43473
| 87>    H        4.70833        -4.62186        13.55076
| 88>    H        4.50429        -2.43725        12.60239
| 89>    H        4.89929        -0.16438        11.45192
| 90>    H        6.74194         1.15520        10.20237
| 91>    H       11.33849        -1.17062         8.94710
| 92>    H       11.36769         1.41969         8.11577
| 93>    H        9.53630         3.26599         8.21080
| 94>    H        7.69136         2.98859        10.48855
| 95>    H        8.22454         5.28351         8.51943
| 96>    H        7.11870         5.31430         9.98046
| 97> *
| 98>
| 99>                          ****END OF INPUT****

CARTESIAN COORDINATES (ANGSTROEM)
---------------------------------
  C     -3.644450   -5.914230    3.515330
  C     -2.559000   -6.183030    2.775480
  C     -2.511900   -6.755190    1.461550
  C     -1.263900   -6.907440    0.962640
  C     -0.225630   -6.474730    1.830580
  S     -0.907610   -5.857860    3.325500
  C      1.129770   -6.507900    1.599370
  C      1.797140   -6.973180    0.440480
  C      3.152030   -6.882700    0.511380
  C      3.636860   -6.342690    1.728530
  S      2.295090   -5.945470    2.786470
  C      4.951550   -6.151930    2.069370
  C      5.396450   -5.633670    3.298060
  O      4.507610   -5.258510    4.254090
  C      5.208780   -4.829000    5.313340
  C      6.548610   -4.906860    5.092660
  C      6.699290   -5.431290    3.781610
  N      7.836210   -5.654880    3.048460
  C      9.105930   -5.890770    3.482960
  C      9.501300   -6.129110    4.763800
  C     10.832650   -6.393730    5.112270
  C     11.252810   -6.713450    6.384450
  C     12.552690   -7.078440    6.788230
  C     12.659760   -7.397910    8.114940
  C     11.456640   -7.283080    8.829010
  S     10.170110   -6.755470    7.770900
  C     11.232510   -7.556410   10.176050
  C     12.129830   -8.088990   11.109490
  C     11.572360   -8.292820   12.347770
  C     10.233120   -7.892200   12.458210
  S      9.673830   -7.283090   10.920400
  C      9.436680   -8.100100   13.589700
  C      8.189310   -7.619480   13.919480
  C      7.470720   -6.520010   13.439290
  C      6.157960   -6.208000   13.825280
  C      5.694410   -5.004160   13.357270
  C      6.639660   -4.297970   12.601470
  S      8.117930   -5.223340   12.464290
  C      6.522510   -3.030480   12.040660
  C      5.418300   -2.161960   12.107140
  C      5.625660   -0.956880   11.498170
  C      6.909160   -0.813690   10.924270
  S      7.838210   -2.283220   11.163150
  C      7.399960    0.305920   10.295820
  C      8.686140    0.404580    9.732190
  O      9.479920   -0.705000    9.707140
  C     10.606770   -0.395120    9.056300
  C     10.597670    0.903990    8.652850
  C      9.365610    1.452600    9.095070
  N      8.992990    2.756530    8.893640
  C      8.110360    3.500030    9.636300
  C      7.803210    4.765080    9.363860
  H     -4.629990   -6.128460    3.141390
  H     -3.567420   -5.481560    4.495660
  H     -3.417620   -7.027690    0.949160
  H     -1.046410   -7.320800   -0.006550
  H      1.261590   -7.359670   -0.408170
  H      3.824980   -7.188540   -0.270990
  H      5.704060   -6.439100    1.348600
  H      4.650970   -4.488320    6.162550
  H      7.319840   -4.596440    5.765030
  H      7.680200   -5.745600    2.054590
  H      9.840440   -5.907450    2.688490
  H      8.769680   -6.173790    5.555400
  H     11.584120   -6.376150    4.333440
  H     13.370450   -7.108010    6.089400
  H     13.575020   -7.705510    8.588490
  H     13.149020   -8.324940   10.861210
  H     12.106290   -8.706940   13.185780
  H      9.872850   -8.793750   14.300790
  H      7.695430   -8.128090   14.740640
  H      5.577350   -6.879070   14.434730
  H      4.708330   -4.621860   13.550760
  H      4.504290   -2.437250   12.602390
  H      4.899290   -0.164380   11.451920
  H      6.741940    1.155200   10.202370
  H     11.338490   -1.170620    8.947100
  H     11.367690    1.419690    8.115770
  H      9.536300    3.265990    8.210800
  H      7.691360    2.988590   10.488550
  H      8.224540    5.283510    8.519430
  H      7.118700    5.314300    9.980460

 Total Charge           Charge          ....    0
 Multiplicity           Mult            ....    1
 Number of Electrons    NEL             ....  408
 Basis Dimension        Dim             ....  902

ORBITAL ENERGIES
----------------

  NO   OCC          E(Eh)            E(eV)
   0   2.0000     -88.929827     -2419.9036
   1   2.0000     -88.927386     -2419.8372
   2   2.0000     -88.926808     -2419.8215
   3   2.0000     -88.924305     -2419.7534
   4   2.0000     -88.922226     -2419.6968
   5   2.0000     -88.921629     -2419.6805
   6   2.0000     -19.284623      -524.7613
   7   2.0000     -19.275845      -524.5224
   8   2.0000     -14.457922      -393.4201
   9   2.0000     -14.437368      -392.8608
  10   2.0000     -10.321241      -280.8553
  11   2.0000     -10.320666      -280.8396
  12   2.0000     -10.317857      -280.7632
  13   2.0000     -10.316998      -280.7398
  14   2.0000     -10.313138      -280.6347
  15   2.0000     -10.312388      -280.6143
  16   2.0000     -10.307540      -280.4824
  17   2.0000     -10.301468      -280.3172
  18   2.0000     -10.297994      -280.2227
  19   2.0000     -10.297861      -280.2190
  20   2.0000     -10.296449      -280.1806
  21   2.0000     -10.295299      -280.1493
  22   2.0000     -10.291649      -280.0500
  23   2.0000     -10.286109      -279.8993
  24   2.0000     -10.284661      -279.8599
  25   2.0000     -10.284558      -279.8570
  26   2.0000     -10.284171      -279.8465
  27   2.0000     -10.283619      -279.8315
  28   2.0000     -10.281608      -279.7768
  29   2.0000     -10.280859      -279.7564
  30   2.0000     -10.279913      -279.7306
  31   2.0000     -10.279659      -279.7237
  32   2.0000     -10.277061      -279.6530
  33   2.0000     -10.275802      -279.6188
  34   2.0000     -10.274215      -279.5756
  35   2.0000     -10.270305      -279.4692
  36   2.0000     -10.269330      -279.4427
  37   2.0000     -10.267559      -279.3945
  38   2.0000     -10.266982      -279.3788
  39   2.0000     -10.266556      -279.3672
  40   2.0000     -10.264306      -279.3060
  41   2.0000     -10.263573      -279.2860
  42   2.0000     -10.263030      -279.2712
  43   2.0000     -10.261022      -279.2166
  44   2.0000     -10.259363      -279.1714
  45   2.0000     -10.258797      -279.1561
  46   2.0000     -10.258693      -279.1532
  47   2.0000     -10.258567      -279.1498
  48   2.0000     -10.258279      -279.1420
  49   2.0000     -10.255694      -279.0716
  50   2.0000     -10.254368      -279.0355
  51   2.0000     -10.241257      -278.6788
  52   2.0000      -8.025827      -218.3939
  53   2.0000      -8.024012      -218.3445
  54   2.0000      -8.023002      -218.3170
  55   2.0000      -8.020206      -218.2409
  56   2.0000      -8.018152      -218.1850
  57   2.0000      -8.017391      -218.1643
  58   2.0000      -5.995723      -163.1519
  59   2.0000      -5.993833      -163.1005
  60   2.0000      -5.992647      -163.0682
  61   2.0000      -5.991525      -163.0377
  62   2.0000      -5.989961      -162.9951
  63   2.0000      -5.989771      -162.9900
  64   2.0000      -5.988746      -162.9621
  65   2.0000      -5.987736      -162.9346
  66   2.0000      -5.987193      -162.9198
  67   2.0000      -5.986491      -162.9007
  68   2.0000      -5.985654      -162.8779
  69   2.0000      -5.984538      -162.8476
  70   2.0000      -5.984013      -162.8333
  71   2.0000      -5.983585      -162.8216
  72   2.0000      -5.982952      -162.8044
  73   2.0000      -5.981543      -162.7661
  74   2.0000      -5.979448      -162.7091
  75   2.0000      -5.978352      -162.6792
  76   2.0000      -1.203729       -32.7551
  77   2.0000      -1.195839       -32.5404
  78   2.0000      -1.052961       -28.6525
  79   2.0000      -1.037122       -28.2215
  80   2.0000      -0.981068       -26.6962
  81   2.0000      -0.974537       -26.5185
  82   2.0000      -0.970862       -26.4185
  83   2.0000      -0.958995       -26.0956
  84   2.0000      -0.953662       -25.9505
  85   2.0000      -0.948096       -25.7990
  86   2.0000      -0.900271       -24.4976
  87   2.0000      -0.890316       -24.2267
  88   2.0000      -0.886521       -24.1235
  89   2.0000      -0.884664       -24.0729
  90   2.0000      -0.879523       -23.9330
  91   2.0000      -0.868187       -23.6246
  92   2.0000      -0.858709       -23.3666
  93   2.0000      -0.842078       -22.9141
  94   2.0000      -0.833688       -22.6858
  95   2.0000      -0.829412       -22.5695
  96   2.0000      -0.822166       -22.3723
  97   2.0000      -0.820326       -22.3222
  98   2.0000      -0.815182       -22.1822
  99   2.0000      -0.811733       -22.0884
 100   2.0000      -0.805861       -21.9286
 101   2.0000      -0.802964       -21.8498
 102   2.0000      -0.800045       -21.7703
 103   2.0000      -0.792577       -21.5671
 104   2.0000      -0.773997       -21.0615
 105   2.0000      -0.767095       -20.8737
 106   2.0000      -0.747687       -20.3456
 107   2.0000      -0.729278       -19.8447
 108   2.0000      -0.719348       -19.5745
 109   2.0000      -0.708390       -19.2763
 110   2.0000      -0.700660       -19.0659
 111   2.0000      -0.688862       -18.7449
 112   2.0000      -0.684075       -18.6146
 113   2.0000      -0.679356       -18.4862
 114   2.0000      -0.673939       -18.3388
 115   2.0000      -0.667406       -18.1610
 116   2.0000      -0.649753       -17.6807
 117   2.0000      -0.643615       -17.5137
 118   2.0000      -0.641510       -17.4564
 119   2.0000      -0.636392       -17.3171
 120   2.0000      -0.631010       -17.1707
 121   2.0000      -0.619504       -16.8576
 122   2.0000      -0.617065       -16.7912
 123   2.0000      -0.611581       -16.6420
 124   2.0000      -0.604719       -16.4552
 125   2.0000      -0.600403       -16.3378
 126   2.0000      -0.597904       -16.2698
 127   2.0000      -0.595181       -16.1957
 128   2.0000      -0.592958       -16.1352
 129   2.0000      -0.588590       -16.0163
 130   2.0000      -0.586706       -15.9651
 131   2.0000      -0.585020       -15.9192
 132   2.0000      -0.572014       -15.5653
 133   2.0000      -0.559634       -15.2284
 134   2.0000      -0.555569       -15.1178
 135   2.0000      -0.554075       -15.0772
 136   2.0000      -0.550342       -14.9756
 137   2.0000      -0.547536       -14.8992
 138   2.0000      -0.543210       -14.7815
 139   2.0000      -0.536690       -14.6041
 140   2.0000      -0.534888       -14.5551
 141   2.0000      -0.522061       -14.2060
 142   2.0000      -0.520830       -14.1725
 143   2.0000      -0.517023       -14.0689
 144   2.0000      -0.507618       -13.8130
 145   2.0000      -0.503849       -13.7104
 146   2.0000      -0.499714       -13.5979
 147   2.0000      -0.497935       -13.5495
 148   2.0000      -0.493460       -13.4277
 149   2.0000      -0.490916       -13.3585
 150   2.0000      -0.488683       -13.2978
 151   2.0000      -0.483682       -13.1617
 152   2.0000      -0.483214       -13.1489
 153   2.0000      -0.481181       -13.0936
 154   2.0000      -0.477061       -12.9815
 155   2.0000      -0.476652       -12.9704
 156   2.0000      -0.474871       -12.9219
 157   2.0000      -0.472990       -12.8707
 158   2.0000      -0.471099       -12.8193
 159   2.0000      -0.469407       -12.7732
 160   2.0000      -0.465691       -12.6721
 161   2.0000      -0.463504       -12.6126
 162   2.0000      -0.459486       -12.5033
 163   2.0000      -0.457625       -12.4526
 164   2.0000      -0.450857       -12.2685
 165   2.0000      -0.450164       -12.2496
 166   2.0000      -0.449353       -12.2275
 167   2.0000      -0.448062       -12.1924
 168   2.0000      -0.444665       -12.0999
 169   2.0000      -0.440819       -11.9953
 170   2.0000      -0.440044       -11.9742
 171   2.0000      -0.438540       -11.9333
 172   2.0000      -0.434397       -11.8205
 173   2.0000      -0.426985       -11.6188
 174   2.0000      -0.419282       -11.4093
 175   2.0000      -0.416746       -11.3402
 176   2.0000      -0.406926       -11.0730
 177   2.0000      -0.406434       -11.0596
 178   2.0000      -0.405004       -11.0207
 179   2.0000      -0.397124       -10.8063
 180   2.0000      -0.393049       -10.6954
 181   2.0000      -0.387493       -10.5442
 182   2.0000      -0.382662       -10.4128
 183   2.0000      -0.382528       -10.4091
 184   2.0000      -0.376723       -10.2512
 185   2.0000      -0.367620       -10.0035
 186   2.0000      -0.357985        -9.7413
 187   2.0000      -0.351961        -9.5774
 188   2.0000      -0.340776        -9.2730
 189   2.0000      -0.338244        -9.2041
 190   2.0000      -0.326327        -8.8798
 191   2.0000      -0.320447        -8.7198
 192   2.0000      -0.313604        -8.5336
 193   2.0000      -0.311917        -8.4877
 194   2.0000      -0.310823        -8.4579
 195   2.0000      -0.302579        -8.2336
 196   2.0000      -0.297152        -8.0859
 197   2.0000      -0.287945        -7.8354
 198   2.0000      -0.279686        -7.6106
 199   2.0000      -0.266204        -7.2438
 200   2.0000      -0.246565        -6.7094
 201   2.0000      -0.213680        -5.8145
 202   2.0000      -0.199552        -5.4301
 203   2.0000      -0.162057        -4.4098
 204   0.0000      -0.077268        -2.1026
 205   0.0000      -0.055414        -1.5079
 206   0.0000      -0.027291        -0.7426
 207   0.0000       0.010722         0.2918
 208   0.0000       0.019874         0.5408

MULLIKEN ATOMIC CHARGES
-----------------------
   0 C :   -0.032540
   1 C :   -0.062855
   2 C :    0.047055
   3 C :    0.030557
   4 C :   -0.074737
   5 S :    0.075751
   6 C :   -0.046673
   7 C :    0.025351
   8 C :    0.027124
   9 C :   -0.026160
  10 S :    0.099774
  11 C :   -0.088925
  12 C :    0.128816
  13 O :   -0.209936
  14 C :    0.162342
  15 C :   -0.077700
  16 C :    0.052992
  17 N :   -0.014344
  18 C :    0.040366
  19 C :   -0.033910
  20 C :   -0.009618
  21 C :   -0.037345
  22 C :    0.032703
  23 C :    0.011358
  24 C :   -0.039462
  25 S :    0.063886
  26 C :   -0.060474
  27 C :    0.013364
  28 C :    0.027543
  29 C :   -0.057277
  30 S :    0.108506
  31 C :   -0.015385
  32 C :   -0.007328
  33 C :   -0.056769
  34 C :    0.024370
  35 C :    0.014932
  36 C :   -0.057797
  37 S :    0.103222
  38 C :   -0.048861
  39 C :    0.021525
  40 C :    0.021516
  41 C :   -0.025148
  42 S :    0.101297
  43 C :   -0.091360
  44 C :    0.076211
  45 O :   -0.213268
  46 C :    0.163489
  47 C :   -0.063782
  48 C :    0.076679
  49 N :   -0.048304
  50 C :    0.050580
  51 C :   -0.082081
  52 H :    0.015638
  53 H :    0.017848
  54 H :   -0.016296
  55 H :   -0.015937
  56 H :   -0.020097
  57 H :   -0.020610
  58 H :   -0.033044
  59 H :    0.020307
  60 H :    0.000567
  61 H :    0.130801
  62 H :    0.002229
  63 H :    0.011098
  64 H :   -0.024371
  65 H :   -0.022735
  66 H :   -0.022027
  67 H :   -0.025232
  68 H :   -0.023100
  69 H :   -0.015192
  70 H :   -0.016819
  71 H :   -0.021684
  72 H :   -0.025600
  73 H :   -0.023249
  74 H :   -0.022083
  75 H :   -0.013099
  76 H :    0.016995
  77 H :   -0.030013
  78 H :    0.116864
  79 H :    0.019726
  80 H :    0.000621
  81 H :    0.019231
Sum of atomic charges:   -0.0000000

LOEWDIN ATOMIC CHARGES
----------------------
   0 C :   -0.084260
   1 C :   -0.139137
   2 C :   -0.036971
   3 C :   -0.027375
   4 C :   -0.181045
   5 S :    0.347057
   6 C :   -0.183488
   7 C :   -0.036892
   8 C :   -0.039513
   9 C :   -0.148511
  10 S :    0.379847
  11 C :   -0.088268
  12 C :   -0.010430
  13 O :    0.010817
  14 C :    0.056899
  15 C :   -0.085702
  16 C :   -0.019298
  17 N :    0.043067
  18 C :    0.030384
  19 C :   -0.101775
  20 C :   -0.044268
  21 C :   -0.167948
  22 C :   -0.039136
  23 C :   -0.047813
  24 C :   -0.175579
  25 S :    0.367249
  26 C :   -0.191985
  27 C :   -0.049920
  28 C :   -0.044364
  29 C :   -0.168712
  30 S :    0.396681
  31 C :   -0.079181
  32 C :   -0.072755
  33 C :   -0.172498
  34 C :   -0.040962
  35 C :   -0.053494
  36 C :   -0.185049
  37 S :    0.394062
  38 C :   -0.186809
  39 C :   -0.042497
  40 C :   -0.044269
  41 C :   -0.154734
  42 S :    0.387145
  43 C :   -0.083859
  44 C :   -0.016518
  45 O :    0.006305
  46 C :    0.053030
  47 C :   -0.097344
  48 C :   -0.013481
  49 N :    0.019562
  50 C :    0.027465
  51 C :   -0.136032
  52 H :    0.026656
  53 H :    0.024670
  54 H :    0.031425
  55 H :    0.030698
  56 H :    0.028781
  57 H :    0.029602
  58 H :    0.030082
  59 H :    0.028289
  60 H :    0.036484
  61 H :    0.089367
  62 H :    0.026898
  63 H :    0.023675
  64 H :    0.028119
  65 H :    0.028848
  66 H :    0.028533
  67 H :    0.026623
  68 H :    0.028698
  69 H :    0.032826
  70 H :    0.032883
  71 H :    0.028809
  72 H :    0.026391
  73 H :    0.027938
  74 H :    0.028391
  75 H :    0.035775
  76 H :    0.026203
  77 H :    0.027527
  78 H :    0.087255
  79 H :    0.029775
  80 H :    0.015711
  81 H :    0.025366

  Mayer bond orders larger than 0.100000
B(  0-C ,  1-C ) :   1.8598 B(  0-C , 52-H ) :   0.9510 B(  0-C , 53-H ) :   0.9412
B(  1-C ,  2-C ) :   1.0822 B(  1-C ,  5-S ) :   1.0096 B(  2-C ,  3-C ) :   1.6551
B(  2-C , 54-H ) :   0.9932 B(  3-C ,  4-C ) :   1.1608 B(  3-C , 55-H ) :   0.9903
B(  4-C ,  5-S ) :   1.0401 B(  4-C ,  6-C ) :   1.5530 B(  6-C ,  7-C ) :   1.1762
B(  6-C , 10-S ) :   1.0209 B(  7-C ,  8-C ) :   1.6031 B(  7-C , 56-H ) :   0.9925
B(  8-C ,  9-C ) :   1.1371 B(  8-C , 57-H ) :   0.9979 B(  9-C , 10-S ) :   1.0422
B(  9-C , 11-C ) :   1.5943 B( 11-C , 12-C ) :   1.1695 B( 11-C , 58-H ) :   0.9562
B( 12-C , 13-O ) :   1.1146 B( 12-C , 16-C ) :   1.3823 B( 13-O , 14-C ) :   1.1399
B( 14-C , 15-C ) :   1.5185 B( 14-C , 59-H ) :   1.0038 B( 15-C , 16-C ) :   1.2275
B( 15-C , 60-H ) :   1.0151 B( 16-C , 17-N ) :   1.1364 B( 17-N , 18-C ) :   1.1744
B( 17-N , 61-H ) :   0.9169 B( 18-C , 19-C ) :   1.6147 B( 18-C , 62-H ) :   0.9652
B( 19-C , 20-C ) :   1.1861 B( 19-C , 63-H ) :   0.9607 B( 20-C , 21-C ) :   1.5421
B( 20-C , 64-H ) :   0.9803 B( 21-C , 22-C ) :   1.1748 B( 21-C , 25-S ) :   1.0245
B( 22-C , 23-C ) :   1.5388 B( 22-C , 65-H ) :   0.9987 B( 23-C , 24-C ) :   1.2378
B( 23-C , 66-H ) :   0.9942 B( 24-C , 25-S ) :   1.0595 B( 24-C , 26-C ) :   1.4191
B( 26-C , 27-C ) :   1.2496 B( 26-C , 30-S ) :   1.0595 B( 27-C , 28-C ) :   1.5043
B( 27-C , 67-H ) :   0.9932 B( 28-C , 29-C ) :   1.2345 B( 28-C , 68-H ) :   0.9976
B( 29-C , 30-S ) :   1.0658 B( 29-C , 31-C ) :   1.3985 B( 31-C , 32-C ) :   1.3703
B( 31-C , 69-H ) :   0.9537 B( 32-C , 33-C ) :   1.4080 B( 32-C , 70-H ) :   0.9531
B( 33-C , 34-C ) :   1.2299 B( 33-C , 37-S ) :   1.0603 B( 34-C , 35-C ) :   1.5078
B( 34-C , 71-H ) :   0.9984 B( 35-C , 36-C ) :   1.2431 B( 35-C , 72-H ) :   0.9936
B( 36-C , 37-S ) :   1.0612 B( 36-C , 38-C ) :   1.4330 B( 38-C , 39-C ) :   1.2275
B( 38-C , 42-S ) :   1.0381 B( 39-C , 40-C ) :   1.5499 B( 39-C , 73-H ) :   0.9948
B( 40-C , 41-C ) :   1.1645 B( 40-C , 74-H ) :   0.9990 B( 41-C , 42-S ) :   1.0433
B( 41-C , 43-C ) :   1.5442 B( 43-C , 44-C ) :   1.1895 B( 43-C , 75-H ) :   0.9632
B( 44-C , 45-O ) :   1.0981 B( 44-C , 48-C ) :   1.3777 B( 45-O , 46-C ) :   1.1484
B( 46-C , 47-C ) :   1.5122 B( 46-C , 76-H ) :   1.0058 B( 47-C , 48-C ) :   1.2344
B( 47-C , 77-H ) :   1.0116 B( 48-C , 49-N ) :   1.1463 B( 49-N , 50-C ) :   1.1244
B( 49-N , 78-H ) :   0.9244 B( 50-C , 51-C ) :   1.8998 B( 50-C , 79-H ) :   0.9571
B( 51-C , 80-H ) :   0.9624 B( 51-C , 81-H ) :   0.9549

-----------------------------------------------------------------------------
         ABSORPTION SPECTRUM VIA TRANSITION ELECTRIC DIPOLE MOMENTS
-----------------------------------------------------------------------------
State   Energy  Wavelength   fosc         T2         TX        TY        TZ
        (cm-1)    (nm)                  (au**2)     (au)      (au)      (au)
-----------------------------------------------------------------------------
   0    5780.5   1729.9   0.277714080  15.81636  -0.17030   2.96337   2.64685
   1   12061.6    829.1   0.045355209   1.23793  -0.99442   0.37224  -0.33242
   2   13705.6    729.6   0.537362085  12.90760  -2.84786   1.25325  -1.79629
   3   16284.8    614.1   0.828003649  16.73888  -2.94120   1.63936  -2.32394
   4   19149.8    522.2   0.608163867  10.45519  -0.55288   1.81589  -2.61764
   5   19773.3    505.7   1.655941822  27.57026   3.78441   2.52762  -2.61909
   6   22080.9    452.9   0.055343961   0.82514   0.09460   0.56038  -0.70864
   7   23715.2    421.7   0.033806338   0.46930   0.46646  -0.26148   0.42818
   8   24864.1    402.2   0.018422647   0.24392   0.23630   0.04683   0.43115
   9   25999.4    384.6   0.191760232   2.42812   1.54092   0.09841   0.20977
  10   27039.0    369.8   0.177582586   2.16215   1.43447   0.18123   0.26756
  11   28046.8    356.5   0.007109206   0.08345  -0.18236  -0.01338  -0.22363
  12   28471.4    351.2   0.044827907   0.51834   0.60361  -0.02810   0.39141
  13   28842.9    346.7   0.032504958   0.37101  -0.58306   0.05056  -0.16880
  14   29529.0    338.6   0.012176699   0.13576  -0.35688  -0.07910   0.04622
  15   29894.8    334.5   0.032605682   0.35906  -0.49794   0.26940   0.19632
  16   30668.9    326.1   0.039626705   0.42537   0.60817  -0.18676  -0.14362
  17   31257.5    319.9   0.001746660   0.01840  -0.01578  -0.13453  -0.00705
  18   31882.4    313.7   0.037564911   0.38789   0.61460   0.10007  -0.01208
  19   32291.6    309.7   0.072908207   0.74330  -0.76058   0.05581   0.40212
  20   32820.9    304.7   0.044566106   0.44702   0.42370  -0.44005  -0.27176
  21   33140.0    301.8   0.003551674   0.03528   0.11254  -0.03672  -0.14584
  22   33692.5    296.8   0.005424477   0.05300   0.13642  -0.07364   0.17021
  23   33903.9    295.0   0.004820815   0.04681   0.02057  -0.10305  -0.18912
  24   34085.4    293.4   0.091314791   0.88196  -0.07484   0.28025   0.89321
  25   34765.5    287.6   0.013607459   0.12886   0.11726  -0.33205   0.06963
  26   34854.2    286.9   0.020500346   0.19363   0.10458  -0.18820   0.38377
  27   35063.6    285.2   0.016906359   0.15873  -0.00471   0.10243  -0.38499
  28   35468.3    281.9   0.029933037   0.27783   0.23411   0.31960   0.34768
  29   36031.2    277.5   0.003992817   0.03648  -0.05441  -0.07599   0.16657
  30   36116.9    276.9   0.054510804   0.49688  -0.04948  -0.22838   0.66504
  31   36874.3    271.2   0.021645497   0.19325  -0.06802   0.30464   0.30954
  32   37003.3    270.2   0.006369007   0.05666  -0.23121  -0.00090   0.05661
  33   37329.8    267.9   0.076864577   0.67787  -0.18328   0.36108   0.71687
  34   37648.9    265.6   0.018255058   0.15963  -0.25633   0.19529   0.23618
  35   37928.3    263.7   0.048061124   0.41716   0.29125  -0.53899   0.20450
  36   38768.6    257.9   0.024187203   0.20539   0.07344  -0.41029  -0.17793
  37   39213.5    255.0   0.034368567   0.28854   0.50310   0.16603  -0.08864
  38   39593.5    252.6   0.150200621   1.24889   1.05433  -0.36764   0.04593
  39   39790.8    251.3   0.109044003   0.90218  -0.89922   0.22623   0.20593
  40   40102.0    249.4   0.030063878   0.24681  -0.45585  -0.09774   0.17160

FINAL SINGLE POINT ENERGY     -4264.296422049875

DIPOLE MOMENT
-------------
                                X             Y             Z
Electronic contribution:      0.51641     -15.32713       4.77919
Nuclear contribution   :      0.07715      15.90905      -7.26050
                        -----------------------------------------
Total Dipole Moment    :      0.59356       0.58191      -2.48131
                        -----------------------------------------
Magnitude (a.u.)       :      2.61683
Magnitude (Debye)      :      6.65147

Rotational constants in cm-1:     0.001326     0.000618     0.000563
Rotational constants in MHz :    39.739461    18.524501    16.865599

                             ****ORCA TERMINATED NORMALLY****
TOTAL RUN TIME: 0 days 0 hours 6 minutes 22 seconds 749 msec
