                         Program Version 4.2.0 -  RELEASE  -
|  1> # ORCA input file
|  2> # SCF done       -148.534595290015          0.000468864856
|  3> ! CAM-B3LYP def2-SVP def2/J RIJCOSX Grid4 TightSCF
|  4> %maxcore 5000
|  5> %tddft
|  6>     Mode sTDDFT
|  7>     Ethresh 5.0
|  8>     maxcore 5000
|  9> end
| 10>
| 11> %pal
| 12>   nprocs 6
| 13>   end
| 14> * xyz 0 1
| 15>    C       10.90525        -6.70312        -4.42544
| 16>    C       10.30871        -5.98507        -3.46491
| 17>    C       10.58643        -4.62942        -3.08216
| 18>    C        9.82295        -4.16497        -2.06999
| 19>    C        8.88044        -5.10338        -1.56228
| 20>    S        9.00683        -6.61962        -2.44498
| 21>    C        7.98051        -4.92009        -0.54705
| 22>    C        7.78947        -3.76182         0.25425
| 23>    C        6.80400        -3.87921         1.17501
| 24>    C        6.14925        -5.14481         1.17663
| 25>    S        6.84148        -6.17683        -0.07695
| 26>    C        5.15345        -5.52616         2.01305
| 27>    N        4.54191        -6.74171         2.00131
| 28>    C        3.42905        -7.06676         2.84418
| 29>    C        2.78118        -8.35216         2.19912
| 30>    N        2.68783        -9.44201         3.14106
| 31>    C        2.03752        -9.03240         4.37366
| 32>    C        2.75232        -7.80273         5.03132
| 33>    C        3.25368        -8.20662         6.41295
| 34>    S        2.07050        -9.43857         7.02484
| 35>    C        2.00897       -10.18680         5.37128
| 36>    N        3.84475        -7.30868         4.21318
| 37>    N        3.61566        -8.78155         1.08252
| 38>    S        5.19208        -8.22195         1.38862
| 39>    N        3.18785        -8.55865        -0.21277
| 40>    C        2.16046        -9.46041        -0.69695
| 41>    C        0.83415        -8.63577        -0.97689
| 42>    N        0.50616        -8.62768        -2.38225
| 43>    C        0.36070        -9.97310        -2.90589
| 44>    C        1.61056       -10.85986        -2.57736
| 45>    C        2.15429       -11.45447        -3.87370
| 46>    S        0.74899       -11.55244        -5.01975
| 47>    C        0.15670        -9.94660        -4.41632
| 48>    N        2.64457       -10.10606        -1.89401
| 49>    N        1.07553        -7.27729        -0.54158
| 50>    S        2.75693        -6.96144        -0.71211
| 51>    C        0.34627        -6.73404         0.46274
| 52>    S        0.81608        -5.20198         1.19241
| 53>    C       -0.64298        -5.42315         2.19562
| 54>    N       -1.27761        -6.51339         1.91182
| 55>    N       -0.73499        -7.24326         0.95553
| 56>    C       -1.02607        -4.48251         3.17824
| 57>    S       -0.02701        -3.12863         3.56133
| 58>    C       -1.15826        -2.49450         4.70395
| 59>    C       -2.26773        -3.33448         4.81670
| 60>    C       -2.20037        -4.46628         3.94079
| 61>    C       -3.24345        -5.40620         3.90656
| 62>    C       -4.31639        -5.23714         4.74262
| 63>    S       -5.62817        -6.41384         4.68271
| 64>    C       -4.36636        -4.15495         5.65321
| 65>    C       -3.37003        -3.22793         5.69559
| 66>    C       -0.83832        -1.24593         5.33997
| 67>    C       -1.70507        -0.36102         5.82999
| 68>    H       11.69358        -6.27619        -5.01995
| 69>    H       10.61970        -7.71778        -4.63337
| 70>    H       11.35060        -4.06467        -3.58665
| 71>    H        9.89836        -3.17335        -1.65925
| 72>    H        8.39684        -2.88363         0.12751
| 73>    H        6.51792        -3.10912         1.86970
| 74>    H        4.77701        -4.83352         2.75231
| 75>    H        2.71993        -6.22958         2.85431
| 76>    H        1.76471        -8.14181         1.84801
| 77>    H        3.61793        -9.81405         3.31910
| 78>    H        1.01229        -8.75165         4.10581
| 79>    H        2.03373        -6.98040         5.12985
| 80>    H        3.29266        -7.37292         7.10764
| 81>    H        4.23935        -8.67316         6.35437
| 82>    H        1.10927       -10.78922         5.29091
| 83>    H        2.88337       -10.82908         5.25063
| 84>    H        4.62158        -7.96803         4.21237
| 85>    H        1.98278       -10.22941         0.06417
| 86>    H       -0.01844        -9.03978        -0.42138
| 87>    H        1.22291        -8.11490        -2.89265
| 88>    H       -0.52524       -10.40303        -2.42567
| 89>    H        1.31167       -11.66633        -1.89856
| 90>    H        2.57031       -12.44826        -3.73915
| 91>    H        2.91348       -10.80526        -4.31376
| 92>    H       -0.88422        -9.82133        -4.69867
| 93>    H        0.75402        -9.16070        -4.88295
| 94>    H        3.06702        -9.41348        -2.50686
| 95>    H       -3.17756        -6.24214         3.22989
| 96>    H       -6.37431        -5.84535         5.63083
| 97>    H       -5.20721        -4.07239         6.32691
| 98>    H       -3.40717        -2.42711         6.41541
| 99>    H        0.21958        -1.01307         5.35865
|100>    H       -2.76984        -0.49870         5.77332
|101>    H       -1.36307         0.55543         6.27779
|102> *
|103>
|104>                          ****END OF INPUT****

CARTESIAN COORDINATES (ANGSTROEM)
---------------------------------
  C     10.905250   -6.703120   -4.425440
  C     10.308710   -5.985070   -3.464910
  C     10.586430   -4.629420   -3.082160
  C      9.822950   -4.164970   -2.069990
  C      8.880440   -5.103380   -1.562280
  S      9.006830   -6.619620   -2.444980
  C      7.980510   -4.920090   -0.547050
  C      7.789470   -3.761820    0.254250
  C      6.804000   -3.879210    1.175010
  C      6.149250   -5.144810    1.176630
  S      6.841480   -6.176830   -0.076950
  C      5.153450   -5.526160    2.013050
  N      4.541910   -6.741710    2.001310
  C      3.429050   -7.066760    2.844180
  C      2.781180   -8.352160    2.199120
  N      2.687830   -9.442010    3.141060
  C      2.037520   -9.032400    4.373660
  C      2.752320   -7.802730    5.031320
  C      3.253680   -8.206620    6.412950
  S      2.070500   -9.438570    7.024840
  C      2.008970  -10.186800    5.371280
  N      3.844750   -7.308680    4.213180
  N      3.615660   -8.781550    1.082520
  S      5.192080   -8.221950    1.388620
  N      3.187850   -8.558650   -0.212770
  C      2.160460   -9.460410   -0.696950
  C      0.834150   -8.635770   -0.976890
  N      0.506160   -8.627680   -2.382250
  C      0.360700   -9.973100   -2.905890
  C      1.610560  -10.859860   -2.577360
  C      2.154290  -11.454470   -3.873700
  S      0.748990  -11.552440   -5.019750
  C      0.156700   -9.946600   -4.416320
  N      2.644570  -10.106060   -1.894010
  N      1.075530   -7.277290   -0.541580
  S      2.756930   -6.961440   -0.712110
  C      0.346270   -6.734040    0.462740
  S      0.816080   -5.201980    1.192410
  C     -0.642980   -5.423150    2.195620
  N     -1.277610   -6.513390    1.911820
  N     -0.734990   -7.243260    0.955530
  C     -1.026070   -4.482510    3.178240
  S     -0.027010   -3.128630    3.561330
  C     -1.158260   -2.494500    4.703950
  C     -2.267730   -3.334480    4.816700
  C     -2.200370   -4.466280    3.940790
  C     -3.243450   -5.406200    3.906560
  C     -4.316390   -5.237140    4.742620
  S     -5.628170   -6.413840    4.682710
  C     -4.366360   -4.154950    5.653210
  C     -3.370030   -3.227930    5.695590
  C     -0.838320   -1.245930    5.339970
  C     -1.705070   -0.361020    5.829990
  H     11.693580   -6.276190   -5.019950
  H     10.619700   -7.717780   -4.633370
  H     11.350600   -4.064670   -3.586650
  H      9.898360   -3.173350   -1.659250
  H      8.396840   -2.883630    0.127510
  H      6.517920   -3.109120    1.869700
  H      4.777010   -4.833520    2.752310
  H      2.719930   -6.229580    2.854310
  H      1.764710   -8.141810    1.848010
  H      3.617930   -9.814050    3.319100
  H      1.012290   -8.751650    4.105810
  H      2.033730   -6.980400    5.129850
  H      3.292660   -7.372920    7.107640
  H      4.239350   -8.673160    6.354370
  H      1.109270  -10.789220    5.290910
  H      2.883370  -10.829080    5.250630
  H      4.621580   -7.968030    4.212370
  H      1.982780  -10.229410    0.064170
  H     -0.018440   -9.039780   -0.421380
  H      1.222910   -8.114900   -2.892650
  H     -0.525240  -10.403030   -2.425670
  H      1.311670  -11.666330   -1.898560
  H      2.570310  -12.448260   -3.739150
  H      2.913480  -10.805260   -4.313760
  H     -0.884220   -9.821330   -4.698670
  H      0.754020   -9.160700   -4.882950
  H      3.067020   -9.413480   -2.506860
  H     -3.177560   -6.242140    3.229890
  H     -6.374310   -5.845350    5.630830
  H     -5.207210   -4.072390    6.326910
  H     -3.407170   -2.427110    6.415410
  H      0.219580   -1.013070    5.358650
  H     -2.769840   -0.498700    5.773320
  H     -1.363070    0.555430    6.277790

 Total Charge           Charge          ....    0
 Multiplicity           Mult            ....    1
 Number of Electrons    NEL             ....  452
 Basis Dimension        Dim             ....  948

ORBITAL ENERGIES
----------------

  NO   OCC          E(Eh)            E(eV)
   0   2.0000     -88.990037     -2421.5420
   1   2.0000     -88.987158     -2421.4637
   2   2.0000     -88.973936     -2421.1039
   3   2.0000     -88.972326     -2421.0601
   4   2.0000     -88.928363     -2419.8638
   5   2.0000     -88.926298     -2419.8076
   6   2.0000     -88.918097     -2419.5844
   7   2.0000     -88.905897     -2419.2524
   8   2.0000     -88.902100     -2419.1491
   9   2.0000     -14.471603      -393.7923
  10   2.0000     -14.467935      -393.6925
  11   2.0000     -14.465131      -393.6162
  12   2.0000     -14.453393      -393.2968
  13   2.0000     -14.431328      -392.6964
  14   2.0000     -14.425316      -392.5328
  15   2.0000     -14.402571      -391.9139
  16   2.0000     -14.402233      -391.9047
  17   2.0000     -14.396019      -391.7356
  18   2.0000     -14.394780      -391.7019
  19   2.0000     -10.375050      -282.3195
  20   2.0000     -10.341426      -281.4045
  21   2.0000     -10.340751      -281.3861
  22   2.0000     -10.340070      -281.3676
  23   2.0000     -10.338021      -281.3119
  24   2.0000     -10.335724      -281.2494
  25   2.0000     -10.317146      -280.7438
  26   2.0000     -10.312255      -280.6107
  27   2.0000     -10.307017      -280.4682
  28   2.0000     -10.303332      -280.3679
  29   2.0000     -10.301238      -280.3109
  30   2.0000     -10.300583      -280.2931
  31   2.0000     -10.295866      -280.1648
  32   2.0000     -10.295575      -280.1569
  33   2.0000     -10.291674      -280.0507
  34   2.0000     -10.291374      -280.0425
  35   2.0000     -10.290837      -280.0279
  36   2.0000     -10.290281      -280.0128
  37   2.0000     -10.288243      -279.9573
  38   2.0000     -10.286867      -279.9199
  39   2.0000     -10.286532      -279.9108
  40   2.0000     -10.286530      -279.9107
  41   2.0000     -10.285333      -279.8781
  42   2.0000     -10.285040      -279.8702
  43   2.0000     -10.284932      -279.8672
  44   2.0000     -10.281199      -279.7657
  45   2.0000     -10.280216      -279.7389
  46   2.0000     -10.275441      -279.6090
  47   2.0000     -10.274640      -279.5872
  48   2.0000     -10.272276      -279.5228
  49   2.0000     -10.267382      -279.3897
  50   2.0000     -10.264362      -279.3075
  51   2.0000     -10.264325      -279.3065
  52   2.0000     -10.248842      -278.8852
  53   2.0000      -8.080944      -219.8937
  54   2.0000      -8.077815      -219.8085
  55   2.0000      -8.069285      -219.5764
  56   2.0000      -8.067912      -219.5390
  57   2.0000      -8.024082      -218.3464
  58   2.0000      -8.021849      -218.2856
  59   2.0000      -8.014828      -218.0946
  60   2.0000      -8.002443      -217.7575
  61   2.0000      -7.998631      -217.6538
  62   2.0000      -6.053793      -164.7321
  63   2.0000      -6.050214      -164.6347
  64   2.0000      -6.048007      -164.5746
  65   2.0000      -6.045366      -164.5028
  66   2.0000      -6.038186      -164.3074
  67   2.0000      -6.037857      -164.2984
  68   2.0000      -6.037125      -164.2785
  69   2.0000      -6.034718      -164.2130
  70   2.0000      -6.034190      -164.1987
  71   2.0000      -6.033558      -164.1814
  72   2.0000      -6.032135      -164.1427
  73   2.0000      -6.029451      -164.0697
  74   2.0000      -5.993974      -163.1043
  75   2.0000      -5.992182      -163.0556
  76   2.0000      -5.989964      -162.9952
  77   2.0000      -5.988051      -162.9432
  78   2.0000      -5.984685      -162.8516
  79   2.0000      -5.984661      -162.8509
  80   2.0000      -5.981918      -162.7763
  81   2.0000      -5.980841      -162.7470
  82   2.0000      -5.975244      -162.5947
  83   2.0000      -5.973084      -162.5359
  84   2.0000      -5.969261      -162.4318
  85   2.0000      -5.969076      -162.4268
  86   2.0000      -5.965237      -162.3223
  87   2.0000      -5.961488      -162.2203
  88   2.0000      -5.957721      -162.1178
  89   2.0000      -1.148101       -31.2414
  90   2.0000      -1.136257       -30.9191
  91   2.0000      -1.095697       -29.8154
  92   2.0000      -1.060807       -28.8660
  93   2.0000      -1.032805       -28.1041
  94   2.0000      -1.032583       -28.0980
  95   2.0000      -1.003107       -27.2959
  96   2.0000      -0.989207       -26.9177
  97   2.0000      -0.974045       -26.5051
  98   2.0000      -0.967638       -26.3308
  99   2.0000      -0.951923       -25.9031
 100   2.0000      -0.946034       -25.7429
 101   2.0000      -0.941203       -25.6114
 102   2.0000      -0.925717       -25.1900
 103   2.0000      -0.923868       -25.1397
 104   2.0000      -0.914357       -24.8809
 105   2.0000      -0.892223       -24.2786
 106   2.0000      -0.883559       -24.0429
 107   2.0000      -0.871724       -23.7208
 108   2.0000      -0.865877       -23.5617
 109   2.0000      -0.844400       -22.9773
 110   2.0000      -0.842856       -22.9353
 111   2.0000      -0.839389       -22.8409
 112   2.0000      -0.833450       -22.6793
 113   2.0000      -0.826531       -22.4910
 114   2.0000      -0.812672       -22.1139
 115   2.0000      -0.807926       -21.9848
 116   2.0000      -0.806882       -21.9564
 117   2.0000      -0.805030       -21.9060
 118   2.0000      -0.794784       -21.6272
 119   2.0000      -0.783977       -21.3331
 120   2.0000      -0.769153       -20.9297
 121   2.0000      -0.766544       -20.8587
 122   2.0000      -0.755863       -20.5681
 123   2.0000      -0.731706       -19.9107
 124   2.0000      -0.725957       -19.7543
 125   2.0000      -0.719431       -19.5767
 126   2.0000      -0.707215       -19.2443
 127   2.0000      -0.694244       -18.8913
 128   2.0000      -0.690607       -18.7924
 129   2.0000      -0.685712       -18.6592
 130   2.0000      -0.681589       -18.5470
 131   2.0000      -0.674343       -18.3498
 132   2.0000      -0.663584       -18.0570
 133   2.0000      -0.658570       -17.9206
 134   2.0000      -0.656630       -17.8678
 135   2.0000      -0.651784       -17.7359
 136   2.0000      -0.646427       -17.5902
 137   2.0000      -0.641128       -17.4460
 138   2.0000      -0.638608       -17.3774
 139   2.0000      -0.622506       -16.9392
 140   2.0000      -0.607816       -16.5395
 141   2.0000      -0.605905       -16.4875
 142   2.0000      -0.603800       -16.4302
 143   2.0000      -0.601887       -16.3782
 144   2.0000      -0.595421       -16.2022
 145   2.0000      -0.585304       -15.9269
 146   2.0000      -0.582973       -15.8635
 147   2.0000      -0.578784       -15.7495
 148   2.0000      -0.573732       -15.6120
 149   2.0000      -0.571846       -15.5607
 150   2.0000      -0.563720       -15.3396
 151   2.0000      -0.561735       -15.2856
 152   2.0000      -0.559013       -15.2115
 153   2.0000      -0.556969       -15.1559
 154   2.0000      -0.551851       -15.0166
 155   2.0000      -0.549564       -14.9544
 156   2.0000      -0.543917       -14.8007
 157   2.0000      -0.536435       -14.5971
 158   2.0000      -0.533926       -14.5289
 159   2.0000      -0.530344       -14.4314
 160   2.0000      -0.527216       -14.3463
 161   2.0000      -0.519765       -14.1435
 162   2.0000      -0.518390       -14.1061
 163   2.0000      -0.514287       -13.9945
 164   2.0000      -0.509456       -13.8630
 165   2.0000      -0.503243       -13.6939
 166   2.0000      -0.499683       -13.5971
 167   2.0000      -0.498856       -13.5746
 168   2.0000      -0.498329       -13.5602
 169   2.0000      -0.489025       -13.3071
 170   2.0000      -0.485512       -13.2114
 171   2.0000      -0.484015       -13.1707
 172   2.0000      -0.482469       -13.1286
 173   2.0000      -0.476115       -12.9557
 174   2.0000      -0.474888       -12.9224
 175   2.0000      -0.472345       -12.8532
 176   2.0000      -0.470067       -12.7912
 177   2.0000      -0.466288       -12.6883
 178   2.0000      -0.465362       -12.6631
 179   2.0000      -0.463488       -12.6122
 180   2.0000      -0.459380       -12.5004
 181   2.0000      -0.453862       -12.3502
 182   2.0000      -0.450345       -12.2545
 183   2.0000      -0.449181       -12.2228
 184   2.0000      -0.448374       -12.2009
 185   2.0000      -0.443310       -12.0631
 186   2.0000      -0.440932       -11.9984
 187   2.0000      -0.437388       -11.9019
 188   2.0000      -0.435457       -11.8494
 189   2.0000      -0.432974       -11.7818
 190   2.0000      -0.431545       -11.7429
 191   2.0000      -0.427320       -11.6280
 192   2.0000      -0.426290       -11.5999
 193   2.0000      -0.423909       -11.5351
 194   2.0000      -0.414285       -11.2733
 195   2.0000      -0.412990       -11.2380
 196   2.0000      -0.408978       -11.1289
 197   2.0000      -0.406918       -11.0728
 198   2.0000      -0.402887       -10.9631
 199   2.0000      -0.399298       -10.8654
 200   2.0000      -0.387399       -10.5417
 201   2.0000      -0.384848       -10.4722
 202   2.0000      -0.382853       -10.4180
 203   2.0000      -0.378264       -10.2931
 204   2.0000      -0.377220       -10.2647
 205   2.0000      -0.365689        -9.9509
 206   2.0000      -0.363241        -9.8843
 207   2.0000      -0.360502        -9.8098
 208   2.0000      -0.353051        -9.6070
 209   2.0000      -0.338643        -9.2149
 210   2.0000      -0.332683        -9.0528
 211   2.0000      -0.332014        -9.0346
 212   2.0000      -0.325604        -8.8601
 213   2.0000      -0.323978        -8.8159
 214   2.0000      -0.321099        -8.7376
 215   2.0000      -0.311553        -8.4778
 216   2.0000      -0.306966        -8.3530
 217   2.0000      -0.298644        -8.1265
 218   2.0000      -0.288698        -7.8559
 219   2.0000      -0.286744        -7.8027
 220   2.0000      -0.286318        -7.7911
 221   2.0000      -0.283712        -7.7202
 222   2.0000      -0.279779        -7.6132
 223   2.0000      -0.273057        -7.4302
 224   2.0000      -0.239788        -6.5250
 225   2.0000      -0.200120        -5.4455
 226   0.0000      -0.059151        -1.6096
 227   0.0000      -0.034553        -0.9402
 228   0.0000       0.007459         0.2030
 229   0.0000       0.012340         0.3358
 230   0.0000       0.026337         0.7167

MULLIKEN ATOMIC CHARGES
-----------------------
   0 C :   -0.043042
   1 C :   -0.056345
   2 C :    0.039954
   3 C :    0.032514
   4 C :   -0.080963
   5 S :    0.056299
   6 C :   -0.039961
   7 C :    0.014567
   8 C :    0.044288
   9 C :   -0.064691
  10 S :    0.045433
  11 C :    0.094390
  12 N :   -0.377028
  13 C :    0.165228
  14 C :    0.125298
  15 N :   -0.160788
  16 C :    0.003637
  17 C :    0.018858
  18 C :    0.004946
  19 S :   -0.085933
  20 C :    0.018476
  21 N :   -0.161248
  22 N :   -0.291041
  23 S :    0.345141
  24 N :   -0.295574
  25 C :    0.155491
  26 C :    0.124721
  27 N :   -0.142074
  28 C :    0.022485
  29 C :    0.010327
  30 C :    0.016856
  31 S :   -0.091191
  32 C :    0.009268
  33 N :   -0.145262
  34 N :   -0.349453
  35 S :    0.315506
  36 C :    0.063226
  37 S :    0.053703
  38 C :   -0.100461
  39 N :   -0.055615
  40 N :   -0.097060
  41 C :   -0.095172
  42 S :    0.158516
  43 C :   -0.132905
  44 C :    0.107359
  45 C :    0.069262
  46 C :   -0.032909
  47 C :   -0.047195
  48 S :    0.038609
  49 C :    0.024631
  50 C :   -0.035949
  51 C :    0.015074
  52 C :   -0.024256
  53 H :    0.010895
  54 H :    0.012215
  55 H :   -0.020121
  56 H :   -0.019588
  57 H :   -0.022965
  58 H :   -0.020931
  59 H :    0.011270
  60 H :    0.009437
  61 H :    0.025189
  62 H :    0.091297
  63 H :    0.009792
  64 H :    0.003029
  65 H :    0.053732
  66 H :    0.028339
  67 H :    0.055174
  68 H :    0.029484
  69 H :    0.086708
  70 H :    0.029829
  71 H :    0.041778
  72 H :    0.084851
  73 H :    0.001069
  74 H :   -0.000900
  75 H :    0.051632
  76 H :    0.030555
  77 H :    0.053856
  78 H :    0.029171
  79 H :    0.092068
  80 H :   -0.006403
  81 H :    0.051246
  82 H :   -0.025201
  83 H :   -0.023747
  84 H :    0.000145
  85 H :    0.029872
  86 H :    0.029278
Sum of atomic charges:   -0.0000000

LOEWDIN ATOMIC CHARGES
----------------------
   0 C :   -0.098707
   1 C :   -0.136950
   2 C :   -0.046159
   3 C :   -0.025815
   4 C :   -0.197138
   5 S :    0.330964
   6 C :   -0.174485
   7 C :   -0.056221
   8 C :   -0.026272
   9 C :   -0.213620
  10 S :    0.329550
  11 C :   -0.009171
  12 N :   -0.179952
  13 C :    0.028268
  14 C :    0.019140
  15 N :   -0.088024
  16 C :   -0.012460
  17 C :   -0.013989
  18 C :   -0.125053
  19 S :    0.208365
  20 C :   -0.123334
  21 N :   -0.101380
  22 N :   -0.187608
  23 S :    0.428600
  24 N :   -0.199825
  25 C :    0.030047
  26 C :    0.039850
  27 N :   -0.088724
  28 C :   -0.013375
  29 C :   -0.013489
  30 C :   -0.123462
  31 S :    0.205559
  32 C :   -0.123865
  33 N :   -0.087790
  34 N :   -0.193159
  35 S :    0.404896
  36 C :   -0.131437
  37 S :    0.342301
  38 C :   -0.161009
  39 N :   -0.077330
  40 N :   -0.130711
  41 C :   -0.231908
  42 S :    0.473584
  43 C :   -0.168578
  44 C :   -0.049337
  45 C :   -0.020970
  46 C :   -0.043600
  47 C :   -0.144942
  48 S :    0.233520
  49 C :   -0.044484
  50 C :   -0.008026
  51 C :   -0.044735
  52 C :   -0.037402
  53 H :    0.024516
  54 H :    0.022005
  55 H :    0.029544
  56 H :    0.029336
  57 H :    0.027466
  58 H :    0.029561
  59 H :    0.036185
  60 H :    0.007104
  61 H :    0.019806
  62 H :    0.044237
  63 H :    0.025540
  64 H :    0.022534
  65 H :    0.030317
  66 H :    0.015503
  67 H :    0.031508
  68 H :    0.017151
  69 H :    0.041041
  70 H :    0.028418
  71 H :    0.030272
  72 H :    0.040978
  73 H :    0.022812
  74 H :    0.021313
  75 H :    0.030123
  76 H :    0.017534
  77 H :    0.030757
  78 H :    0.015951
  79 H :    0.047004
  80 H :    0.031271
  81 H :   -0.028678
  82 H :    0.025533
  83 H :    0.030185
  84 H :    0.030640
  85 H :    0.024005
  86 H :    0.028383

  Mayer bond orders larger than 0.100000
B(  0-C ,  1-C ) :   1.8647 B(  0-C , 53-H ) :   0.9500 B(  0-C , 54-H ) :   0.9413
B(  1-C ,  2-C ) :   1.0796 B(  1-C ,  5-S ) :   1.0097 B(  2-C ,  3-C ) :   1.6611
B(  2-C , 55-H ) :   0.9929 B(  3-C ,  4-C ) :   1.1541 B(  3-C , 56-H ) :   0.9900
B(  4-C ,  5-S ) :   1.0217 B(  4-C ,  6-C ) :   1.5865 B(  6-C ,  7-C ) :   1.1584
B(  6-C , 10-S ) :   1.0147 B(  7-C ,  8-C ) :   1.6361 B(  7-C , 57-H ) :   0.9910
B(  8-C ,  9-C ) :   1.1357 B(  8-C , 58-H ) :   0.9946 B(  9-C , 10-S ) :   0.9968
B(  9-C , 11-C ) :   1.6108 B( 11-C , 12-N ) :   1.0934 B( 11-C , 59-H ) :   0.9691
B( 12-N , 13-C ) :   0.9619 B( 12-N , 23-S ) :   0.8962 B( 13-C , 14-C ) :   0.9272
B( 13-C , 21-N ) :   1.1144 B( 13-C , 60-H ) :   0.8997 B( 14-C , 15-N ) :   1.0964
B( 14-C , 22-N ) :   0.9316 B( 14-C , 61-H ) :   0.9124 B( 15-N , 16-C ) :   1.0616
B( 15-N , 62-H ) :   0.9065 B( 16-C , 17-C ) :   0.9819 B( 16-C , 20-C ) :   1.0376
B( 16-C , 63-H ) :   0.9066 B( 17-C , 18-C ) :   1.0329 B( 17-C , 21-N ) :   1.0675
B( 17-C , 64-H ) :   0.9077 B( 18-C , 19-S ) :   1.0172 B( 18-C , 65-H ) :   0.9485
B( 18-C , 66-H ) :   0.9330 B( 19-S , 20-C ) :   1.0166 B( 20-C , 67-H ) :   0.9480
B( 20-C , 68-H ) :   0.9316 B( 21-N , 69-H ) :   0.9009 B( 22-N , 23-S ) :   1.0027
B( 22-N , 24-N ) :   0.9557 B( 24-N , 25-C ) :   0.9421 B( 24-N , 35-S ) :   0.9741
B( 25-C , 26-C ) :   0.9414 B( 25-C , 33-N ) :   1.1187 B( 25-C , 70-H ) :   0.9205
B( 26-C , 27-N ) :   1.1230 B( 26-C , 34-N ) :   0.9201 B( 26-C , 71-H ) :   0.9080
B( 27-N , 28-C ) :   1.0659 B( 27-N , 72-H ) :   0.9061 B( 28-C , 29-C ) :   0.9773
B( 28-C , 32-C ) :   1.0343 B( 28-C , 73-H ) :   0.9074 B( 29-C , 30-C ) :   1.0386
B( 29-C , 33-N ) :   1.0701 B( 29-C , 74-H ) :   0.9056 B( 30-C , 31-S ) :   1.0164
B( 30-C , 75-H ) :   0.9483 B( 30-C , 76-H ) :   0.9321 B( 31-S , 32-C ) :   1.0165
B( 32-C , 77-H ) :   0.9488 B( 32-C , 78-H ) :   0.9329 B( 33-N , 79-H ) :   0.9049
B( 34-N , 35-S ) :   0.9245 B( 34-N , 36-C ) :   1.1038 B( 36-C , 37-S ) :   1.0872
B( 36-C , 40-N ) :   1.6329 B( 37-S , 38-C ) :   1.0298 B( 38-C , 39-N ) :   1.7464
B( 38-C , 41-C ) :   1.1214 B( 39-N , 40-N ) :   1.1514 B( 41-C , 42-S ) :   1.1486
B( 41-C , 43-C ) :   0.1251 B( 41-C , 45-C ) :   1.3687 B( 42-S , 43-C ) :   1.1649
B( 43-C , 44-C ) :   1.3780 B( 43-C , 51-C ) :   1.0891 B( 44-C , 45-C ) :   1.1963
B( 44-C , 50-C ) :   1.1838 B( 45-C , 46-C ) :   1.2761 B( 46-C , 47-C ) :   1.4750
B( 46-C , 80-H ) :   0.9789 B( 47-C , 48-S ) :   1.0526 B( 47-C , 49-C ) :   1.2036
B( 48-S , 81-H ) :   0.9557 B( 49-C , 50-C ) :   1.5920 B( 49-C , 82-H ) :   0.9778
B( 50-C , 83-H ) :   0.9885 B( 51-C , 52-C ) :   1.9358 B( 51-C , 84-H ) :   0.9497
B( 52-C , 85-H ) :   0.9600 B( 52-C , 86-H ) :   0.9473

-----------------------------------------------------------------------------
         ABSORPTION SPECTRUM VIA TRANSITION ELECTRIC DIPOLE MOMENTS
-----------------------------------------------------------------------------
State   Energy  Wavelength   fosc         T2         TX        TY        TZ
        (cm-1)    (nm)                  (au**2)     (au)      (au)      (au)
-----------------------------------------------------------------------------
   0   19710.5    507.3   0.031009597   0.51793  -0.52700   0.18555   0.45363
   1   21518.0    464.7   1.327064656  20.30326   3.18423  -0.09635  -3.18664
   2   23005.1    434.7   0.384027005   5.49559  -0.64298   1.79176   1.36813
   3   28382.8    352.3   0.076043990   0.88204   0.56510  -0.34542  -0.66587
   4   29767.2    335.9   0.018183634   0.20110  -0.13709   0.18279   0.38587
   5   31431.7    318.2   0.205743521   2.15493   0.68533   1.23930   0.38652
   6   32482.4    307.9   0.055883756   0.56639   0.08850  -0.59995  -0.44567
   7   32633.3    306.4   0.001082588   0.01092   0.02581  -0.09759  -0.02705
   8   33477.1    298.7   0.002419777   0.02380  -0.10261  -0.05401   0.10173
   9   33945.6    294.6   0.030367434   0.29451   0.19175   0.45683   0.22147
  10   34011.4    294.0   0.007890873   0.07638   0.20579   0.18444  -0.00369
  11   34200.6    292.4   0.015116924   0.14551  -0.37174   0.01998   0.08323
  12   34790.1    287.4   0.003624627   0.03430  -0.15653  -0.05121   0.08470
  13   35054.8    285.3   0.050989712   0.47886   0.30166  -0.43885  -0.44189
  14   35092.3    285.0   0.100747878   0.94515   0.36394   0.88854   0.15229
  15   35467.9    281.9   0.070952240   0.65858   0.73678   0.18708  -0.28413
  16   35750.8    279.7   0.017076390   0.15725   0.20241  -0.25996  -0.22068
  17   36464.6    274.2   0.016287873   0.14705   0.33669  -0.00234  -0.18353
  18   37426.4    267.2   0.177565373   1.56191  -1.03382   0.06662   0.69906
  19   38760.6    258.0   0.034014711   0.28890   0.39672   0.08791  -0.35183
  20   39054.9    256.0   0.001541798   0.01300   0.02771  -0.10238  -0.04181
  21   39271.0    254.6   0.003276677   0.02747  -0.14389  -0.07931   0.02179
  22   39763.6    251.5   0.397190375   3.28843  -1.29655  -1.26643   0.05934

FINAL SINGLE POINT ENERGY     -5443.683020857766

DIPOLE MOMENT
-------------
                                X             Y             Z
Electronic contribution:     -0.59879       9.08687      -2.72718
Nuclear contribution   :      0.42449      -7.41662       4.23022
                        -----------------------------------------
Total Dipole Moment    :     -0.17431       1.67025       1.50304
                        -----------------------------------------
Magnitude (a.u.)       :      2.25371
Magnitude (Debye)      :      5.72848

Rotational constants in cm-1:     0.001553     0.000777     0.000657
Rotational constants in MHz :    46.552684    23.307525    19.691031

                             ****ORCA TERMINATED NORMALLY****
TOTAL RUN TIME: 0 days 0 hours 8 minutes 9 seconds 675 msec
