                         Program Version 4.2.0 -  RELEASE  -
|  1> # ORCA input file
|  2> # SCF done       -147.660177483290          0.000507755851
|  3> ! CAM-B3LYP def2-SVP def2/J RIJCOSX Grid4 TightSCF
|  4> %maxcore 5000
|  5> %tddft
|  6>     Mode sTDDFT
|  7>     Ethresh 5.0
|  8>     maxcore 5000
|  9> end
| 10>
| 11> %pal
| 12>   nprocs 6
| 13>   end
| 14> * xyz 0 1
| 15>    C        1.38022       -16.96791        16.59875
| 16>    C        1.03629       -16.94916        15.30419
| 17>    C       -0.12826       -17.53002        14.69810
| 18>    C       -0.21360       -17.34742        13.36271
| 19>    C        0.86685       -16.61199        12.79802
| 20>    S        2.00935       -16.16025        14.05217
| 21>    C        1.04538       -16.26984        11.48198
| 22>    C        0.19339       -16.56118        10.38395
| 23>    C        0.63570       -16.07310         9.19984
| 24>    C        1.86699       -15.36087         9.27487
| 25>    S        2.44177       -15.35382        10.93623
| 26>    C        2.49185       -14.75922         8.22171
| 27>    C        3.70366       -14.03471         8.22474
| 28>    S        4.70826       -13.87039         9.64445
| 29>    C        5.83554       -12.91115         8.77536
| 30>    C        5.47574       -12.71880         7.47290
| 31>    C        4.26368       -13.36170         7.14691
| 32>    C        3.62509       -13.25700         5.79817
| 33>    C        4.55108       -12.64923         4.73535
| 34>    C        5.35787       -11.48352         5.32918
| 35>    C        6.26286       -11.94411         6.46598
| 36>    C        5.45369       -13.67900         4.10089
| 37>    C        6.04566       -14.66283         4.76410
| 38>    C        5.61857       -13.58198         2.62611
| 39>    S        5.99681       -11.89184         1.91184
| 40>    C        4.51710       -12.40572         1.16109
| 41>    C        4.36116       -13.59316         1.78471
| 42>    C        3.31596       -14.59680         1.76785
| 43>    O        3.28914       -15.53157         2.54292
| 44>    C        2.25118       -14.37369         0.70216
| 45>    C        2.85666       -14.36160        -0.66810
| 46>    C        3.82825       -15.19767        -1.03934
| 47>    C        4.44302       -15.23037        -2.33440
| 48>    S        4.06765       -14.03822        -3.55073
| 49>    C        5.14061       -14.78799        -4.66459
| 50>    C        5.75407       -15.88579        -4.14539
| 51>    C        5.36008       -16.13938        -2.80504
| 52>    C        5.87327       -17.31407        -2.03743
| 53>    C        7.21622       -17.80914        -2.58693
| 54>    C        7.12083       -17.98886        -4.10843
| 55>    C        6.78142       -16.70568        -4.86556
| 56>    C        8.35043       -16.92261        -2.11578
| 57>    C        9.46056       -17.46130        -1.61399
| 58>    C        8.18576       -15.47746        -2.17649
| 59>    C        8.42402       -14.62446        -1.15745
| 60>    C        8.30417       -13.19854        -1.20422
| 61>    C        8.55249       -12.57374        -0.03299
| 62>    C        8.86672       -13.45331         1.04255
| 63>    S        8.86658       -15.11916         0.48157
| 64>    C        9.10120       -13.12366         2.34983
| 65>    C        9.10471       -11.82253         2.93207
| 66>    C        9.31205       -11.80895         4.26498
| 67>    C        9.49768       -13.10601         4.85387
| 68>    S        9.39831       -14.33659         3.58560
| 69>    C        9.70592       -13.39871         6.14395
| 70>    H        0.75699       -17.45926        17.32501
| 71>    H        2.27962       -16.49825        16.95207
| 72>    H       -0.85037       -18.05870        15.29509
| 73>    H       -1.01901       -17.71452        12.75093
| 74>    H       -0.71813       -17.11835        10.50702
| 75>    H        0.12422       -16.19270         8.26054
| 76>    H        1.99701       -14.83838         7.26235
| 77>    H        6.70662       -12.53965         9.27767
| 78>    H        2.73521       -12.62390         5.88906
| 79>    H        3.29235       -14.23996         5.45492
| 80>    H        3.91302       -12.23831         3.94391
| 81>    H        4.65332       -10.73835         5.70555
| 82>    H        5.96151       -11.01717         4.54801
| 83>    H        6.73737       -11.08371         6.94248
| 84>    H        7.05817       -12.57957         6.06576
| 85>    H        6.68395       -15.37494         4.26945
| 86>    H        5.89365       -14.81033         5.81824
| 87>    H        6.37259       -14.27982         2.26128
| 88>    H        3.95816       -11.86251         0.42372
| 89>    H        1.74714       -13.42556         0.89896
| 90>    H        1.51322       -15.17653         0.78714
| 91>    H        2.46472       -13.64375        -1.37613
| 92>    H        4.19830       -15.92798        -0.33124
| 93>    H        5.25614       -14.36819        -5.64449
| 94>    H        5.14100       -18.12600        -2.10665
| 95>    H        5.98360       -17.06337        -0.98011
| 96>    H        7.40532       -18.80197        -2.16325
| 97>    H        6.33902       -18.72884        -4.29816
| 98>    H        8.06154       -18.39357        -4.48683
| 99>    H        6.41607       -16.95669        -5.86498
|100>    H        7.68755       -16.10787        -5.00553
|101>    H       10.28568       -16.85581        -1.28108
|102>    H        9.59304       -18.52769        -1.54677
|103>    H        7.82983       -15.03967        -3.09614
|104>    H        8.03630       -12.70094        -2.11995
|105>    H        8.50520       -11.50932         0.11057
|106>    H        8.94482       -10.94397         2.33301
|107>    H        9.34196       -10.92336         4.87481
|108>    H        9.75862       -12.61818         6.88237
|109>    H        9.82744       -14.41103         6.48251
|110> *
|111>
|112>                          ****END OF INPUT****

CARTESIAN COORDINATES (ANGSTROEM)
---------------------------------
  C      1.380220  -16.967910   16.598750
  C      1.036290  -16.949160   15.304190
  C     -0.128260  -17.530020   14.698100
  C     -0.213600  -17.347420   13.362710
  C      0.866850  -16.611990   12.798020
  S      2.009350  -16.160250   14.052170
  C      1.045380  -16.269840   11.481980
  C      0.193390  -16.561180   10.383950
  C      0.635700  -16.073100    9.199840
  C      1.866990  -15.360870    9.274870
  S      2.441770  -15.353820   10.936230
  C      2.491850  -14.759220    8.221710
  C      3.703660  -14.034710    8.224740
  S      4.708260  -13.870390    9.644450
  C      5.835540  -12.911150    8.775360
  C      5.475740  -12.718800    7.472900
  C      4.263680  -13.361700    7.146910
  C      3.625090  -13.257000    5.798170
  C      4.551080  -12.649230    4.735350
  C      5.357870  -11.483520    5.329180
  C      6.262860  -11.944110    6.465980
  C      5.453690  -13.679000    4.100890
  C      6.045660  -14.662830    4.764100
  C      5.618570  -13.581980    2.626110
  S      5.996810  -11.891840    1.911840
  C      4.517100  -12.405720    1.161090
  C      4.361160  -13.593160    1.784710
  C      3.315960  -14.596800    1.767850
  O      3.289140  -15.531570    2.542920
  C      2.251180  -14.373690    0.702160
  C      2.856660  -14.361600   -0.668100
  C      3.828250  -15.197670   -1.039340
  C      4.443020  -15.230370   -2.334400
  S      4.067650  -14.038220   -3.550730
  C      5.140610  -14.787990   -4.664590
  C      5.754070  -15.885790   -4.145390
  C      5.360080  -16.139380   -2.805040
  C      5.873270  -17.314070   -2.037430
  C      7.216220  -17.809140   -2.586930
  C      7.120830  -17.988860   -4.108430
  C      6.781420  -16.705680   -4.865560
  C      8.350430  -16.922610   -2.115780
  C      9.460560  -17.461300   -1.613990
  C      8.185760  -15.477460   -2.176490
  C      8.424020  -14.624460   -1.157450
  C      8.304170  -13.198540   -1.204220
  C      8.552490  -12.573740   -0.032990
  C      8.866720  -13.453310    1.042550
  S      8.866580  -15.119160    0.481570
  C      9.101200  -13.123660    2.349830
  C      9.104710  -11.822530    2.932070
  C      9.312050  -11.808950    4.264980
  C      9.497680  -13.106010    4.853870
  S      9.398310  -14.336590    3.585600
  C      9.705920  -13.398710    6.143950
  H      0.756990  -17.459260   17.325010
  H      2.279620  -16.498250   16.952070
  H     -0.850370  -18.058700   15.295090
  H     -1.019010  -17.714520   12.750930
  H     -0.718130  -17.118350   10.507020
  H      0.124220  -16.192700    8.260540
  H      1.997010  -14.838380    7.262350
  H      6.706620  -12.539650    9.277670
  H      2.735210  -12.623900    5.889060
  H      3.292350  -14.239960    5.454920
  H      3.913020  -12.238310    3.943910
  H      4.653320  -10.738350    5.705550
  H      5.961510  -11.017170    4.548010
  H      6.737370  -11.083710    6.942480
  H      7.058170  -12.579570    6.065760
  H      6.683950  -15.374940    4.269450
  H      5.893650  -14.810330    5.818240
  H      6.372590  -14.279820    2.261280
  H      3.958160  -11.862510    0.423720
  H      1.747140  -13.425560    0.898960
  H      1.513220  -15.176530    0.787140
  H      2.464720  -13.643750   -1.376130
  H      4.198300  -15.927980   -0.331240
  H      5.256140  -14.368190   -5.644490
  H      5.141000  -18.126000   -2.106650
  H      5.983600  -17.063370   -0.980110
  H      7.405320  -18.801970   -2.163250
  H      6.339020  -18.728840   -4.298160
  H      8.061540  -18.393570   -4.486830
  H      6.416070  -16.956690   -5.864980
  H      7.687550  -16.107870   -5.005530
  H     10.285680  -16.855810   -1.281080
  H      9.593040  -18.527690   -1.546770
  H      7.829830  -15.039670   -3.096140
  H      8.036300  -12.700940   -2.119950
  H      8.505200  -11.509320    0.110570
  H      8.944820  -10.943970    2.333010
  H      9.341960  -10.923360    4.874810
  H      9.758620  -12.618180    6.882370
  H      9.827440  -14.411030    6.482510

 Total Charge           Charge          ....    0
 Multiplicity           Mult            ....    1
 Number of Electrons    NEL             ....  442
 Basis Dimension        Dim             ....  998

ORBITAL ENERGIES
----------------

  NO   OCC          E(Eh)            E(eV)
   0   2.0000     -88.941666     -2420.2258
   1   2.0000     -88.935013     -2420.0447
   2   2.0000     -88.932629     -2419.9799
   3   2.0000     -88.931869     -2419.9592
   4   2.0000     -88.931285     -2419.9433
   5   2.0000     -88.928076     -2419.8560
   6   2.0000     -88.923759     -2419.7385
   7   2.0000     -19.194328      -522.3042
   8   2.0000     -10.347583      -281.5720
   9   2.0000     -10.309277      -280.5297
  10   2.0000     -10.301032      -280.3053
  11   2.0000     -10.300335      -280.2864
  12   2.0000     -10.300314      -280.2858
  13   2.0000     -10.300009      -280.2775
  14   2.0000     -10.298147      -280.2268
  15   2.0000     -10.294169      -280.1186
  16   2.0000     -10.293731      -280.1067
  17   2.0000     -10.293414      -280.0980
  18   2.0000     -10.289593      -279.9941
  19   2.0000     -10.284196      -279.8472
  20   2.0000     -10.284178      -279.8467
  21   2.0000     -10.280078      -279.7352
  22   2.0000     -10.280029      -279.7338
  23   2.0000     -10.278255      -279.6855
  24   2.0000     -10.277094      -279.6539
  25   2.0000     -10.276923      -279.6493
  26   2.0000     -10.276139      -279.6280
  27   2.0000     -10.272901      -279.5399
  28   2.0000     -10.271404      -279.4991
  29   2.0000     -10.271281      -279.4958
  30   2.0000     -10.271055      -279.4896
  31   2.0000     -10.270558      -279.4761
  32   2.0000     -10.270551      -279.4759
  33   2.0000     -10.270381      -279.4713
  34   2.0000     -10.269454      -279.4460
  35   2.0000     -10.269133      -279.4373
  36   2.0000     -10.268740      -279.4266
  37   2.0000     -10.268592      -279.4226
  38   2.0000     -10.268076      -279.4086
  39   2.0000     -10.267635      -279.3966
  40   2.0000     -10.265820      -279.3472
  41   2.0000     -10.265503      -279.3385
  42   2.0000     -10.264889      -279.3218
  43   2.0000     -10.263436      -279.2823
  44   2.0000     -10.262607      -279.2597
  45   2.0000     -10.261042      -279.2172
  46   2.0000     -10.259030      -279.1624
  47   2.0000     -10.255935      -279.0782
  48   2.0000     -10.254963      -279.0517
  49   2.0000     -10.254701      -279.0446
  50   2.0000     -10.254483      -279.0387
  51   2.0000     -10.252906      -278.9958
  52   2.0000     -10.248883      -278.8863
  53   2.0000     -10.248521      -278.8764
  54   2.0000     -10.241271      -278.6792
  55   2.0000      -8.037473      -218.7107
  56   2.0000      -8.030493      -218.5208
  57   2.0000      -8.028065      -218.4548
  58   2.0000      -8.028022      -218.4536
  59   2.0000      -8.026146      -218.4025
  60   2.0000      -8.024093      -218.3467
  61   2.0000      -8.020499      -218.2489
  62   2.0000      -6.006660      -163.4495
  63   2.0000      -6.002597      -163.3390
  64   2.0000      -6.000328      -163.2772
  65   2.0000      -5.999769      -163.2620
  66   2.0000      -5.997877      -163.2105
  67   2.0000      -5.997307      -163.1950
  68   2.0000      -5.996395      -163.1702
  69   2.0000      -5.995664      -163.1503
  70   2.0000      -5.994012      -163.1054
  71   2.0000      -5.993954      -163.1038
  72   2.0000      -5.993110      -163.0808
  73   2.0000      -5.992737      -163.0707
  74   2.0000      -5.991206      -163.0290
  75   2.0000      -5.990390      -163.0068
  76   2.0000      -5.990345      -163.0056
  77   2.0000      -5.989862      -162.9924
  78   2.0000      -5.988545      -162.9566
  79   2.0000      -5.986563      -162.9027
  80   2.0000      -5.986456      -162.8998
  81   2.0000      -5.984793      -162.8545
  82   2.0000      -5.980948      -162.7499
  83   2.0000      -1.108937       -30.1757
  84   2.0000      -0.984348       -26.7855
  85   2.0000      -0.978291       -26.6206
  86   2.0000      -0.977318       -26.5942
  87   2.0000      -0.976986       -26.5851
  88   2.0000      -0.965962       -26.2852
  89   2.0000      -0.961061       -26.1518
  90   2.0000      -0.952376       -25.9155
  91   2.0000      -0.927481       -25.2380
  92   2.0000      -0.910919       -24.7874
  93   2.0000      -0.899075       -24.4651
  94   2.0000      -0.883424       -24.0392
  95   2.0000      -0.876696       -23.8561
  96   2.0000      -0.864251       -23.5175
  97   2.0000      -0.855459       -23.2782
  98   2.0000      -0.852391       -23.1947
  99   2.0000      -0.846168       -23.0254
 100   2.0000      -0.838206       -22.8087
 101   2.0000      -0.830528       -22.5998
 102   2.0000      -0.829278       -22.5658
 103   2.0000      -0.826348       -22.4861
 104   2.0000      -0.820624       -22.3303
 105   2.0000      -0.810949       -22.0670
 106   2.0000      -0.805311       -21.9136
 107   2.0000      -0.801171       -21.8010
 108   2.0000      -0.798651       -21.7324
 109   2.0000      -0.783095       -21.3091
 110   2.0000      -0.780802       -21.2467
 111   2.0000      -0.768866       -20.9219
 112   2.0000      -0.752470       -20.4758
 113   2.0000      -0.747866       -20.3505
 114   2.0000      -0.746274       -20.3071
 115   2.0000      -0.715612       -19.4728
 116   2.0000      -0.711662       -19.3653
 117   2.0000      -0.704796       -19.1785
 118   2.0000      -0.704102       -19.1596
 119   2.0000      -0.683455       -18.5977
 120   2.0000      -0.678645       -18.4669
 121   2.0000      -0.672250       -18.2928
 122   2.0000      -0.671165       -18.2633
 123   2.0000      -0.661392       -17.9974
 124   2.0000      -0.653707       -17.7883
 125   2.0000      -0.645177       -17.5562
 126   2.0000      -0.639155       -17.3923
 127   2.0000      -0.624501       -16.9935
 128   2.0000      -0.619185       -16.8489
 129   2.0000      -0.614903       -16.7324
 130   2.0000      -0.613190       -16.6858
 131   2.0000      -0.610601       -16.6153
 132   2.0000      -0.608986       -16.5714
 133   2.0000      -0.593019       -16.1369
 134   2.0000      -0.592372       -16.1193
 135   2.0000      -0.591158       -16.0862
 136   2.0000      -0.584735       -15.9114
 137   2.0000      -0.580869       -15.8062
 138   2.0000      -0.578982       -15.7549
 139   2.0000      -0.577018       -15.7014
 140   2.0000      -0.562610       -15.3094
 141   2.0000      -0.554201       -15.0806
 142   2.0000      -0.549522       -14.9533
 143   2.0000      -0.547404       -14.8956
 144   2.0000      -0.543875       -14.7996
 145   2.0000      -0.538438       -14.6517
 146   2.0000      -0.531808       -14.4712
 147   2.0000      -0.530158       -14.4263
 148   2.0000      -0.528233       -14.3740
 149   2.0000      -0.522452       -14.2166
 150   2.0000      -0.521934       -14.2025
 151   2.0000      -0.511066       -13.9068
 152   2.0000      -0.508935       -13.8488
 153   2.0000      -0.506525       -13.7832
 154   2.0000      -0.502857       -13.6834
 155   2.0000      -0.501140       -13.6367
 156   2.0000      -0.499006       -13.5786
 157   2.0000      -0.498428       -13.5629
 158   2.0000      -0.489479       -13.3194
 159   2.0000      -0.488819       -13.3014
 160   2.0000      -0.485562       -13.2128
 161   2.0000      -0.482706       -13.1351
 162   2.0000      -0.480822       -13.0838
 163   2.0000      -0.480541       -13.0762
 164   2.0000      -0.477733       -12.9998
 165   2.0000      -0.476694       -12.9715
 166   2.0000      -0.474245       -12.9049
 167   2.0000      -0.472547       -12.8587
 168   2.0000      -0.469533       -12.7766
 169   2.0000      -0.468220       -12.7409
 170   2.0000      -0.464486       -12.6393
 171   2.0000      -0.463000       -12.5989
 172   2.0000      -0.460983       -12.5440
 173   2.0000      -0.459797       -12.5117
 174   2.0000      -0.458452       -12.4751
 175   2.0000      -0.454999       -12.3812
 176   2.0000      -0.450863       -12.2686
 177   2.0000      -0.447306       -12.1718
 178   2.0000      -0.445613       -12.1257
 179   2.0000      -0.442032       -12.0283
 180   2.0000      -0.438890       -11.9428
 181   2.0000      -0.435859       -11.8603
 182   2.0000      -0.432959       -11.7814
 183   2.0000      -0.428875       -11.6703
 184   2.0000      -0.417459       -11.3596
 185   2.0000      -0.417139       -11.3509
 186   2.0000      -0.415600       -11.3090
 187   2.0000      -0.415172       -11.2974
 188   2.0000      -0.412131       -11.2147
 189   2.0000      -0.408049       -11.1036
 190   2.0000      -0.405807       -11.0426
 191   2.0000      -0.404113       -10.9965
 192   2.0000      -0.399480       -10.8704
 193   2.0000      -0.397475       -10.8158
 194   2.0000      -0.393124       -10.6974
 195   2.0000      -0.390401       -10.6233
 196   2.0000      -0.387514       -10.5448
 197   2.0000      -0.387323       -10.5396
 198   2.0000      -0.381716       -10.3870
 199   2.0000      -0.379752       -10.3336
 200   2.0000      -0.376403       -10.2424
 201   2.0000      -0.374160       -10.1814
 202   2.0000      -0.369331       -10.0500
 203   2.0000      -0.367367        -9.9966
 204   2.0000      -0.358192        -9.7469
 205   2.0000      -0.337399        -9.1811
 206   2.0000      -0.330951        -9.0056
 207   2.0000      -0.329767        -8.9734
 208   2.0000      -0.324261        -8.8236
 209   2.0000      -0.323885        -8.8134
 210   2.0000      -0.319605        -8.6969
 211   2.0000      -0.309320        -8.4170
 212   2.0000      -0.303131        -8.2486
 213   2.0000      -0.299209        -8.1419
 214   2.0000      -0.292437        -7.9576
 215   2.0000      -0.284985        -7.7548
 216   2.0000      -0.279266        -7.5992
 217   2.0000      -0.269229        -7.3261
 218   2.0000      -0.258085        -7.0228
 219   2.0000      -0.218775        -5.9532
 220   2.0000      -0.202530        -5.5111
 221   0.0000      -0.050519        -1.3747
 222   0.0000      -0.049567        -1.3488
 223   0.0000      -0.014974        -0.4075
 224   0.0000      -0.005556        -0.1512
 225   0.0000       0.017469         0.4753

MULLIKEN ATOMIC CHARGES
-----------------------
   0 C :   -0.034740
   1 C :   -0.062727
   2 C :    0.049046
   3 C :    0.029103
   4 C :   -0.072919
   5 S :    0.073490
   6 C :   -0.037824
   7 C :    0.027297
   8 C :    0.030476
   9 C :   -0.028607
  10 S :    0.064531
  11 C :   -0.034771
  12 C :   -0.124857
  13 S :    0.097265
  14 C :   -0.125294
  15 C :   -0.060885
  16 C :   -0.076228
  17 C :    0.163456
  18 C :   -0.032607
  19 C :    0.080331
  20 C :    0.130510
  21 C :   -0.016816
  22 C :   -0.015734
  23 C :   -0.048966
  24 S :    0.017959
  25 C :   -0.025550
  26 C :   -0.036072
  27 C :   -0.000430
  28 O :   -0.174697
  29 C :    0.184291
  30 C :   -0.168721
  31 C :    0.048046
  32 C :   -0.131132
  33 S :    0.088772
  34 C :   -0.131612
  35 C :   -0.075836
  36 C :   -0.050435
  37 C :    0.166019
  38 C :   -0.030696
  39 C :    0.079370
  40 C :    0.122224
  41 C :   -0.081185
  42 C :   -0.029514
  43 C :    0.008053
  44 C :   -0.029640
  45 C :    0.030548
  46 C :    0.069734
  47 C :   -0.070250
  48 S :    0.075832
  49 C :   -0.095760
  50 C :    0.037941
  51 C :    0.050737
  52 C :   -0.066777
  53 S :    0.071869
  54 C :   -0.019982
  55 H :    0.014427
  56 H :    0.017314
  57 H :   -0.015966
  58 H :   -0.015356
  59 H :   -0.020047
  60 H :   -0.015646
  61 H :   -0.013956
  62 H :    0.000701
  63 H :    0.007822
  64 H :    0.030039
  65 H :   -0.015648
  66 H :   -0.002449
  67 H :   -0.010767
  68 H :   -0.011779
  69 H :    0.035710
  70 H :    0.014375
  71 H :    0.031756
  72 H :    0.054339
  73 H :    0.013120
  74 H :    0.015146
  75 H :    0.026753
  76 H :   -0.005571
  77 H :    0.004217
  78 H :    0.004329
  79 H :    0.017633
  80 H :    0.019452
  81 H :   -0.018700
  82 H :    0.003598
  83 H :   -0.003529
  84 H :    0.008301
  85 H :    0.016060
  86 H :    0.024025
  87 H :    0.010769
  88 H :   -0.005546
  89 H :   -0.014848
  90 H :   -0.018720
  91 H :   -0.011544
  92 H :   -0.013894
  93 H :    0.016660
  94 H :    0.021787
Sum of atomic charges:   -0.0000000

LOEWDIN ATOMIC CHARGES
----------------------
   0 C :   -0.086959
   1 C :   -0.138371
   2 C :   -0.037672
   3 C :   -0.026303
   4 C :   -0.183231
   5 S :    0.344727
   6 C :   -0.177183
   7 C :   -0.042629
   8 C :   -0.029364
   9 C :   -0.157486
  10 S :    0.357312
  11 C :   -0.066540
  12 C :   -0.186039
  13 S :    0.424408
  14 C :   -0.198607
  15 C :   -0.065902
  16 C :   -0.060618
  17 C :   -0.018575
  18 C :   -0.026948
  19 C :   -0.018152
  20 C :   -0.031205
  21 C :   -0.030591
  22 C :   -0.035260
  23 C :   -0.045713
  24 S :    0.314675
  25 C :   -0.096046
  26 C :   -0.126760
  27 C :    0.065197
  28 O :   -0.153214
  29 C :   -0.053238
  30 C :   -0.039254
  31 C :   -0.037706
  32 C :   -0.177886
  33 S :    0.416502
  34 C :   -0.195077
  35 C :   -0.074618
  36 C :   -0.059139
  37 C :   -0.017680
  38 C :   -0.021409
  39 C :   -0.018417
  40 C :   -0.029678
  41 C :   -0.028017
  42 C :   -0.048790
  43 C :   -0.047498
  44 C :   -0.137527
  45 C :   -0.031166
  46 C :   -0.031997
  47 C :   -0.182200
  48 S :    0.358296
  49 C :   -0.193173
  50 C :   -0.031523
  51 C :   -0.036879
  52 C :   -0.137871
  53 S :    0.356314
  54 C :   -0.080656
  55 H :    0.026275
  56 H :    0.024281
  57 H :    0.031341
  58 H :    0.030932
  59 H :    0.029006
  60 H :    0.032074
  61 H :    0.037982
  62 H :    0.017194
  63 H :    0.031859
  64 H :    0.034852
  65 H :    0.024520
  66 H :    0.020461
  67 H :    0.009593
  68 H :    0.025701
  69 H :    0.033371
  70 H :    0.015261
  71 H :    0.026711
  72 H :    0.035303
  73 H :    0.017186
  74 H :    0.038525
  75 H :    0.045456
  76 H :    0.014267
  77 H :    0.033821
  78 H :    0.018570
  79 H :    0.035260
  80 H :    0.032385
  81 H :    0.030573
  82 H :    0.024075
  83 H :    0.025193
  84 H :    0.034037
  85 H :    0.028770
  86 H :    0.019408
  87 H :    0.019932
  88 H :    0.034835
  89 H :    0.032749
  90 H :    0.026194
  91 H :    0.029561
  92 H :    0.032305
  93 H :    0.027082
  94 H :    0.026438

  Mayer bond orders larger than 0.100000
B(  0-C ,  1-C ) :   1.8655 B(  0-C , 55-H ) :   0.9499 B(  0-C , 56-H ) :   0.9414
B(  1-C ,  2-C ) :   1.0788 B(  1-C ,  5-S ) :   1.0099 B(  2-C ,  3-C ) :   1.6630
B(  2-C , 57-H ) :   0.9923 B(  3-C ,  4-C ) :   1.1513 B(  3-C , 58-H ) :   0.9906
B(  4-C ,  5-S ) :   1.0345 B(  4-C ,  6-C ) :   1.5738 B(  6-C ,  7-C ) :   1.1592
B(  6-C , 10-S ) :   1.0326 B(  7-C ,  8-C ) :   1.6181 B(  7-C , 59-H ) :   0.9913
B(  8-C ,  9-C ) :   1.1248 B(  8-C , 60-H ) :   0.9993 B(  9-C , 10-S ) :   1.0219
B(  9-C , 11-C ) :   1.6052 B( 11-C , 12-C ) :   1.1723 B( 11-C , 61-H ) :   0.9595
B( 12-C , 13-S ) :   1.1123 B( 12-C , 16-C ) :   1.4609 B( 13-S , 14-C ) :   1.1519
B( 14-C , 15-C ) :   1.5486 B( 14-C , 62-H ) :   0.9707 B( 15-C , 16-C ) :   1.3189
B( 15-C , 20-C ) :   1.0235 B( 16-C , 17-C ) :   1.0558 B( 17-C , 18-C ) :   1.0600
B( 17-C , 63-H ) :   0.9035 B( 17-C , 64-H ) :   0.9074 B( 18-C , 19-C ) :   1.0453
B( 18-C , 21-C ) :   0.9757 B( 18-C , 65-H ) :   0.8936 B( 19-C , 20-C ) :   1.0889
B( 19-C , 66-H ) :   0.9402 B( 19-C , 67-H ) :   0.9176 B( 20-C , 68-H ) :   0.9118
B( 20-C , 69-H ) :   0.9023 B( 21-C , 22-C ) :   1.9962 B( 21-C , 23-C ) :   1.0222
B( 22-C , 70-H ) :   0.9343 B( 22-C , 71-H ) :   0.9324 B( 23-C , 24-S ) :   1.0129
B( 23-C , 26-C ) :   0.9641 B( 23-C , 72-H ) :   0.8978 B( 24-S , 25-C ) :   1.1106
B( 25-C , 26-C ) :   1.6418 B( 25-C , 73-H ) :   0.9912 B( 26-C , 27-C ) :   0.9861
B( 27-C , 28-O ) :   2.1879 B( 27-C , 29-C ) :   1.0181 B( 29-C , 30-C ) :   1.0285
B( 29-C , 74-H ) :   0.9172 B( 29-C , 75-H ) :   0.8903 B( 30-C , 31-C ) :   1.8056
B( 30-C , 76-H ) :   0.9744 B( 31-C , 32-C ) :   1.1294 B( 31-C , 77-H ) :   0.9559
B( 32-C , 33-S ) :   1.1171 B( 32-C , 36-C ) :   1.5367 B( 33-S , 34-C ) :   1.1475
B( 34-C , 35-C ) :   1.5788 B( 34-C , 78-H ) :   0.9728 B( 35-C , 36-C ) :   1.2774
B( 35-C , 40-C ) :   1.0237 B( 36-C , 37-C ) :   1.0487 B( 37-C , 38-C ) :   1.0444
B( 37-C , 79-H ) :   0.9062 B( 37-C , 80-H ) :   0.9099 B( 38-C , 39-C ) :   1.0554
B( 38-C , 41-C ) :   0.9913 B( 38-C , 81-H ) :   0.8947 B( 39-C , 40-C ) :   1.0999
B( 39-C , 82-H ) :   0.9403 B( 39-C , 83-H ) :   0.9284 B( 40-C , 84-H ) :   0.9158
B( 40-C , 85-H ) :   0.9181 B( 41-C , 42-C ) :   1.9813 B( 41-C , 43-C ) :   0.9983
B( 42-C , 86-H ) :   0.9480 B( 42-C , 87-H ) :   0.9443 B( 43-C , 44-C ) :   1.7694
B( 43-C , 88-H ) :   0.9336 B( 44-C , 45-C ) :   1.0912 B( 44-C , 48-S ) :   1.0068
B( 45-C , 46-C ) :   1.6491 B( 45-C , 89-H ) :   0.9968 B( 46-C , 47-C ) :   1.1363
B( 46-C , 90-H ) :   0.9892 B( 47-C , 48-S ) :   1.0257 B( 47-C , 49-C ) :   1.5919
B( 49-C , 50-C ) :   1.1403 B( 49-C , 53-S ) :   1.0370 B( 50-C , 51-C ) :   1.6619
B( 50-C , 91-H ) :   0.9928 B( 51-C , 52-C ) :   1.0744 B( 51-C , 92-H ) :   0.9933
B( 52-C , 53-S ) :   1.0090 B( 52-C , 54-C ) :   1.8574 B( 54-C , 93-H ) :   0.9478
B( 54-C , 94-H ) :   0.9408

-----------------------------------------------------------------------------
         ABSORPTION SPECTRUM VIA TRANSITION ELECTRIC DIPOLE MOMENTS
-----------------------------------------------------------------------------
State   Energy  Wavelength   fosc         T2         TX        TY        TZ
        (cm-1)    (nm)                  (au**2)     (au)      (au)      (au)
-----------------------------------------------------------------------------
   0   20111.2    497.2   1.480510483  24.23537   1.65426   1.61682  -4.34565
   1   22689.5    440.7   0.826929433  11.99826   0.82641   1.37491   3.07000
   2   23222.5    430.6   0.008446902   0.11975   0.20608   0.22067   0.16906
   3   27069.8    369.4   0.005352499   0.06510  -0.11413  -0.09626  -0.20689
   4   27655.2    361.6   0.015386210   0.18316  -0.19418   0.16610   0.34332
   5   28644.3    349.1   0.002856798   0.03283  -0.04777   0.04113  -0.16988
   6   29202.0    342.4   0.000003031   0.00003   0.00473   0.00062   0.00337
   7   29589.9    338.0   0.019265615   0.21435   0.30055   0.11367   0.33330
   8   30939.9    323.2   0.034117124   0.36302  -0.34727   0.29151   0.39679
   9   31562.1    316.8   0.050302559   0.52469  -0.04260   0.27052   0.67059
  10   32142.9    311.1   0.029256385   0.29965  -0.30116  -0.07496   0.45092
  11   32651.5    306.3   0.005221003   0.05264   0.21763   0.06522  -0.03203
  12   33301.0    300.3   0.013403161   0.13250   0.27531   0.07175   0.22707
  13   33845.3    295.5   0.020113977   0.19565   0.33112   0.26109  -0.13358
  14   33999.3    294.1   0.219580689   2.12618  -1.08838  -0.51017  -0.82543
  15   34114.8    293.1   0.111206103   1.07315  -0.70683  -0.54736  -0.52339
  16   34511.1    289.8   0.000199332   0.00190   0.02186  -0.03140  -0.02092
  17   34956.3    286.1   0.039078308   0.36803  -0.16692   0.58266  -0.02606
  18   35997.4    277.8   0.005421728   0.04958  -0.03226  -0.09624  -0.19820
  19   36417.6    274.6   0.000934220   0.00845   0.07496   0.03574  -0.03935
  20   36655.6    272.8   0.002461039   0.02210   0.08614   0.10723  -0.05644
  21   36939.6    270.7   0.015164230   0.13515   0.07091   0.24233  -0.26719
  22   37265.6    268.3   0.033869616   0.29921   0.39926   0.33216  -0.17168
  23   37397.6    267.4   0.012214795   0.10753  -0.10893   0.10253  -0.29181
  24   38127.7    262.3   0.001867068   0.01612  -0.04387   0.03417   0.11414
  25   38416.5    260.3   0.031539165   0.27028  -0.42801   0.29510   0.00079
  26   38604.7    259.0   0.005555590   0.04738   0.12665  -0.11973   0.13039
  27   39025.4    256.2   0.005115197   0.04315   0.13736   0.14146  -0.06534
  28   39608.6    252.5   0.066293268   0.55101  -0.60848  -0.37214   0.20560
  29   39961.6    250.2   0.166421748   1.37102   0.00162  -0.57327  -1.02097

FINAL SINGLE POINT ENERGY     -4674.161483869819

DIPOLE MOMENT
-------------
                                X             Y             Z
Electronic contribution:     -4.39019       5.79350      29.63921
Nuclear contribution   :      4.09151      -5.02298     -31.72860
                        -----------------------------------------
Total Dipole Moment    :     -0.29868       0.77052      -2.08939
                        -----------------------------------------
Magnitude (a.u.)       :      2.24688
Magnitude (Debye)      :      5.71110

Rotational constants in cm-1:     0.002560     0.000513     0.000473
Rotational constants in MHz :    76.751164    15.365700    14.185338

                             ****ORCA TERMINATED NORMALLY****
TOTAL RUN TIME: 0 days 0 hours 8 minutes 9 seconds 545 msec
