                         Program Version 4.2.0 -  RELEASE  -
|  1> # ORCA input file
|  2> # SCF done       -131.850384197677          0.000216357878
|  3> ! CAM-B3LYP def2-SVP def2/J RIJCOSX Grid4 TightSCF
|  4> %maxcore 5000
|  5> %tddft
|  6>     Mode sTDDFT
|  7>     Ethresh 5.0
|  8>     maxcore 5000
|  9> end
| 10>
| 11> %pal
| 12>   nprocs 6
| 13>   end
| 14> * xyz 0 1
| 15>    C        3.56895       -16.91706         2.71582
| 16>    C        4.15079       -15.77971         3.11596
| 17>    C        4.89173       -15.55117         4.32574
| 18>    C        5.36034       -14.29400         4.46439
| 19>    C        5.03533       -13.42318         3.38156
| 20>    S        4.10058       -14.28081         2.17309
| 21>    C        5.36747       -12.10086         3.24843
| 22>    C        6.10672       -11.28889         4.15423
| 23>    C        6.26635       -10.00979         3.74878
| 24>    C        5.66743        -9.71665         2.48144
| 25>    S        4.89444       -11.16383         1.84247
| 26>    C        5.64961        -8.49827         1.89626
| 27>    N        5.09753        -8.20866         0.65382
| 28>    C        5.26433        -8.92094        -0.53297
| 29>    S        6.28311       -10.19807        -0.71475
| 30>    C        4.50753        -8.26476        -1.54696
| 31>    C        3.93777        -7.15213        -0.99433
| 32>    C        4.32500        -7.11210         0.41442
| 33>    S        3.88416        -5.95168         1.48954
| 34>    N        3.15163        -6.15457        -1.46468
| 35>    C        2.65679        -5.96258        -2.70951
| 36>    S        2.99871        -7.05384        -4.00944
| 37>    C        2.04016        -6.07007        -5.06895
| 38>    N        1.92780        -6.48344        -6.39939
| 39>    O        1.25549        -5.80543        -7.15341
| 40>    O        2.52121        -7.50585        -6.70351
| 41>    C        1.49620        -4.97421        -4.45402
| 42>    C        1.83683        -4.88805        -3.09163
| 43>    C        1.42572        -3.85331        -2.17816
| 44>    C        0.68052        -2.80059        -2.54338
| 45>    N        0.25406        -1.76147        -1.74422
| 46>    C       -0.50424        -0.70586        -2.28401
| 47>    S       -0.97132        -0.61751        -3.86488
| 48>    C       -0.76922         0.21285        -1.25299
| 49>    C       -0.19563        -0.25386        -0.08460
| 50>    C        0.45370        -1.52483        -0.41188
| 51>    S        1.26931        -2.46416         0.66482
| 52>    C       -0.15615         0.27569         1.21381
| 53>    C       -0.66581         1.47509         1.64442
| 54>    C       -0.58478         1.96667         2.97456
| 55>    C       -1.13969         3.19405         3.15582
| 56>    C       -1.69453         3.74934         1.97712
| 57>    S       -1.49002         2.64150         0.63448
| 58>    C       -2.31059         4.97112         1.82166
| 59>    C       -2.53150         5.95849         2.82544
| 60>    C       -3.15426         7.07112         2.38025
| 61>    C       -3.47690         7.04883         0.98145
| 62>    S       -2.93295         5.51406         0.28350
| 63>    C       -4.08617         8.00195         0.26404
| 64>    H        3.62261       -17.80463         3.32136
| 65>    H        3.03459       -16.98191         1.78580
| 66>    H        5.03812       -16.34577         5.03581
| 67>    H        5.93451       -13.94884         5.30581
| 68>    H        6.49266       -11.68334         5.07711
| 69>    H        6.79295        -9.25010         4.29802
| 70>    H        6.03112        -7.63743         2.42911
| 71>    H        4.46727        -8.62147        -2.55564
| 72>    H        2.91697        -5.46623        -0.74585
| 73>    H        0.87740        -4.27507        -4.98509
| 74>    H        1.74651        -3.94593        -1.15339
| 75>    H        0.34217        -2.67500        -3.56345
| 76>    H       -1.33470         1.11030        -1.40267
| 77>    H        0.34937        -0.33474         1.95245
| 78>    H       -0.11315         1.38980         3.75019
| 79>    H       -1.16321         3.71413         4.09635
| 80>    H       -2.21691         5.80392         3.84201
| 81>    H       -3.40422         7.92284         2.98736
| 82>    H       -4.39995         8.92161         0.72574
| 83>    H       -4.27996         7.88214        -0.78627
| 84> *
| 85>
| 86>                          ****END OF INPUT****

CARTESIAN COORDINATES (ANGSTROEM)
---------------------------------
  C      3.568950  -16.917060    2.715820
  C      4.150790  -15.779710    3.115960
  C      4.891730  -15.551170    4.325740
  C      5.360340  -14.294000    4.464390
  C      5.035330  -13.423180    3.381560
  S      4.100580  -14.280810    2.173090
  C      5.367470  -12.100860    3.248430
  C      6.106720  -11.288890    4.154230
  C      6.266350  -10.009790    3.748780
  C      5.667430   -9.716650    2.481440
  S      4.894440  -11.163830    1.842470
  C      5.649610   -8.498270    1.896260
  N      5.097530   -8.208660    0.653820
  C      5.264330   -8.920940   -0.532970
  S      6.283110  -10.198070   -0.714750
  C      4.507530   -8.264760   -1.546960
  C      3.937770   -7.152130   -0.994330
  C      4.325000   -7.112100    0.414420
  S      3.884160   -5.951680    1.489540
  N      3.151630   -6.154570   -1.464680
  C      2.656790   -5.962580   -2.709510
  S      2.998710   -7.053840   -4.009440
  C      2.040160   -6.070070   -5.068950
  N      1.927800   -6.483440   -6.399390
  O      1.255490   -5.805430   -7.153410
  O      2.521210   -7.505850   -6.703510
  C      1.496200   -4.974210   -4.454020
  C      1.836830   -4.888050   -3.091630
  C      1.425720   -3.853310   -2.178160
  C      0.680520   -2.800590   -2.543380
  N      0.254060   -1.761470   -1.744220
  C     -0.504240   -0.705860   -2.284010
  S     -0.971320   -0.617510   -3.864880
  C     -0.769220    0.212850   -1.252990
  C     -0.195630   -0.253860   -0.084600
  C      0.453700   -1.524830   -0.411880
  S      1.269310   -2.464160    0.664820
  C     -0.156150    0.275690    1.213810
  C     -0.665810    1.475090    1.644420
  C     -0.584780    1.966670    2.974560
  C     -1.139690    3.194050    3.155820
  C     -1.694530    3.749340    1.977120
  S     -1.490020    2.641500    0.634480
  C     -2.310590    4.971120    1.821660
  C     -2.531500    5.958490    2.825440
  C     -3.154260    7.071120    2.380250
  C     -3.476900    7.048830    0.981450
  S     -2.932950    5.514060    0.283500
  C     -4.086170    8.001950    0.264040
  H      3.622610  -17.804630    3.321360
  H      3.034590  -16.981910    1.785800
  H      5.038120  -16.345770    5.035810
  H      5.934510  -13.948840    5.305810
  H      6.492660  -11.683340    5.077110
  H      6.792950   -9.250100    4.298020
  H      6.031120   -7.637430    2.429110
  H      4.467270   -8.621470   -2.555640
  H      2.916970   -5.466230   -0.745850
  H      0.877400   -4.275070   -4.985090
  H      1.746510   -3.945930   -1.153390
  H      0.342170   -2.675000   -3.563450
  H     -1.334700    1.110300   -1.402670
  H      0.349370   -0.334740    1.952450
  H     -0.113150    1.389800    3.750190
  H     -1.163210    3.714130    4.096350
  H     -2.216910    5.803920    3.842010
  H     -3.404220    7.922840    2.987360
  H     -4.399950    8.921610    0.725740
  H     -4.279960    7.882140   -0.786270

 Total Charge           Charge          ....    0
 Multiplicity           Mult            ....    1
 Number of Electrons    NEL             ....  412
 Basis Dimension        Dim             ....  822

ORBITAL ENERGIES
----------------

  NO   OCC          E(Eh)            E(eV)
   0   2.0000     -88.976737     -2421.1801
   1   2.0000     -88.964383     -2420.8439
   2   2.0000     -88.960864     -2420.7482
   3   2.0000     -88.938143     -2420.1299
   4   2.0000     -88.933801     -2420.0118
   5   2.0000     -88.908737     -2419.3297
   6   2.0000     -88.901176     -2419.1240
   7   2.0000     -88.894306     -2418.9371
   8   2.0000     -88.893044     -2418.9027
   9   2.0000     -19.224547      -523.1265
  10   2.0000     -19.224378      -523.1219
  11   2.0000     -14.636480      -398.2789
  12   2.0000     -14.484206      -394.1353
  13   2.0000     -14.483797      -394.1241
  14   2.0000     -14.481822      -394.0704
  15   2.0000     -10.373986      -282.2905
  16   2.0000     -10.366365      -282.0831
  17   2.0000     -10.360131      -281.9135
  18   2.0000     -10.357962      -281.8545
  19   2.0000     -10.356916      -281.8260
  20   2.0000     -10.349445      -281.6227
  21   2.0000     -10.337285      -281.2918
  22   2.0000     -10.330380      -281.1039
  23   2.0000     -10.329058      -281.0680
  24   2.0000     -10.326884      -281.0088
  25   2.0000     -10.325227      -280.9637
  26   2.0000     -10.310475      -280.5623
  27   2.0000     -10.310260      -280.5564
  28   2.0000     -10.309296      -280.5302
  29   2.0000     -10.308122      -280.4983
  30   2.0000     -10.308115      -280.4981
  31   2.0000     -10.307998      -280.4949
  32   2.0000     -10.306633      -280.4577
  33   2.0000     -10.306224      -280.4466
  34   2.0000     -10.302764      -280.3525
  35   2.0000     -10.302620      -280.3486
  36   2.0000     -10.297618      -280.2124
  37   2.0000     -10.297165      -280.2001
  38   2.0000     -10.294302      -280.1222
  39   2.0000     -10.290910      -280.0299
  40   2.0000     -10.286579      -279.9120
  41   2.0000     -10.286032      -279.8972
  42   2.0000     -10.285945      -279.8948
  43   2.0000     -10.285524      -279.8833
  44   2.0000     -10.283664      -279.8327
  45   2.0000     -10.282113      -279.7905
  46   2.0000     -10.282096      -279.7901
  47   2.0000     -10.274946      -279.5955
  48   2.0000     -10.266610      -279.3687
  49   2.0000      -8.071778      -219.6442
  50   2.0000      -8.060246      -219.3304
  51   2.0000      -8.057534      -219.2566
  52   2.0000      -8.034000      -218.6162
  53   2.0000      -8.030557      -218.5226
  54   2.0000      -8.004980      -217.8266
  55   2.0000      -7.997254      -217.6163
  56   2.0000      -7.990435      -217.4308
  57   2.0000      -7.989094      -217.3943
  58   2.0000      -6.041444      -164.3960
  59   2.0000      -6.036990      -164.2749
  60   2.0000      -6.033338      -164.1755
  61   2.0000      -6.029894      -164.0817
  62   2.0000      -6.027317      -164.0116
  63   2.0000      -6.025807      -163.9705
  64   2.0000      -6.023329      -163.9031
  65   2.0000      -6.021419      -163.8511
  66   2.0000      -6.018192      -163.7633
  67   2.0000      -6.003883      -163.3740
  68   2.0000      -6.000402      -163.2792
  69   2.0000      -5.999801      -163.2629
  70   2.0000      -5.996484      -163.1726
  71   2.0000      -5.994600      -163.1214
  72   2.0000      -5.991022      -163.0240
  73   2.0000      -5.974100      -162.5635
  74   2.0000      -5.972095      -162.5090
  75   2.0000      -5.966388      -162.3537
  76   2.0000      -5.965208      -162.3216
  77   2.0000      -5.964944      -162.3144
  78   2.0000      -5.959674      -162.1710
  79   2.0000      -5.958210      -162.1311
  80   2.0000      -5.958057      -162.1270
  81   2.0000      -5.957330      -162.1072
  82   2.0000      -5.956970      -162.0974
  83   2.0000      -5.950104      -161.9106
  84   2.0000      -5.948244      -161.8599
  85   2.0000      -1.305674       -35.5292
  86   2.0000      -1.124734       -30.6056
  87   2.0000      -1.122171       -30.5358
  88   2.0000      -1.113892       -30.3105
  89   2.0000      -1.085482       -29.5375
  90   2.0000      -1.012841       -27.5608
  91   2.0000      -0.996692       -27.1214
  92   2.0000      -0.989835       -26.9348
  93   2.0000      -0.987773       -26.8787
  94   2.0000      -0.965776       -26.2801
  95   2.0000      -0.946565       -25.7574
  96   2.0000      -0.929244       -25.2860
  97   2.0000      -0.910525       -24.7767
  98   2.0000      -0.907022       -24.6813
  99   2.0000      -0.899348       -24.4725
 100   2.0000      -0.892820       -24.2949
 101   2.0000      -0.875999       -23.8371
 102   2.0000      -0.869193       -23.6520
 103   2.0000      -0.865220       -23.5438
 104   2.0000      -0.860915       -23.4267
 105   2.0000      -0.842081       -22.9142
 106   2.0000      -0.839019       -22.8309
 107   2.0000      -0.838269       -22.8104
 108   2.0000      -0.829673       -22.5766
 109   2.0000      -0.824118       -22.4254
 110   2.0000      -0.822892       -22.3920
 111   2.0000      -0.814481       -22.1632
 112   2.0000      -0.802142       -21.8274
 113   2.0000      -0.789964       -21.4960
 114   2.0000      -0.774042       -21.0628
 115   2.0000      -0.755427       -20.5562
 116   2.0000      -0.736442       -20.0396
 117   2.0000      -0.733072       -19.9479
 118   2.0000      -0.710025       -19.3208
 119   2.0000      -0.706929       -19.2365
 120   2.0000      -0.701559       -19.0904
 121   2.0000      -0.689612       -18.7653
 122   2.0000      -0.688563       -18.7367
 123   2.0000      -0.682412       -18.5694
 124   2.0000      -0.677060       -18.4237
 125   2.0000      -0.662447       -18.0261
 126   2.0000      -0.652280       -17.7494
 127   2.0000      -0.639924       -17.4132
 128   2.0000      -0.633830       -17.2474
 129   2.0000      -0.626416       -17.0456
 130   2.0000      -0.620985       -16.8979
 131   2.0000      -0.618042       -16.8178
 132   2.0000      -0.617872       -16.8132
 133   2.0000      -0.617821       -16.8118
 134   2.0000      -0.612847       -16.6764
 135   2.0000      -0.606895       -16.5144
 136   2.0000      -0.601002       -16.3541
 137   2.0000      -0.596247       -16.2247
 138   2.0000      -0.587248       -15.9798
 139   2.0000      -0.584242       -15.8980
 140   2.0000      -0.575983       -15.6733
 141   2.0000      -0.565354       -15.3841
 142   2.0000      -0.561436       -15.2774
 143   2.0000      -0.559507       -15.2250
 144   2.0000      -0.553182       -15.0528
 145   2.0000      -0.551936       -15.0189
 146   2.0000      -0.545451       -14.8425
 147   2.0000      -0.544013       -14.8034
 148   2.0000      -0.535308       -14.5665
 149   2.0000      -0.529401       -14.4057
 150   2.0000      -0.525352       -14.2956
 151   2.0000      -0.519083       -14.1250
 152   2.0000      -0.518455       -14.1079
 153   2.0000      -0.513969       -13.9858
 154   2.0000      -0.511434       -13.9168
 155   2.0000      -0.510611       -13.8944
 156   2.0000      -0.502647       -13.6777
 157   2.0000      -0.498967       -13.5776
 158   2.0000      -0.492618       -13.4048
 159   2.0000      -0.490042       -13.3347
 160   2.0000      -0.485880       -13.2215
 161   2.0000      -0.482271       -13.1233
 162   2.0000      -0.480768       -13.0824
 163   2.0000      -0.479959       -13.0603
 164   2.0000      -0.476846       -12.9757
 165   2.0000      -0.466836       -12.7032
 166   2.0000      -0.462558       -12.5868
 167   2.0000      -0.459506       -12.5038
 168   2.0000      -0.457061       -12.4373
 169   2.0000      -0.455258       -12.3882
 170   2.0000      -0.451180       -12.2772
 171   2.0000      -0.446778       -12.1575
 172   2.0000      -0.445259       -12.1161
 173   2.0000      -0.441597       -12.0165
 174   2.0000      -0.438974       -11.9451
 175   2.0000      -0.437693       -11.9102
 176   2.0000      -0.430242       -11.7075
 177   2.0000      -0.426841       -11.6149
 178   2.0000      -0.419147       -11.4056
 179   2.0000      -0.415850       -11.3159
 180   2.0000      -0.401223       -10.9178
 181   2.0000      -0.399544       -10.8721
 182   2.0000      -0.389620       -10.6021
 183   2.0000      -0.389452       -10.5975
 184   2.0000      -0.384141       -10.4530
 185   2.0000      -0.372713       -10.1420
 186   2.0000      -0.372471       -10.1355
 187   2.0000      -0.363845        -9.9007
 188   2.0000      -0.356559        -9.7025
 189   2.0000      -0.354711        -9.6522
 190   2.0000      -0.353524        -9.6199
 191   2.0000      -0.344880        -9.3847
 192   2.0000      -0.337822        -9.1926
 193   2.0000      -0.330857        -9.0031
 194   2.0000      -0.329838        -8.9753
 195   2.0000      -0.315350        -8.5811
 196   2.0000      -0.310564        -8.4509
 197   2.0000      -0.302489        -8.2311
 198   2.0000      -0.297263        -8.0889
 199   2.0000      -0.295702        -8.0465
 200   2.0000      -0.291884        -7.9426
 201   2.0000      -0.291623        -7.9355
 202   2.0000      -0.277372        -7.5477
 203   2.0000      -0.254615        -6.9284
 204   2.0000      -0.239408        -6.5146
 205   2.0000      -0.222815        -6.0631
 206   0.0000      -0.109593        -2.9822
 207   0.0000      -0.091359        -2.4860
 208   0.0000      -0.061925        -1.6851
 209   0.0000      -0.054192        -1.4746
 210   0.0000      -0.037513        -1.0208

MULLIKEN ATOMIC CHARGES
-----------------------
   0 C :   -0.027666
   1 C :   -0.065070
   2 C :    0.052423
   3 C :    0.031919
   4 C :   -0.067117
   5 S :    0.082671
   6 C :   -0.062990
   7 C :    0.035372
   8 C :    0.035183
   9 C :    0.007336
  10 S :    0.103968
  11 C :    0.041336
  12 N :   -0.140464
  13 C :    0.041449
  14 S :   -0.098675
  15 C :   -0.100127
  16 C :    0.108497
  17 C :    0.046857
  18 S :   -0.144145
  19 N :    0.023265
  20 C :   -0.099894
  21 S :    0.146115
  22 C :    0.000272
  23 N :    0.276299
  24 O :   -0.252115
  25 O :   -0.269715
  26 C :    0.006547
  27 C :    0.118231
  28 C :   -0.023594
  29 C :    0.080797
  30 N :   -0.117449
  31 C :    0.069794
  32 S :   -0.135038
  33 C :   -0.066521
  34 C :    0.090322
  35 C :    0.039171
  36 S :   -0.132070
  37 C :   -0.033095
  38 C :    0.000415
  39 C :    0.032511
  40 C :    0.040284
  41 C :   -0.048003
  42 S :    0.083828
  43 C :   -0.052956
  44 C :    0.028104
  45 C :    0.066119
  46 C :   -0.074022
  47 S :    0.107061
  48 C :   -0.010532
  49 H :    0.019826
  50 H :    0.023149
  51 H :   -0.010940
  52 H :   -0.012488
  53 H :   -0.014664
  54 H :   -0.010570
  55 H :    0.011553
  56 H :    0.010771
  57 H :    0.146566
  58 H :    0.015655
  59 H :   -0.019810
  60 H :    0.011363
  61 H :    0.006754
  62 H :   -0.004448
  63 H :   -0.001912
  64 H :   -0.006797
  65 H :   -0.003627
  66 H :   -0.000589
  67 H :    0.030869
  68 H :    0.034446
Sum of atomic charges:    0.0000000

LOEWDIN ATOMIC CHARGES
----------------------
   0 C :   -0.074938
   1 C :   -0.139263
   2 C :   -0.029040
   3 C :   -0.026598
   4 C :   -0.173821
   5 S :    0.352722
   6 C :   -0.184956
   7 C :   -0.026326
   8 C :   -0.031181
   9 C :   -0.142681
  10 S :    0.377149
  11 C :   -0.031273
  12 N :    0.018306
  13 C :   -0.121701
  14 S :    0.054752
  15 C :   -0.100722
  16 C :    0.003665
  17 C :   -0.103115
  18 S :    0.030715
  19 N :    0.057770
  20 C :   -0.103232
  21 S :    0.475055
  22 C :   -0.211971
  23 N :    0.273419
  24 O :   -0.218414
  25 O :   -0.236456
  26 C :    0.002919
  27 C :   -0.090657
  28 C :   -0.063307
  29 C :    0.021864
  30 N :    0.025589
  31 C :   -0.098612
  32 S :    0.028470
  33 C :   -0.071354
  34 C :   -0.023683
  35 C :   -0.093678
  36 S :    0.050949
  37 C :   -0.069262
  38 C :   -0.114798
  39 C :   -0.033359
  40 C :   -0.018227
  41 C :   -0.190779
  42 S :    0.404650
  43 C :   -0.153413
  44 C :   -0.027252
  45 C :   -0.012590
  46 C :   -0.142389
  47 S :    0.374102
  48 C :   -0.047872
  49 H :    0.028636
  50 H :    0.027089
  51 H :    0.033555
  52 H :    0.031953
  53 H :    0.031556
  54 H :    0.033810
  55 H :    0.027895
  56 H :    0.028987
  57 H :    0.079622
  58 H :    0.046600
  59 H :    0.003514
  60 H :    0.014584
  61 H :    0.023670
  62 H :    0.030614
  63 H :    0.038206
  64 H :    0.034672
  65 H :    0.035594
  66 H :    0.038222
  67 H :    0.033894
  68 H :    0.032152

  Mayer bond orders larger than 0.100000
B(  0-C ,  1-C ) :   1.8714 B(  0-C , 49-H ) :   0.9506 B(  0-C , 50-H ) :   0.9409
B(  1-C ,  2-C ) :   1.0760 B(  1-C ,  5-S ) :   1.0063 B(  2-C ,  3-C ) :   1.6738
B(  2-C , 51-H ) :   0.9924 B(  3-C ,  4-C ) :   1.1408 B(  3-C , 52-H ) :   0.9912
B(  4-C ,  5-S ) :   1.0449 B(  4-C ,  6-C ) :   1.5886 B(  6-C ,  7-C ) :   1.1430
B(  6-C , 10-S ) :   1.0335 B(  7-C ,  8-C ) :   1.6573 B(  7-C , 53-H ) :   0.9918
B(  8-C ,  9-C ) :   1.1090 B(  8-C , 54-H ) :   0.9974 B(  9-C , 10-S ) :   1.0289
B(  9-C , 11-C ) :   1.7005 B( 11-C , 12-N ) :   0.9857 B( 11-C , 55-H ) :   0.9565
B( 12-N , 13-C ) :   1.0503 B( 12-N , 17-C ) :   1.1700 B( 13-C , 14-S ) :   1.6629
B( 13-C , 15-C ) :   1.0829 B( 14-S , 18-S ) :   0.1046 B( 15-C , 16-C ) :   1.5413
B( 15-C , 56-H ) :   1.0315 B( 16-C , 17-C ) :   1.0065 B( 16-C , 19-N ) :   1.2173
B( 17-C , 18-S ) :   1.6554 B( 18-S , 57-H ) :   0.1126 B( 19-N , 20-C ) :   1.2141
B( 19-N , 57-H ) :   0.8484 B( 20-C , 21-S ) :   1.1330 B( 20-C , 27-C ) :   1.3659
B( 21-S , 22-C ) :   1.0795 B( 22-C , 23-N ) :   0.9759 B( 22-C , 26-C ) :   1.4785
B( 23-N , 24-O ) :   1.5305 B( 23-N , 25-O ) :   1.5069 B( 24-O , 25-O ) :   0.2548
B( 26-C , 27-C ) :   1.2466 B( 26-C , 58-H ) :   0.9985 B( 27-C , 28-C ) :   1.0784
B( 28-C , 29-C ) :   1.7590 B( 28-C , 59-H ) :   0.9439 B( 29-C , 30-N ) :   1.0433
B( 29-C , 60-H ) :   0.9450 B( 30-N , 31-C ) :   1.0316 B( 30-N , 35-C ) :   1.1480
B( 31-C , 32-S ) :   1.6182 B( 31-C , 33-C ) :   1.1584 B( 33-C , 34-C ) :   1.4778
B( 33-C , 61-H ) :   1.0043 B( 34-C , 35-C ) :   1.0016 B( 34-C , 37-C ) :   1.2123
B( 35-C , 36-S ) :   1.6769 B( 37-C , 38-C ) :   1.5262 B( 37-C , 62-H ) :   0.9512
B( 38-C , 39-C ) :   1.1490 B( 38-C , 42-S ) :   1.0699 B( 39-C , 40-C ) :   1.5893
B( 39-C , 63-H ) :   1.0010 B( 40-C , 41-C ) :   1.1782 B( 40-C , 64-H ) :   0.9931
B( 41-C , 42-S ) :   1.0311 B( 41-C , 43-C ) :   1.5370 B( 43-C , 44-C ) :   1.1472
B( 43-C , 47-S ) :   1.0724 B( 44-C , 45-C ) :   1.6662 B( 44-C , 65-H ) :   0.9928
B( 45-C , 46-C ) :   1.0767 B( 45-C , 66-H ) :   0.9930 B( 46-C , 47-S ) :   1.0043
B( 46-C , 48-C ) :   1.8670 B( 48-C , 67-H ) :   0.9511 B( 48-C , 68-H ) :   0.9416

-----------------------------------------------------------------------------
         ABSORPTION SPECTRUM VIA TRANSITION ELECTRIC DIPOLE MOMENTS
-----------------------------------------------------------------------------
State   Energy  Wavelength   fosc         T2         TX        TY        TZ
        (cm-1)    (nm)                  (au**2)     (au)      (au)      (au)
-----------------------------------------------------------------------------
   0   10996.1    909.4   0.031441648   0.94133  -0.31663   0.70452  -0.58714
   1   13135.1    761.3   0.412149098  10.32989   1.11628  -2.82952  -1.03810
   2   16154.7    619.0   0.346410025   7.05938  -0.88892   2.31940   0.94319
   3   17158.9    582.8   0.004591967   0.08810   0.13531  -0.26210   0.03310
   4   17477.0    572.2   0.000269478   0.00508  -0.05614   0.03342   0.02841
   5   17913.1    558.2   0.203648335   3.74270  -0.75585   1.74557   0.35269
   6   18696.7    534.9   0.252364320   4.44363  -0.98472   1.35546  -1.27933
   7   18822.4    531.3   0.001795729   0.03141  -0.06395   0.01229  -0.16483
   8   22778.5    439.0   1.172146460  16.94074  -0.56216  -3.90347   1.17799
   9   23159.3    431.8   0.061713381   0.87726  -0.39495   0.80741   0.26337
  10   23282.2    429.5   0.108268262   1.53092  -0.32692   1.14676   0.33014
  11   23914.2    418.2   0.293391682   4.03893   1.05502  -1.70439  -0.14460
  12   26429.2    378.4   0.000172564   0.00215   0.01847  -0.04237  -0.00368
  13   26763.7    373.6   0.053909756   0.66313   0.19911  -0.71489  -0.33528
  14   27192.8    367.7   0.039273294   0.47547  -0.43269  -0.03791  -0.53555
  15   27782.3    359.9   0.157053337   1.86103   0.31473   0.79131   1.06575
  16   28071.1    356.2   0.170343759   1.99776  -0.71622   0.48899  -1.11610
  17   28362.6    352.6   0.103594103   1.20244   0.58434  -0.45223   0.81023
  18   28953.6    345.4   0.000404621   0.00460   0.03291   0.00206   0.05928
  19   29129.7    343.3   0.110513075   1.24898  -0.11912  -1.10461   0.12094
  20   29846.7    335.0   0.168244138   1.85575   0.47389  -0.67959   1.08136
  21   30004.2    333.3   0.109130428   1.19740  -0.62375   0.88601   0.15273
  22   30071.5    332.5   0.015469244   0.16935  -0.01153  -0.41096   0.01818
  23   30327.9    329.7   0.039294348   0.42654   0.23860  -0.20019   0.57405
  24   30854.0    324.1   0.030646907   0.32700   0.04850  -0.52511  -0.22116
  25   31141.4    321.1   0.174545852   1.84522  -0.40951   0.07115  -1.29323
  26   31624.5    316.2   0.141647644   1.47455   0.69559  -0.99522  -0.01544
  27   32006.0    312.4   0.000252474   0.00260   0.01161   0.02746   0.04133
  28   32014.1    312.4   0.002171366   0.02233   0.08901  -0.11554   0.03252
  29   32239.6    310.2   0.000024672   0.00025   0.00949  -0.00956  -0.00840
  30   32954.5    303.4   0.061457289   0.61395  -0.01729  -0.23565  -0.74708
  31   33081.1    302.3   0.000097104   0.00097  -0.00682  -0.01520   0.02624
  32   33233.8    300.9   0.003219692   0.03189  -0.13946   0.07326  -0.08413
  33   33660.1    297.1   0.015033392   0.14703   0.08291   0.08162   0.36537
  34   34087.2    293.4   0.007770974   0.07505  -0.00523  -0.26546  -0.06749
  35   34106.8    293.2   0.000089731   0.00087  -0.00956  -0.01312   0.02454
  36   34318.6    291.4   0.075614704   0.72536   0.21433  -0.53390  -0.62799
  37   34874.2    286.7   0.045540158   0.42990   0.20746  -0.52891  -0.32728
  38   34969.7    286.0   0.003746025   0.03527  -0.05897   0.13004   0.12198
  39   35764.0    279.6   0.152527214   1.40403  -0.72348   0.57672  -0.74027
  40   35958.1    278.1   0.087927850   0.80502   0.43573  -0.67195  -0.40453
  41   36140.5    276.7   0.285260678   2.59850  -0.54588   1.12955   1.01224
  42   36294.0    275.5   0.031867141   0.28906  -0.18480   0.42061  -0.27927
  43   36317.3    275.4   0.001346092   0.01220   0.08160  -0.04530   0.05909
  44   36586.2    273.3   0.161766217   1.45561  -0.68518   0.87165  -0.47579
  45   36907.0    271.0   0.037846707   0.33759   0.19244  -0.24450   0.49069
  46   37298.2    268.1   0.007842405   0.06922   0.05164  -0.16211  -0.20068
  47   37734.5    265.0   0.017561383   0.15321   0.03003  -0.25081  -0.29901
  48   38084.7    262.6   0.096249671   0.83200   0.17964   0.05770   0.89241
  49   38490.7    259.8   0.059911533   0.51242   0.29465  -0.42420  -0.49564
  50   38913.3    257.0   0.055156935   0.46664   0.40521  -0.46929   0.28671
  51   39190.0    255.2   0.321556065   2.70120  -0.23512   0.99206   1.28908
  52   39501.9    253.2   0.000726316   0.00605   0.03981  -0.04756   0.04697
  53   39573.2    252.7   0.007464264   0.06210   0.17923   0.00404   0.17308
  54   39623.9    252.4   0.140249339   1.16525   0.49096  -0.55336   0.78613
  55   39841.3    251.0   0.057029462   0.47124   0.13287  -0.42060  -0.52600
  56   40088.1    249.5   0.035460092   0.29121   0.17558  -0.04747   0.50806

FINAL SINGLE POINT ENERGY     -5257.421123812806

DIPOLE MOMENT
-------------
                                X             Y             Z
Electronic contribution:      5.91315      -7.02125     -23.75459
Nuclear contribution   :     -6.82267      10.56207      28.60521
                        -----------------------------------------
Total Dipole Moment    :     -0.90952       3.54083       4.85062
                        -----------------------------------------
Magnitude (a.u.)       :      6.07398
Magnitude (Debye)      :     15.43882

Rotational constants in cm-1:     0.002242     0.000409     0.000359
Rotational constants in MHz :    67.228407    12.275420    10.765441

                             ****ORCA TERMINATED NORMALLY****
TOTAL RUN TIME: 0 days 0 hours 4 minutes 14 seconds 674 msec
