                         Program Version 4.2.0 -  RELEASE  -
|  1> # ORCA input file
|  2> # SCF done       -191.970572023836          0.000789910398
|  3> ! CAM-B3LYP def2-SVP def2/J RIJCOSX Grid4 TightSCF
|  4> %maxcore 5000
|  5> %tddft
|  6>     Mode sTDDFT
|  7>     Ethresh 5.0
|  8>     maxcore 5000
|  9> end
| 10>
| 11> %pal
| 12>   nprocs 6
| 13>   end
| 14> * xyz 0 1
| 15>    C       13.51173        -2.51688        -0.50870
| 16>    C       12.19725        -2.39032        -0.74038
| 17>    C       11.53399        -1.38608        -1.51979
| 18>    C       10.18908        -1.52035        -1.57385
| 19>    C        9.68351        -2.63100        -0.84536
| 20>    S       10.99100        -3.50871        -0.08395
| 21>    C        8.36497        -3.01487        -0.72084
| 22>    C        7.22081        -2.40987        -1.28312
| 23>    C        6.05576        -3.04482        -0.97339
| 24>    C        6.20062        -4.18169        -0.14201
| 25>    S        7.89895        -4.41300         0.22756
| 26>    C        5.14272        -5.00661         0.18955
| 27>    C        5.03512        -6.16152         0.96205
| 28>    S        3.62233        -7.14918         0.64224
| 29>    C        4.09983        -8.40080         1.75555
| 30>    C        5.30051        -8.02617         2.40688
| 31>    C        5.81587        -6.76180         1.98058
| 32>    C        6.92547        -6.22326         2.64101
| 33>    C        7.56152        -6.94410         3.63055
| 34>    C        8.68319        -6.39411         4.28961
| 35>    N        9.59279        -5.93810         4.81774
| 36>    C        7.08919        -8.23427         4.00123
| 37>    C        7.75897        -8.97165         5.00179
| 38>    N        8.28551        -9.59162         5.81005
| 39>    C        5.96108        -8.75459         3.40097
| 40>    C        3.36012        -9.56751         1.91424
| 41>    C        2.22109        -9.85296         1.18993
| 42>    C        1.48550       -11.02393         1.29139
| 43>    C        0.38958       -11.30690         0.49356
| 44>    C       -0.38524       -12.48284         0.47683
| 45>    C       -1.36911       -12.49573        -0.47317
| 46>    C       -1.42237       -11.32251        -1.25008
| 47>    S       -0.19470       -10.19147        -0.72512
| 48>    C       -2.25220       -11.02383        -2.31622
| 49>    C       -3.21323       -11.85004        -2.94166
| 50>    C       -3.81402       -11.28331        -4.02187
| 51>    C       -3.37126        -9.96192        -4.31329
| 52>    S       -2.16663        -9.47197        -3.11919
| 53>    C       -3.71043        -9.19613        -5.38399
| 54>    C       -3.27099        -7.83537        -5.58039
| 55>    C       -3.27394        -6.93598        -4.55174
| 56>    S       -2.83260        -5.33824        -4.99561
| 57>    C       -2.59544        -5.85769        -6.63533
| 58>    C       -2.83986        -7.22796        -6.81786
| 59>    C       -2.51007        -7.82701        -8.05448
| 60>    C       -2.61979        -9.31667        -8.18876
| 61>    C       -2.06211        -7.04600        -9.11380
| 62>    C       -1.53621        -7.69639       -10.36018
| 63>    C       -2.00890        -5.63864        -8.97548
| 64>    C       -2.19426        -5.07399        -7.70330
| 65>    S       -1.83686        -3.37210        -7.65535
| 66>    C       -1.47883        -3.39696        -9.32827
| 67>    C       -1.65578        -4.61369        -9.93190
| 68>    C       -1.60414        -4.69133       -11.36777
| 69>    C       -2.48163        -5.38206       -12.13250
| 70>    C       -2.45366        -5.42316       -13.55007
| 71>    C       -1.33875        -5.37919       -14.34133
| 72>    C       -1.33632        -5.34046       -15.79093
| 73>    C       -2.37588        -4.93532       -16.58875
| 74>    C       -2.32107        -4.89683       -17.99649
| 75>    N       -2.33239        -4.85785       -19.14411
| 76>    C       -3.61665        -4.46780       -16.10793
| 77>    N       -4.63929        -4.05374       -15.78896
| 78>    C       -0.00560        -5.71723       -16.24818
| 79>    C        0.81848        -5.92077       -15.11480
| 80>    C        0.04175        -5.67266       -13.88395
| 81>    O        0.46303        -5.76285       -12.74939
| 82>    C        2.13953        -6.28403       -15.21404
| 83>    C        2.67455        -6.45253       -16.49522
| 84>    C        1.84346        -6.24821       -17.62262
| 85>    C        0.50688        -5.88205       -17.52163
| 86>    S        2.70635        -6.51110       -19.10778
| 87>    C        4.15182        -6.88487       -18.20653
| 88>    C        3.99860        -6.81761       -16.86284
| 89>   Br        5.72628        -7.32847       -19.12445
| 90>    H       14.21223        -1.81495        -0.92557
| 91>    H       13.90490        -3.31150         0.09839
| 92>    H       12.09524        -0.60723        -2.00456
| 93>    H        9.53436        -0.85787        -2.11174
| 94>    H        7.28440        -1.53277        -1.90123
| 95>    H        5.08668        -2.72914        -1.31830
| 96>    H        4.22339        -4.74700        -0.32649
| 97>    H        7.28057        -5.23515         2.40390
| 98>    H        5.58969        -9.71873         3.71309
| 99>    H        3.71703       -10.29487         2.63040
|100>    H        1.88490        -9.11694         0.46846
|101>    H        1.78628       -11.77696         2.00802
|102>    H       -0.19126       -13.29296         1.15787
|103>    H       -2.04755       -13.31512        -0.62994
|104>    H       -3.41758       -12.84510        -2.58843
|105>    H       -4.55821       -11.76650        -4.63013
|106>    H       -4.38262        -9.61817        -6.11724
|107>    H       -3.57887        -7.12057        -3.54044
|108>    H       -2.40822        -9.79829        -7.23703
|109>    H       -1.92955        -9.70694        -8.92920
|110>    H       -3.62777        -9.59300        -8.49958
|111>    H       -2.33743        -8.12169       -10.96362
|112>    H       -0.85472        -8.50309       -10.09445
|113>    H       -0.97780        -6.98940       -10.96303
|114>    H       -1.22169        -2.47735        -9.81819
|115>    H       -0.89629        -4.02838       -11.84429
|116>    H       -3.30775        -5.88893       -11.65130
|117>    H       -3.41282        -5.56292       -14.03477
|118>    H        2.74171        -6.43109       -14.33114
|119>    H       -0.08735        -5.74308       -18.40931
|120>    H        4.78532        -7.01692       -16.15831
|121> *
|122>
|123>                          ****END OF INPUT****

CARTESIAN COORDINATES (ANGSTROEM)
---------------------------------
  C     13.511730   -2.516880   -0.508700
  C     12.197250   -2.390320   -0.740380
  C     11.533990   -1.386080   -1.519790
  C     10.189080   -1.520350   -1.573850
  C      9.683510   -2.631000   -0.845360
  S     10.991000   -3.508710   -0.083950
  C      8.364970   -3.014870   -0.720840
  C      7.220810   -2.409870   -1.283120
  C      6.055760   -3.044820   -0.973390
  C      6.200620   -4.181690   -0.142010
  S      7.898950   -4.413000    0.227560
  C      5.142720   -5.006610    0.189550
  C      5.035120   -6.161520    0.962050
  S      3.622330   -7.149180    0.642240
  C      4.099830   -8.400800    1.755550
  C      5.300510   -8.026170    2.406880
  C      5.815870   -6.761800    1.980580
  C      6.925470   -6.223260    2.641010
  C      7.561520   -6.944100    3.630550
  C      8.683190   -6.394110    4.289610
  N      9.592790   -5.938100    4.817740
  C      7.089190   -8.234270    4.001230
  C      7.758970   -8.971650    5.001790
  N      8.285510   -9.591620    5.810050
  C      5.961080   -8.754590    3.400970
  C      3.360120   -9.567510    1.914240
  C      2.221090   -9.852960    1.189930
  C      1.485500  -11.023930    1.291390
  C      0.389580  -11.306900    0.493560
  C     -0.385240  -12.482840    0.476830
  C     -1.369110  -12.495730   -0.473170
  C     -1.422370  -11.322510   -1.250080
  S     -0.194700  -10.191470   -0.725120
  C     -2.252200  -11.023830   -2.316220
  C     -3.213230  -11.850040   -2.941660
  C     -3.814020  -11.283310   -4.021870
  C     -3.371260   -9.961920   -4.313290
  S     -2.166630   -9.471970   -3.119190
  C     -3.710430   -9.196130   -5.383990
  C     -3.270990   -7.835370   -5.580390
  C     -3.273940   -6.935980   -4.551740
  S     -2.832600   -5.338240   -4.995610
  C     -2.595440   -5.857690   -6.635330
  C     -2.839860   -7.227960   -6.817860
  C     -2.510070   -7.827010   -8.054480
  C     -2.619790   -9.316670   -8.188760
  C     -2.062110   -7.046000   -9.113800
  C     -1.536210   -7.696390  -10.360180
  C     -2.008900   -5.638640   -8.975480
  C     -2.194260   -5.073990   -7.703300
  S     -1.836860   -3.372100   -7.655350
  C     -1.478830   -3.396960   -9.328270
  C     -1.655780   -4.613690   -9.931900
  C     -1.604140   -4.691330  -11.367770
  C     -2.481630   -5.382060  -12.132500
  C     -2.453660   -5.423160  -13.550070
  C     -1.338750   -5.379190  -14.341330
  C     -1.336320   -5.340460  -15.790930
  C     -2.375880   -4.935320  -16.588750
  C     -2.321070   -4.896830  -17.996490
  N     -2.332390   -4.857850  -19.144110
  C     -3.616650   -4.467800  -16.107930
  N     -4.639290   -4.053740  -15.788960
  C     -0.005600   -5.717230  -16.248180
  C      0.818480   -5.920770  -15.114800
  C      0.041750   -5.672660  -13.883950
  O      0.463030   -5.762850  -12.749390
  C      2.139530   -6.284030  -15.214040
  C      2.674550   -6.452530  -16.495220
  C      1.843460   -6.248210  -17.622620
  C      0.506880   -5.882050  -17.521630
  S      2.706350   -6.511100  -19.107780
  C      4.151820   -6.884870  -18.206530
  C      3.998600   -6.817610  -16.862840
  Br     5.726280   -7.328470  -19.124450
  H     14.212230   -1.814950   -0.925570
  H     13.904900   -3.311500    0.098390
  H     12.095240   -0.607230   -2.004560
  H      9.534360   -0.857870   -2.111740
  H      7.284400   -1.532770   -1.901230
  H      5.086680   -2.729140   -1.318300
  H      4.223390   -4.747000   -0.326490
  H      7.280570   -5.235150    2.403900
  H      5.589690   -9.718730    3.713090
  H      3.717030  -10.294870    2.630400
  H      1.884900   -9.116940    0.468460
  H      1.786280  -11.776960    2.008020
  H     -0.191260  -13.292960    1.157870
  H     -2.047550  -13.315120   -0.629940
  H     -3.417580  -12.845100   -2.588430
  H     -4.558210  -11.766500   -4.630130
  H     -4.382620   -9.618170   -6.117240
  H     -3.578870   -7.120570   -3.540440
  H     -2.408220   -9.798290   -7.237030
  H     -1.929550   -9.706940   -8.929200
  H     -3.627770   -9.593000   -8.499580
  H     -2.337430   -8.121690  -10.963620
  H     -0.854720   -8.503090  -10.094450
  H     -0.977800   -6.989400  -10.963030
  H     -1.221690   -2.477350   -9.818190
  H     -0.896290   -4.028380  -11.844290
  H     -3.307750   -5.888930  -11.651300
  H     -3.412820   -5.562920  -14.034770
  H      2.741710   -6.431090  -14.331140
  H     -0.087350   -5.743080  -18.409310
  H      4.785320   -7.016920  -16.158310

 Total Charge           Charge          ....    0
 Multiplicity           Mult            ....    1
 Number of Electrons    NEL             ....  596
 Basis Dimension        Dim             .... 1255

ORBITAL ENERGIES
----------------

  NO   OCC          E(Eh)            E(eV)
   0   2.0000    -482.887844    -13140.0463
   1   2.0000     -88.977833     -2421.2099
   2   2.0000     -88.968078     -2420.9445
   3   2.0000     -88.966188     -2420.8930
   4   2.0000     -88.959514     -2420.7114
   5   2.0000     -88.951708     -2420.4990
   6   2.0000     -88.947888     -2420.3951
   7   2.0000     -88.947639     -2420.3883
   8   2.0000     -88.942465     -2420.2475
   9   2.0000     -62.565545     -1702.4950
  10   2.0000     -56.399501     -1534.7085
  11   2.0000     -56.396775     -1534.6343
  12   2.0000     -56.396748     -1534.6335
  13   2.0000     -19.219712      -522.9950
  14   2.0000     -14.415207      -392.2577
  15   2.0000     -14.413773      -392.2187
  16   2.0000     -14.398958      -391.8156
  17   2.0000     -14.396597      -391.7513
  18   2.0000     -10.371655      -282.2271
  19   2.0000     -10.361318      -281.9458
  20   2.0000     -10.341537      -281.4075
  21   2.0000     -10.340651      -281.3834
  22   2.0000     -10.328066      -281.0410
  23   2.0000     -10.319254      -280.8012
  24   2.0000     -10.318469      -280.7798
  25   2.0000     -10.318148      -280.7711
  26   2.0000     -10.317533      -280.7544
  27   2.0000     -10.317289      -280.7477
  28   2.0000     -10.316772      -280.7336
  29   2.0000     -10.316454      -280.7250
  30   2.0000     -10.316304      -280.7209
  31   2.0000     -10.315485      -280.6986
  32   2.0000     -10.314532      -280.6727
  33   2.0000     -10.312910      -280.6285
  34   2.0000     -10.312614      -280.6205
  35   2.0000     -10.312337      -280.6130
  36   2.0000     -10.311597      -280.5928
  37   2.0000     -10.311117      -280.5798
  38   2.0000     -10.310069      -280.5512
  39   2.0000     -10.309894      -280.5465
  40   2.0000     -10.309533      -280.5367
  41   2.0000     -10.308180      -280.4998
  42   2.0000     -10.307734      -280.4877
  43   2.0000     -10.306777      -280.4617
  44   2.0000     -10.305857      -280.4366
  45   2.0000     -10.303665      -280.3770
  46   2.0000     -10.303379      -280.3692
  47   2.0000     -10.301598      -280.3207
  48   2.0000     -10.299356      -280.2597
  49   2.0000     -10.299071      -280.2520
  50   2.0000     -10.298456      -280.2352
  51   2.0000     -10.297954      -280.2216
  52   2.0000     -10.297646      -280.2132
  53   2.0000     -10.296620      -280.1853
  54   2.0000     -10.295625      -280.1582
  55   2.0000     -10.294835      -280.1367
  56   2.0000     -10.294362      -280.1238
  57   2.0000     -10.294027      -280.1147
  58   2.0000     -10.292999      -280.0867
  59   2.0000     -10.292220      -280.0655
  60   2.0000     -10.291998      -280.0595
  61   2.0000     -10.291546      -280.0472
  62   2.0000     -10.290906      -280.0298
  63   2.0000     -10.290204      -280.0107
  64   2.0000     -10.289981      -280.0046
  65   2.0000     -10.289510      -279.9918
  66   2.0000     -10.288569      -279.9662
  67   2.0000     -10.287300      -279.9317
  68   2.0000     -10.287055      -279.9250
  69   2.0000     -10.286938      -279.9218
  70   2.0000     -10.285011      -279.8694
  71   2.0000     -10.284343      -279.8512
  72   2.0000     -10.284067      -279.8437
  73   2.0000     -10.283105      -279.8175
  74   2.0000     -10.282654      -279.8052
  75   2.0000     -10.281879      -279.7842
  76   2.0000     -10.274864      -279.5933
  77   2.0000     -10.265524      -279.3391
  78   2.0000     -10.258990      -279.1613
  79   2.0000      -8.794963      -239.3231
  80   2.0000      -8.073832      -219.7001
  81   2.0000      -8.063363      -219.4153
  82   2.0000      -8.062340      -219.3874
  83   2.0000      -8.055594      -219.2039
  84   2.0000      -8.047617      -218.9868
  85   2.0000      -8.044095      -218.8909
  86   2.0000      -8.043983      -218.8879
  87   2.0000      -8.039228      -218.7585
  88   2.0000      -6.631284      -180.4464
  89   2.0000      -6.616702      -180.0496
  90   2.0000      -6.616472      -180.0434
  91   2.0000      -6.043529      -164.4528
  92   2.0000      -6.039243      -164.3362
  93   2.0000      -6.035040      -164.2218
  94   2.0000      -6.032420      -164.1505
  95   2.0000      -6.031764      -164.1326
  96   2.0000      -6.028483      -164.0434
  97   2.0000      -6.027536      -164.0176
  98   2.0000      -6.025769      -163.9695
  99   2.0000      -6.025132      -163.9522
 100   2.0000      -6.024140      -163.9252
 101   2.0000      -6.020826      -163.8350
 102   2.0000      -6.017355      -163.7406
 103   2.0000      -6.017306      -163.7392
 104   2.0000      -6.013809      -163.6441
 105   2.0000      -6.013752      -163.6425
 106   2.0000      -6.013237      -163.6285
 107   2.0000      -6.009801      -163.5350
 108   2.0000      -6.009744      -163.5335
 109   2.0000      -6.009021      -163.5138
 110   2.0000      -6.008605      -163.5025
 111   2.0000      -6.005072      -163.4063
 112   2.0000      -6.005015      -163.4048
 113   2.0000      -6.004744      -163.3974
 114   2.0000      -5.999796      -163.2628
 115   2.0000      -2.747141       -74.7535
 116   2.0000      -2.743046       -74.6421
 117   2.0000      -2.742921       -74.6387
 118   2.0000      -2.731315       -74.3229
 119   2.0000      -2.731291       -74.3222
 120   2.0000      -1.134868       -30.8813
 121   2.0000      -1.024449       -27.8767
 122   2.0000      -1.013549       -27.5801
 123   2.0000      -1.011788       -27.5321
 124   2.0000      -1.011152       -27.5148
 125   2.0000      -0.999507       -27.1980
 126   2.0000      -0.997278       -27.1373
 127   2.0000      -0.993140       -27.0247
 128   2.0000      -0.990600       -26.9556
 129   2.0000      -0.988929       -26.9101
 130   2.0000      -0.983821       -26.7711
 131   2.0000      -0.978268       -26.6200
 132   2.0000      -0.975142       -26.5350
 133   2.0000      -0.973717       -26.4962
 134   2.0000      -0.950059       -25.8524
 135   2.0000      -0.946153       -25.7461
 136   2.0000      -0.928076       -25.2542
 137   2.0000      -0.923618       -25.1329
 138   2.0000      -0.920755       -25.0550
 139   2.0000      -0.909769       -24.7561
 140   2.0000      -0.904067       -24.6009
 141   2.0000      -0.895102       -24.3570
 142   2.0000      -0.888458       -24.1762
 143   2.0000      -0.886843       -24.1322
 144   2.0000      -0.882000       -24.0004
 145   2.0000      -0.868730       -23.6393
 146   2.0000      -0.865030       -23.5387
 147   2.0000      -0.862726       -23.4760
 148   2.0000      -0.856343       -23.3023
 149   2.0000      -0.850081       -23.1319
 150   2.0000      -0.848483       -23.0884
 151   2.0000      -0.845548       -23.0085
 152   2.0000      -0.840738       -22.8776
 153   2.0000      -0.831431       -22.6244
 154   2.0000      -0.827619       -22.5207
 155   2.0000      -0.825462       -22.4620
 156   2.0000      -0.822213       -22.3736
 157   2.0000      -0.813391       -22.1335
 158   2.0000      -0.804817       -21.9002
 159   2.0000      -0.789532       -21.4843
 160   2.0000      -0.783486       -21.3197
 161   2.0000      -0.774120       -21.0649
 162   2.0000      -0.765340       -20.8260
 163   2.0000      -0.759473       -20.6663
 164   2.0000      -0.749279       -20.3889
 165   2.0000      -0.746388       -20.3103
 166   2.0000      -0.740013       -20.1368
 167   2.0000      -0.736492       -20.0410
 168   2.0000      -0.718847       -19.5608
 169   2.0000      -0.705736       -19.2041
 170   2.0000      -0.701843       -19.0981
 171   2.0000      -0.697258       -18.9733
 172   2.0000      -0.692199       -18.8357
 173   2.0000      -0.689725       -18.7684
 174   2.0000      -0.684459       -18.6251
 175   2.0000      -0.674635       -18.3577
 176   2.0000      -0.665128       -18.0990
 177   2.0000      -0.662764       -18.0347
 178   2.0000      -0.661298       -17.9948
 179   2.0000      -0.656146       -17.8546
 180   2.0000      -0.649724       -17.6799
 181   2.0000      -0.643967       -17.5232
 182   2.0000      -0.634208       -17.2577
 183   2.0000      -0.631925       -17.1956
 184   2.0000      -0.628107       -17.0917
 185   2.0000      -0.624977       -17.0065
 186   2.0000      -0.623956       -16.9787
 187   2.0000      -0.622915       -16.9504
 188   2.0000      -0.618934       -16.8421
 189   2.0000      -0.616479       -16.7752
 190   2.0000      -0.603940       -16.4341
 191   2.0000      -0.600622       -16.3438
 192   2.0000      -0.600218       -16.3328
 193   2.0000      -0.594684       -16.1822
 194   2.0000      -0.593103       -16.1392
 195   2.0000      -0.589485       -16.0407
 196   2.0000      -0.585091       -15.9211
 197   2.0000      -0.580586       -15.7986
 198   2.0000      -0.565345       -15.3838
 199   2.0000      -0.563041       -15.3211
 200   2.0000      -0.554211       -15.0809
 201   2.0000      -0.550344       -14.9756
 202   2.0000      -0.547375       -14.8948
 203   2.0000      -0.544677       -14.8214
 204   2.0000      -0.541586       -14.7373
 205   2.0000      -0.538995       -14.6668
 206   2.0000      -0.537168       -14.6171
 207   2.0000      -0.535254       -14.5650
 208   2.0000      -0.533479       -14.5167
 209   2.0000      -0.528820       -14.3899
 210   2.0000      -0.526349       -14.3227
 211   2.0000      -0.522841       -14.2272
 212   2.0000      -0.520409       -14.1611
 213   2.0000      -0.519348       -14.1322
 214   2.0000      -0.516510       -14.0550
 215   2.0000      -0.514669       -14.0048
 216   2.0000      -0.512039       -13.9333
 217   2.0000      -0.510430       -13.8895
 218   2.0000      -0.508079       -13.8255
 219   2.0000      -0.507092       -13.7987
 220   2.0000      -0.501216       -13.6388
 221   2.0000      -0.499134       -13.5821
 222   2.0000      -0.498899       -13.5757
 223   2.0000      -0.496585       -13.5128
 224   2.0000      -0.496027       -13.4976
 225   2.0000      -0.495333       -13.4787
 226   2.0000      -0.492469       -13.4008
 227   2.0000      -0.488825       -13.3016
 228   2.0000      -0.487963       -13.2781
 229   2.0000      -0.487379       -13.2623
 230   2.0000      -0.483545       -13.1579
 231   2.0000      -0.480398       -13.0723
 232   2.0000      -0.479801       -13.0561
 233   2.0000      -0.478536       -13.0216
 234   2.0000      -0.477043       -12.9810
 235   2.0000      -0.472591       -12.8599
 236   2.0000      -0.468816       -12.7571
 237   2.0000      -0.466725       -12.7002
 238   2.0000      -0.465252       -12.6601
 239   2.0000      -0.463652       -12.6166
 240   2.0000      -0.461287       -12.5522
 241   2.0000      -0.460289       -12.5251
 242   2.0000      -0.456816       -12.4306
 243   2.0000      -0.454677       -12.3724
 244   2.0000      -0.450742       -12.2653
 245   2.0000      -0.449050       -12.2193
 246   2.0000      -0.447961       -12.1896
 247   2.0000      -0.447080       -12.1657
 248   2.0000      -0.445014       -12.1094
 249   2.0000      -0.444218       -12.0878
 250   2.0000      -0.443100       -12.0574
 251   2.0000      -0.440431       -11.9847
 252   2.0000      -0.437517       -11.9054
 253   2.0000      -0.435708       -11.8562
 254   2.0000      -0.434839       -11.8326
 255   2.0000      -0.432421       -11.7668
 256   2.0000      -0.430664       -11.7190
 257   2.0000      -0.426964       -11.6183
 258   2.0000      -0.426515       -11.6061
 259   2.0000      -0.425000       -11.5649
 260   2.0000      -0.424575       -11.5533
 261   2.0000      -0.423467       -11.5231
 262   2.0000      -0.422740       -11.5033
 263   2.0000      -0.418343       -11.3837
 264   2.0000      -0.418055       -11.3759
 265   2.0000      -0.408918       -11.1272
 266   2.0000      -0.405203       -11.0261
 267   2.0000      -0.404955       -11.0194
 268   2.0000      -0.403644       -10.9837
 269   2.0000      -0.401381       -10.9221
 270   2.0000      -0.400665       -10.9027
 271   2.0000      -0.399685       -10.8760
 272   2.0000      -0.396260       -10.7828
 273   2.0000      -0.393205       -10.6996
 274   2.0000      -0.388592       -10.5741
 275   2.0000      -0.384482       -10.4623
 276   2.0000      -0.378700       -10.3050
 277   2.0000      -0.377191       -10.2639
 278   2.0000      -0.369988       -10.0679
 279   2.0000      -0.362255        -9.8575
 280   2.0000      -0.348238        -9.4760
 281   2.0000      -0.343348        -9.3430
 282   2.0000      -0.342095        -9.3089
 283   2.0000      -0.340954        -9.2778
 284   2.0000      -0.336579        -9.1588
 285   2.0000      -0.335246        -9.1225
 286   2.0000      -0.329285        -8.9603
 287   2.0000      -0.323325        -8.7981
 288   2.0000      -0.321068        -8.7367
 289   2.0000      -0.318039        -8.6543
 290   2.0000      -0.311012        -8.4631
 291   2.0000      -0.303583        -8.2609
 292   2.0000      -0.294680        -8.0187
 293   2.0000      -0.282812        -7.6957
 294   2.0000      -0.267918        -7.2904
 295   2.0000      -0.266948        -7.2640
 296   2.0000      -0.232368        -6.3231
 297   2.0000      -0.195868        -5.3298
 298   0.0000      -0.101713        -2.7678
 299   0.0000      -0.089783        -2.4431
 300   0.0000      -0.066529        -1.8103
 301   0.0000      -0.062416        -1.6984
 302   0.0000      -0.040894        -1.1128

MULLIKEN ATOMIC CHARGES
-----------------------
   0 C :   -0.020657
   1 C :   -0.069567
   2 C :    0.055188
   3 C :    0.029271
   4 C :   -0.063930
   5 S :    0.098205
   6 C :   -0.056882
   7 C :    0.036110
   8 C :    0.024433
   9 C :   -0.028999
  10 S :    0.087530
  11 C :   -0.007607
  12 C :   -0.121111
  13 S :    0.135484
  14 C :   -0.067623
  15 C :    0.117525
  16 C :    0.141523
  17 C :   -0.057481
  18 C :   -0.082684
  19 C :   -0.179080
  20 N :    0.167859
  21 C :   -0.077351
  22 C :   -0.178411
  23 N :    0.165638
  24 C :   -0.056498
  25 C :   -0.019318
  26 C :   -0.002575
  27 C :   -0.007102
  28 C :   -0.020115
  29 C :    0.029657
  30 C :    0.025736
  31 C :   -0.047174
  32 S :    0.069255
  33 C :   -0.053722
  34 C :    0.034103
  35 C :    0.035527
  36 C :   -0.036942
  37 S :    0.079822
  38 C :   -0.046789
  39 C :    0.033613
  40 C :   -0.108146
  41 S :    0.133097
  42 C :   -0.133373
  43 C :    0.103315
  44 C :   -0.160697
  45 C :    0.085336
  46 C :   -0.153027
  47 C :    0.092317
  48 C :    0.101876
  49 C :   -0.152210
  50 S :    0.146000
  51 C :   -0.093330
  52 C :    0.039273
  53 C :    0.060794
  54 C :   -0.019381
  55 C :    0.009543
  56 C :   -0.108967
  57 C :    0.291335
  58 C :   -0.337836
  59 C :   -0.184182
  60 N :    0.144132
  61 C :   -0.209036
  62 N :    0.162203
  63 C :    0.016789
  64 C :   -0.010305
  65 C :    0.150636
  66 O :   -0.158709
  67 C :   -0.072297
  68 C :    0.115725
  69 C :   -0.088475
  70 C :   -0.021846
  71 S :    0.186905
  72 C :   -0.124802
  73 C :    0.040773
  74 Br:    0.024374
  75 H :    0.023617
  76 H :    0.030323
  77 H :   -0.008071
  78 H :   -0.010571
  79 H :   -0.012093
  80 H :   -0.011720
  81 H :   -0.010833
  82 H :   -0.006230
  83 H :   -0.010587
  84 H :   -0.013236
  85 H :    0.007626
  86 H :   -0.015699
  87 H :   -0.010988
  88 H :   -0.012151
  89 H :   -0.012463
  90 H :   -0.010393
  91 H :    0.006698
  92 H :    0.032391
  93 H :    0.040410
  94 H :    0.003058
  95 H :    0.028018
  96 H :    0.011877
  97 H :    0.029742
  98 H :    0.034793
  99 H :    0.027081
 100 H :    0.015309
 101 H :    0.009825
 102 H :    0.031498
 103 H :   -0.011561
 104 H :   -0.005362
 105 H :   -0.002974
Sum of atomic charges:   -0.0000000

LOEWDIN ATOMIC CHARGES
----------------------
   0 C :   -0.063306
   1 C :   -0.141059
   2 C :   -0.024963
   3 C :   -0.028411
   4 C :   -0.169678
   5 S :    0.366173
   6 C :   -0.187061
   7 C :   -0.032040
   8 C :   -0.037123
   9 C :   -0.146989
  10 S :    0.399298
  11 C :   -0.093037
  12 C :   -0.159464
  13 S :    0.466617
  14 C :   -0.161804
  15 C :   -0.042635
  16 C :   -0.049047
  17 C :    0.025564
  18 C :   -0.059671
  19 C :   -0.031457
  20 N :   -0.044461
  21 C :   -0.058557
  22 C :   -0.031762
  23 N :   -0.044798
  24 C :    0.030510
  25 C :   -0.052057
  26 C :   -0.030296
  27 C :   -0.060970
  28 C :   -0.141018
  29 C :   -0.038996
  30 C :   -0.030142
  31 C :   -0.183315
  32 S :    0.374661
  33 C :   -0.176055
  34 C :   -0.031232
  35 C :   -0.031434
  36 C :   -0.144830
  37 S :    0.373564
  38 C :   -0.046586
  39 C :   -0.071737
  40 C :   -0.168852
  41 S :    0.419755
  42 C :   -0.178896
  43 C :   -0.040003
  44 C :   -0.022280
  45 C :   -0.046697
  46 C :   -0.025925
  47 C :   -0.049932
  48 C :   -0.041381
  49 C :   -0.177963
  50 S :    0.431809
  51 C :   -0.147685
  52 C :   -0.065880
  53 C :    0.068253
  54 C :   -0.055806
  55 C :    0.076101
  56 C :   -0.106710
  57 C :    0.075213
  58 C :   -0.142612
  59 C :   -0.018330
  60 N :   -0.055452
  61 C :   -0.025825
  62 N :   -0.052034
  63 C :   -0.020736
  64 C :   -0.050625
  65 C :    0.085296
  66 O :   -0.145587
  67 C :    0.021471
  68 C :   -0.033230
  69 C :   -0.143567
  70 C :   -0.009741
  71 S :    0.433179
  72 C :   -0.271378
  73 C :   -0.070603
  74 Br:    0.137357
  75 H :    0.030413
  76 H :    0.029908
  77 H :    0.034772
  78 H :    0.032766
  79 H :    0.032316
  80 H :    0.033114
  81 H :    0.034753
  82 H :    0.022874
  83 H :    0.040381
  84 H :    0.032816
  85 H :    0.014362
  86 H :    0.033373
  87 H :    0.034000
  88 H :    0.032065
  89 H :    0.032421
  90 H :    0.033688
  91 H :    0.034890
  92 H :    0.021114
  93 H :    0.036522
  94 H :    0.030304
  95 H :    0.035630
  96 H :    0.030442
  97 H :    0.034075
  98 H :    0.033273
  99 H :    0.027777
 100 H :    0.037995
 101 H :    0.036224
 102 H :    0.045932
 103 H :    0.040474
 104 H :    0.041296
 105 H :    0.038930

  Mayer bond orders larger than 0.100000
B(  0-C ,  1-C ) :   1.8588 B(  0-C , 75-H ) :   0.9512 B(  0-C , 76-H ) :   0.9415
B(  1-C ,  2-C ) :   1.0830 B(  1-C ,  5-S ) :   1.0073 B(  2-C ,  3-C ) :   1.6543
B(  2-C , 77-H ) :   0.9927 B(  3-C ,  4-C ) :   1.1591 B(  3-C , 78-H ) :   0.9924
B(  4-C ,  5-S ) :   1.0599 B(  4-C ,  6-C ) :   1.5270 B(  6-C ,  7-C ) :   1.1872
B(  6-C , 10-S ) :   1.0369 B(  7-C ,  8-C ) :   1.5768 B(  7-C , 79-H ) :   0.9920
B(  8-C ,  9-C ) :   1.1629 B(  8-C , 80-H ) :   0.9990 B(  9-C , 10-S ) :   1.0411
B(  9-C , 11-C ) :   1.5563 B( 11-C , 12-C ) :   1.2332 B( 11-C , 81-H ) :   0.9333
B( 12-C , 13-S ) :   1.1353 B( 12-C , 16-C ) :   1.2651 B( 13-S , 14-C ) :   1.1144
B( 14-C , 15-C ) :   1.2539 B( 14-C , 25-C ) :   1.2573 B( 15-C , 16-C ) :   1.2034
B( 15-C , 24-C ) :   1.2288 B( 16-C , 17-C ) :   1.2183 B( 17-C , 18-C ) :   1.5478
B( 17-C , 82-H ) :   0.9739 B( 18-C , 19-C ) :   1.0837 B( 18-C , 21-C ) :   1.2566
B( 19-C , 20-N ) :   3.0402 B( 21-C , 22-C ) :   1.0809 B( 21-C , 24-C ) :   1.5370
B( 22-C , 23-N ) :   3.0419 B( 24-C , 83-H ) :   0.9969 B( 25-C , 26-C ) :   1.5113
B( 25-C , 84-H ) :   0.9762 B( 26-C , 27-C ) :   1.2335 B( 26-C , 85-H ) :   0.9677
B( 27-C , 28-C ) :   1.4853 B( 27-C , 86-H ) :   0.9873 B( 28-C , 29-C ) :   1.1780
B( 28-C , 32-S ) :   1.0466 B( 29-C , 30-C ) :   1.5543 B( 29-C , 87-H ) :   0.9996
B( 30-C , 31-C ) :   1.2114 B( 30-C , 88-H ) :   0.9939 B( 31-C , 32-S ) :   1.0451
B( 31-C , 33-C ) :   1.4929 B( 33-C , 34-C ) :   1.1839 B( 33-C , 37-S ) :   1.0456
B( 34-C , 35-C ) :   1.6082 B( 34-C , 89-H ) :   0.9935 B( 35-C , 36-C ) :   1.1141
B( 35-C , 90-H ) :   0.9988 B( 36-C , 37-S ) :   1.0241 B( 36-C , 38-C ) :   1.6770
B( 38-C , 39-C ) :   1.0100 B( 38-C , 91-H ) :   0.9620 B( 39-C , 40-C ) :   1.6009
B( 39-C , 43-C ) :   1.1530 B( 40-C , 41-S ) :   1.1230 B( 40-C , 92-H ) :   0.9593
B( 41-S , 42-C ) :   1.0753 B( 42-C , 43-C ) :   1.3698 B( 42-C , 49-C ) :   1.3809
B( 43-C , 44-C ) :   1.2782 B( 44-C , 45-C ) :   1.0974 B( 44-C , 46-C ) :   1.4911
B( 45-C , 93-H ) :   0.9408 B( 45-C , 94-H ) :   0.9328 B( 45-C , 95-H ) :   0.9449
B( 46-C , 47-C ) :   1.1029 B( 46-C , 48-C ) :   1.2782 B( 47-C , 96-H ) :   0.9322
B( 47-C , 97-H ) :   0.9412 B( 47-C , 98-H ) :   0.9342 B( 48-C , 49-C ) :   1.3789
B( 48-C , 52-C ) :   1.1251 B( 49-C , 50-S ) :   1.0686 B( 50-S , 51-C ) :   1.1465
B( 51-C , 52-C ) :   1.5575 B( 51-C , 99-H ) :   0.9682 B( 52-C , 53-C ) :   1.0975
B( 53-C , 54-C ) :   1.6794 B( 53-C ,100-H ) :   0.9525 B( 54-C , 55-C ) :   1.1939
B( 54-C ,101-H ) :   0.9501 B( 55-C , 56-C ) :   1.5834 B( 55-C ,102-H ) :   0.9528
B( 56-C , 57-C ) :   1.0637 B( 56-C , 65-C ) :   0.9474 B( 57-C , 58-C ) :   1.6434
B( 57-C , 63-C ) :   1.0069 B( 58-C , 59-C ) :   1.1376 B( 58-C , 61-C ) :   1.1402
B( 59-C , 60-N ) :   2.9721 B( 61-C , 62-N ) :   3.0058 B( 63-C , 64-C ) :   1.2741
B( 63-C , 70-C ) :   1.4102 B( 64-C , 65-C ) :   0.9550 B( 64-C , 67-C ) :   1.4202
B( 65-C , 66-O ) :   2.1584 B( 67-C , 68-C ) :   1.2452 B( 67-C ,103-H ) :   1.0178
B( 68-C , 69-C ) :   1.3074 B( 68-C , 73-C ) :   1.1622 B( 69-C , 70-C ) :   1.3278
B( 69-C , 71-S ) :   1.0852 B( 70-C ,104-H ) :   0.9819 B( 71-S , 72-C ) :   1.0870
B( 72-C , 73-C ) :   1.6183 B( 72-C , 74-Br) :   1.0190 B( 73-C ,105-H ) :   1.0001

-----------------------------------------------------------------------------
         ABSORPTION SPECTRUM VIA TRANSITION ELECTRIC DIPOLE MOMENTS
-----------------------------------------------------------------------------
State   Energy  Wavelength   fosc         T2         TX        TY        TZ
        (cm-1)    (nm)                  (au**2)     (au)      (au)      (au)
-----------------------------------------------------------------------------
   0    8423.8   1187.1   1.082732250  42.31438  -5.55551  -2.97543  -1.61166
   1   14837.5    674.0   0.019064118   0.42299  -0.57652  -0.22119  -0.20419
   2   15856.3    630.7   0.004929000   0.10234  -0.03346  -0.18445   0.25922
   3   16783.8    595.8   1.070427933  20.99630   0.44701  -2.08839   4.05402
   4   19203.5    520.7   0.165046440   2.82945   1.35342   0.92309  -0.38159
   5   21703.5    460.8   0.652038817   9.89054  -0.38941  -0.06796   3.11998
   6   21912.8    456.4   0.066087969   0.99289   0.08436  -0.02527  -0.99254
   7   23026.6    434.3   0.094465794   1.35058  -0.89830   0.73654   0.03384
   8   23440.5    426.6   0.006750444   0.09481  -0.02292   0.22214   0.21198
   9   24189.7    413.4   0.220331058   2.99861  -0.27661   1.61381  -0.56367
  10   25156.8    397.5   0.095219085   1.24608   0.84754   0.72594   0.02761
  11   26078.5    383.5   0.006461907   0.08157   0.04276  -0.10466   0.26228
  12   26170.6    382.1   0.011376365   0.14311  -0.34880  -0.13109  -0.06529
  13   26583.2    376.2   0.181706401   2.25029   1.31249   0.68182   0.25056
  14   27218.3    367.4   0.006691940   0.08094   0.26688  -0.06933  -0.07009
  15   27331.1    365.9   0.026234783   0.31601  -0.18663   0.50010   0.17628
  16   28383.2    352.3   0.337798209   3.91806  -1.74721   0.73340   0.57223
  17   28520.1    350.6   0.081684181   0.94289   0.39276   0.54749  -0.69920
  18   28584.0    349.8   0.055131050   0.63496   0.62423  -0.37972   0.31798
  19   29089.6    343.8   0.220686031   2.49754  -1.36899   0.33590  -0.71456
  20   29669.5    337.0   0.000852442   0.00946   0.08370  -0.04552  -0.01951
  21   30260.8    330.5   0.005832075   0.06345   0.01255   0.01367  -0.25120
  22   30700.0    325.7   0.143355882   1.53728  -1.05891  -0.64368  -0.04088
  23   30962.0    323.0   0.009335374   0.09926  -0.22258  -0.01758  -0.22229
  24   31487.7    317.6   0.036541611   0.38205   0.58174   0.10642   0.17973
  25   31905.4    313.4   0.011854068   0.12231   0.21009  -0.18609   0.20868
  26   32255.0    310.0   0.097224946   0.99233   0.29126  -0.10321  -0.94702
  27   32410.8    308.5   0.000391729   0.00398  -0.05267  -0.03027   0.01698
  28   33106.6    302.1   0.004548249   0.04523  -0.09399  -0.01681   0.19003
  29   33188.2    301.3   0.014840837   0.14721  -0.21521  -0.22635  -0.22286
  30   33396.9    299.4   0.168012186   1.65619   1.16946  -0.16670   0.51066
  31   33470.1    298.8   0.603647504   5.93748   2.31354  -0.74758  -0.16174
  32   33744.0    296.3   0.061344777   0.59849   0.58481   0.31397   0.39737
  33   33815.3    295.7   0.228312438   2.22276   1.02053   0.52926   0.94929
  34   33921.9    294.8   0.291005640   2.82421   0.76751   0.01840  -1.49492
  35   34196.6    292.4   0.061732327   0.59430   0.68828  -0.08833   0.33582
  36   34248.8    292.0   0.009173851   0.08818  -0.23809  -0.16333   0.06941
  37   34497.5    289.9   0.016704195   0.15941  -0.27766   0.04831   0.28280
  38   34813.6    287.2   0.018873342   0.17847   0.18920  -0.37474   0.04738
  39   34933.5    286.3   0.032120858   0.30271   0.49774  -0.04929   0.22919
  40   35330.5    283.0   0.176780576   1.64725   0.39205  -0.77757   0.94283
  41   35634.7    280.6   0.069920733   0.64596   0.21044  -0.75828   0.16337
  42   35845.8    279.0   0.038991689   0.35810   0.23926   0.06704  -0.54439
  43   35993.3    277.8   0.049084841   0.44895  -0.18414   0.54309  -0.34656
  44   36358.2    275.0   0.029918735   0.27090  -0.20216  -0.37913   0.29376
  45   36420.3    274.6   0.032306723   0.29203   0.35299   0.29758   0.28084
  46   36464.6    274.2   0.072240168   0.65220   0.18090  -0.12248  -0.77748
  47   36535.3    273.7   0.081454839   0.73397  -0.84643   0.06090   0.11753
  48   36747.6    272.1   0.012858839   0.11520  -0.22339   0.25498  -0.01671
  49   37321.2    267.9   0.030845064   0.27209  -0.35436   0.09682   0.37033
  50   37729.5    265.0   0.116178242   1.01372  -0.07429   1.00254  -0.05582
  51   38418.8    260.3   0.173403965   1.48590   1.17307   0.12798   0.30566
  52   38635.5    258.8   0.090234403   0.76888   0.28822   0.10481   0.82148
  53   38922.2    256.9   0.072844126   0.61613  -0.09464  -0.07082   0.77599
  54   39105.7    255.7   0.005810469   0.04892  -0.01957   0.17427   0.13477
  55   39549.6    252.8   0.002503218   0.02084   0.05814   0.13202  -0.00513
  56   39602.0    252.5   0.015143505   0.12589  -0.31947  -0.01765   0.15336
  57   39949.5    250.3   0.023802555   0.19615  -0.28482  -0.23560  -0.24397
  58   40154.6    249.0   0.066224012   0.54295   0.06456   0.45100   0.57911

FINAL SINGLE POINT ENERGY     -8392.349796560889

DIPOLE MOMENT
-------------
                                X             Y             Z
Electronic contribution:     44.62353       6.49695    -151.11052
Nuclear contribution   :    -45.80227      -6.98837     149.16743
                        -----------------------------------------
Total Dipole Moment    :     -1.17874      -0.49142      -1.94308
                        -----------------------------------------
Magnitude (a.u.)       :      2.32518
Magnitude (Debye)      :      5.91015

Rotational constants in cm-1:     0.000581     0.000207     0.000169
Rotational constants in MHz :    17.405884     6.210020     5.069028

                             ****ORCA TERMINATED NORMALLY****
TOTAL RUN TIME: 0 days 0 hours 14 minutes 54 seconds 845 msec
