                         Program Version 4.2.0 -  RELEASE  -
|  1> # ORCA input file
|  2> # SCF done       -153.404342349147          0.003067018403
|  3> ! CAM-B3LYP def2-SVP def2/J RIJCOSX Grid4 TightSCF
|  4> %maxcore 5000
|  5> %tddft
|  6>     Mode sTDDFT
|  7>     Ethresh 5.0
|  8>     maxcore 5000
|  9> end
| 10>
| 11> %pal
| 12>   nprocs 6
| 13>   end
| 14> * xyz 0 1
| 15>    C       -4.80026        -5.58154         0.83288
| 16>    C       -3.96577        -5.34674         1.85562
| 17>    C       -3.80430        -4.13072         2.59855
| 18>    C       -2.82037        -4.17224         3.52501
| 19>    C       -2.12956        -5.41295         3.59221
| 20>    S       -2.82638        -6.55791         2.47037
| 21>    C       -1.02816        -5.72342         4.36186
| 22>    C       -0.35539        -4.91397         5.30498
| 23>    C        0.74346        -5.50715         5.85064
| 24>    C        1.00961        -6.80596         5.35602
| 25>    S       -0.22179        -7.26876         4.20738
| 26>    C        2.09624        -7.59499         5.67365
| 27>    C        2.41136        -8.81512         5.08469
| 28>    S        1.43666        -9.56855         3.83813
| 29>    C        2.55567       -10.90408         3.59241
| 30>    C        3.61891       -10.74927         4.48260
| 31>    C        3.53381        -9.61922         5.29675
| 32>    S        4.91621        -9.54456         6.35205
| 33>    C        5.52660       -11.05373         5.62596
| 34>    S        6.90064       -11.79785         6.05546
| 35>    O        4.71588       -11.51886         4.67570
| 36>    C        2.24360       -11.80967         2.58389
| 37>    C        2.94855       -12.91543         2.16336
| 38>    C        2.57931       -13.69918         1.07149
| 39>    C        1.60563       -13.44267         0.11221
| 40>    C        1.21166       -14.33042        -0.90770
| 41>    C        0.24197       -13.84602        -1.74798
| 42>    C       -0.15721       -12.53595        -1.44774
| 43>    S        0.71434       -11.94388        -0.06087
| 44>    C       -1.09183       -11.72724        -2.09037
| 45>    C       -1.96738       -12.05968        -3.13331
| 46>    C       -2.74329       -11.01215        -3.55252
| 47>    C       -2.50191        -9.80000        -2.87346
| 48>    S       -1.28369       -10.04539        -1.64407
| 49>    C       -3.10308        -8.59994        -3.21169
| 50>    C       -2.91318        -7.30461        -2.74559
| 51>    S       -3.72918        -6.02482        -3.66056
| 52>    C       -3.02427        -4.72311        -2.71928
| 53>    C       -2.25391        -5.30255        -1.71447
| 54>    C       -2.17163        -6.70039        -1.72524
| 55>    S       -1.10688        -7.21579        -0.44300
| 56>    C       -0.82809        -5.51713         0.00060
| 57>    S        0.16195        -5.00833         1.18139
| 58>    O       -1.52243        -4.67580        -0.76330
| 59>    C       -3.16412        -3.36831        -3.02685
| 60>    C       -3.77896        -2.90148        -4.16354
| 61>    C       -3.82823        -1.55863        -4.52661
| 62>    C       -4.33766        -1.08753        -5.71928
| 63>    C       -4.36468         0.25715        -6.15298
| 64>    C       -4.89349         0.43706        -7.39608
| 65>    C       -5.31516        -0.76071        -8.01745
| 66>    S       -5.02387        -2.12507        -6.95555
| 67>    C       -5.86290        -0.91000        -9.27344
| 68>    C       -6.13783         0.11556       -10.21828
| 69>    C       -6.66529        -0.32502       -11.38355
| 70>    C       -6.84656        -1.74578       -11.45079
| 71>    S       -6.30686        -2.47271        -9.92804
| 72>    C       -7.33619        -2.46362       -12.47237
| 73>    H       -5.47479        -4.81697         0.48734
| 74>    H       -4.82745        -6.53182         0.33170
| 75>    H       -4.42191        -3.27380         2.39149
| 76>    H       -2.54796        -3.34713         4.15674
| 77>    H       -0.69032        -3.92216         5.54931
| 78>    H        1.38736        -5.04319         6.57684
| 79>    H        2.79272        -7.22000         6.41123
| 80>    H        1.30508       -11.58327         2.10138
| 81>    H        3.82784       -13.21307         2.71810
| 82>    H        3.12285       -14.62423         0.92687
| 83>    H        1.64456       -15.31122        -0.99533
| 84>    H       -0.16905       -14.39575        -2.57542
| 85>    H       -2.01488       -13.05079        -3.54705
| 86>    H       -3.47054       -11.07617        -4.34264
| 87>    H       -3.80622        -8.66945        -4.03391
| 88>    H       -2.69829        -2.67457        -2.33944
| 89>    H       -4.21398        -3.62515        -4.84268
| 90>    H       -3.40883        -0.82503        -3.84857
| 91>    H       -3.98342         1.05210        -5.53532
| 92>    H       -4.98402         1.39275        -7.88096
| 93>    H       -5.93560         1.14829        -9.99910
| 94>    H       -6.93674         0.30296       -12.21363
| 95>    H       -7.65200        -1.98017       -13.38014
| 96>    H       -7.42757        -3.53304       -12.42080
| 97> *
| 98>
| 99>                          ****END OF INPUT****

CARTESIAN COORDINATES (ANGSTROEM)
---------------------------------
  C     -4.800260   -5.581540    0.832880
  C     -3.965770   -5.346740    1.855620
  C     -3.804300   -4.130720    2.598550
  C     -2.820370   -4.172240    3.525010
  C     -2.129560   -5.412950    3.592210
  S     -2.826380   -6.557910    2.470370
  C     -1.028160   -5.723420    4.361860
  C     -0.355390   -4.913970    5.304980
  C      0.743460   -5.507150    5.850640
  C      1.009610   -6.805960    5.356020
  S     -0.221790   -7.268760    4.207380
  C      2.096240   -7.594990    5.673650
  C      2.411360   -8.815120    5.084690
  S      1.436660   -9.568550    3.838130
  C      2.555670  -10.904080    3.592410
  C      3.618910  -10.749270    4.482600
  C      3.533810   -9.619220    5.296750
  S      4.916210   -9.544560    6.352050
  C      5.526600  -11.053730    5.625960
  S      6.900640  -11.797850    6.055460
  O      4.715880  -11.518860    4.675700
  C      2.243600  -11.809670    2.583890
  C      2.948550  -12.915430    2.163360
  C      2.579310  -13.699180    1.071490
  C      1.605630  -13.442670    0.112210
  C      1.211660  -14.330420   -0.907700
  C      0.241970  -13.846020   -1.747980
  C     -0.157210  -12.535950   -1.447740
  S      0.714340  -11.943880   -0.060870
  C     -1.091830  -11.727240   -2.090370
  C     -1.967380  -12.059680   -3.133310
  C     -2.743290  -11.012150   -3.552520
  C     -2.501910   -9.800000   -2.873460
  S     -1.283690  -10.045390   -1.644070
  C     -3.103080   -8.599940   -3.211690
  C     -2.913180   -7.304610   -2.745590
  S     -3.729180   -6.024820   -3.660560
  C     -3.024270   -4.723110   -2.719280
  C     -2.253910   -5.302550   -1.714470
  C     -2.171630   -6.700390   -1.725240
  S     -1.106880   -7.215790   -0.443000
  C     -0.828090   -5.517130    0.000600
  S      0.161950   -5.008330    1.181390
  O     -1.522430   -4.675800   -0.763300
  C     -3.164120   -3.368310   -3.026850
  C     -3.778960   -2.901480   -4.163540
  C     -3.828230   -1.558630   -4.526610
  C     -4.337660   -1.087530   -5.719280
  C     -4.364680    0.257150   -6.152980
  C     -4.893490    0.437060   -7.396080
  C     -5.315160   -0.760710   -8.017450
  S     -5.023870   -2.125070   -6.955550
  C     -5.862900   -0.910000   -9.273440
  C     -6.137830    0.115560  -10.218280
  C     -6.665290   -0.325020  -11.383550
  C     -6.846560   -1.745780  -11.450790
  S     -6.306860   -2.472710   -9.928040
  C     -7.336190   -2.463620  -12.472370
  H     -5.474790   -4.816970    0.487340
  H     -4.827450   -6.531820    0.331700
  H     -4.421910   -3.273800    2.391490
  H     -2.547960   -3.347130    4.156740
  H     -0.690320   -3.922160    5.549310
  H      1.387360   -5.043190    6.576840
  H      2.792720   -7.220000    6.411230
  H      1.305080  -11.583270    2.101380
  H      3.827840  -13.213070    2.718100
  H      3.122850  -14.624230    0.926870
  H      1.644560  -15.311220   -0.995330
  H     -0.169050  -14.395750   -2.575420
  H     -2.014880  -13.050790   -3.547050
  H     -3.470540  -11.076170   -4.342640
  H     -3.806220   -8.669450   -4.033910
  H     -2.698290   -2.674570   -2.339440
  H     -4.213980   -3.625150   -4.842680
  H     -3.408830   -0.825030   -3.848570
  H     -3.983420    1.052100   -5.535320
  H     -4.984020    1.392750   -7.880960
  H     -5.935600    1.148290   -9.999100
  H     -6.936740    0.302960  -12.213630
  H     -7.652000   -1.980170  -13.380140
  H     -7.427570   -3.533040  -12.420800

 Total Charge           Charge          ....    0
 Multiplicity           Mult            ....    1
 Number of Electrons    NEL             ....  496
 Basis Dimension        Dim             ....  980

ORBITAL ENERGIES
----------------

  NO   OCC          E(Eh)            E(eV)
   0   2.0000     -88.966163     -2420.8924
   1   2.0000     -88.966131     -2420.8915
   2   2.0000     -88.957481     -2420.6561
   3   2.0000     -88.956615     -2420.6326
   4   2.0000     -88.948700     -2420.4172
   5   2.0000     -88.946045     -2420.3449
   6   2.0000     -88.945095     -2420.3191
   7   2.0000     -88.940795     -2420.2021
   8   2.0000     -88.940178     -2420.1853
   9   2.0000     -88.936733     -2420.0915
  10   2.0000     -88.880470     -2418.5605
  11   2.0000     -88.879908     -2418.5452
  12   2.0000     -19.305870      -525.3394
  13   2.0000     -19.303850      -525.2845
  14   2.0000     -10.400477      -283.0114
  15   2.0000     -10.396829      -282.9121
  16   2.0000     -10.348124      -281.5868
  17   2.0000     -10.347510      -281.5701
  18   2.0000     -10.319496      -280.8078
  19   2.0000     -10.315369      -280.6955
  20   2.0000     -10.313631      -280.6482
  21   2.0000     -10.313202      -280.6365
  22   2.0000     -10.311314      -280.5851
  23   2.0000     -10.308864      -280.5184
  24   2.0000     -10.308814      -280.5171
  25   2.0000     -10.308749      -280.5153
  26   2.0000     -10.308694      -280.5138
  27   2.0000     -10.308444      -280.5070
  28   2.0000     -10.308374      -280.5051
  29   2.0000     -10.307662      -280.4857
  30   2.0000     -10.307398      -280.4786
  31   2.0000     -10.306331      -280.4495
  32   2.0000     -10.305437      -280.4252
  33   2.0000     -10.304557      -280.4012
  34   2.0000     -10.303222      -280.3649
  35   2.0000     -10.301623      -280.3214
  36   2.0000     -10.288929      -279.9760
  37   2.0000     -10.288324      -279.9595
  38   2.0000     -10.287299      -279.9316
  39   2.0000     -10.285938      -279.8946
  40   2.0000     -10.285668      -279.8872
  41   2.0000     -10.285599      -279.8854
  42   2.0000     -10.285189      -279.8742
  43   2.0000     -10.284792      -279.8634
  44   2.0000     -10.282211      -279.7932
  45   2.0000     -10.282122      -279.7908
  46   2.0000     -10.282057      -279.7890
  47   2.0000     -10.281831      -279.7828
  48   2.0000     -10.281607      -279.7767
  49   2.0000     -10.281143      -279.7641
  50   2.0000     -10.280892      -279.7573
  51   2.0000     -10.280299      -279.7412
  52   2.0000     -10.278549      -279.6935
  53   2.0000     -10.276495      -279.6377
  54   2.0000     -10.275458      -279.6094
  55   2.0000     -10.274066      -279.5715
  56   2.0000     -10.271261      -279.4952
  57   2.0000     -10.268183      -279.4115
  58   2.0000      -8.062062      -219.3799
  59   2.0000      -8.061005      -219.3511
  60   2.0000      -8.052391      -219.1167
  61   2.0000      -8.051770      -219.0998
  62   2.0000      -8.044837      -218.9111
  63   2.0000      -8.042033      -218.8348
  64   2.0000      -8.041241      -218.8133
  65   2.0000      -8.036869      -218.6943
  66   2.0000      -8.036555      -218.6858
  67   2.0000      -8.033331      -218.5980
  68   2.0000      -7.978236      -217.0988
  69   2.0000      -7.977192      -217.0704
  70   2.0000      -6.031953      -164.1378
  71   2.0000      -6.031039      -164.1129
  72   2.0000      -6.027807      -164.0250
  73   2.0000      -6.026646      -163.9934
  74   2.0000      -6.022647      -163.8846
  75   2.0000      -6.021912      -163.8645
  76   2.0000      -6.021600      -163.8561
  77   2.0000      -6.021315      -163.8483
  78   2.0000      -6.017894      -163.7552
  79   2.0000      -6.017540      -163.7456
  80   2.0000      -6.014530      -163.6637
  81   2.0000      -6.013844      -163.6450
  82   2.0000      -6.012995      -163.6219
  83   2.0000      -6.011644      -163.5852
  84   2.0000      -6.010975      -163.5670
  85   2.0000      -6.010460      -163.5529
  86   2.0000      -6.007498      -163.4723
  87   2.0000      -6.006775      -163.4526
  88   2.0000      -6.006697      -163.4505
  89   2.0000      -6.006284      -163.4393
  90   2.0000      -6.005872      -163.4281
  91   2.0000      -6.003304      -163.3582
  92   2.0000      -6.003152      -163.3541
  93   2.0000      -6.002708      -163.3420
  94   2.0000      -6.002349      -163.3322
  95   2.0000      -6.002232      -163.3290
  96   2.0000      -5.999235      -163.2475
  97   2.0000      -5.997515      -163.2007
  98   2.0000      -5.997368      -163.1967
  99   2.0000      -5.993907      -163.1025
 100   2.0000      -5.947902      -161.8506
 101   2.0000      -5.946843      -161.8218
 102   2.0000      -5.944715      -161.7639
 103   2.0000      -5.943646      -161.7348
 104   2.0000      -5.938345      -161.5906
 105   2.0000      -5.937386      -161.5645
 106   2.0000      -1.228333       -33.4246
 107   2.0000      -1.227410       -33.3995
 108   2.0000      -0.998920       -27.1820
 109   2.0000      -0.997651       -27.1475
 110   2.0000      -0.991636       -26.9838
 111   2.0000      -0.989985       -26.9389
 112   2.0000      -0.989644       -26.9296
 113   2.0000      -0.972185       -26.4545
 114   2.0000      -0.969551       -26.3828
 115   2.0000      -0.967027       -26.3141
 116   2.0000      -0.932236       -25.3674
 117   2.0000      -0.931648       -25.3514
 118   2.0000      -0.907190       -24.6859
 119   2.0000      -0.904615       -24.6158
 120   2.0000      -0.896346       -24.3908
 121   2.0000      -0.890630       -24.2353
 122   2.0000      -0.878195       -23.8969
 123   2.0000      -0.876454       -23.8495
 124   2.0000      -0.869599       -23.6630
 125   2.0000      -0.863634       -23.5007
 126   2.0000      -0.852931       -23.2094
 127   2.0000      -0.845116       -22.9968
 128   2.0000      -0.842212       -22.9177
 129   2.0000      -0.841221       -22.8908
 130   2.0000      -0.835012       -22.7218
 131   2.0000      -0.823119       -22.3982
 132   2.0000      -0.821584       -22.3564
 133   2.0000      -0.818965       -22.2852
 134   2.0000      -0.813668       -22.1410
 135   2.0000      -0.804377       -21.8882
 136   2.0000      -0.789808       -21.4918
 137   2.0000      -0.787684       -21.4340
 138   2.0000      -0.785302       -21.3692
 139   2.0000      -0.771284       -20.9877
 140   2.0000      -0.758151       -20.6303
 141   2.0000      -0.744697       -20.2642
 142   2.0000      -0.728821       -19.8322
 143   2.0000      -0.727368       -19.7927
 144   2.0000      -0.714573       -19.4445
 145   2.0000      -0.698983       -19.0203
 146   2.0000      -0.694542       -18.8995
 147   2.0000      -0.681436       -18.5428
 148   2.0000      -0.676567       -18.4103
 149   2.0000      -0.673197       -18.3186
 150   2.0000      -0.668699       -18.1962
 151   2.0000      -0.660577       -17.9752
 152   2.0000      -0.647673       -17.6241
 153   2.0000      -0.639265       -17.3953
 154   2.0000      -0.636805       -17.3283
 155   2.0000      -0.634280       -17.2596
 156   2.0000      -0.627530       -17.0760
 157   2.0000      -0.623232       -16.9590
 158   2.0000      -0.619192       -16.8491
 159   2.0000      -0.615991       -16.7620
 160   2.0000      -0.614827       -16.7303
 161   2.0000      -0.610765       -16.6197
 162   2.0000      -0.608608       -16.5611
 163   2.0000      -0.600289       -16.3347
 164   2.0000      -0.596216       -16.2239
 165   2.0000      -0.595687       -16.2095
 166   2.0000      -0.590108       -16.0577
 167   2.0000      -0.578255       -15.7351
 168   2.0000      -0.574701       -15.6384
 169   2.0000      -0.574198       -15.6247
 170   2.0000      -0.565542       -15.3892
 171   2.0000      -0.561509       -15.2794
 172   2.0000      -0.554894       -15.0994
 173   2.0000      -0.548936       -14.9373
 174   2.0000      -0.547822       -14.9070
 175   2.0000      -0.539976       -14.6935
 176   2.0000      -0.530647       -14.4396
 177   2.0000      -0.525032       -14.2869
 178   2.0000      -0.518652       -14.1132
 179   2.0000      -0.514232       -13.9930
 180   2.0000      -0.510629       -13.8949
 181   2.0000      -0.506917       -13.7939
 182   2.0000      -0.500963       -13.6319
 183   2.0000      -0.499509       -13.5923
 184   2.0000      -0.498366       -13.5612
 185   2.0000      -0.496756       -13.5174
 186   2.0000      -0.493337       -13.4244
 187   2.0000      -0.492307       -13.3964
 188   2.0000      -0.489095       -13.3089
 189   2.0000      -0.487997       -13.2791
 190   2.0000      -0.485643       -13.2150
 191   2.0000      -0.483542       -13.1579
 192   2.0000      -0.482510       -13.1298
 193   2.0000      -0.480725       -13.0812
 194   2.0000      -0.477642       -12.9973
 195   2.0000      -0.477187       -12.9849
 196   2.0000      -0.474428       -12.9098
 197   2.0000      -0.471780       -12.8378
 198   2.0000      -0.466314       -12.6891
 199   2.0000      -0.463677       -12.6173
 200   2.0000      -0.461425       -12.5560
 201   2.0000      -0.459060       -12.4917
 202   2.0000      -0.457809       -12.4576
 203   2.0000      -0.455369       -12.3912
 204   2.0000      -0.453395       -12.3375
 205   2.0000      -0.451809       -12.2943
 206   2.0000      -0.446478       -12.1493
 207   2.0000      -0.443710       -12.0740
 208   2.0000      -0.439752       -11.9663
 209   2.0000      -0.432882       -11.7793
 210   2.0000      -0.431235       -11.7345
 211   2.0000      -0.429785       -11.6950
 212   2.0000      -0.426956       -11.6181
 213   2.0000      -0.426157       -11.5963
 214   2.0000      -0.422443       -11.4953
 215   2.0000      -0.421901       -11.4805
 216   2.0000      -0.418540       -11.3890
 217   2.0000      -0.412773       -11.2321
 218   2.0000      -0.410379       -11.1670
 219   2.0000      -0.409340       -11.1387
 220   2.0000      -0.399751       -10.8778
 221   2.0000      -0.397663       -10.8209
 222   2.0000      -0.394210       -10.7270
 223   2.0000      -0.391951       -10.6655
 224   2.0000      -0.389372       -10.5954
 225   2.0000      -0.383238       -10.4284
 226   2.0000      -0.378322       -10.2947
 227   2.0000      -0.365848        -9.9552
 228   2.0000      -0.357547        -9.7293
 229   2.0000      -0.354158        -9.6371
 230   2.0000      -0.345185        -9.3930
 231   2.0000      -0.335382        -9.1262
 232   2.0000      -0.334549        -9.1035
 233   2.0000      -0.333495        -9.0748
 234   2.0000      -0.330392        -8.9904
 235   2.0000      -0.322234        -8.7684
 236   2.0000      -0.320332        -8.7167
 237   2.0000      -0.319254        -8.6873
 238   2.0000      -0.305180        -8.3044
 239   2.0000      -0.288054        -7.8383
 240   2.0000      -0.285632        -7.7724
 241   2.0000      -0.285273        -7.7627
 242   2.0000      -0.278078        -7.5669
 243   2.0000      -0.274446        -7.4681
 244   2.0000      -0.263845        -7.1796
 245   2.0000      -0.225703        -6.1417
 246   2.0000      -0.212031        -5.7697
 247   2.0000      -0.186307        -5.0697
 248   0.0000      -0.098217        -2.6726
 249   0.0000      -0.074959        -2.0397
 250   0.0000      -0.056882        -1.5478
 251   0.0000      -0.025308        -0.6887
 252   0.0000      -0.010284        -0.2798

MULLIKEN ATOMIC CHARGES
-----------------------
   0 C :   -0.015954
   1 C :   -0.082171
   2 C :    0.062580
   3 C :    0.039458
   4 C :   -0.059404
   5 S :    0.087102
   6 C :   -0.022511
   7 C :    0.037702
   8 C :    0.026709
   9 C :   -0.031805
  10 S :    0.073112
  11 C :   -0.010545
  12 C :   -0.137546
  13 S :    0.111152
  14 C :   -0.156696
  15 C :    0.221507
  16 C :   -0.033907
  17 S :    0.146960
  18 C :    0.052842
  19 S :   -0.150725
  20 O :   -0.146349
  21 C :    0.044900
  22 C :   -0.005214
  23 C :    0.010196
  24 C :   -0.037989
  25 C :    0.038728
  26 C :    0.016898
  27 C :   -0.037267
  28 S :    0.072133
  29 C :   -0.038077
  30 C :    0.032549
  31 C :    0.016229
  32 C :   -0.022163
  33 S :    0.070373
  34 C :    0.016398
  35 C :   -0.204954
  36 S :    0.106871
  37 C :   -0.130791
  38 C :    0.208123
  39 C :   -0.014219
  40 S :    0.166243
  41 C :    0.061144
  42 S :   -0.150940
  43 O :   -0.147850
  44 C :   -0.006089
  45 C :    0.000030
  46 C :   -0.011333
  47 C :   -0.022322
  48 C :    0.036647
  49 C :    0.019881
  50 C :   -0.044466
  51 S :    0.073776
  52 C :   -0.066202
  53 C :    0.025239
  54 C :    0.051598
  55 C :   -0.065332
  56 S :    0.080638
  57 C :   -0.030050
  58 H :    0.025941
  59 H :    0.029256
  60 H :   -0.009090
  61 H :   -0.011647
  62 H :   -0.014033
  63 H :   -0.012422
  64 H :   -0.014891
  65 H :   -0.008246
  66 H :    0.000031
  67 H :   -0.010646
  68 H :   -0.013943
  69 H :   -0.016234
  70 H :   -0.013336
  71 H :   -0.011786
  72 H :   -0.015462
  73 H :   -0.001118
  74 H :    0.003454
  75 H :   -0.017100
  76 H :   -0.014785
  77 H :   -0.015365
  78 H :   -0.012480
  79 H :   -0.012065
  80 H :    0.019234
  81 H :    0.021885
Sum of atomic charges:   -0.0000000

LOEWDIN ATOMIC CHARGES
----------------------
   0 C :   -0.064396
   1 C :   -0.142358
   2 C :   -0.024448
   3 C :   -0.022769
   4 C :   -0.166572
   5 S :    0.372425
   6 C :   -0.186336
   7 C :   -0.028292
   8 C :   -0.038564
   9 C :   -0.143751
  10 S :    0.387889
  11 C :   -0.088288
  12 C :   -0.178946
  13 S :    0.441867
  14 C :   -0.188338
  15 C :   -0.007449
  16 C :   -0.222746
  17 S :    0.382447
  18 C :   -0.236168
  19 S :   -0.017944
  20 O :   -0.003918
  21 C :   -0.050049
  22 C :   -0.040311
  23 C :   -0.043630
  24 C :   -0.154889
  25 C :   -0.027879
  26 C :   -0.048608
  27 C :   -0.176904
  28 S :    0.407446
  29 C :   -0.183625
  30 C :   -0.033327
  31 C :   -0.040958
  32 C :   -0.148425
  33 S :    0.379129
  34 C :   -0.093343
  35 C :   -0.175126
  36 S :    0.420691
  37 C :   -0.190617
  38 C :   -0.007799
  39 C :   -0.227856
  40 S :    0.398425
  41 C :   -0.244276
  42 S :   -0.010634
  43 O :   -0.004429
  44 C :   -0.042878
  45 C :   -0.035815
  46 C :   -0.059509
  47 C :   -0.146091
  48 C :   -0.036483
  49 C :   -0.033325
  50 C :   -0.180207
  51 S :    0.367583
  52 C :   -0.178128
  53 C :   -0.027133
  54 C :   -0.033192
  55 C :   -0.139232
  56 S :    0.352151
  57 C :   -0.077835
  58 H :    0.031551
  59 H :    0.028418
  60 H :    0.034862
  61 H :    0.033252
  62 H :    0.031981
  63 H :    0.033486
  64 H :    0.037378
  65 H :    0.007103
  66 H :    0.034046
  67 H :    0.036128
  68 H :    0.033194
  69 H :    0.030618
  70 H :    0.032912
  71 H :    0.032613
  72 H :    0.034850
  73 H :    0.038159
  74 H :    0.017152
  75 H :    0.032947
  76 H :    0.032869
  77 H :    0.030781
  78 H :    0.031854
  79 H :    0.033098
  80 H :    0.028400
  81 H :    0.026092

  Mayer bond orders larger than 0.100000
B(  0-C ,  1-C ) :   1.8555 B(  0-C , 58-H ) :   0.9503 B(  0-C , 59-H ) :   0.9402
B(  1-C ,  2-C ) :   1.0806 B(  1-C ,  5-S ) :   1.0085 B(  2-C ,  3-C ) :   1.6548
B(  2-C , 60-H ) :   0.9923 B(  3-C ,  4-C ) :   1.1587 B(  3-C , 61-H ) :   0.9904
B(  4-C ,  5-S ) :   1.0592 B(  4-C ,  6-C ) :   1.5167 B(  6-C ,  7-C ) :   1.1908
B(  6-C , 10-S ) :   1.0398 B(  7-C ,  8-C ) :   1.5768 B(  7-C , 62-H ) :   0.9921
B(  8-C ,  9-C ) :   1.1635 B(  8-C , 63-H ) :   1.0006 B(  9-C , 10-S ) :   1.0645
B(  9-C , 11-C ) :   1.5091 B( 11-C , 12-C ) :   1.2617 B( 11-C , 64-H ) :   0.9690
B( 12-C , 13-S ) :   1.0884 B( 12-C , 16-C ) :   1.4328 B( 13-S , 14-C ) :   1.0916
B( 14-C , 15-C ) :   1.3812 B( 14-C , 21-C ) :   1.2792 B( 15-C , 16-C ) :   1.3377
B( 15-C , 20-O ) :   1.0873 B( 16-C , 17-S ) :   0.9874 B( 17-S , 18-C ) :   1.0613
B( 17-S , 19-S ) :   0.1237 B( 18-C , 19-S ) :   1.7542 B( 18-C , 20-O ) :   1.0941
B( 21-C , 22-C ) :   1.5113 B( 21-C , 65-H ) :   0.8998 B( 22-C , 23-C ) :   1.2833
B( 22-C , 66-H ) :   0.9742 B( 23-C , 24-C ) :   1.4680 B( 23-C , 67-H ) :   0.9655
B( 24-C , 25-C ) :   1.2121 B( 24-C , 28-S ) :   1.0448 B( 25-C , 26-C ) :   1.5203
B( 25-C , 68-H ) :   0.9978 B( 26-C , 27-C ) :   1.2405 B( 26-C , 69-H ) :   0.9949
B( 27-C , 28-S ) :   1.0630 B( 27-C , 29-C ) :   1.4170 B( 29-C , 30-C ) :   1.2437
B( 29-C , 33-S ) :   1.0582 B( 30-C , 31-C ) :   1.5244 B( 30-C , 70-H ) :   0.9936
B( 31-C , 32-C ) :   1.1954 B( 31-C , 71-H ) :   1.0012 B( 32-C , 33-S ) :   1.0457
B( 32-C , 34-C ) :   1.5181 B( 34-C , 35-C ) :   1.2542 B( 34-C , 72-H ) :   0.9371
B( 35-C , 36-S ) :   1.1014 B( 35-C , 39-C ) :   1.4344 B( 36-S , 37-C ) :   1.0617
B( 37-C , 38-C ) :   1.4392 B( 37-C , 44-C ) :   1.2099 B( 38-C , 39-C ) :   1.2857
B( 38-C , 43-O ) :   1.0965 B( 39-C , 40-S ) :   0.9956 B( 40-S , 41-C ) :   1.0586
B( 40-S , 42-S ) :   0.1162 B( 41-C , 42-S ) :   1.7506 B( 41-C , 43-O ) :   1.0925
B( 44-C , 45-C ) :   1.5386 B( 44-C , 73-H ) :   0.9885 B( 45-C , 46-C ) :   1.2032
B( 45-C , 74-H ) :   0.9719 B( 46-C , 47-C ) :   1.5272 B( 46-C , 75-H ) :   0.9823
B( 47-C , 48-C ) :   1.1565 B( 47-C , 51-S ) :   1.0368 B( 48-C , 49-C ) :   1.5824
B( 48-C , 76-H ) :   0.9991 B( 49-C , 50-C ) :   1.1869 B( 49-C , 77-H ) :   0.9937
B( 50-C , 51-S ) :   1.0395 B( 50-C , 52-C ) :   1.5354 B( 52-C , 53-C ) :   1.1598
B( 52-C , 56-S ) :   1.0465 B( 53-C , 54-C ) :   1.6537 B( 53-C , 78-H ) :   0.9927
B( 54-C , 55-C ) :   1.0825 B( 54-C , 79-H ) :   0.9931 B( 55-C , 56-S ) :   1.0087
B( 55-C , 57-C ) :   1.8608 B( 57-C , 80-H ) :   0.9498 B( 57-C , 81-H ) :   0.9419

-----------------------------------------------------------------------------
         ABSORPTION SPECTRUM VIA TRANSITION ELECTRIC DIPOLE MOMENTS
-----------------------------------------------------------------------------
State   Energy  Wavelength   fosc         T2         TX        TY        TZ
        (cm-1)    (nm)                  (au**2)     (au)      (au)      (au)
-----------------------------------------------------------------------------
   0    6745.3   1482.5   0.533519676  26.03886   1.77606  -1.77522   4.44219
   1   10894.1    917.9   0.030115627   0.91007   0.44115  -0.49731   0.68421
   2   13570.0    736.9   1.867996339  45.31807   3.37679  -5.18668   2.64834
   3   15205.1    657.7   0.038583127   0.83538   0.51637  -0.70518   0.26733
   4   17169.7    582.4   0.077021886   1.47682   0.49712  -0.76706  -0.80082
   5   19087.5    523.9   0.568978591   9.81347   2.32858  -2.04714  -0.44764
   6   20750.7    481.9   0.278371055   4.41639   0.95887   0.57531   1.77932
   7   21159.2    472.6   0.013825817   0.21511   0.07599  -0.12173  -0.44104
   8   22353.5    447.4   0.361381613   5.32227  -1.26450  -0.44402  -1.87781
   9   23315.3    428.9   0.284392224   4.01562  -1.45289  -0.24115  -1.35889
  10   23849.8    419.3   0.206766701   2.85411   1.13535   0.10527   1.24660
  11   24544.6    407.4   1.188552507  15.94180   1.67399   2.18646   2.89119
  12   24758.1    403.9   0.036161807   0.48085   0.42601  -0.54392  -0.05931
  13   25601.7    390.6   0.081587890   1.04914   0.28965   0.57667   0.79542
  14   25800.6    387.6   0.067979637   0.86741   0.37339   0.42499   0.73985
  15   26129.4    382.7   0.002090495   0.02634   0.05734  -0.14447  -0.04667
  16   27243.8    367.1   0.080038015   0.96717   0.34920   0.68792   0.60992
  17   27475.1    364.0   0.002706152   0.03243   0.08126  -0.07454  -0.14236
  18   28227.1    354.3   0.013151086   0.15338   0.00920  -0.19879   0.33731
  19   28715.7    348.2   0.013613079   0.15607   0.26800  -0.27328   0.09779
  20   28801.1    347.2   0.008037170   0.09187  -0.23594  -0.13895  -0.12998
  21   28907.7    345.9   0.001387331   0.01580  -0.10426   0.02257  -0.06648
  22   28921.0    345.8   0.001007190   0.01146   0.09287   0.02733   0.04574
  23   29091.3    343.7   0.013741590   0.15551  -0.01211  -0.36230  -0.15523
  24   29291.1    341.4   0.000765267   0.00860  -0.03100   0.08499  -0.02042
  25   29770.9    335.9   0.020225197   0.22365   0.37020  -0.00917   0.29414
  26   30244.8    330.6   0.022390486   0.24372  -0.20982   0.02628   0.44610
  27   30878.5    323.8   0.013206650   0.14080  -0.35968  -0.03823  -0.09987
  28   30936.7    323.2   0.036513306   0.38855  -0.33288   0.51977   0.08708
  29   31307.5    319.4   0.004535015   0.04769  -0.05440   0.21023   0.02307
  30   32260.4    310.0   0.033615438   0.34304  -0.21381   0.49927  -0.21922
  31   32570.1    307.0   0.018224109   0.18421  -0.15887   0.39777  -0.02725
  32   32814.1    304.7   0.000313592   0.00315  -0.04586   0.00007   0.03229
  33   32841.7    304.5   0.027780502   0.27848  -0.16637   0.48119  -0.13878
  34   32993.3    303.1   0.006264607   0.06251   0.17860  -0.15672  -0.07779
  35   33133.2    301.8   0.001845540   0.01834  -0.03023  -0.07800  -0.10649
  36   33258.1    300.7   0.005726070   0.05668  -0.02961   0.15724   0.17629
  37   33408.5    299.3   0.005750344   0.05666   0.19067  -0.03738   0.13753
  38   33431.9    299.1   0.013544720   0.13338   0.02057  -0.26351  -0.25203
  39   33614.7    297.5   0.002122957   0.02079  -0.04585  -0.12104  -0.06354
  40   33649.4    297.2   0.025344557   0.24796  -0.13424  -0.28169  -0.38806
  41   33776.0    296.1   0.000056158   0.00055   0.01960  -0.01207  -0.00419
  42   33982.9    294.3   0.028626650   0.27732   0.27974  -0.43386   0.10410
  43   34298.7    291.6   0.034536146   0.33149  -0.02245   0.51659   0.25323
  44   34839.6    287.0   0.001025008   0.00969  -0.02546   0.09501   0.00338
  45   35017.3    285.6   0.018174443   0.17087  -0.21950   0.01227  -0.35005
  46   35492.4    281.8   0.011066166   0.10264  -0.27614   0.16245  -0.00136
  47   35611.4    280.8   0.000133350   0.00123   0.01970  -0.02186  -0.01915
  48   36136.8    276.7   0.002908701   0.02650   0.08201  -0.00942   0.14030
  49   36348.0    275.1   0.035910000   0.32524  -0.22175   0.46917  -0.23653
  50   36599.4    273.2   0.018206705   0.16377   0.22857   0.32742   0.06574
  51   36855.5    271.3   0.040045812   0.35771  -0.18431   0.53218  -0.20130
  52   36946.6    270.7   0.025058272   0.22328   0.16210   0.10317   0.43169
  53   37339.8    267.8   0.006300953   0.05555   0.18384  -0.09454   0.11322
  54   37698.6    265.3   0.001140610   0.00996   0.06424   0.01020   0.07570
  55   37895.9    263.9   0.047989769   0.41690   0.37202  -0.16282   0.50198
  56   37975.7    263.3   0.012940363   0.11218   0.06785   0.11463   0.30730
  57   38116.6    262.4   0.025931856   0.22397   0.34082  -0.00353   0.32833
  58   38442.0    260.1   0.007386938   0.06326   0.05059   0.02185   0.24541
  59   38631.4    258.9   0.005516993   0.04702   0.01880   0.17905   0.12084
  60   39036.2    256.2   0.001579935   0.01332  -0.02799   0.09848  -0.05331
  61   39148.9    255.4   0.007978198   0.06709   0.09534  -0.23804   0.03655
  62   39175.5    255.3   0.006650020   0.05588  -0.10322   0.16686   0.13185
  63   39719.0    251.8   0.016224546   0.13448  -0.30722   0.18290   0.08150
  64   40041.6    249.7   0.014140053   0.11626  -0.25391  -0.01557  -0.22703
  65   40227.8    248.6   0.003443141   0.02818   0.05619   0.01204  -0.15772

FINAL SINGLE POINT ENERGY     -6615.878579386015

DIPOLE MOMENT
-------------
                                X             Y             Z
Electronic contribution:     29.45735     -21.30255      37.76505
Nuclear contribution   :    -31.93617      22.92672     -39.48077
                        -----------------------------------------
Total Dipole Moment    :     -2.47883       1.62418      -1.71571
                        -----------------------------------------
Magnitude (a.u.)       :      3.42435
Magnitude (Debye)      :      8.70401

Rotational constants in cm-1:     0.001802     0.000383     0.000337
Rotational constants in MHz :    54.028876    11.468607    10.088487

                             ****ORCA TERMINATED NORMALLY****
TOTAL RUN TIME: 0 days 0 hours 8 minutes 31 seconds 89 msec
