                         Program Version 4.2.0 -  RELEASE  -
|  1> # ORCA input file
|  2> # SCF done       -176.292458728182          0.000796728175
|  3> ! CAM-B3LYP def2-SVP def2/J RIJCOSX Grid4 TightSCF
|  4> %maxcore 5000
|  5> %tddft
|  6>     Mode sTDDFT
|  7>     Ethresh 5.0
|  8>     maxcore 5000
|  9> end
| 10>
| 11> %pal
| 12>   nprocs 6
| 13>   end
| 14> * xyz 0 1
| 15>    C        0.99384         0.33732         4.88614
| 16>    C        2.23563        -0.04583         5.21522
| 17>    C        3.18294         0.65319         6.03370
| 18>    C        4.36483         0.01487         6.19102
| 19>    C        4.45394        -1.23285         5.51746
| 20>    S        2.95741        -1.56627         4.66391
| 21>    C        5.52188        -2.09899         5.49798
| 22>    C        6.77457        -1.95313         6.13991
| 23>    C        7.62636        -2.99224         5.92822
| 24>    C        7.10353        -4.02318         5.11045
| 25>    S        5.47130        -3.61381         4.61184
| 26>    C        7.77170        -5.16996         4.75248
| 27>    C        7.30015        -6.23247         3.98077
| 28>    S        5.64489        -6.34613         3.45780
| 29>    C        5.84507        -7.94879         2.82218
| 30>    C        7.18044        -8.36793         2.94863
| 31>    C        8.00859        -7.38846         3.58438
| 32>    C        9.38811        -7.64284         3.74340
| 33>    C       10.36681        -6.62259         4.22381
| 34>    O       10.97866        -6.72119         5.25885
| 35>    C       10.62624        -5.52544         3.21492
| 36>    C        9.89813        -8.85781         3.34787
| 37>    C        9.09025        -9.80823         2.70831
| 38>    C        7.76406        -9.56326         2.48468
| 39>    C        4.68222        -8.57711         2.29938
| 40>    C        4.49577        -9.90670         2.14242
| 41>    N        3.35415       -10.52308         1.70953
| 42>    C        2.22192        -9.76929         1.20807
| 43>    C        2.45998        -9.26776        -0.21572
| 44>    C        3.41785       -11.87409         1.35899
| 45>    C        4.46613       -12.44210         0.69362
| 46>    S        4.23276       -14.11447         0.39433
| 47>    C        2.70942       -14.07270         1.18201
| 48>    C        2.38634       -12.83219         1.65188
| 49>    N        1.22851       -12.52973         2.37623
| 50>    C        1.40802       -12.01934         3.73088
| 51>    C        0.36228       -10.97609         4.10806
| 52>    C        0.04857       -13.20196         2.12177
| 53>    C       -0.34446       -13.62406         0.91129
| 54>    N       -1.53513       -14.26973         0.61221
| 55>    C       -2.65374       -14.45115         1.35019
| 56>    S       -2.92007       -13.72735         2.90504
| 57>    C       -4.48971       -14.47523         2.98785
| 58>    N       -5.26049       -14.26821         4.11235
| 59>    O       -6.34644       -14.83650         4.17173
| 60>    O       -4.80724       -13.52997         4.98208
| 61>    C       -4.77579       -15.22147         1.86979
| 62>    C       -3.74459       -15.22960         0.92833
| 63>    C       -3.80713       -15.96033        -0.32191
| 64>    C       -4.53547       -17.08631        -0.42180
| 65>    N       -4.77231       -17.82897        -1.54389
| 66>    C       -4.13484       -17.48355        -2.79663
| 67>    C       -2.66061       -17.88515        -2.85426
| 68>    C       -5.52918       -18.99929        -1.47229
| 69>    C       -5.23147       -20.11398        -2.20349
| 70>    S       -6.31110       -21.41498        -1.91890
| 71>    C       -7.20537       -20.45944        -0.81120
| 72>    C       -6.70713       -19.19612        -0.65624
| 73>    N       -7.29326       -18.22791         0.15379
| 74>    C       -7.88362       -18.60992         1.42248
| 75>    C       -6.91978       -18.44454         2.59860
| 76>    C       -7.42897       -16.93722        -0.31613
| 77>    C       -7.86767       -15.88198         0.36425
| 78>    H        0.59497         1.26996         5.24394
| 79>    H        0.36221        -0.26686         4.26159
| 80>    H        2.93435         1.60484         6.46906
| 81>    H        5.18597         0.39553         6.77246
| 82>    H        7.00943        -1.09091         6.73767
| 83>    H        8.61976        -3.05899         6.33656
| 84>    H        8.77307        -5.27162         5.14780
| 85>    H       11.14969        -4.69473         3.68151
| 86>    H        9.70313        -5.18513         2.75464
| 87>    H       11.26123        -5.94339         2.43383
| 88>    H       10.94931        -9.06009         3.49021
| 89>    H        9.53629       -10.73040         2.36724
| 90>    H        7.17264       -10.27348         1.93125
| 91>    H        3.87418        -7.89209         2.08558
| 92>    H        5.26000       -10.60344         2.44934
| 93>    H        2.03614        -8.92904         1.88041
| 94>    H        1.35046       -10.42638         1.22122
| 95>    H        3.33029        -8.61767        -0.25237
| 96>    H        1.59340        -8.71243        -0.56351
| 97>    H        2.62833       -10.10816        -0.88597
| 98>    H        5.35605       -11.95924         0.34314
| 99>    H        2.13436       -14.97190         1.27070
|100>    H        2.40251       -11.57484         3.78942
|101>    H        1.36587       -12.85095         4.44835
|102>    H        0.38206       -10.13974         3.41568
|103>    H        0.57583       -10.60321         5.10597
|104>    H       -0.63865       -11.39842         4.10972
|105>    H       -0.58303       -13.32928         2.98504
|106>    H        0.29404       -13.49774         0.04960
|107>    H       -1.57923       -14.68637        -0.30691
|108>    H       -5.72544       -15.70095         1.72466
|109>    H       -3.27882       -15.54348        -1.16641
|110>    H       -4.98683       -17.48534         0.47219
|111>    H       -4.22728       -16.40129        -2.93618
|112>    H       -4.68471       -17.97351        -3.60328
|113>    H       -2.22317       -17.55181        -3.79173
|114>    H       -2.54996       -18.96347        -2.78319
|115>    H       -2.11131       -17.43768        -2.03031
|116>    H       -4.42320       -20.25961        -2.88993
|117>    H       -8.07241       -20.89039        -0.35405
|118>    H       -8.19282       -19.65474         1.36711
|119>    H       -8.77746       -18.00225         1.58383
|120>    H       -5.98604       -18.96748         2.39900
|121>    H       -7.36509       -18.86865         3.49460
|122>    H       -6.70549       -17.39822         2.79674
|123>    H       -7.15349       -16.82822        -1.35653
|124>    H       -8.16045       -15.91083         1.39785
|125>    H       -7.95756       -14.93152        -0.12775
|126> *
|127>
|128>                          ****END OF INPUT****

CARTESIAN COORDINATES (ANGSTROEM)
---------------------------------
  C      0.993840    0.337320    4.886140
  C      2.235630   -0.045830    5.215220
  C      3.182940    0.653190    6.033700
  C      4.364830    0.014870    6.191020
  C      4.453940   -1.232850    5.517460
  S      2.957410   -1.566270    4.663910
  C      5.521880   -2.098990    5.497980
  C      6.774570   -1.953130    6.139910
  C      7.626360   -2.992240    5.928220
  C      7.103530   -4.023180    5.110450
  S      5.471300   -3.613810    4.611840
  C      7.771700   -5.169960    4.752480
  C      7.300150   -6.232470    3.980770
  S      5.644890   -6.346130    3.457800
  C      5.845070   -7.948790    2.822180
  C      7.180440   -8.367930    2.948630
  C      8.008590   -7.388460    3.584380
  C      9.388110   -7.642840    3.743400
  C     10.366810   -6.622590    4.223810
  O     10.978660   -6.721190    5.258850
  C     10.626240   -5.525440    3.214920
  C      9.898130   -8.857810    3.347870
  C      9.090250   -9.808230    2.708310
  C      7.764060   -9.563260    2.484680
  C      4.682220   -8.577110    2.299380
  C      4.495770   -9.906700    2.142420
  N      3.354150  -10.523080    1.709530
  C      2.221920   -9.769290    1.208070
  C      2.459980   -9.267760   -0.215720
  C      3.417850  -11.874090    1.358990
  C      4.466130  -12.442100    0.693620
  S      4.232760  -14.114470    0.394330
  C      2.709420  -14.072700    1.182010
  C      2.386340  -12.832190    1.651880
  N      1.228510  -12.529730    2.376230
  C      1.408020  -12.019340    3.730880
  C      0.362280  -10.976090    4.108060
  C      0.048570  -13.201960    2.121770
  C     -0.344460  -13.624060    0.911290
  N     -1.535130  -14.269730    0.612210
  C     -2.653740  -14.451150    1.350190
  S     -2.920070  -13.727350    2.905040
  C     -4.489710  -14.475230    2.987850
  N     -5.260490  -14.268210    4.112350
  O     -6.346440  -14.836500    4.171730
  O     -4.807240  -13.529970    4.982080
  C     -4.775790  -15.221470    1.869790
  C     -3.744590  -15.229600    0.928330
  C     -3.807130  -15.960330   -0.321910
  C     -4.535470  -17.086310   -0.421800
  N     -4.772310  -17.828970   -1.543890
  C     -4.134840  -17.483550   -2.796630
  C     -2.660610  -17.885150   -2.854260
  C     -5.529180  -18.999290   -1.472290
  C     -5.231470  -20.113980   -2.203490
  S     -6.311100  -21.414980   -1.918900
  C     -7.205370  -20.459440   -0.811200
  C     -6.707130  -19.196120   -0.656240
  N     -7.293260  -18.227910    0.153790
  C     -7.883620  -18.609920    1.422480
  C     -6.919780  -18.444540    2.598600
  C     -7.428970  -16.937220   -0.316130
  C     -7.867670  -15.881980    0.364250
  H      0.594970    1.269960    5.243940
  H      0.362210   -0.266860    4.261590
  H      2.934350    1.604840    6.469060
  H      5.185970    0.395530    6.772460
  H      7.009430   -1.090910    6.737670
  H      8.619760   -3.058990    6.336560
  H      8.773070   -5.271620    5.147800
  H     11.149690   -4.694730    3.681510
  H      9.703130   -5.185130    2.754640
  H     11.261230   -5.943390    2.433830
  H     10.949310   -9.060090    3.490210
  H      9.536290  -10.730400    2.367240
  H      7.172640  -10.273480    1.931250
  H      3.874180   -7.892090    2.085580
  H      5.260000  -10.603440    2.449340
  H      2.036140   -8.929040    1.880410
  H      1.350460  -10.426380    1.221220
  H      3.330290   -8.617670   -0.252370
  H      1.593400   -8.712430   -0.563510
  H      2.628330  -10.108160   -0.885970
  H      5.356050  -11.959240    0.343140
  H      2.134360  -14.971900    1.270700
  H      2.402510  -11.574840    3.789420
  H      1.365870  -12.850950    4.448350
  H      0.382060  -10.139740    3.415680
  H      0.575830  -10.603210    5.105970
  H     -0.638650  -11.398420    4.109720
  H     -0.583030  -13.329280    2.985040
  H      0.294040  -13.497740    0.049600
  H     -1.579230  -14.686370   -0.306910
  H     -5.725440  -15.700950    1.724660
  H     -3.278820  -15.543480   -1.166410
  H     -4.986830  -17.485340    0.472190
  H     -4.227280  -16.401290   -2.936180
  H     -4.684710  -17.973510   -3.603280
  H     -2.223170  -17.551810   -3.791730
  H     -2.549960  -18.963470   -2.783190
  H     -2.111310  -17.437680   -2.030310
  H     -4.423200  -20.259610   -2.889930
  H     -8.072410  -20.890390   -0.354050
  H     -8.192820  -19.654740    1.367110
  H     -8.777460  -18.002250    1.583830
  H     -5.986040  -18.967480    2.399000
  H     -7.365090  -18.868650    3.494600
  H     -6.705490  -17.398220    2.796740
  H     -7.153490  -16.828220   -1.356530
  H     -8.160450  -15.910830    1.397850
  H     -7.957560  -14.931520   -0.127750

 Total Charge           Charge          ....    0
 Multiplicity           Mult            ....    1
 Number of Electrons    NEL             ....  498
 Basis Dimension        Dim             .... 1146

ORBITAL ENERGIES
----------------

  NO   OCC          E(Eh)            E(eV)
   0   2.0000     -88.964664     -2420.8516
   1   2.0000     -88.959438     -2420.7094
   2   2.0000     -88.952668     -2420.5252
   3   2.0000     -88.951738     -2420.4998
   4   2.0000     -88.934121     -2420.0205
   5   2.0000     -88.927036     -2419.8277
   6   2.0000     -19.208586      -522.6922
   7   2.0000     -19.207774      -522.6701
   8   2.0000     -19.199002      -522.4314
   9   2.0000     -14.620274      -397.8379
  10   2.0000     -14.464430      -393.5972
  11   2.0000     -14.447511      -393.1368
  12   2.0000     -14.445105      -393.0713
  13   2.0000     -14.433510      -392.7558
  14   2.0000     -14.430503      -392.6739
  15   2.0000     -10.352056      -281.6938
  16   2.0000     -10.347620      -281.5731
  17   2.0000     -10.315531      -280.6999
  18   2.0000     -10.314780      -280.6794
  19   2.0000     -10.314328      -280.6671
  20   2.0000     -10.312799      -280.6255
  21   2.0000     -10.312483      -280.6169
  22   2.0000     -10.312042      -280.6049
  23   2.0000     -10.310668      -280.5675
  24   2.0000     -10.306200      -280.4460
  25   2.0000     -10.306156      -280.4448
  26   2.0000     -10.306014      -280.4409
  27   2.0000     -10.302365      -280.3416
  28   2.0000     -10.301965      -280.3307
  29   2.0000     -10.299399      -280.2609
  30   2.0000     -10.297832      -280.2183
  31   2.0000     -10.297225      -280.2017
  32   2.0000     -10.296497      -280.1819
  33   2.0000     -10.295707      -280.1604
  34   2.0000     -10.295705      -280.1604
  35   2.0000     -10.294802      -280.1358
  36   2.0000     -10.292751      -280.0800
  37   2.0000     -10.291399      -280.0432
  38   2.0000     -10.291223      -280.0384
  39   2.0000     -10.286726      -279.9160
  40   2.0000     -10.285543      -279.8839
  41   2.0000     -10.279218      -279.7117
  42   2.0000     -10.278732      -279.6985
  43   2.0000     -10.277490      -279.6647
  44   2.0000     -10.275402      -279.6079
  45   2.0000     -10.273344      -279.5519
  46   2.0000     -10.273152      -279.5467
  47   2.0000     -10.272777      -279.5365
  48   2.0000     -10.272697      -279.5343
  49   2.0000     -10.272680      -279.5338
  50   2.0000     -10.271850      -279.5112
  51   2.0000     -10.271697      -279.5071
  52   2.0000     -10.270227      -279.4671
  53   2.0000     -10.270212      -279.4667
  54   2.0000     -10.266727      -279.3719
  55   2.0000     -10.265773      -279.3459
  56   2.0000     -10.261931      -279.2413
  57   2.0000     -10.260170      -279.1934
  58   2.0000     -10.259225      -279.1677
  59   2.0000     -10.258349      -279.1439
  60   2.0000     -10.258327      -279.1433
  61   2.0000     -10.251447      -278.9561
  62   2.0000     -10.235879      -278.5324
  63   2.0000      -8.059420      -219.3080
  64   2.0000      -8.055515      -219.2017
  65   2.0000      -8.047803      -218.9918
  66   2.0000      -8.047793      -218.9916
  67   2.0000      -8.030120      -218.5107
  68   2.0000      -8.023748      -218.3373
  69   2.0000      -6.029140      -164.0613
  70   2.0000      -6.024831      -163.9440
  71   2.0000      -6.024731      -163.9413
  72   2.0000      -6.020929      -163.8378
  73   2.0000      -6.020609      -163.8291
  74   2.0000      -6.017648      -163.7485
  75   2.0000      -6.017156      -163.7351
  76   2.0000      -6.016827      -163.7262
  77   2.0000      -6.012963      -163.6210
  78   2.0000      -6.012690      -163.6136
  79   2.0000      -6.010452      -163.5527
  80   2.0000      -6.009868      -163.5368
  81   2.0000      -5.999918      -163.2661
  82   2.0000      -5.995796      -163.1539
  83   2.0000      -5.993575      -163.0935
  84   2.0000      -5.991019      -163.0239
  85   2.0000      -5.989690      -162.9878
  86   2.0000      -5.984253      -162.8398
  87   2.0000      -1.284872       -34.9632
  88   2.0000      -1.116499       -30.3815
  89   2.0000      -1.103215       -30.0200
  90   2.0000      -1.072252       -29.1775
  91   2.0000      -1.068592       -29.0779
  92   2.0000      -1.065347       -28.9896
  93   2.0000      -1.044128       -28.4122
  94   2.0000      -1.040880       -28.3238
  95   2.0000      -0.988631       -26.9020
  96   2.0000      -0.978974       -26.6392
  97   2.0000      -0.978510       -26.6266
  98   2.0000      -0.972788       -26.4709
  99   2.0000      -0.967164       -26.3179
 100   2.0000      -0.957285       -26.0490
 101   2.0000      -0.926072       -25.1997
 102   2.0000      -0.897570       -24.4241
 103   2.0000      -0.894892       -24.3512
 104   2.0000      -0.870564       -23.6893
 105   2.0000      -0.869009       -23.6469
 106   2.0000      -0.862664       -23.4743
 107   2.0000      -0.860531       -23.4162
 108   2.0000      -0.857205       -23.3257
 109   2.0000      -0.855798       -23.2874
 110   2.0000      -0.849020       -23.1030
 111   2.0000      -0.845601       -23.0100
 112   2.0000      -0.841363       -22.8946
 113   2.0000      -0.840666       -22.8757
 114   2.0000      -0.833362       -22.6769
 115   2.0000      -0.829795       -22.5799
 116   2.0000      -0.822741       -22.3879
 117   2.0000      -0.815870       -22.2010
 118   2.0000      -0.808260       -21.9939
 119   2.0000      -0.801329       -21.8053
 120   2.0000      -0.799811       -21.7640
 121   2.0000      -0.789530       -21.4842
 122   2.0000      -0.786529       -21.4025
 123   2.0000      -0.780304       -21.2332
 124   2.0000      -0.759269       -20.6608
 125   2.0000      -0.756259       -20.5788
 126   2.0000      -0.738421       -20.0935
 127   2.0000      -0.732894       -19.9431
 128   2.0000      -0.719939       -19.5905
 129   2.0000      -0.712707       -19.3938
 130   2.0000      -0.709919       -19.3179
 131   2.0000      -0.706184       -19.2162
 132   2.0000      -0.701471       -19.0880
 133   2.0000      -0.691577       -18.8188
 134   2.0000      -0.684705       -18.6318
 135   2.0000      -0.674778       -18.3617
 136   2.0000      -0.671217       -18.2647
 137   2.0000      -0.662742       -18.0341
 138   2.0000      -0.659816       -17.9545
 139   2.0000      -0.657680       -17.8964
 140   2.0000      -0.651571       -17.7301
 141   2.0000      -0.642666       -17.4878
 142   2.0000      -0.637382       -17.3440
 143   2.0000      -0.631619       -17.1872
 144   2.0000      -0.622850       -16.9486
 145   2.0000      -0.621724       -16.9180
 146   2.0000      -0.617255       -16.7963
 147   2.0000      -0.609406       -16.5828
 148   2.0000      -0.605384       -16.4733
 149   2.0000      -0.602805       -16.4032
 150   2.0000      -0.602284       -16.3890
 151   2.0000      -0.600657       -16.3447
 152   2.0000      -0.591024       -16.0826
 153   2.0000      -0.588308       -16.0087
 154   2.0000      -0.585423       -15.9302
 155   2.0000      -0.582018       -15.8375
 156   2.0000      -0.576192       -15.6790
 157   2.0000      -0.569145       -15.4872
 158   2.0000      -0.567171       -15.4335
 159   2.0000      -0.563667       -15.3382
 160   2.0000      -0.561733       -15.2855
 161   2.0000      -0.556091       -15.1320
 162   2.0000      -0.553680       -15.0664
 163   2.0000      -0.551177       -14.9983
 164   2.0000      -0.543377       -14.7861
 165   2.0000      -0.539900       -14.6914
 166   2.0000      -0.537397       -14.6233
 167   2.0000      -0.533382       -14.5141
 168   2.0000      -0.529546       -14.4097
 169   2.0000      -0.527486       -14.3536
 170   2.0000      -0.522492       -14.2177
 171   2.0000      -0.522307       -14.2127
 172   2.0000      -0.520706       -14.1691
 173   2.0000      -0.514427       -13.9983
 174   2.0000      -0.513624       -13.9764
 175   2.0000      -0.512237       -13.9387
 176   2.0000      -0.511273       -13.9124
 177   2.0000      -0.507346       -13.8056
 178   2.0000      -0.506870       -13.7926
 179   2.0000      -0.506066       -13.7707
 180   2.0000      -0.503964       -13.7135
 181   2.0000      -0.497263       -13.5312
 182   2.0000      -0.491637       -13.3781
 183   2.0000      -0.489963       -13.3326
 184   2.0000      -0.488400       -13.2900
 185   2.0000      -0.485868       -13.2211
 186   2.0000      -0.482257       -13.1229
 187   2.0000      -0.481922       -13.1138
 188   2.0000      -0.480454       -13.0738
 189   2.0000      -0.478546       -13.0219
 190   2.0000      -0.476246       -12.9593
 191   2.0000      -0.474543       -12.9130
 192   2.0000      -0.471916       -12.8415
 193   2.0000      -0.471143       -12.8205
 194   2.0000      -0.467824       -12.7301
 195   2.0000      -0.466859       -12.7039
 196   2.0000      -0.465938       -12.6788
 197   2.0000      -0.462756       -12.5922
 198   2.0000      -0.462548       -12.5866
 199   2.0000      -0.457736       -12.4556
 200   2.0000      -0.455162       -12.3856
 201   2.0000      -0.452585       -12.3155
 202   2.0000      -0.451119       -12.2756
 203   2.0000      -0.449709       -12.2372
 204   2.0000      -0.445470       -12.1219
 205   2.0000      -0.443237       -12.0611
 206   2.0000      -0.442483       -12.0406
 207   2.0000      -0.438747       -11.9389
 208   2.0000      -0.435605       -11.8534
 209   2.0000      -0.435085       -11.8393
 210   2.0000      -0.433985       -11.8093
 211   2.0000      -0.432383       -11.7657
 212   2.0000      -0.427162       -11.6237
 213   2.0000      -0.424737       -11.5577
 214   2.0000      -0.424261       -11.5447
 215   2.0000      -0.422269       -11.4905
 216   2.0000      -0.420220       -11.4348
 217   2.0000      -0.419733       -11.4215
 218   2.0000      -0.418388       -11.3849
 219   2.0000      -0.414315       -11.2741
 220   2.0000      -0.409003       -11.1295
 221   2.0000      -0.408085       -11.1046
 222   2.0000      -0.406513       -11.0618
 223   2.0000      -0.399737       -10.8774
 224   2.0000      -0.388065       -10.5598
 225   2.0000      -0.387294       -10.5388
 226   2.0000      -0.378600       -10.3022
 227   2.0000      -0.377777       -10.2798
 228   2.0000      -0.359033        -9.7698
 229   2.0000      -0.358570        -9.7572
 230   2.0000      -0.354917        -9.6578
 231   2.0000      -0.347647        -9.4600
 232   2.0000      -0.337812        -9.1923
 233   2.0000      -0.332330        -9.0432
 234   2.0000      -0.327523        -8.9124
 235   2.0000      -0.326384        -8.8813
 236   2.0000      -0.323925        -8.8144
 237   2.0000      -0.321575        -8.7505
 238   2.0000      -0.315933        -8.5970
 239   2.0000      -0.313872        -8.5409
 240   2.0000      -0.310037        -8.4365
 241   2.0000      -0.303497        -8.2586
 242   2.0000      -0.290054        -7.8928
 243   2.0000      -0.284478        -7.7410
 244   2.0000      -0.258399        -7.0314
 245   2.0000      -0.248479        -6.7615
 246   2.0000      -0.245399        -6.6777
 247   2.0000      -0.222171        -6.0456
 248   2.0000      -0.190672        -5.1884
 249   0.0000      -0.065409        -1.7799
 250   0.0000      -0.032943        -0.8964
 251   0.0000      -0.016534        -0.4499
 252   0.0000       0.011651         0.3170
 253   0.0000       0.018197         0.4952

MULLIKEN ATOMIC CHARGES
-----------------------
   0 C :   -0.035434
   1 C :   -0.060978
   2 C :    0.048593
   3 C :    0.028047
   4 C :   -0.072330
   5 S :    0.070776
   6 C :   -0.030613
   7 C :    0.021058
   8 C :    0.032728
   9 C :   -0.055481
  10 S :    0.056969
  11 C :   -0.031436
  12 C :   -0.145440
  13 S :    0.124995
  14 C :   -0.118244
  15 C :    0.110775
  16 C :    0.147376
  17 C :   -0.035645
  18 C :   -0.036879
  19 O :   -0.182702
  20 C :    0.062294
  21 C :   -0.012329
  22 C :    0.030297
  23 C :   -0.040097
  24 C :    0.000752
  25 C :    0.063500
  26 N :   -0.213216
  27 C :    0.068572
  28 C :    0.016327
  29 C :    0.123916
  30 C :   -0.176377
  31 S :    0.120483
  32 C :   -0.176107
  33 C :    0.127835
  34 N :   -0.245395
  35 C :    0.109145
  36 C :    0.010028
  37 C :    0.051403
  38 C :    0.006101
  39 N :   -0.024043
  40 C :   -0.119461
  41 S :    0.114621
  42 C :   -0.024770
  43 N :    0.286824
  44 O :   -0.282441
  45 O :   -0.290873
  46 C :    0.020293
  47 C :    0.124179
  48 C :   -0.111896
  49 C :    0.112984
  50 N :   -0.218810
  51 C :    0.087407
  52 C :    0.021681
  53 C :    0.151346
  54 C :   -0.197097
  55 S :    0.119256
  56 C :   -0.199331
  57 C :    0.155975
  58 N :   -0.246982
  59 C :    0.098629
  60 C :    0.004071
  61 C :    0.072102
  62 C :   -0.071933
  63 H :    0.015239
  64 H :    0.017540
  65 H :   -0.016395
  66 H :   -0.014334
  67 H :   -0.020576
  68 H :   -0.011720
  69 H :    0.003122
  70 H :    0.028659
  71 H :    0.045791
  72 H :    0.034838
  73 H :   -0.015914
  74 H :   -0.020424
  75 H :   -0.044082
  76 H :   -0.017986
  77 H :    0.019209
  78 H :    0.032525
  79 H :    0.045052
  80 H :    0.023037
  81 H :    0.020589
  82 H :    0.017992
  83 H :    0.015031
  84 H :    0.017200
  85 H :    0.028229
  86 H :    0.009084
  87 H :    0.012854
  88 H :    0.022867
  89 H :    0.022842
  90 H :    0.019197
  91 H :    0.015682
  92 H :    0.130233
  93 H :   -0.032049
  94 H :   -0.032662
  95 H :    0.015395
  96 H :    0.018766
  97 H :    0.024354
  98 H :    0.017988
  99 H :    0.015019
 100 H :    0.010119
 101 H :    0.008353
 102 H :    0.016910
 103 H :    0.010648
 104 H :    0.023578
 105 H :    0.020418
 106 H :    0.016672
 107 H :    0.033012
 108 H :    0.013328
 109 H :    0.027649
 110 H :    0.012124
Sum of atomic charges:   -0.0000000

LOEWDIN ATOMIC CHARGES
----------------------
   0 C :   -0.086338
   1 C :   -0.138456
   2 C :   -0.038069
   3 C :   -0.026438
   4 C :   -0.183605
   5 S :    0.343753
   6 C :   -0.177194
   7 C :   -0.047459
   8 C :   -0.030249
   9 C :   -0.166519
  10 S :    0.357102
  11 C :   -0.072918
  12 C :   -0.199528
  13 S :    0.465573
  14 C :   -0.157040
  15 C :   -0.058377
  16 C :   -0.036476
  17 C :   -0.045852
  18 C :    0.078506
  19 O :   -0.138904
  20 C :   -0.076429
  21 C :   -0.014039
  22 C :   -0.032889
  23 C :   -0.016115
  24 C :   -0.131286
  25 C :    0.036883
  26 N :   -0.007419
  27 C :    0.038090
  28 C :   -0.063325
  29 C :   -0.034428
  30 C :   -0.216075
  31 S :    0.441320
  32 C :   -0.211928
  33 C :   -0.031195
  34 N :   -0.046305
  35 C :    0.041538
  36 C :   -0.060209
  37 C :   -0.026520
  38 C :   -0.043216
  39 N :    0.030823
  40 C :   -0.102631
  41 S :    0.450602
  42 C :   -0.236405
  43 N :    0.277329
  44 O :   -0.251707
  45 O :   -0.257477
  46 C :   -0.001908
  47 C :   -0.102013
  48 C :   -0.131653
  49 C :    0.050488
  50 N :   -0.013582
  51 C :    0.040289
  52 C :   -0.063867
  53 C :   -0.027556
  54 C :   -0.227553
  55 S :    0.437406
  56 C :   -0.219922
  57 C :   -0.028043
  58 N :   -0.034735
  59 C :    0.047104
  60 C :   -0.066144
  61 C :    0.029118
  62 C :   -0.140380
  63 H :    0.026621
  64 H :    0.024148
  65 H :    0.031420
  66 H :    0.031407
  67 H :    0.029114
  68 H :    0.033818
  69 H :    0.043041
  70 H :    0.035064
  71 H :    0.040417
  72 H :    0.048500
  73 H :    0.030762
  74 H :    0.027925
  75 H :    0.022503
  76 H :    0.023449
  77 H :    0.029115
  78 H :    0.023176
  79 H :    0.028849
  80 H :    0.025976
  81 H :    0.029423
  82 H :    0.026101
  83 H :    0.022174
  84 H :    0.022774
  85 H :    0.028909
  86 H :    0.014947
  87 H :    0.024801
  88 H :    0.032945
  89 H :    0.024783
  90 H :    0.006040
  91 H :    0.026085
  92 H :    0.091317
  93 H :    0.038174
  94 H :    0.009594
  95 H :    0.032141
  96 H :    0.022586
  97 H :    0.028290
  98 H :    0.028423
  99 H :    0.024223
 100 H :    0.022843
 101 H :    0.017877
 102 H :    0.020467
 103 H :    0.022419
 104 H :    0.026240
 105 H :    0.023547
 106 H :    0.030475
 107 H :    0.026494
 108 H :    0.028148
 109 H :    0.020913
 110 H :    0.025995

  Mayer bond orders larger than 0.100000
B(  0-C ,  1-C ) :   1.8582 B(  0-C , 63-H ) :   0.9503 B(  0-C , 64-H ) :   0.9419
B(  1-C ,  2-C ) :   1.0837 B(  1-C ,  5-S ) :   1.0099 B(  2-C ,  3-C ) :   1.6516
B(  2-C , 65-H ) :   0.9927 B(  3-C ,  4-C ) :   1.1623 B(  3-C , 66-H ) :   0.9915
B(  4-C ,  5-S ) :   1.0367 B(  4-C ,  6-C ) :   1.5462 B(  6-C ,  7-C ) :   1.1786
B(  6-C , 10-S ) :   1.0332 B(  7-C ,  8-C ) :   1.5865 B(  7-C , 67-H ) :   0.9913
B(  8-C ,  9-C ) :   1.1586 B(  8-C , 68-H ) :   0.9984 B(  9-C , 10-S ) :   1.0281
B(  9-C , 11-C ) :   1.5475 B( 11-C , 12-C ) :   1.2245 B( 11-C , 69-H ) :   0.9458
B( 12-C , 13-S ) :   1.0938 B( 12-C , 16-C ) :   1.3063 B( 13-S , 14-C ) :   1.1721
B( 14-C , 15-C ) :   1.3217 B( 14-C , 24-C ) :   1.1509 B( 15-C , 16-C ) :   1.2123
B( 15-C , 23-C ) :   1.2031 B( 16-C , 17-C ) :   1.2623 B( 17-C , 18-C ) :   0.8721
B( 17-C , 21-C ) :   1.5549 B( 18-C , 19-O ) :   2.1955 B( 18-C , 20-C ) :   1.0236
B( 20-C , 70-H ) :   0.9521 B( 20-C , 71-H ) :   0.9514 B( 20-C , 72-H ) :   0.9389
B( 21-C , 22-C ) :   1.2151 B( 21-C , 73-H ) :   0.9906 B( 22-C , 23-C ) :   1.5278
B( 22-C , 74-H ) :   0.9857 B( 23-C , 75-H ) :   0.9900 B( 24-C , 25-C ) :   1.6283
B( 24-C , 76-H ) :   0.9324 B( 25-C , 26-N ) :   1.1419 B( 25-C , 77-H ) :   0.9654
B( 26-N , 27-C ) :   0.9663 B( 26-N , 29-C ) :   1.0416 B( 27-C , 28-C ) :   1.1102
B( 27-C , 78-H ) :   0.9389 B( 27-C , 79-H ) :   0.9413 B( 28-C , 80-H ) :   0.9632
B( 28-C , 81-H ) :   0.9664 B( 28-C , 82-H ) :   0.9626 B( 29-C , 30-C ) :   1.5276
B( 29-C , 33-C ) :   1.2777 B( 30-C , 31-S ) :   1.1612 B( 30-C , 83-H ) :   0.9722
B( 31-S , 32-C ) :   1.1600 B( 32-C , 33-C ) :   1.5309 B( 32-C , 84-H ) :   0.9665
B( 33-C , 34-N ) :   1.0633 B( 34-N , 35-C ) :   0.9490 B( 34-N , 37-C ) :   1.0635
B( 35-C , 36-C ) :   1.1054 B( 35-C , 85-H ) :   0.9504 B( 35-C , 86-H ) :   0.9424
B( 36-C , 87-H ) :   0.9677 B( 36-C , 88-H ) :   0.9617 B( 36-C , 89-H ) :   0.9642
B( 37-C , 38-C ) :   1.7417 B( 37-C , 90-H ) :   0.9528 B( 38-C , 39-N ) :   1.0816
B( 38-C , 91-H ) :   0.9567 B( 39-N , 40-C ) :   1.2521 B( 39-N , 92-H ) :   0.9120
B( 40-C , 41-S ) :   1.1260 B( 40-C , 47-C ) :   1.3347 B( 41-S , 42-C ) :   1.0554
B( 42-C , 43-N ) :   1.0265 B( 42-C , 46-C ) :   1.3980 B( 43-N , 44-O ) :   1.4867
B( 43-N , 45-O ) :   1.4828 B( 44-O , 45-O ) :   0.2328 B( 46-C , 47-C ) :   1.3201
B( 46-C , 93-H ) :   0.9915 B( 47-C , 48-C ) :   1.0241 B( 48-C , 49-C ) :   1.7385
B( 48-C , 94-H ) :   0.9455 B( 49-C , 50-N ) :   1.1254 B( 49-C , 95-H ) :   0.9517
B( 50-N , 51-C ) :   0.9834 B( 50-N , 53-C ) :   1.0409 B( 51-C , 52-C ) :   1.1145
B( 51-C , 96-H ) :   0.9368 B( 51-C , 97-H ) :   0.9446 B( 52-C , 98-H ) :   0.9654
B( 52-C , 99-H ) :   0.9641 B( 52-C ,100-H ) :   0.9601 B( 53-C , 54-C ) :   1.5273
B( 53-C , 57-C ) :   1.2579 B( 54-C , 55-S ) :   1.1544 B( 54-C ,101-H ) :   0.9662
B( 55-S , 56-C ) :   1.1598 B( 56-C , 57-C ) :   1.5311 B( 56-C ,102-H ) :   0.9687
B( 57-C , 58-N ) :   1.0476 B( 58-N , 59-C ) :   0.9696 B( 58-N , 61-C ) :   1.0965
B( 59-C , 60-C ) :   1.1198 B( 59-C ,103-H ) :   0.9475 B( 59-C ,104-H ) :   0.9401
B( 60-C ,105-H ) :   0.9576 B( 60-C ,106-H ) :   0.9603 B( 60-C ,107-H ) :   0.9583
B( 61-C , 62-C ) :   1.8987 B( 61-C ,108-H ) :   0.9515 B( 62-C ,109-H ) :   0.9433
B( 62-C ,110-H ) :   0.9441

-----------------------------------------------------------------------------
         ABSORPTION SPECTRUM VIA TRANSITION ELECTRIC DIPOLE MOMENTS
-----------------------------------------------------------------------------
State   Energy  Wavelength   fosc         T2         TX        TY        TZ
        (cm-1)    (nm)                  (au**2)     (au)      (au)      (au)
-----------------------------------------------------------------------------
   0   13956.8    716.5   1.092438273  25.76842   1.13743  -4.69707  -1.55313
   1   21353.6    468.3   0.057586172   0.88781  -0.70459   0.61970   0.08565
   2   23738.8    421.3   0.619789583   8.59532   2.70215   0.09541  -1.13339
   3   24727.0    404.4   0.389534722   5.18622   2.14585  -0.36578   0.66913
   4   25239.5    396.2   0.174900333   2.28132   1.44383  -0.34780   0.27514
   5   26073.3    383.5   0.001551020   0.01958  -0.04248  -0.02497  -0.13098
   6   29413.7    340.0   0.108791595   1.21765  -0.96817  -0.35924  -0.38890
   7   29716.7    336.5   0.131368666   1.45535  -1.09354  -0.50046  -0.09514
   8   29936.7    334.0   0.084753846   0.93203  -0.76671  -0.43722  -0.39120
   9   30753.3    325.2   0.020926102   0.22401  -0.18672  -0.36974  -0.22900
  10   31635.1    316.1   0.086193825   0.89698  -0.85825  -0.32832  -0.22934
  11   31962.9    312.9   0.030150072   0.31054  -0.51098   0.00461  -0.22231
  12   32450.6    308.2   0.005943158   0.06029  -0.16525  -0.00799  -0.18145
  13   32864.8    304.3   0.005148614   0.05157   0.12263  -0.11322   0.15401
  14   33099.1    302.1   0.229958243   2.28722   0.88989   0.78291   0.93934
  15   33227.1    301.0   0.031759795   0.31467  -0.27452   0.44567   0.20173
  16   33457.4    298.9   0.005139245   0.05057   0.07786   0.12959   0.16647
  17   34319.3    291.4   0.134835523   1.29342  -0.92146  -0.57907  -0.33018
  18   34768.7    287.6   0.088632736   0.83923   0.50644   0.70250   0.29874
  19   35053.4    285.3   0.137486123   1.29123   0.37719   0.87898   0.61347
  20   35224.3    283.9   0.305493465   2.85519   0.58712   1.32931   0.86222
  21   35803.9    279.3   0.025723732   0.23653   0.46189  -0.12031  -0.09334
  22   36463.9    274.2   0.031173526   0.28145   0.07610   0.47901   0.21496
  23   37043.2    270.0   0.022284551   0.19805   0.31542  -0.31356  -0.01554
  24   37416.1    267.3   0.028712673   0.25263  -0.47901  -0.11336  -0.10166
  25   37593.5    266.0   0.037800374   0.33102  -0.54437  -0.11651  -0.14530
  26   38359.3    260.7   0.013107803   0.11250  -0.22380  -0.19208  -0.15972
  27   39035.9    256.2   0.181020022   1.52665   1.09431  -0.57356   0.01250
  28   39320.9    254.3   0.031554025   0.26418   0.17336   0.46638   0.12890
  29   39543.0    252.9   0.092841705   0.77294  -0.47553  -0.36067  -0.64555
  30   40056.8    249.6   0.165110064   1.35698   0.65900   0.03258  -0.96002
  31   40278.6    248.3   0.045237155   0.36974  -0.03196   0.50606   0.33560

FINAL SINGLE POINT ENERGY     -4797.293091492843

DIPOLE MOMENT
-------------
                                X             Y             Z
Electronic contribution:     31.29635      31.13586      22.24800
Nuclear contribution   :    -30.78479     -32.54070     -25.60778
                        -----------------------------------------
Total Dipole Moment    :      0.51156      -1.40484      -3.35978
                        -----------------------------------------
Magnitude (a.u.)       :      3.67742
Magnitude (Debye)      :      9.34726

Rotational constants in cm-1:     0.001737     0.000276     0.000248
Rotational constants in MHz :    52.086746     8.273527     7.430743

                             ****ORCA TERMINATED NORMALLY****
TOTAL RUN TIME: 0 days 0 hours 9 minutes 19 seconds 277 msec
