                         Program Version 4.2.0 -  RELEASE  -
|  1> # ORCA input file
|  2> # SCF done       -179.001383144482          0.000489137923
|  3> ! CAM-B3LYP def2-SVP def2/J RIJCOSX Grid4 TightSCF
|  4> %maxcore 5000
|  5> %tddft
|  6>     Mode sTDDFT
|  7>     Ethresh 5.0
|  8>     maxcore 5000
|  9> end
| 10>
| 11> %pal
| 12>   nprocs 6
| 13>   end
| 14> * xyz 0 1
| 15>    C       -5.89679        -1.86436         2.50856
| 16>    C       -4.63637        -1.54470         2.18176
| 17>    C       -4.07519        -0.23421         2.02627
| 18>    C       -2.76632        -0.22387         1.68601
| 19>    C       -2.18565        -1.51301         1.54345
| 20>    S       -3.38128        -2.75407         1.86724
| 21>    C       -0.88895        -1.81383         1.19544
| 22>    C        0.16502        -0.91811         0.89607
| 23>    C        1.33125        -1.53499         0.56603
| 24>    C        1.27632        -2.95124         0.57872
| 25>    S       -0.32999        -3.47156         1.05417
| 26>    C        2.32171        -3.77460         0.23013
| 27>    C        2.34183        -5.16998         0.20560
| 28>    S        0.96160        -6.05481         0.79804
| 29>    C        1.65035        -7.59167         0.41799
| 30>    C        2.91913        -7.42800        -0.17023
| 31>    C        3.33610        -6.06011        -0.27462
| 32>    C        4.59011        -5.77634        -0.88474
| 33>    C        5.23215        -4.45194        -0.98285
| 34>    O        5.18420        -3.55184        -0.17743
| 35>    O        5.98384        -4.33484        -2.09360
| 36>    C        5.33677        -6.82711        -1.38867
| 37>    C        4.92887        -8.15154        -1.28161
| 38>    C        3.73974        -8.47274        -0.66662
| 39>    O        3.33974        -9.75619        -0.53660
| 40>    C        0.95190        -8.79319         0.66179
| 41>    C       -0.25821        -8.84714         1.27025
| 42>    N       -1.01591        -9.96204         1.49564
| 43>    C       -0.89449       -11.20902         0.99134
| 44>    S        0.23763       -11.62555        -0.25873
| 45>    C       -0.45543       -13.21848        -0.35608
| 46>    N        0.11591       -14.10225        -1.25820
| 47>    O       -0.35314       -15.22776        -1.34539
| 48>    O        1.06574       -13.68374        -1.91271
| 49>    C       -1.48704       -13.41422         0.52640
| 50>    C       -1.74631       -12.28796         1.32109
| 51>    C       -2.72215       -12.21779         2.37169
| 52>    C       -3.78009       -13.04749         2.51677
| 53>    C       -4.72962       -12.96249         3.57163
| 54>    S       -5.52034       -14.42059         4.08177
| 55>    C       -6.20768       -13.67740         5.49445
| 56>    C       -5.85335       -12.31213         5.53921
| 57>    C       -5.08204       -11.89612         4.40914
| 58>    C       -4.79071       -10.51583         4.23790
| 59>    C       -4.34659        -9.95408         2.95085
| 60>    O       -3.46590        -9.13229         2.80272
| 61>    O       -5.06707       -10.40611         1.92137
| 62>    C       -5.07555        -9.63925         5.25933
| 63>    C       -5.73097       -10.06747         6.41530
| 64>    C       -6.16530       -11.36957         6.54831
| 65>    O       -6.88145       -11.76352         7.62856
| 66>    C       -6.99218       -14.40867         6.39402
| 67>    C       -7.36762       -15.71411         6.20166
| 68>    C       -8.17013       -16.43209         7.08814
| 69>    C       -8.60969       -17.71875         6.86955
| 70>    C       -9.42854       -18.49532         7.72193
| 71>    C       -9.73328       -19.73095         7.23752
| 72>    C       -9.17049       -20.00377         5.96883
| 73>    S       -8.22885       -18.63145         5.41912
| 74>    C       -9.30487       -21.14533         5.21043
| 75>    C      -10.04466       -22.31532         5.53408
| 76>    C      -10.00392       -23.28093         4.58822
| 77>    C       -9.22149       -22.94627         3.43391
| 78>    S       -8.54582       -21.32252         3.64189
| 79>    C       -9.00076       -23.69535         2.34435
| 80>    H       -6.62800        -1.09665         2.69012
| 81>    H       -6.21550        -2.88640         2.59908
| 82>    H       -4.67994         0.64273         2.17531
| 83>    H       -2.18847         0.66956         1.52788
| 84>    H        0.03220         0.14836         0.92829
| 85>    H        2.24049        -1.02136         0.30768
| 86>    H        3.23109        -3.26426        -0.04172
| 87>    H        6.43050        -3.47373        -2.09132
| 88>    H        6.28169        -6.61451        -1.86222
| 89>    H        5.55607        -8.93771        -1.67831
| 90>    H        3.96756       -10.34936        -0.97041
| 91>    H        1.45302        -9.69231         0.35048
| 92>    H       -0.71765        -7.94274         1.64527
| 93>    H       -1.84317        -9.78317         2.06471
| 94>    H       -2.00375       -14.35259         0.60437
| 95>    H       -2.56046       -11.45254         3.11664
| 96>    H       -3.90582       -13.88028         1.83889
| 97>    H       -4.78095        -9.99435         1.09032
| 98>    H       -4.83046        -8.59501         5.14089
| 99>    H       -5.94869        -9.35203         7.19623
|100>    H       -7.00543       -11.01478         8.22654
|101>    H       -7.33252       -13.88818         7.27613
|102>    H       -7.04162       -16.22269         5.30168
|103>    H       -8.48218       -15.95178         8.00649
|104>    H       -9.76972       -18.11299         8.66820
|105>    H      -10.34586       -20.44835         7.75354
|106>    H      -10.58386       -22.39797         6.46115
|107>    H      -10.50189       -24.23182         4.65673
|108>    H       -9.43062       -24.67753         2.25693
|109>    H       -8.39364       -23.34394         1.53053
|110> *
|111>
|112>                          ****END OF INPUT****

CARTESIAN COORDINATES (ANGSTROEM)
---------------------------------
  C     -5.896790   -1.864360    2.508560
  C     -4.636370   -1.544700    2.181760
  C     -4.075190   -0.234210    2.026270
  C     -2.766320   -0.223870    1.686010
  C     -2.185650   -1.513010    1.543450
  S     -3.381280   -2.754070    1.867240
  C     -0.888950   -1.813830    1.195440
  C      0.165020   -0.918110    0.896070
  C      1.331250   -1.534990    0.566030
  C      1.276320   -2.951240    0.578720
  S     -0.329990   -3.471560    1.054170
  C      2.321710   -3.774600    0.230130
  C      2.341830   -5.169980    0.205600
  S      0.961600   -6.054810    0.798040
  C      1.650350   -7.591670    0.417990
  C      2.919130   -7.428000   -0.170230
  C      3.336100   -6.060110   -0.274620
  C      4.590110   -5.776340   -0.884740
  C      5.232150   -4.451940   -0.982850
  O      5.184200   -3.551840   -0.177430
  O      5.983840   -4.334840   -2.093600
  C      5.336770   -6.827110   -1.388670
  C      4.928870   -8.151540   -1.281610
  C      3.739740   -8.472740   -0.666620
  O      3.339740   -9.756190   -0.536600
  C      0.951900   -8.793190    0.661790
  C     -0.258210   -8.847140    1.270250
  N     -1.015910   -9.962040    1.495640
  C     -0.894490  -11.209020    0.991340
  S      0.237630  -11.625550   -0.258730
  C     -0.455430  -13.218480   -0.356080
  N      0.115910  -14.102250   -1.258200
  O     -0.353140  -15.227760   -1.345390
  O      1.065740  -13.683740   -1.912710
  C     -1.487040  -13.414220    0.526400
  C     -1.746310  -12.287960    1.321090
  C     -2.722150  -12.217790    2.371690
  C     -3.780090  -13.047490    2.516770
  C     -4.729620  -12.962490    3.571630
  S     -5.520340  -14.420590    4.081770
  C     -6.207680  -13.677400    5.494450
  C     -5.853350  -12.312130    5.539210
  C     -5.082040  -11.896120    4.409140
  C     -4.790710  -10.515830    4.237900
  C     -4.346590   -9.954080    2.950850
  O     -3.465900   -9.132290    2.802720
  O     -5.067070  -10.406110    1.921370
  C     -5.075550   -9.639250    5.259330
  C     -5.730970  -10.067470    6.415300
  C     -6.165300  -11.369570    6.548310
  O     -6.881450  -11.763520    7.628560
  C     -6.992180  -14.408670    6.394020
  C     -7.367620  -15.714110    6.201660
  C     -8.170130  -16.432090    7.088140
  C     -8.609690  -17.718750    6.869550
  C     -9.428540  -18.495320    7.721930
  C     -9.733280  -19.730950    7.237520
  C     -9.170490  -20.003770    5.968830
  S     -8.228850  -18.631450    5.419120
  C     -9.304870  -21.145330    5.210430
  C    -10.044660  -22.315320    5.534080
  C    -10.003920  -23.280930    4.588220
  C     -9.221490  -22.946270    3.433910
  S     -8.545820  -21.322520    3.641890
  C     -9.000760  -23.695350    2.344350
  H     -6.628000   -1.096650    2.690120
  H     -6.215500   -2.886400    2.599080
  H     -4.679940    0.642730    2.175310
  H     -2.188470    0.669560    1.527880
  H      0.032200    0.148360    0.928290
  H      2.240490   -1.021360    0.307680
  H      3.231090   -3.264260   -0.041720
  H      6.430500   -3.473730   -2.091320
  H      6.281690   -6.614510   -1.862220
  H      5.556070   -8.937710   -1.678310
  H      3.967560  -10.349360   -0.970410
  H      1.453020   -9.692310    0.350480
  H     -0.717650   -7.942740    1.645270
  H     -1.843170   -9.783170    2.064710
  H     -2.003750  -14.352590    0.604370
  H     -2.560460  -11.452540    3.116640
  H     -3.905820  -13.880280    1.838890
  H     -4.780950   -9.994350    1.090320
  H     -4.830460   -8.595010    5.140890
  H     -5.948690   -9.352030    7.196230
  H     -7.005430  -11.014780    8.226540
  H     -7.332520  -13.888180    7.276130
  H     -7.041620  -16.222690    5.301680
  H     -8.482180  -15.951780    8.006490
  H     -9.769720  -18.112990    8.668200
  H    -10.345860  -20.448350    7.753540
  H    -10.583860  -22.397970    6.461150
  H    -10.501890  -24.231820    4.656730
  H     -9.430620  -24.677530    2.256930
  H     -8.393640  -23.343940    1.530530

 Total Charge           Charge          ....    0
 Multiplicity           Mult            ....    1
 Number of Electrons    NEL             ....  508
 Basis Dimension        Dim             .... 1088

ORBITAL ENERGIES
----------------

  NO   OCC          E(Eh)            E(eV)
   0   2.0000     -88.968184     -2420.9474
   1   2.0000     -88.961763     -2420.7727
   2   2.0000     -88.951370     -2420.4898
   3   2.0000     -88.939460     -2420.1658
   4   2.0000     -88.935720     -2420.0640
   5   2.0000     -88.931678     -2419.9540
   6   2.0000     -88.926106     -2419.8024
   7   2.0000     -19.271164      -524.3950
   8   2.0000     -19.268841      -524.3318
   9   2.0000     -19.260137      -524.0950
  10   2.0000     -19.252067      -523.8754
  11   2.0000     -19.219476      -522.9885
  12   2.0000     -19.216784      -522.9153
  13   2.0000     -19.216730      -522.9138
  14   2.0000     -19.194637      -522.3126
  15   2.0000     -14.628615      -398.0648
  16   2.0000     -14.464802      -393.6073
  17   2.0000     -10.419205      -283.5210
  18   2.0000     -10.396227      -282.8957
  19   2.0000     -10.356443      -281.8131
  20   2.0000     -10.354285      -281.7544
  21   2.0000     -10.346550      -281.5439
  22   2.0000     -10.321084      -280.8510
  23   2.0000     -10.314859      -280.6816
  24   2.0000     -10.308645      -280.5125
  25   2.0000     -10.307293      -280.4757
  26   2.0000     -10.305540      -280.4280
  27   2.0000     -10.303729      -280.3787
  28   2.0000     -10.303202      -280.3644
  29   2.0000     -10.302893      -280.3560
  30   2.0000     -10.300640      -280.2947
  31   2.0000     -10.295290      -280.1491
  32   2.0000     -10.295270      -280.1486
  33   2.0000     -10.294816      -280.1362
  34   2.0000     -10.293381      -280.0971
  35   2.0000     -10.292989      -280.0865
  36   2.0000     -10.292025      -280.0602
  37   2.0000     -10.291555      -280.0475
  38   2.0000     -10.288962      -279.9769
  39   2.0000     -10.288826      -279.9732
  40   2.0000     -10.286946      -279.9220
  41   2.0000     -10.285791      -279.8906
  42   2.0000     -10.285340      -279.8783
  43   2.0000     -10.284998      -279.8690
  44   2.0000     -10.283724      -279.8344
  45   2.0000     -10.282367      -279.7974
  46   2.0000     -10.282041      -279.7885
  47   2.0000     -10.280915      -279.7579
  48   2.0000     -10.280730      -279.7529
  49   2.0000     -10.278904      -279.7032
  50   2.0000     -10.278011      -279.6789
  51   2.0000     -10.277883      -279.6754
  52   2.0000     -10.277267      -279.6587
  53   2.0000     -10.274996      -279.5969
  54   2.0000     -10.274779      -279.5909
  55   2.0000     -10.274264      -279.5769
  56   2.0000     -10.274125      -279.5731
  57   2.0000     -10.271760      -279.5088
  58   2.0000     -10.269776      -279.4548
  59   2.0000     -10.269058      -279.4353
  60   2.0000     -10.267576      -279.3949
  61   2.0000     -10.266439      -279.3640
  62   2.0000     -10.265068      -279.3267
  63   2.0000     -10.263206      -279.2760
  64   2.0000     -10.257557      -279.1223
  65   2.0000      -8.062838      -219.4010
  66   2.0000      -8.057191      -219.2473
  67   2.0000      -8.046593      -218.9589
  68   2.0000      -8.035760      -218.6642
  69   2.0000      -8.032455      -218.5742
  70   2.0000      -8.027625      -218.4428
  71   2.0000      -8.022863      -218.3132
  72   2.0000      -6.032541      -164.1538
  73   2.0000      -6.028088      -164.0326
  74   2.0000      -6.026117      -163.9790
  75   2.0000      -6.024325      -163.9302
  76   2.0000      -6.022159      -163.8713
  77   2.0000      -6.019866      -163.8089
  78   2.0000      -6.015604      -163.6929
  79   2.0000      -6.011503      -163.5813
  80   2.0000      -6.009225      -163.5193
  81   2.0000      -6.005485      -163.4175
  82   2.0000      -6.002289      -163.3306
  83   2.0000      -6.001567      -163.3109
  84   2.0000      -5.998342      -163.2232
  85   2.0000      -5.997394      -163.1974
  86   2.0000      -5.996580      -163.1752
  87   2.0000      -5.993235      -163.0842
  88   2.0000      -5.992985      -163.0774
  89   2.0000      -5.992688      -163.0693
  90   2.0000      -5.988795      -162.9634
  91   2.0000      -5.988610      -162.9584
  92   2.0000      -5.983368      -162.8157
  93   2.0000      -1.294688       -35.2302
  94   2.0000      -1.201851       -32.7040
  95   2.0000      -1.180894       -32.1338
  96   2.0000      -1.164253       -31.6809
  97   2.0000      -1.156645       -31.4739
  98   2.0000      -1.113229       -30.2925
  99   2.0000      -1.105106       -30.0715
 100   2.0000      -1.082465       -29.4554
 101   2.0000      -1.070335       -29.1253
 102   2.0000      -0.998140       -27.1608
 103   2.0000      -0.989352       -26.9216
 104   2.0000      -0.988623       -26.9018
 105   2.0000      -0.984772       -26.7970
 106   2.0000      -0.977341       -26.5948
 107   2.0000      -0.966606       -26.3027
 108   2.0000      -0.955531       -26.0013
 109   2.0000      -0.940386       -25.5892
 110   2.0000      -0.929047       -25.2807
 111   2.0000      -0.916607       -24.9422
 112   2.0000      -0.901645       -24.5350
 113   2.0000      -0.893269       -24.3071
 114   2.0000      -0.883188       -24.0328
 115   2.0000      -0.869767       -23.6675
 116   2.0000      -0.865472       -23.5507
 117   2.0000      -0.862872       -23.4799
 118   2.0000      -0.851271       -23.1643
 119   2.0000      -0.844839       -22.9892
 120   2.0000      -0.841555       -22.8999
 121   2.0000      -0.840806       -22.8795
 122   2.0000      -0.839258       -22.8374
 123   2.0000      -0.832503       -22.6536
 124   2.0000      -0.828914       -22.5559
 125   2.0000      -0.822547       -22.3826
 126   2.0000      -0.815384       -22.1877
 127   2.0000      -0.808455       -21.9992
 128   2.0000      -0.800118       -21.7723
 129   2.0000      -0.796329       -21.6692
 130   2.0000      -0.776894       -21.1403
 131   2.0000      -0.765160       -20.8211
 132   2.0000      -0.759086       -20.6558
 133   2.0000      -0.752817       -20.4852
 134   2.0000      -0.738227       -20.0882
 135   2.0000      -0.731571       -19.9071
 136   2.0000      -0.725471       -19.7411
 137   2.0000      -0.713195       -19.4070
 138   2.0000      -0.707809       -19.2604
 139   2.0000      -0.694940       -18.9103
 140   2.0000      -0.690793       -18.7974
 141   2.0000      -0.685499       -18.6534
 142   2.0000      -0.684055       -18.6141
 143   2.0000      -0.677671       -18.4404
 144   2.0000      -0.667587       -18.1660
 145   2.0000      -0.663430       -18.0528
 146   2.0000      -0.661832       -18.0094
 147   2.0000      -0.642217       -17.4756
 148   2.0000      -0.640776       -17.4364
 149   2.0000      -0.634007       -17.2522
 150   2.0000      -0.630581       -17.1590
 151   2.0000      -0.625935       -17.0326
 152   2.0000      -0.625064       -17.0089
 153   2.0000      -0.615250       -16.7418
 154   2.0000      -0.614184       -16.7128
 155   2.0000      -0.611945       -16.6519
 156   2.0000      -0.609600       -16.5881
 157   2.0000      -0.607092       -16.5198
 158   2.0000      -0.600628       -16.3439
 159   2.0000      -0.598933       -16.2978
 160   2.0000      -0.595401       -16.2017
 161   2.0000      -0.589625       -16.0445
 162   2.0000      -0.587474       -15.9860
 163   2.0000      -0.585591       -15.9348
 164   2.0000      -0.579669       -15.7736
 165   2.0000      -0.576967       -15.7001
 166   2.0000      -0.572890       -15.5891
 167   2.0000      -0.571928       -15.5630
 168   2.0000      -0.567889       -15.4530
 169   2.0000      -0.561525       -15.2799
 170   2.0000      -0.557141       -15.1606
 171   2.0000      -0.551306       -15.0018
 172   2.0000      -0.547213       -14.8904
 173   2.0000      -0.539752       -14.6874
 174   2.0000      -0.538571       -14.6553
 175   2.0000      -0.534826       -14.5534
 176   2.0000      -0.529803       -14.4167
 177   2.0000      -0.528473       -14.3805
 178   2.0000      -0.526702       -14.3323
 179   2.0000      -0.524977       -14.2853
 180   2.0000      -0.522030       -14.2052
 181   2.0000      -0.517783       -14.0896
 182   2.0000      -0.515825       -14.0363
 183   2.0000      -0.512927       -13.9575
 184   2.0000      -0.508187       -13.8285
 185   2.0000      -0.505826       -13.7642
 186   2.0000      -0.504508       -13.7284
 187   2.0000      -0.498469       -13.5640
 188   2.0000      -0.497451       -13.5363
 189   2.0000      -0.492942       -13.4136
 190   2.0000      -0.492512       -13.4019
 191   2.0000      -0.491884       -13.3848
 192   2.0000      -0.485784       -13.2189
 193   2.0000      -0.483057       -13.1446
 194   2.0000      -0.481593       -13.1048
 195   2.0000      -0.481544       -13.1035
 196   2.0000      -0.476388       -12.9632
 197   2.0000      -0.475836       -12.9482
 198   2.0000      -0.473743       -12.8912
 199   2.0000      -0.472029       -12.8446
 200   2.0000      -0.470170       -12.7940
 201   2.0000      -0.468004       -12.7350
 202   2.0000      -0.466728       -12.7003
 203   2.0000      -0.465122       -12.6566
 204   2.0000      -0.462544       -12.5865
 205   2.0000      -0.459724       -12.5097
 206   2.0000      -0.458328       -12.4717
 207   2.0000      -0.453957       -12.3528
 208   2.0000      -0.451059       -12.2739
 209   2.0000      -0.447934       -12.1889
 210   2.0000      -0.446035       -12.1372
 211   2.0000      -0.442464       -12.0400
 212   2.0000      -0.439009       -11.9460
 213   2.0000      -0.433231       -11.7888
 214   2.0000      -0.427919       -11.6443
 215   2.0000      -0.427218       -11.6252
 216   2.0000      -0.425123       -11.5682
 217   2.0000      -0.420697       -11.4477
 218   2.0000      -0.419116       -11.4047
 219   2.0000      -0.416523       -11.3342
 220   2.0000      -0.413304       -11.2466
 221   2.0000      -0.410180       -11.1616
 222   2.0000      -0.406913       -11.0727
 223   2.0000      -0.406802       -11.0696
 224   2.0000      -0.404488       -11.0067
 225   2.0000      -0.398585       -10.8460
 226   2.0000      -0.392689       -10.6856
 227   2.0000      -0.390708       -10.6317
 228   2.0000      -0.389976       -10.6118
 229   2.0000      -0.379414       -10.3244
 230   2.0000      -0.372184       -10.1276
 231   2.0000      -0.370415       -10.0795
 232   2.0000      -0.366592        -9.9755
 233   2.0000      -0.365402        -9.9431
 234   2.0000      -0.357816        -9.7367
 235   2.0000      -0.357255        -9.7214
 236   2.0000      -0.345723        -9.4076
 237   2.0000      -0.344195        -9.3660
 238   2.0000      -0.341999        -9.3063
 239   2.0000      -0.334258        -9.0956
 240   2.0000      -0.326455        -8.8833
 241   2.0000      -0.324551        -8.8315
 242   2.0000      -0.323564        -8.8046
 243   2.0000      -0.320908        -8.7324
 244   2.0000      -0.318288        -8.6611
 245   2.0000      -0.309499        -8.4219
 246   2.0000      -0.306611        -8.3433
 247   2.0000      -0.300957        -8.1895
 248   2.0000      -0.300460        -8.1759
 249   2.0000      -0.275927        -7.5084
 250   2.0000      -0.251835        -6.8528
 251   2.0000      -0.238704        -6.4955
 252   2.0000      -0.201993        -5.4965
 253   2.0000      -0.188545        -5.1306
 254   0.0000      -0.081903        -2.2287
 255   0.0000      -0.067895        -1.8475
 256   0.0000      -0.038013        -1.0344
 257   0.0000      -0.035702        -0.9715
 258   0.0000      -0.019234        -0.5234

MULLIKEN ATOMIC CHARGES
-----------------------
   0 C :   -0.039263
   1 C :   -0.059613
   2 C :    0.045729
   3 C :    0.030654
   4 C :   -0.073292
   5 S :    0.069191
   6 C :   -0.026537
   7 C :    0.018863
   8 C :    0.033130
   9 C :   -0.054704
  10 S :    0.051518
  11 C :   -0.014027
  12 C :   -0.132088
  13 S :    0.093982
  14 C :   -0.106782
  15 C :    0.075139
  16 C :    0.170288
  17 C :   -0.062037
  18 C :    0.129410
  19 O :   -0.217140
  20 O :   -0.178186
  21 C :    0.022558
  22 C :   -0.082786
  23 C :    0.135984
  24 O :   -0.166424
  25 C :   -0.044664
  26 C :    0.026130
  27 N :   -0.021446
  28 C :   -0.095443
  29 S :    0.134184
  30 C :   -0.011266
  31 N :    0.279526
  32 O :   -0.266835
  33 O :   -0.288061
  34 C :    0.010261
  35 C :    0.092789
  36 C :   -0.047523
  37 C :    0.031366
  38 C :   -0.159907
  39 S :    0.148306
  40 C :   -0.121191
  41 C :    0.094082
  42 C :    0.157829
  43 C :   -0.022567
  44 C :    0.096713
  45 O :   -0.252000
  46 O :   -0.147140
  47 C :    0.007489
  48 C :   -0.081789
  49 C :    0.125813
  50 O :   -0.169506
  51 C :   -0.016280
  52 C :    0.002990
  53 C :   -0.017446
  54 C :   -0.017828
  55 C :    0.036832
  56 C :    0.021746
  57 C :   -0.047224
  58 S :    0.071446
  59 C :   -0.066140
  60 C :    0.029730
  61 C :    0.051667
  62 C :   -0.064779
  63 S :    0.082257
  64 C :   -0.028270
  65 H :    0.014308
  66 H :    0.014664
  67 H :   -0.017050
  68 H :   -0.015049
  69 H :   -0.020729
  70 H :   -0.009839
  71 H :   -0.000149
  72 H :    0.187014
  73 H :   -0.004685
  74 H :   -0.040268
  75 H :    0.194158
  76 H :    0.034172
  77 H :    0.029297
  78 H :    0.151136
  79 H :    0.003939
  80 H :    0.003517
  81 H :   -0.015398
  82 H :    0.193250
  83 H :   -0.001158
  84 H :   -0.036608
  85 H :    0.188403
  86 H :   -0.001508
  87 H :    0.004331
  88 H :   -0.019458
  89 H :   -0.015953
  90 H :   -0.014361
  91 H :   -0.013303
  92 H :   -0.012383
  93 H :    0.019194
  94 H :    0.023101
Sum of atomic charges:    0.0000000

LOEWDIN ATOMIC CHARGES
----------------------
   0 C :   -0.091008
   1 C :   -0.137763
   2 C :   -0.040442
   3 C :   -0.025434
   4 C :   -0.185535
   5 S :    0.343282
   6 C :   -0.176464
   7 C :   -0.050181
   8 C :   -0.025225
   9 C :   -0.166421
  10 S :    0.355393
  11 C :   -0.065079
  12 C :   -0.178265
  13 S :    0.468025
  14 C :   -0.156487
  15 C :   -0.071591
  16 C :   -0.020051
  17 C :   -0.092666
  18 C :    0.094112
  19 O :   -0.187520
  20 O :   -0.039592
  21 C :    0.020315
  22 C :   -0.105830
  23 C :    0.085954
  24 O :   -0.027009
  25 C :   -0.109530
  26 C :    0.016525
  27 N :    0.052776
  28 C :   -0.096004
  29 S :    0.473362
  30 C :   -0.224482
  31 N :    0.274865
  32 O :   -0.233380
  33 O :   -0.254377
  34 C :    0.001669
  35 C :   -0.110800
  36 C :   -0.035340
  37 C :   -0.047018
  38 C :   -0.177577
  39 S :    0.479060
  40 C :   -0.156903
  41 C :   -0.066817
  42 C :   -0.030681
  43 C :   -0.091825
  44 C :    0.098668
  45 O :   -0.206391
  46 O :   -0.011956
  47 C :    0.021526
  48 C :   -0.104842
  49 C :    0.084488
  50 O :   -0.033464
  51 C :   -0.047074
  52 C :   -0.033456
  53 C :   -0.059638
  54 C :   -0.144148
  55 C :   -0.037017
  56 C :   -0.032117
  57 C :   -0.181229
  58 S :    0.367588
  59 C :   -0.176914
  60 C :   -0.027439
  61 C :   -0.031929
  62 C :   -0.139576
  63 S :    0.353626
  64 C :   -0.075387
  65 H :    0.025935
  66 H :    0.022874
  67 H :    0.030950
  68 H :    0.031281
  69 H :    0.028583
  70 H :    0.034630
  71 H :    0.037519
  72 H :    0.097141
  73 H :    0.033824
  74 H :    0.025833
  75 H :    0.105201
  76 H :    0.015292
  77 H :    0.027660
  78 H :    0.081467
  79 H :    0.042173
  80 H :    0.029218
  81 H :    0.027103
  82 H :    0.102668
  83 H :    0.038832
  84 H :    0.026479
  85 H :    0.101405
  86 H :    0.032616
  87 H :    0.014170
  88 H :    0.032214
  89 H :    0.032397
  90 H :    0.030860
  91 H :    0.031868
  92 H :    0.033143
  93 H :    0.028548
  94 H :    0.026753

  Mayer bond orders larger than 0.100000
B(  0-C ,  1-C ) :   1.8566 B(  0-C , 65-H ) :   0.9500 B(  0-C , 66-H ) :   0.9417
B(  1-C ,  2-C ) :   1.0855 B(  1-C ,  5-S ) :   1.0102 B(  2-C ,  3-C ) :   1.6482
B(  2-C , 67-H ) :   0.9930 B(  3-C ,  4-C ) :   1.1632 B(  3-C , 68-H ) :   0.9920
B(  4-C ,  5-S ) :   1.0359 B(  4-C ,  6-C ) :   1.5458 B(  6-C ,  7-C ) :   1.1748
B(  6-C , 10-S ) :   1.0336 B(  7-C ,  8-C ) :   1.5862 B(  7-C , 69-H ) :   0.9930
B(  8-C ,  9-C ) :   1.1608 B(  8-C , 70-H ) :   0.9998 B(  9-C , 10-S ) :   1.0208
B(  9-C , 11-C ) :   1.5366 B( 11-C , 12-C ) :   1.2415 B( 11-C , 71-H ) :   0.9409
B( 12-C , 13-S ) :   1.0932 B( 12-C , 16-C ) :   1.3321 B( 13-S , 14-C ) :   1.1515
B( 14-C , 15-C ) :   1.3151 B( 14-C , 25-C ) :   1.2420 B( 15-C , 16-C ) :   1.2299
B( 15-C , 23-C ) :   1.1824 B( 16-C , 17-C ) :   1.1956 B( 17-C , 18-C ) :   0.9249
B( 17-C , 21-C ) :   1.5015 B( 18-C , 19-O ) :   2.0504 B( 18-C , 20-O ) :   1.2626
B( 20-O , 72-H ) :   0.9452 B( 21-C , 22-C ) :   1.2370 B( 21-C , 73-H ) :   0.9812
B( 22-C , 23-C ) :   1.4304 B( 22-C , 74-H ) :   0.9853 B( 23-C , 24-O ) :   1.2357
B( 24-O , 75-H ) :   0.9460 B( 25-C , 26-C ) :   1.6044 B( 25-C , 76-H ) :   0.9191
B( 26-C , 27-N ) :   1.1576 B( 26-C , 77-H ) :   0.9652 B( 27-N , 28-C ) :   1.2601
B( 27-N , 78-H ) :   0.8643 B( 28-C , 29-S ) :   1.1327 B( 28-C , 35-C ) :   1.3124
B( 29-S , 30-C ) :   1.0626 B( 30-C , 31-N ) :   1.0008 B( 30-C , 34-C ) :   1.4492
B( 31-N , 32-O ) :   1.5149 B( 31-N , 33-O ) :   1.4895 B( 32-O , 33-O ) :   0.2449
B( 34-C , 35-C ) :   1.2736 B( 34-C , 79-H ) :   1.0022 B( 35-C , 36-C ) :   1.1108
B( 36-C , 37-C ) :   1.7131 B( 36-C , 80-H ) :   0.9295 B( 37-C , 38-C ) :   1.1203
B( 37-C , 81-H ) :   0.9495 B( 38-C , 39-S ) :   1.1316 B( 38-C , 42-C ) :   1.3823
B( 39-S , 40-C ) :   1.1421 B( 40-C , 41-C ) :   1.3013 B( 40-C , 51-C ) :   1.2158
B( 41-C , 42-C ) :   1.2334 B( 41-C , 49-C ) :   1.1865 B( 42-C , 43-C ) :   1.1713
B( 43-C , 44-C ) :   0.9328 B( 43-C , 47-C ) :   1.5357 B( 44-C , 45-O ) :   1.9879
B( 44-C , 46-O ) :   1.2839 B( 45-O , 78-H ) :   0.1110 B( 46-O , 82-H ) :   0.9414
B( 47-C , 48-C ) :   1.2208 B( 47-C , 83-H ) :   0.9900 B( 48-C , 49-C ) :   1.4375
B( 48-C , 84-H ) :   0.9830 B( 49-C , 50-O ) :   1.2368 B( 50-O , 85-H ) :   0.9512
B( 51-C , 52-C ) :   1.5397 B( 51-C , 86-H ) :   0.9733 B( 52-C , 53-C ) :   1.1982
B( 52-C , 87-H ) :   0.9688 B( 53-C , 54-C ) :   1.5274 B( 53-C , 88-H ) :   0.9859
B( 54-C , 55-C ) :   1.1506 B( 54-C , 58-S ) :   1.0369 B( 55-C , 56-C ) :   1.5864
B( 55-C , 89-H ) :   0.9997 B( 56-C , 57-C ) :   1.1858 B( 56-C , 90-H ) :   0.9929
B( 57-C , 58-S ) :   1.0382 B( 57-C , 59-C ) :   1.5383 B( 59-C , 60-C ) :   1.1606
B( 59-C , 63-S ) :   1.0479 B( 60-C , 61-C ) :   1.6548 B( 60-C , 91-H ) :   0.9911
B( 61-C , 62-C ) :   1.0836 B( 61-C , 92-H ) :   0.9924 B( 62-C , 63-S ) :   1.0081
B( 62-C , 64-C ) :   1.8607 B( 64-C , 93-H ) :   0.9504 B( 64-C , 94-H ) :   0.9416

-----------------------------------------------------------------------------
         ABSORPTION SPECTRUM VIA TRANSITION ELECTRIC DIPOLE MOMENTS
-----------------------------------------------------------------------------
State   Energy  Wavelength   fosc         T2         TX        TY        TZ
        (cm-1)    (nm)                  (au**2)     (au)      (au)      (au)
-----------------------------------------------------------------------------
   0   11796.4    847.7   1.535859203  42.86262  -1.24157  -6.41346   0.43435
   1   13435.9    744.3   0.502878805  12.32179  -3.33423  -0.56835   0.93899
   2   15420.7    648.5   0.187288250   3.99837   0.15240  -1.91319  -0.56110
   3   19493.4    513.0   0.016315396   0.27554   0.21274  -0.28984  -0.38246
   4   20037.6    499.1   0.249426777   4.09800   2.00721  -0.05613  -0.25684
   5   20536.1    486.9   0.144386036   2.31464   0.99146   1.15224   0.06326
   6   21745.1    459.9   0.106834855   1.61743   0.64208  -0.83215  -0.71603
   7   22582.6    442.8   0.838438081  12.22283  -1.89931   1.56987   2.48012
   8   23994.0    416.8   0.593455936   8.14256   2.70824   0.75178  -0.49278
   9   24227.1    412.8   0.135886926   1.84651   0.03778   0.98535   0.93496
  10   25108.4    398.3   0.079115612   1.03733   0.46031   0.71436   0.56138
  11   25798.2    387.6   0.033740855   0.43057  -0.24712   0.27697   0.54110
  12   26456.9    378.0   0.113453808   1.41175  -0.68463  -0.00725   0.97107
  13   27968.4    357.5   0.081641524   0.96099   0.36891   0.79344   0.44199
  14   28113.1    355.7   0.040653459   0.47606  -0.25438   0.40270   0.49919
  15   29223.6    342.2   0.002515593   0.02834  -0.04629   0.06676  -0.14744
  16   29902.3    334.4   0.073728747   0.81172  -0.76011  -0.34548   0.33852
  17   30379.0    329.2   0.000370694   0.00402   0.02237   0.04815   0.03462
  18   30501.7    327.9   0.032261711   0.34821  -0.51745   0.22736   0.16960
  19   31217.4    320.3   0.059963772   0.63236   0.52583  -0.47598  -0.35960
  20   31552.3    316.9   0.028316351   0.29545  -0.37672  -0.20433   0.33433
  21   31913.2    313.4   0.016716649   0.17245   0.10062   0.14714  -0.37506
  22   32104.3    311.5   0.024052516   0.24665  -0.06286   0.15740   0.46682
  23   32251.2    310.1   0.042192166   0.43069  -0.46210  -0.34567   0.31252
  24   32435.0    308.3   0.038883934   0.39467  -0.47855  -0.29774   0.27750
  25   33166.2    301.5   0.040567525   0.40268   0.59718  -0.04799  -0.20918
  26   33751.7    296.3   0.000022481   0.00022   0.01261   0.00014  -0.00776
  27   33935.0    294.7   0.047081606   0.45675  -0.40777   0.30433   0.44481
  28   34380.0    290.9   0.037614342   0.36018  -0.48839  -0.15160   0.31413
  29   34767.6    287.6   0.033612535   0.31827  -0.32703  -0.32796   0.32213
  30   35235.5    283.8   0.000690187   0.00645  -0.01345  -0.07899   0.00532
  31   35437.8    282.2   0.031144130   0.28932  -0.38428  -0.30558   0.21971
  32   35556.3    281.2   0.078916604   0.73068  -0.65686  -0.37200   0.40104
  33   35991.2    277.8   0.038578223   0.35288   0.19190  -0.40488  -0.39003
  34   36478.2    274.1   0.114636077   1.03458   0.01378   0.97774   0.28004
  35   36901.9    271.0   0.024084704   0.21487  -0.09214   0.44826   0.07376
  36   37140.9    269.2   0.119802271   1.06191  -0.36792   0.73684   0.61936
  37   37667.3    265.5   0.007168349   0.06265  -0.08944  -0.07432   0.22165
  38   37958.4    263.4   0.005098021   0.04421   0.07116  -0.02462   0.19633
  39   38356.1    260.7   0.010305859   0.08846   0.03420   0.08803   0.28202
  40   38564.5    259.3   0.250107330   2.13508   1.18568   0.70731  -0.47849
  41   38829.3    257.5   0.034107768   0.28918   0.38014  -0.37968  -0.02290
  42   39107.0    255.7   0.050985475   0.42921   0.10789  -0.63503  -0.11958
  43   39345.8    254.2   0.066557475   0.55690  -0.47843   0.47053   0.32650
  44   39388.0    253.9   0.011727235   0.09802   0.02066   0.23544   0.20532
  45   39710.6    251.8   0.018420268   0.15271  -0.18601   0.34134   0.03990
  46   39996.7    250.0   0.006349982   0.05227   0.09103  -0.20459  -0.04609

FINAL SINGLE POINT ENERGY     -5341.605966151297

DIPOLE MOMENT
-------------
                                X             Y             Z
Electronic contribution:     20.44158       2.01886     -13.53471
Nuclear contribution   :    -22.52818      -1.69648      15.79748
                        -----------------------------------------
Total Dipole Moment    :     -2.08660       0.32238       2.26276
                        -----------------------------------------
Magnitude (a.u.)       :      3.09482
Magnitude (Debye)      :      7.86641

Rotational constants in cm-1:     0.001420     0.000299     0.000255
Rotational constants in MHz :    42.558615     8.970389     7.654853

                             ****ORCA TERMINATED NORMALLY****
TOTAL RUN TIME: 0 days 0 hours 8 minutes 39 seconds 665 msec
