                         Program Version 4.2.0 -  RELEASE  -
|  1> # ORCA input file
|  2> # SCF done       -173.057307947916          0.000450089460
|  3> ! CAM-B3LYP def2-SVP def2/J RIJCOSX Grid4 TightSCF
|  4> %maxcore 5000
|  5> %tddft
|  6>     Mode sTDDFT
|  7>     Ethresh 5.0
|  8>     maxcore 5000
|  9> end
| 10>
| 11> %pal
| 12>   nprocs 6
| 13>   end
| 14> * xyz 0 1
| 15>    C       13.49312        -6.63561        -9.87268
| 16>    C       12.20314        -6.99758        -9.84556
| 17>    C       11.27582        -7.02945       -10.94017
| 18>    C       10.03393        -7.44500       -10.60676
| 19>    C        9.87610        -7.77271        -9.23086
| 20>    S       11.38057        -7.53099        -8.37035
| 21>    C        8.73656        -8.22704        -8.60739
| 22>    C        7.46729        -8.48098        -9.17810
| 23>    C        6.54978        -8.94751        -8.28980
| 24>    C        7.02942        -9.08841        -6.96114
| 25>    S        8.70667        -8.58880        -6.89119
| 26>    C        6.29411        -9.63894        -5.93734
| 27>    C        6.62031        -9.86757        -4.59595
| 28>    S        5.64795       -11.07155        -3.75912
| 29>    C        6.56767       -10.95325        -2.27934
| 30>    C        7.54024        -9.98615        -2.44079
| 31>    C        7.58814        -9.35763        -3.71636
| 32>    C        8.55705        -8.33010        -3.74016
| 33>    C        9.23072        -8.21404        -2.55895
| 34>    C       10.28904        -7.25681        -2.25841
| 35>    O       10.69646        -6.41582        -3.02225
| 36>    O       10.75763        -7.42713        -1.00907
| 37>    C       11.79671        -6.54845        -0.61124
| 38>    S        8.71370        -9.35001        -1.33386
| 39>    C        6.35093       -11.76957        -1.14608
| 40>    C        5.41957       -12.74538        -1.06715
| 41>    N        5.29497       -13.54980         0.02876
| 42>    C        4.50169       -14.63811         0.13972
| 43>    S        3.42765       -15.11558        -1.13586
| 44>    C        3.02515       -16.55199        -0.23907
| 45>    N        2.09958       -17.42126        -0.80513
| 46>    O        1.81024       -18.43279        -0.18606
| 47>    O        1.63948       -17.10342        -1.89379
| 48>    C        3.69132       -16.64959         0.95546
| 49>    C        4.52518       -15.54874         1.20966
| 50>    C        5.32504       -15.40927         2.39714
| 51>    C        5.61980       -14.24180         3.01635
| 52>    C        6.46833       -14.12611         4.14228
| 53>    S        7.50486       -15.42629         4.67365
| 54>    C        8.18457       -14.48908         5.99091
| 55>    C        7.59131       -13.23605         5.99817
| 56>    C        6.64476       -13.01233         4.96460
| 57>    C        6.09385       -11.71163         5.02715
| 58>    C        6.60474       -10.98763         6.06446
| 59>    C        6.28048        -9.62017         6.46438
| 60>    O        6.76706        -9.05118         7.41059
| 61>    O        5.36887        -9.06589         5.64502
| 62>    C        4.98304        -7.73770         5.96727
| 63>    S        7.78906       -11.85088         7.02111
| 64>    C        9.18775       -14.97886         6.84241
| 65>    C        9.80905       -16.18635         6.68698
| 66>    C       10.83641       -16.65350         7.51316
| 67>    C       11.52244       -17.82572         7.30386
| 68>    C       12.58073       -18.34581         8.08871
| 69>    C       13.10186       -19.51416         7.62653
| 70>    C       12.48622       -19.98966         6.44331
| 71>    S       11.20685       -18.89772         5.94884
| 72>    C       12.79819       -21.11960         5.72321
| 73>    C       13.81573       -22.07215         6.00831
| 74>    C       13.90226       -23.08056         5.11259
| 75>    C       12.95192       -23.00417         4.04039
| 76>    S       11.94521       -21.56361         4.25909
| 77>    C       12.80267       -23.85177         3.01318
| 78>    H       13.95601        -6.31919       -10.79073
| 79>    H       14.10195        -6.64822        -8.98739
| 80>    H       11.58374        -6.73843       -11.92873
| 81>    H        9.21573        -7.52988       -11.29964
| 82>    H        7.27026        -8.32017       -10.22260
| 83>    H        5.53544        -9.20181        -8.54263
| 84>    H        5.32877       -10.03249        -6.23545
| 85>    H        8.76111        -7.67710        -4.56649
| 86>    H       11.46822        -5.51026        -0.69482
| 87>    H       12.67525        -6.69006        -1.24437
| 88>    H       12.02526        -6.79702         0.42182
| 89>    H        7.02204       -11.59116        -0.31521
| 90>    H        4.73409       -12.94013        -1.87890
| 91>    H        5.96681       -13.41628         0.77791
| 92>    H        3.55703       -17.47857         1.62626
| 93>    H        5.68320       -16.33126         2.83580
| 94>    H        5.15112       -13.31821         2.69895
| 95>    H        5.35459       -11.31948         4.35325
| 96>    H        4.37518        -7.38793         5.13682
| 97>    H        5.86467        -7.10661         6.09488
| 98>    H        4.40548        -7.72683         6.89393
| 99>    H        9.48565       -14.31614         7.64481
|100>    H        9.50828       -16.81954         5.86029
|101>    H       11.12815       -16.05067         8.36321
|102>    H       12.92370       -17.83359         8.97062
|103>    H       13.91007       -20.04400         8.09785
|104>    H       14.44968       -21.97228         6.87150
|105>    H       14.60910       -23.88979         5.16214
|106>    H       13.43662       -24.71553         2.91763
|107>    H       12.05311       -23.69930         2.25858
|108> *
|109>
|110>                          ****END OF INPUT****

CARTESIAN COORDINATES (ANGSTROEM)
---------------------------------
  C     13.493120   -6.635610   -9.872680
  C     12.203140   -6.997580   -9.845560
  C     11.275820   -7.029450  -10.940170
  C     10.033930   -7.445000  -10.606760
  C      9.876100   -7.772710   -9.230860
  S     11.380570   -7.530990   -8.370350
  C      8.736560   -8.227040   -8.607390
  C      7.467290   -8.480980   -9.178100
  C      6.549780   -8.947510   -8.289800
  C      7.029420   -9.088410   -6.961140
  S      8.706670   -8.588800   -6.891190
  C      6.294110   -9.638940   -5.937340
  C      6.620310   -9.867570   -4.595950
  S      5.647950  -11.071550   -3.759120
  C      6.567670  -10.953250   -2.279340
  C      7.540240   -9.986150   -2.440790
  C      7.588140   -9.357630   -3.716360
  C      8.557050   -8.330100   -3.740160
  C      9.230720   -8.214040   -2.558950
  C     10.289040   -7.256810   -2.258410
  O     10.696460   -6.415820   -3.022250
  O     10.757630   -7.427130   -1.009070
  C     11.796710   -6.548450   -0.611240
  S      8.713700   -9.350010   -1.333860
  C      6.350930  -11.769570   -1.146080
  C      5.419570  -12.745380   -1.067150
  N      5.294970  -13.549800    0.028760
  C      4.501690  -14.638110    0.139720
  S      3.427650  -15.115580   -1.135860
  C      3.025150  -16.551990   -0.239070
  N      2.099580  -17.421260   -0.805130
  O      1.810240  -18.432790   -0.186060
  O      1.639480  -17.103420   -1.893790
  C      3.691320  -16.649590    0.955460
  C      4.525180  -15.548740    1.209660
  C      5.325040  -15.409270    2.397140
  C      5.619800  -14.241800    3.016350
  C      6.468330  -14.126110    4.142280
  S      7.504860  -15.426290    4.673650
  C      8.184570  -14.489080    5.990910
  C      7.591310  -13.236050    5.998170
  C      6.644760  -13.012330    4.964600
  C      6.093850  -11.711630    5.027150
  C      6.604740  -10.987630    6.064460
  C      6.280480   -9.620170    6.464380
  O      6.767060   -9.051180    7.410590
  O      5.368870   -9.065890    5.645020
  C      4.983040   -7.737700    5.967270
  S      7.789060  -11.850880    7.021110
  C      9.187750  -14.978860    6.842410
  C      9.809050  -16.186350    6.686980
  C     10.836410  -16.653500    7.513160
  C     11.522440  -17.825720    7.303860
  C     12.580730  -18.345810    8.088710
  C     13.101860  -19.514160    7.626530
  C     12.486220  -19.989660    6.443310
  S     11.206850  -18.897720    5.948840
  C     12.798190  -21.119600    5.723210
  C     13.815730  -22.072150    6.008310
  C     13.902260  -23.080560    5.112590
  C     12.951920  -23.004170    4.040390
  S     11.945210  -21.563610    4.259090
  C     12.802670  -23.851770    3.013180
  H     13.956010   -6.319190  -10.790730
  H     14.101950   -6.648220   -8.987390
  H     11.583740   -6.738430  -11.928730
  H      9.215730   -7.529880  -11.299640
  H      7.270260   -8.320170  -10.222600
  H      5.535440   -9.201810   -8.542630
  H      5.328770  -10.032490   -6.235450
  H      8.761110   -7.677100   -4.566490
  H     11.468220   -5.510260   -0.694820
  H     12.675250   -6.690060   -1.244370
  H     12.025260   -6.797020    0.421820
  H      7.022040  -11.591160   -0.315210
  H      4.734090  -12.940130   -1.878900
  H      5.966810  -13.416280    0.777910
  H      3.557030  -17.478570    1.626260
  H      5.683200  -16.331260    2.835800
  H      5.151120  -13.318210    2.698950
  H      5.354590  -11.319480    4.353250
  H      4.375180   -7.387930    5.136820
  H      5.864670   -7.106610    6.094880
  H      4.405480   -7.726830    6.893930
  H      9.485650  -14.316140    7.644810
  H      9.508280  -16.819540    5.860290
  H     11.128150  -16.050670    8.363210
  H     12.923700  -17.833590    8.970620
  H     13.910070  -20.044000    8.097850
  H     14.449680  -21.972280    6.871500
  H     14.609100  -23.889790    5.162140
  H     13.436620  -24.715530    2.917630
  H     12.053110  -23.699300    2.258580

 Total Charge           Charge          ....    0
 Multiplicity           Mult            ....    1
 Number of Electrons    NEL             ....  512
 Basis Dimension        Dim             .... 1068

ORBITAL ENERGIES
----------------

  NO   OCC          E(Eh)            E(eV)
   0   2.0000     -88.977906     -2421.2119
   1   2.0000     -88.962285     -2420.7868
   2   2.0000     -88.958497     -2420.6838
   3   2.0000     -88.953901     -2420.5587
   4   2.0000     -88.948219     -2420.4041
   5   2.0000     -88.944222     -2420.2953
   6   2.0000     -88.940460     -2420.1930
   7   2.0000     -88.937259     -2420.1058
   8   2.0000     -88.936814     -2420.0938
   9   2.0000     -19.260328      -524.1002
  10   2.0000     -19.256205      -523.9880
  11   2.0000     -19.223423      -523.0959
  12   2.0000     -19.222673      -523.0755
  13   2.0000     -19.204935      -522.5929
  14   2.0000     -19.196563      -522.3650
  15   2.0000     -14.635284      -398.2463
  16   2.0000     -14.480836      -394.0436
  17   2.0000     -10.404126      -283.1107
  18   2.0000     -10.396701      -282.9086
  19   2.0000     -10.365535      -282.0606
  20   2.0000     -10.330916      -281.1185
  21   2.0000     -10.330493      -281.1070
  22   2.0000     -10.322217      -280.8818
  23   2.0000     -10.318566      -280.7824
  24   2.0000     -10.311881      -280.6005
  25   2.0000     -10.311734      -280.5966
  26   2.0000     -10.309890      -280.5464
  27   2.0000     -10.309464      -280.5348
  28   2.0000     -10.309128      -280.5256
  29   2.0000     -10.308558      -280.5101
  30   2.0000     -10.308412      -280.5062
  31   2.0000     -10.307437      -280.4796
  32   2.0000     -10.306576      -280.4562
  33   2.0000     -10.306575      -280.4562
  34   2.0000     -10.305298      -280.4214
  35   2.0000     -10.304805      -280.4080
  36   2.0000     -10.304565      -280.4015
  37   2.0000     -10.302093      -280.3342
  38   2.0000     -10.302037      -280.3327
  39   2.0000     -10.300050      -280.2786
  40   2.0000     -10.298922      -280.2479
  41   2.0000     -10.295208      -280.1469
  42   2.0000     -10.293821      -280.1091
  43   2.0000     -10.293309      -280.0952
  44   2.0000     -10.292351      -280.0691
  45   2.0000     -10.289796      -279.9996
  46   2.0000     -10.288591      -279.9668
  47   2.0000     -10.288519      -279.9648
  48   2.0000     -10.287950      -279.9494
  49   2.0000     -10.286255      -279.9032
  50   2.0000     -10.285978      -279.8957
  51   2.0000     -10.285672      -279.8874
  52   2.0000     -10.284895      -279.8662
  53   2.0000     -10.284343      -279.8512
  54   2.0000     -10.283203      -279.8202
  55   2.0000     -10.282835      -279.8102
  56   2.0000     -10.282685      -279.8061
  57   2.0000     -10.282570      -279.8030
  58   2.0000     -10.281897      -279.7846
  59   2.0000     -10.278170      -279.6832
  60   2.0000     -10.275565      -279.6123
  61   2.0000     -10.269771      -279.4547
  62   2.0000     -10.268615      -279.4232
  63   2.0000      -8.073346      -219.6869
  64   2.0000      -8.057210      -219.2478
  65   2.0000      -8.053851      -219.1564
  66   2.0000      -8.049225      -219.0305
  67   2.0000      -8.043805      -218.8831
  68   2.0000      -8.040250      -218.7863
  69   2.0000      -8.036750      -218.6911
  70   2.0000      -8.033955      -218.6150
  71   2.0000      -8.033527      -218.6034
  72   2.0000      -6.043080      -164.4406
  73   2.0000      -6.038655      -164.3201
  74   2.0000      -6.034678      -164.2119
  75   2.0000      -6.026458      -163.9883
  76   2.0000      -6.023180      -163.8991
  77   2.0000      -6.022531      -163.8814
  78   2.0000      -6.019278      -163.7929
  79   2.0000      -6.019250      -163.7921
  80   2.0000      -6.018999      -163.7853
  81   2.0000      -6.015717      -163.6960
  82   2.0000      -6.014818      -163.6715
  83   2.0000      -6.013548      -163.6369
  84   2.0000      -6.010325      -163.5493
  85   2.0000      -6.010010      -163.5407
  86   2.0000      -6.009391      -163.5238
  87   2.0000      -6.006508      -163.4454
  88   2.0000      -6.005915      -163.4293
  89   2.0000      -6.004918      -163.4021
  90   2.0000      -6.003762      -163.3707
  91   2.0000      -6.003343      -163.3593
  92   2.0000      -6.002566      -163.3381
  93   2.0000      -6.001139      -163.2993
  94   2.0000      -5.999842      -163.2640
  95   2.0000      -5.999434      -163.2529
  96   2.0000      -5.997541      -163.2014
  97   2.0000      -5.994498      -163.1186
  98   2.0000      -5.994061      -163.1067
  99   2.0000      -1.302427       -35.4408
 100   2.0000      -1.191049       -32.4101
 101   2.0000      -1.185926       -32.2707
 102   2.0000      -1.121196       -30.5093
 103   2.0000      -1.098181       -29.8830
 104   2.0000      -1.090602       -29.6768
 105   2.0000      -1.088637       -29.6233
 106   2.0000      -1.009406       -27.4673
 107   2.0000      -1.005406       -27.3585
 108   2.0000      -0.996067       -27.1044
 109   2.0000      -0.991253       -26.9734
 110   2.0000      -0.990363       -26.9491
 111   2.0000      -0.968622       -26.3575
 112   2.0000      -0.967639       -26.3308
 113   2.0000      -0.952314       -25.9138
 114   2.0000      -0.946331       -25.7510
 115   2.0000      -0.923798       -25.1378
 116   2.0000      -0.910697       -24.7813
 117   2.0000      -0.902389       -24.5553
 118   2.0000      -0.888134       -24.1674
 119   2.0000      -0.879534       -23.9333
 120   2.0000      -0.871650       -23.7188
 121   2.0000      -0.863399       -23.4943
 122   2.0000      -0.854952       -23.2644
 123   2.0000      -0.848401       -23.0862
 124   2.0000      -0.844472       -22.9793
 125   2.0000      -0.842664       -22.9300
 126   2.0000      -0.842070       -22.9139
 127   2.0000      -0.840155       -22.8618
 128   2.0000      -0.835443       -22.7336
 129   2.0000      -0.830445       -22.5976
 130   2.0000      -0.820529       -22.3277
 131   2.0000      -0.815655       -22.1951
 132   2.0000      -0.802694       -21.8424
 133   2.0000      -0.799963       -21.7681
 134   2.0000      -0.794420       -21.6173
 135   2.0000      -0.790790       -21.5185
 136   2.0000      -0.781647       -21.2697
 137   2.0000      -0.768655       -20.9162
 138   2.0000      -0.748688       -20.3728
 139   2.0000      -0.740343       -20.1458
 140   2.0000      -0.725915       -19.7532
 141   2.0000      -0.716641       -19.5008
 142   2.0000      -0.712985       -19.4013
 143   2.0000      -0.706926       -19.2364
 144   2.0000      -0.701709       -19.0945
 145   2.0000      -0.689144       -18.7526
 146   2.0000      -0.683076       -18.5874
 147   2.0000      -0.673618       -18.3301
 148   2.0000      -0.662147       -18.0179
 149   2.0000      -0.654048       -17.7976
 150   2.0000      -0.643063       -17.4986
 151   2.0000      -0.637950       -17.3595
 152   2.0000      -0.636075       -17.3085
 153   2.0000      -0.633768       -17.2457
 154   2.0000      -0.629855       -17.1392
 155   2.0000      -0.629709       -17.1352
 156   2.0000      -0.625028       -17.0079
 157   2.0000      -0.622911       -16.9503
 158   2.0000      -0.616517       -16.7763
 159   2.0000      -0.614346       -16.7172
 160   2.0000      -0.613171       -16.6852
 161   2.0000      -0.610622       -16.6159
 162   2.0000      -0.603952       -16.4344
 163   2.0000      -0.602144       -16.3852
 164   2.0000      -0.597937       -16.2707
 165   2.0000      -0.596151       -16.2221
 166   2.0000      -0.588017       -16.0007
 167   2.0000      -0.580473       -15.7955
 168   2.0000      -0.577391       -15.7116
 169   2.0000      -0.573695       -15.6110
 170   2.0000      -0.572011       -15.5652
 171   2.0000      -0.570942       -15.5361
 172   2.0000      -0.566417       -15.4130
 173   2.0000      -0.561356       -15.2753
 174   2.0000      -0.557958       -15.1828
 175   2.0000      -0.554707       -15.0943
 176   2.0000      -0.547164       -14.8891
 177   2.0000      -0.546966       -14.8837
 178   2.0000      -0.541094       -14.7239
 179   2.0000      -0.534398       -14.5417
 180   2.0000      -0.531726       -14.4690
 181   2.0000      -0.529551       -14.4098
 182   2.0000      -0.527163       -14.3448
 183   2.0000      -0.514267       -13.9939
 184   2.0000      -0.512010       -13.9325
 185   2.0000      -0.511661       -13.9230
 186   2.0000      -0.511078       -13.9071
 187   2.0000      -0.509425       -13.8622
 188   2.0000      -0.508964       -13.8496
 189   2.0000      -0.505841       -13.7646
 190   2.0000      -0.501358       -13.6426
 191   2.0000      -0.497359       -13.5338
 192   2.0000      -0.496388       -13.5074
 193   2.0000      -0.495458       -13.4821
 194   2.0000      -0.493037       -13.4162
 195   2.0000      -0.492936       -13.4135
 196   2.0000      -0.490143       -13.3375
 197   2.0000      -0.484722       -13.1900
 198   2.0000      -0.483010       -13.1434
 199   2.0000      -0.482320       -13.1246
 200   2.0000      -0.481013       -13.0890
 201   2.0000      -0.476667       -12.9708
 202   2.0000      -0.475036       -12.9264
 203   2.0000      -0.471151       -12.8207
 204   2.0000      -0.467160       -12.7121
 205   2.0000      -0.463129       -12.6024
 206   2.0000      -0.461652       -12.5622
 207   2.0000      -0.460440       -12.5292
 208   2.0000      -0.456386       -12.4189
 209   2.0000      -0.453854       -12.3500
 210   2.0000      -0.452635       -12.3168
 211   2.0000      -0.450840       -12.2680
 212   2.0000      -0.445981       -12.1358
 213   2.0000      -0.441934       -12.0256
 214   2.0000      -0.438712       -11.9380
 215   2.0000      -0.434068       -11.8116
 216   2.0000      -0.428834       -11.6692
 217   2.0000      -0.427670       -11.6375
 218   2.0000      -0.426104       -11.5949
 219   2.0000      -0.425829       -11.5874
 220   2.0000      -0.423126       -11.5138
 221   2.0000      -0.422586       -11.4992
 222   2.0000      -0.418378       -11.3846
 223   2.0000      -0.417493       -11.3606
 224   2.0000      -0.414114       -11.2686
 225   2.0000      -0.406375       -11.0580
 226   2.0000      -0.405916       -11.0455
 227   2.0000      -0.404790       -11.0149
 228   2.0000      -0.394626       -10.7383
 229   2.0000      -0.393974       -10.7206
 230   2.0000      -0.393929       -10.7194
 231   2.0000      -0.378992       -10.3129
 232   2.0000      -0.374740       -10.1972
 233   2.0000      -0.372860       -10.1460
 234   2.0000      -0.372494       -10.1361
 235   2.0000      -0.370549       -10.0832
 236   2.0000      -0.362994        -9.8776
 237   2.0000      -0.358490        -9.7550
 238   2.0000      -0.352234        -9.5848
 239   2.0000      -0.351132        -9.5548
 240   2.0000      -0.349607        -9.5133
 241   2.0000      -0.338928        -9.2227
 242   2.0000      -0.336210        -9.1487
 243   2.0000      -0.335453        -9.1281
 244   2.0000      -0.328770        -8.9463
 245   2.0000      -0.325612        -8.8604
 246   2.0000      -0.323673        -8.8076
 247   2.0000      -0.315212        -8.5774
 248   2.0000      -0.311170        -8.4674
 249   2.0000      -0.306458        -8.3391
 250   2.0000      -0.303883        -8.2691
 251   2.0000      -0.286495        -7.7959
 252   2.0000      -0.260280        -7.0826
 253   2.0000      -0.246628        -6.7111
 254   2.0000      -0.208848        -5.6830
 255   2.0000      -0.202055        -5.4982
 256   0.0000      -0.081656        -2.2220
 257   0.0000      -0.076113        -2.0712
 258   0.0000      -0.046258        -1.2587
 259   0.0000      -0.045494        -1.2379
 260   0.0000      -0.021053        -0.5729

MULLIKEN ATOMIC CHARGES
-----------------------
   0 C :   -0.028060
   1 C :   -0.064226
   2 C :    0.052763
   3 C :    0.027612
   4 C :   -0.064309
   5 S :    0.090864
   6 C :   -0.055812
   7 C :    0.035223
   8 C :    0.028870
   9 C :   -0.025042
  10 S :    0.085136
  11 C :   -0.002134
  12 C :   -0.126293
  13 S :    0.110281
  14 C :   -0.122361
  15 C :   -0.050366
  16 C :    0.136996
  17 C :   -0.010161
  18 C :   -0.133412
  19 C :    0.200934
  20 O :   -0.200445
  21 O :   -0.314092
  22 C :    0.191893
  23 S :    0.140076
  24 C :   -0.015759
  25 C :    0.044597
  26 N :   -0.021433
  27 C :   -0.108616
  28 S :    0.148049
  29 C :   -0.016272
  30 N :    0.280285
  31 O :   -0.262676
  32 O :   -0.278252
  33 C :    0.020947
  34 C :    0.098402
  35 C :   -0.034497
  36 C :   -0.049819
  37 C :   -0.102662
  38 S :    0.121616
  39 C :   -0.112627
  40 C :   -0.021790
  41 C :    0.134634
  42 C :    0.001364
  43 C :   -0.149875
  44 C :    0.206410
  45 O :   -0.200615
  46 O :   -0.307019
  47 C :    0.187347
  48 S :    0.161595
  49 C :   -0.018287
  50 C :    0.003427
  51 C :   -0.018262
  52 C :   -0.017702
  53 C :    0.036557
  54 C :    0.025513
  55 C :   -0.047818
  56 S :    0.069478
  57 C :   -0.066635
  58 C :    0.029571
  59 C :    0.050323
  60 C :   -0.063390
  61 S :    0.080258
  62 C :   -0.029924
  63 H :    0.020616
  64 H :    0.025147
  65 H :   -0.010755
  66 H :   -0.010353
  67 H :   -0.014090
  68 H :   -0.012887
  69 H :   -0.015032
  70 H :    0.010223
  71 H :    0.033624
  72 H :    0.032704
  73 H :    0.033916
  74 H :   -0.007952
  75 H :    0.030098
  76 H :    0.138080
  77 H :    0.008503
  78 H :    0.008935
  79 H :   -0.004275
  80 H :   -0.004004
  81 H :    0.034632
  82 H :    0.037532
  83 H :    0.033440
  84 H :   -0.010418
  85 H :    0.005024
  86 H :   -0.017199
  87 H :   -0.014069
  88 H :   -0.013531
  89 H :   -0.012104
  90 H :   -0.010026
  91 H :    0.020477
  92 H :    0.023362
Sum of atomic charges:   -0.0000000

LOEWDIN ATOMIC CHARGES
----------------------
   0 C :   -0.072012
   1 C :   -0.139804
   2 C :   -0.028802
   3 C :   -0.027396
   4 C :   -0.173841
   5 S :    0.360023
   6 C :   -0.184291
   7 C :   -0.033078
   8 C :   -0.034986
   9 C :   -0.146298
  10 S :    0.398529
  11 C :   -0.088737
  12 C :   -0.157206
  13 S :    0.430246
  14 C :   -0.196341
  15 C :   -0.185657
  16 C :   -0.083247
  17 C :   -0.011674
  18 C :   -0.205123
  19 C :    0.068030
  20 O :   -0.176197
  21 O :   -0.104300
  22 C :    0.082029
  23 S :    0.402128
  24 C :   -0.084157
  25 C :    0.009747
  26 N :    0.047610
  27 C :   -0.095130
  28 S :    0.449879
  29 C :   -0.219945
  30 N :    0.274298
  31 O :   -0.228241
  32 O :   -0.244496
  33 C :    0.007140
  34 C :   -0.114583
  35 C :   -0.024250
  36 C :   -0.064203
  37 C :   -0.171238
  38 S :    0.444869
  39 C :   -0.184787
  40 C :   -0.187117
  41 C :   -0.078739
  42 C :   -0.018034
  43 C :   -0.197750
  44 C :    0.065492
  45 O :   -0.176297
  46 O :   -0.097371
  47 C :    0.081939
  48 S :    0.424102
  49 C :   -0.046509
  50 C :   -0.032063
  51 C :   -0.061822
  52 C :   -0.141882
  53 C :   -0.036282
  54 C :   -0.030257
  55 C :   -0.181277
  56 S :    0.364927
  57 C :   -0.176477
  58 C :   -0.027164
  59 C :   -0.031408
  60 C :   -0.139562
  61 S :    0.352602
  62 C :   -0.075252
  63 H :    0.028999
  64 H :    0.027635
  65 H :    0.033648
  66 H :    0.032528
  67 H :    0.031559
  68 H :    0.032914
  69 H :    0.033635
  70 H :    0.024648
  71 H :    0.023727
  72 H :    0.023740
  73 H :    0.026021
  74 H :    0.032466
  75 H :    0.020963
  76 H :    0.095215
  77 H :    0.046436
  78 H :    0.028696
  79 H :    0.030439
  80 H :    0.035222
  81 H :    0.025986
  82 H :    0.024381
  83 H :    0.024066
  84 H :    0.033215
  85 H :    0.016990
  86 H :    0.032791
  87 H :    0.033074
  88 H :    0.031315
  89 H :    0.032122
  90 H :    0.033619
  91 H :    0.028858
  92 H :    0.026783

  Mayer bond orders larger than 0.100000
B(  0-C ,  1-C ) :   1.8616 B(  0-C , 63-H ) :   0.9510 B(  0-C , 64-H ) :   0.9419
B(  1-C ,  2-C ) :   1.0801 B(  1-C ,  5-S ) :   1.0083 B(  2-C ,  3-C ) :   1.6599
B(  2-C , 65-H ) :   0.9931 B(  3-C ,  4-C ) :   1.1523 B(  3-C , 66-H ) :   0.9930
B(  4-C ,  5-S ) :   1.0515 B(  4-C ,  6-C ) :   1.5461 B(  6-C ,  7-C ) :   1.1751
B(  6-C , 10-S ) :   1.0383 B(  7-C ,  8-C ) :   1.5979 B(  7-C , 67-H ) :   0.9914
B(  8-C ,  9-C ) :   1.1464 B(  8-C , 68-H ) :   0.9975 B(  9-C , 10-S ) :   1.0401
B(  9-C , 11-C ) :   1.5882 B( 11-C , 12-C ) :   1.1947 B( 11-C , 69-H ) :   0.9404
B( 12-C , 13-S ) :   1.1183 B( 12-C , 16-C ) :   1.3390 B( 13-S , 14-C ) :   1.0961
B( 14-C , 15-C ) :   1.4973 B( 14-C , 24-C ) :   1.1923 B( 15-C , 16-C ) :   1.2397
B( 15-C , 23-S ) :   1.0362 B( 16-C , 17-C ) :   1.1458 B( 17-C , 18-C ) :   1.6257
B( 17-C , 70-H ) :   0.9853 B( 18-C , 19-C ) :   0.9681 B( 18-C , 23-S ) :   1.0539
B( 19-C , 20-O ) :   2.1342 B( 19-C , 21-O ) :   1.2229 B( 21-O , 22-C ) :   0.9235
B( 22-C , 71-H ) :   0.9760 B( 22-C , 72-H ) :   0.9774 B( 22-C , 73-H ) :   0.9813
B( 24-C , 25-C ) :   1.6571 B( 24-C , 74-H ) :   0.9624 B( 25-C , 26-N ) :   1.1135
B( 25-C , 75-H ) :   0.9638 B( 26-N , 27-C ) :   1.2472 B( 26-N , 76-H ) :   0.9021
B( 27-C , 28-S ) :   1.1357 B( 27-C , 34-C ) :   1.3423 B( 28-S , 29-C ) :   1.0571
B( 29-C , 30-N ) :   0.9938 B( 29-C , 33-C ) :   1.4667 B( 30-N , 31-O ) :   1.5225
B( 30-N , 32-O ) :   1.4959 B( 31-O , 32-O ) :   0.2489 B( 33-C , 34-C ) :   1.2465
B( 33-C , 77-H ) :   1.0084 B( 34-C , 35-C ) :   1.0694 B( 35-C , 36-C ) :   1.6596
B( 35-C , 78-H ) :   0.9660 B( 36-C , 37-C ) :   1.1933 B( 36-C , 79-H ) :   0.9626
B( 37-C , 38-S ) :   1.1177 B( 37-C , 41-C ) :   1.3603 B( 38-S , 39-C ) :   1.0985
B( 39-C , 40-C ) :   1.4601 B( 39-C , 49-C ) :   1.1893 B( 40-C , 41-C ) :   1.2467
B( 40-C , 48-S ) :   1.0393 B( 41-C , 42-C ) :   1.1340 B( 42-C , 43-C ) :   1.6134
B( 42-C , 80-H ) :   1.0007 B( 43-C , 44-C ) :   0.9691 B( 43-C , 48-S ) :   1.0754
B( 44-C , 45-O ) :   2.1401 B( 44-C , 46-O ) :   1.2377 B( 46-O , 47-C ) :   0.9217
B( 47-C , 81-H ) :   0.9813 B( 47-C , 82-H ) :   0.9729 B( 47-C , 83-H ) :   0.9790
B( 49-C , 50-C ) :   1.5871 B( 49-C , 84-H ) :   0.9824 B( 50-C , 51-C ) :   1.1825
B( 50-C , 85-H ) :   0.9693 B( 51-C , 52-C ) :   1.5468 B( 51-C , 86-H ) :   0.9853
B( 52-C , 53-C ) :   1.1446 B( 52-C , 56-S ) :   1.0347 B( 53-C , 54-C ) :   1.5951
B( 53-C , 87-H ) :   0.9992 B( 54-C , 55-C ) :   1.1792 B( 54-C , 88-H ) :   0.9931
B( 55-C , 56-S ) :   1.0364 B( 55-C , 57-C ) :   1.5479 B( 57-C , 58-C ) :   1.1547
B( 57-C , 61-S ) :   1.0467 B( 58-C , 59-C ) :   1.6596 B( 58-C , 89-H ) :   0.9919
B( 59-C , 60-C ) :   1.0809 B( 59-C , 90-H ) :   0.9930 B( 60-C , 61-S ) :   1.0074
B( 60-C , 62-C ) :   1.8623 B( 62-C , 91-H ) :   0.9507 B( 62-C , 92-H ) :   0.9422

-----------------------------------------------------------------------------
         ABSORPTION SPECTRUM VIA TRANSITION ELECTRIC DIPOLE MOMENTS
-----------------------------------------------------------------------------
State   Energy  Wavelength   fosc         T2         TX        TY        TZ
        (cm-1)    (nm)                  (au**2)     (au)      (au)      (au)
-----------------------------------------------------------------------------
   0   13264.8    753.9   1.432730048  35.55805   0.32758  -4.23325   4.18692
   1   14942.5    669.2   1.071034061  23.59687  -4.14164   1.05307   2.30969
   2   17920.7    558.0   0.057777360   1.06140  -0.15900   0.91330   0.44944
   3   19329.7    517.3   0.037426717   0.63743  -0.25335   0.70638   0.27252
   4   20985.5    476.5   0.308872459   4.84546   0.59189  -1.87658  -0.98669
   5   21873.2    457.2   0.238837130   3.59473  -0.70279  -1.60351  -0.72771
   6   22586.5    442.7   0.103944988   1.51506   0.42285   0.46910  -1.05651
   7   23692.7    422.1   0.620799449   8.62605   0.97822   1.95550   1.96090
   8   24667.2    405.4   0.042198492   0.56319  -0.25668  -0.63189  -0.31307
   9   25592.5    390.7   0.092450900   1.18925   0.38122   0.73533   0.70938
  10   25756.8    388.2   0.151642232   1.93822   1.10895  -0.53132  -0.65281
  11   27690.6    361.1   0.029587929   0.35177   0.02168   0.35029   0.47812
  12   28440.0    351.6   0.107981319   1.24996  -0.92916  -0.37625   0.49503
  13   29270.7    341.6   0.437423096   4.91976   1.53882   0.82922   1.36535
  14   30374.5    329.2   0.038192527   0.41395   0.30045  -0.28755   0.49091
  15   30907.8    323.5   0.125627044   1.33810  -0.65713  -0.93413  -0.18353
  16   31498.0    317.5   0.208374493   2.17790  -1.08097  -0.96052  -0.29463
  17   31736.2    315.1   0.047043987   0.48801  -0.53782  -0.43799  -0.08322
  18   31999.0    312.5   0.077530224   0.79765   0.76634   0.41506  -0.19516
  19   32581.5    306.9   0.043223361   0.43674   0.50410   0.07702   0.42034
  20   33017.3    302.9   0.003272980   0.03263   0.14610   0.00311  -0.10620
  21   33239.8    300.8   0.019435673   0.19249   0.06555  -0.32115   0.29165
  22   33554.1    298.0   0.021530236   0.21124  -0.33380  -0.26954  -0.16483
  23   33921.1    294.8   0.244371328   2.37168  -0.81834  -1.12903  -0.65366
  24   34241.2    292.0   0.023626992   0.22716  -0.39772  -0.23266  -0.12184
  25   34736.2    287.9   0.033960449   0.32186   0.36649   0.38145  -0.20504
  26   34975.4    285.9   0.116248969   1.09421   1.01538  -0.22853   0.10484
  27   35097.6    284.9   0.185068156   1.73592  -0.14883  -1.24216  -0.41330
  28   35301.7    283.3   0.004836120   0.04510   0.01081  -0.21151  -0.01570
  29   35777.9    279.5   0.056777095   0.52244  -0.25654   0.65219   0.17684
  30   36257.8    275.8   0.043335679   0.39348  -0.25955  -0.56736  -0.06490
  31   36329.9    275.3   0.014741564   0.13358   0.18301  -0.20656   0.23963
  32   36762.4    272.0   0.045504950   0.40750  -0.26110  -0.52324   0.25604
  33   36871.0    271.2   0.126855645   1.13266  -0.60706   0.80093  -0.35022
  34   37761.8    264.8   0.029968369   0.26127   0.28192   0.42115  -0.06652
  35   37954.1    263.5   0.065486180   0.56802  -0.37560  -0.18217   0.62750
  36   38547.4    259.4   0.049012269   0.41859   0.22286   0.28990   0.53374
  37   38697.1    258.4   0.050536927   0.42994   0.05099   0.31892   0.57064
  38   38841.8    257.5   0.005926165   0.05023   0.17321   0.08328   0.11529
  39   38980.8    256.5   0.020515425   0.17326  -0.18490  -0.17757  -0.32794
  40   39078.7    255.9   0.097312358   0.81979  -0.29670   0.77993   0.35137
  41   39270.1    254.6   0.133222129   1.11684   0.40133   0.86956   0.44680
  42   39482.4    253.3   0.128564690   1.07200   0.82251   0.60556   0.16963
  43   40279.2    248.3   0.051567035   0.42147   0.58445  -0.17909   0.21868

FINAL SINGLE POINT ENERGY     -5911.316670747697

DIPOLE MOMENT
-------------
                                X             Y             Z
Electronic contribution:    -24.12968      -8.94153      -2.15293
Nuclear contribution   :     26.20708       9.84675       1.98828
                        -----------------------------------------
Total Dipole Moment    :      2.07740       0.90522      -0.16465
                        -----------------------------------------
Magnitude (a.u.)       :      2.27203
Magnitude (Debye)      :      5.77505

Rotational constants in cm-1:     0.000847     0.000315     0.000304
Rotational constants in MHz :    25.398446     9.432722     9.116371

                             ****ORCA TERMINATED NORMALLY****
TOTAL RUN TIME: 0 days 0 hours 10 minutes 26 seconds 6 msec
