                         Program Version 4.2.0 -  RELEASE  -
|  1> # ORCA input file
|  2> # SCF done       -170.327329928425          0.000486890013
|  3> ! CAM-B3LYP def2-SVP def2/J RIJCOSX Grid4 TightSCF
|  4> %maxcore 5000
|  5> %tddft
|  6>     Mode sTDDFT
|  7>     Ethresh 5.0
|  8>     maxcore 5000
|  9> end
| 10>
| 11> %pal
| 12>   nprocs 6
| 13>   end
| 14> * xyz 0 1
| 15>    C        6.72423        -0.99772         6.66388
| 16>    C        7.22329        -1.17849         5.43358
| 17>    C        8.32243        -0.48784         4.82089
| 18>    C        8.59570        -0.88576         3.55919
| 19>    C        7.74082        -1.91607         3.07291
| 20>    S        6.57133        -2.36508         4.29166
| 21>    C        7.77285        -2.50708         1.83003
| 22>    C        8.64949        -2.23047         0.75337
| 23>    C        8.40596        -2.97603        -0.35590
| 24>    C        7.32465        -3.89177        -0.23346
| 25>    S        6.64020        -3.76491         1.37608
| 26>    C        6.89248        -4.69988        -1.25463
| 27>    C        5.83711        -5.63872        -1.29284
| 28>    C        5.06289        -6.03846        -0.19527
| 29>    C        4.02936        -6.94483        -0.30270
| 30>    C        3.68836        -7.52033        -1.52892
| 31>    C        4.45819        -7.16159        -2.67029
| 32>    N        4.14434        -7.72036        -3.84683
| 33>    C        4.85414        -7.39189        -4.89780
| 34>    C        5.91586        -6.48176        -4.79265
| 35>    N        6.24218        -5.91907        -3.65381
| 36>    C        5.52903        -6.23707        -2.56321
| 37>    C        2.62581        -8.44052        -1.69299
| 38>    S        2.22039        -9.14471        -3.23507
| 39>    C        0.89360       -10.12515        -2.57905
| 40>    C        0.77198        -9.86283        -1.19505
| 41>    C        1.74791        -8.93215        -0.74238
| 42>    O        1.60559        -8.66710         0.57149
| 43>    C        0.53205        -9.40404         0.96724
| 44>    N        0.12462        -9.32683         2.30342
| 45>    O       -0.81026       -10.03982         2.64047
| 46>    O        0.72723        -8.56706         3.04394
| 47>    C       -0.01609       -10.13988        -0.05621
| 48>    C        0.24418       -10.97158        -3.46763
| 49>    C       -0.61919       -12.02275        -3.20029
| 50>    C       -1.22277       -12.88847        -4.13683
| 51>    C       -1.93885       -13.91815        -3.57960
| 52>    C       -1.92911       -13.90954        -2.17581
| 53>    S       -1.00934       -12.55312        -1.58852
| 54>    C       -2.44456       -14.77664        -1.21503
| 55>    C       -3.07488       -16.03144        -1.30454
| 56>    C       -3.25930       -16.62411        -0.08471
| 57>    C       -2.76497       -15.87521         1.01296
| 58>    S       -2.13746       -14.36822         0.44787
| 59>    C       -2.82705       -16.23780         2.35235
| 60>    C       -2.33244       -15.57403         3.47439
| 61>    C       -1.32572       -14.62244         3.58038
| 62>    C       -1.08364       -13.76444         4.71924
| 63>    C       -1.80191       -13.70951         5.88977
| 64>    C       -1.47481       -12.87222         6.97541
| 65>    N       -1.25271       -12.23705         7.90644
| 66>    C       -2.94122       -14.47935         6.19602
| 67>    N       -3.87947       -15.05563         6.52653
| 68>    C        0.05193       -12.89960         4.39629
| 69>    C        0.54691       -13.27340         3.12441
| 70>    C       -0.24183       -14.40702         2.61728
| 71>    O       -0.00072       -15.05610         1.61050
| 72>    C        1.56500       -12.60635         2.49285
| 73>    C        2.12725       -11.50655         3.15097
| 74>    C        1.64893       -11.15420         4.43572
| 75>    C        0.61519       -11.83525         5.07200
| 76>    S        2.45909        -9.74896         5.05280
| 77>    C        3.39423        -9.64006         3.59145
| 78>    C        3.13670       -10.61752         2.68999
| 79>   Br        4.62109        -8.24480         3.37094
| 80>    H        7.14867        -0.26454         7.32695
| 81>    H        5.89205        -1.57304         7.02616
| 82>    H        8.85696         0.27691         5.35581
| 83>    H        9.38284        -0.47722         2.95079
| 84>    H        9.42600        -1.49062         0.82673
| 85>    H        8.96535        -2.90170        -1.27170
| 86>    H        7.41947        -4.58949        -2.19433
| 87>    H        5.28290        -5.64098         0.78188
| 88>    H        3.46931        -7.21188         0.57878
| 89>    H        4.58394        -7.85421        -5.83641
| 90>    H        6.51067        -6.20743        -5.65316
| 91>    H       -0.88067       -10.75662         0.05862
| 92>    H        0.50464       -10.82920        -4.50958
| 93>    H       -1.10699       -12.73941        -5.19601
| 94>    H       -2.45577       -14.67277        -4.14490
| 95>    H       -3.35147       -16.47317        -2.24530
| 96>    H       -3.70736       -17.59244         0.05447
| 97>    H       -3.41612       -17.12533         2.55402
| 98>    H       -2.80875       -15.86343         4.40381
| 99>    H        1.90118       -12.90631         1.51215
|100>    H        0.27025       -11.50771         6.03830
|101>    H        3.62645       -10.70165         1.73607
|102> *
|103>
|104>                          ****END OF INPUT****

CARTESIAN COORDINATES (ANGSTROEM)
---------------------------------
  C      6.724230   -0.997720    6.663880
  C      7.223290   -1.178490    5.433580
  C      8.322430   -0.487840    4.820890
  C      8.595700   -0.885760    3.559190
  C      7.740820   -1.916070    3.072910
  S      6.571330   -2.365080    4.291660
  C      7.772850   -2.507080    1.830030
  C      8.649490   -2.230470    0.753370
  C      8.405960   -2.976030   -0.355900
  C      7.324650   -3.891770   -0.233460
  S      6.640200   -3.764910    1.376080
  C      6.892480   -4.699880   -1.254630
  C      5.837110   -5.638720   -1.292840
  C      5.062890   -6.038460   -0.195270
  C      4.029360   -6.944830   -0.302700
  C      3.688360   -7.520330   -1.528920
  C      4.458190   -7.161590   -2.670290
  N      4.144340   -7.720360   -3.846830
  C      4.854140   -7.391890   -4.897800
  C      5.915860   -6.481760   -4.792650
  N      6.242180   -5.919070   -3.653810
  C      5.529030   -6.237070   -2.563210
  C      2.625810   -8.440520   -1.692990
  S      2.220390   -9.144710   -3.235070
  C      0.893600  -10.125150   -2.579050
  C      0.771980   -9.862830   -1.195050
  C      1.747910   -8.932150   -0.742380
  O      1.605590   -8.667100    0.571490
  C      0.532050   -9.404040    0.967240
  N      0.124620   -9.326830    2.303420
  O     -0.810260  -10.039820    2.640470
  O      0.727230   -8.567060    3.043940
  C     -0.016090  -10.139880   -0.056210
  C      0.244180  -10.971580   -3.467630
  C     -0.619190  -12.022750   -3.200290
  C     -1.222770  -12.888470   -4.136830
  C     -1.938850  -13.918150   -3.579600
  C     -1.929110  -13.909540   -2.175810
  S     -1.009340  -12.553120   -1.588520
  C     -2.444560  -14.776640   -1.215030
  C     -3.074880  -16.031440   -1.304540
  C     -3.259300  -16.624110   -0.084710
  C     -2.764970  -15.875210    1.012960
  S     -2.137460  -14.368220    0.447870
  C     -2.827050  -16.237800    2.352350
  C     -2.332440  -15.574030    3.474390
  C     -1.325720  -14.622440    3.580380
  C     -1.083640  -13.764440    4.719240
  C     -1.801910  -13.709510    5.889770
  C     -1.474810  -12.872220    6.975410
  N     -1.252710  -12.237050    7.906440
  C     -2.941220  -14.479350    6.196020
  N     -3.879470  -15.055630    6.526530
  C      0.051930  -12.899600    4.396290
  C      0.546910  -13.273400    3.124410
  C     -0.241830  -14.407020    2.617280
  O     -0.000720  -15.056100    1.610500
  C      1.565000  -12.606350    2.492850
  C      2.127250  -11.506550    3.150970
  C      1.648930  -11.154200    4.435720
  C      0.615190  -11.835250    5.072000
  S      2.459090   -9.748960    5.052800
  C      3.394230   -9.640060    3.591450
  C      3.136700  -10.617520    2.689990
  Br     4.621090   -8.244800    3.370940
  H      7.148670   -0.264540    7.326950
  H      5.892050   -1.573040    7.026160
  H      8.856960    0.276910    5.355810
  H      9.382840   -0.477220    2.950790
  H      9.426000   -1.490620    0.826730
  H      8.965350   -2.901700   -1.271700
  H      7.419470   -4.589490   -2.194330
  H      5.282900   -5.640980    0.781880
  H      3.469310   -7.211880    0.578780
  H      4.583940   -7.854210   -5.836410
  H      6.510670   -6.207430   -5.653160
  H     -0.880670  -10.756620    0.058620
  H      0.504640  -10.829200   -4.509580
  H     -1.106990  -12.739410   -5.196010
  H     -2.455770  -14.672770   -4.144900
  H     -3.351470  -16.473170   -2.245300
  H     -3.707360  -17.592440    0.054470
  H     -3.416120  -17.125330    2.554020
  H     -2.808750  -15.863430    4.403810
  H      1.901180  -12.906310    1.512150
  H      0.270250  -11.507710    6.038300
  H      3.626450  -10.701650    1.736070

 Total Charge           Charge          ....    0
 Multiplicity           Mult            ....    1
 Number of Electrons    NEL             ....  514
 Basis Dimension        Dim             .... 1062

ORBITAL ENERGIES
----------------

  NO   OCC          E(Eh)            E(eV)
   0   2.0000    -482.872569    -13139.6306
   1   2.0000     -88.973967     -2421.1047
   2   2.0000     -88.961842     -2420.7748
   3   2.0000     -88.953854     -2420.5574
   4   2.0000     -88.952963     -2420.5332
   5   2.0000     -88.951562     -2420.4951
   6   2.0000     -88.946997     -2420.3708
   7   2.0000     -62.549936     -1702.0703
   8   2.0000     -56.383870     -1534.2831
   9   2.0000     -56.381233     -1534.2114
  10   2.0000     -56.381136     -1534.2087
  11   2.0000     -19.316639      -525.6325
  12   2.0000     -19.242703      -523.6206
  13   2.0000     -19.240320      -523.5557
  14   2.0000     -19.188296      -522.1401
  15   2.0000     -14.652643      -398.7187
  16   2.0000     -14.443364      -393.0239
  17   2.0000     -14.438078      -392.8801
  18   2.0000     -14.390579      -391.5876
  19   2.0000     -14.389198      -391.5500
  20   2.0000     -10.387336      -282.6538
  21   2.0000     -10.354333      -281.7557
  22   2.0000     -10.338941      -281.3369
  23   2.0000     -10.335243      -281.2363
  24   2.0000     -10.333072      -281.1772
  25   2.0000     -10.331837      -281.1436
  26   2.0000     -10.329800      -281.0881
  27   2.0000     -10.328977      -281.0657
  28   2.0000     -10.328178      -281.0440
  29   2.0000     -10.325573      -280.9731
  30   2.0000     -10.322794      -280.8975
  31   2.0000     -10.321286      -280.8565
  32   2.0000     -10.318963      -280.7933
  33   2.0000     -10.315993      -280.7125
  34   2.0000     -10.314712      -280.6776
  35   2.0000     -10.314395      -280.6690
  36   2.0000     -10.314179      -280.6631
  37   2.0000     -10.314035      -280.6592
  38   2.0000     -10.313331      -280.6400
  39   2.0000     -10.312966      -280.6301
  40   2.0000     -10.312722      -280.6234
  41   2.0000     -10.312573      -280.6194
  42   2.0000     -10.307759      -280.4884
  43   2.0000     -10.305904      -280.4379
  44   2.0000     -10.301588      -280.3205
  45   2.0000     -10.301125      -280.3079
  46   2.0000     -10.300406      -280.2883
  47   2.0000     -10.298298      -280.2309
  48   2.0000     -10.297274      -280.2031
  49   2.0000     -10.294701      -280.1331
  50   2.0000     -10.294368      -280.1240
  51   2.0000     -10.294102      -280.1168
  52   2.0000     -10.293360      -280.0966
  53   2.0000     -10.292921      -280.0846
  54   2.0000     -10.291236      -280.0388
  55   2.0000     -10.288451      -279.9630
  56   2.0000     -10.286080      -279.8985
  57   2.0000     -10.285691      -279.8879
  58   2.0000     -10.285304      -279.8774
  59   2.0000     -10.284608      -279.8584
  60   2.0000     -10.281901      -279.7847
  61   2.0000     -10.280912      -279.7578
  62   2.0000     -10.279648      -279.7235
  63   2.0000     -10.277533      -279.6659
  64   2.0000     -10.277344      -279.6607
  65   2.0000     -10.276689      -279.6429
  66   2.0000     -10.274178      -279.5746
  67   2.0000     -10.268319      -279.4152
  68   2.0000     -10.266411      -279.3632
  69   2.0000      -8.779268      -238.8960
  70   2.0000      -8.066016      -219.4875
  71   2.0000      -8.058273      -219.2767
  72   2.0000      -8.049555      -219.0395
  73   2.0000      -8.048806      -219.0191
  74   2.0000      -8.047210      -218.9757
  75   2.0000      -8.043836      -218.8839
  76   2.0000      -6.615303      -180.0115
  77   2.0000      -6.601175      -179.6271
  78   2.0000      -6.600932      -179.6205
  79   2.0000      -6.035742      -164.2409
  80   2.0000      -6.031128      -164.1153
  81   2.0000      -6.028033      -164.0311
  82   2.0000      -6.027916      -164.0279
  83   2.0000      -6.023600      -163.9105
  84   2.0000      -6.019492      -163.7987
  85   2.0000      -6.019252      -163.7922
  86   2.0000      -6.018526      -163.7724
  87   2.0000      -6.016604      -163.7201
  88   2.0000      -6.014974      -163.6758
  89   2.0000      -6.014494      -163.6627
  90   2.0000      -6.013644      -163.6396
  91   2.0000      -6.012234      -163.6012
  92   2.0000      -6.010789      -163.5619
  93   2.0000      -6.009795      -163.5348
  94   2.0000      -6.009682      -163.5318
  95   2.0000      -6.009063      -163.5149
  96   2.0000      -6.004380      -163.3875
  97   2.0000      -2.731292       -74.3222
  98   2.0000      -2.727274       -74.2129
  99   2.0000      -2.727075       -74.2075
 100   2.0000      -2.715848       -73.9020
 101   2.0000      -2.715840       -73.9018
 102   2.0000      -1.321332       -35.9553
 103   2.0000      -1.235574       -33.6217
 104   2.0000      -1.136861       -30.9356
 105   2.0000      -1.102033       -29.9878
 106   2.0000      -1.097073       -29.8529
 107   2.0000      -1.022465       -27.8227
 108   2.0000      -1.011921       -27.5358
 109   2.0000      -1.000428       -27.2230
 110   2.0000      -0.999511       -27.1981
 111   2.0000      -0.997492       -27.1432
 112   2.0000      -0.989400       -26.9229
 113   2.0000      -0.982745       -26.7418
 114   2.0000      -0.977740       -26.6057
 115   2.0000      -0.968855       -26.3639
 116   2.0000      -0.964493       -26.2452
 117   2.0000      -0.963726       -26.2243
 118   2.0000      -0.939114       -25.5546
 119   2.0000      -0.921603       -25.0781
 120   2.0000      -0.911647       -24.8072
 121   2.0000      -0.904323       -24.6079
 122   2.0000      -0.893267       -24.3070
 123   2.0000      -0.889974       -24.2174
 124   2.0000      -0.886158       -24.1136
 125   2.0000      -0.875749       -23.8303
 126   2.0000      -0.870039       -23.6750
 127   2.0000      -0.866261       -23.5722
 128   2.0000      -0.862913       -23.4811
 129   2.0000      -0.855327       -23.2746
 130   2.0000      -0.852988       -23.2110
 131   2.0000      -0.847117       -23.0512
 132   2.0000      -0.833414       -22.6784
 133   2.0000      -0.828941       -22.5566
 134   2.0000      -0.825685       -22.4680
 135   2.0000      -0.813379       -22.1332
 136   2.0000      -0.806644       -21.9499
 137   2.0000      -0.796352       -21.6698
 138   2.0000      -0.791394       -21.5349
 139   2.0000      -0.774449       -21.0738
 140   2.0000      -0.769490       -20.9389
 141   2.0000      -0.759910       -20.6782
 142   2.0000      -0.750099       -20.4112
 143   2.0000      -0.737696       -20.0737
 144   2.0000      -0.733876       -19.9698
 145   2.0000      -0.724781       -19.7223
 146   2.0000      -0.709767       -19.3137
 147   2.0000      -0.702369       -19.1124
 148   2.0000      -0.690389       -18.7865
 149   2.0000      -0.680433       -18.5155
 150   2.0000      -0.677285       -18.4299
 151   2.0000      -0.676239       -18.4014
 152   2.0000      -0.665061       -18.0972
 153   2.0000      -0.662159       -18.0183
 154   2.0000      -0.655293       -17.8314
 155   2.0000      -0.652209       -17.7475
 156   2.0000      -0.646962       -17.6047
 157   2.0000      -0.641629       -17.4596
 158   2.0000      -0.637457       -17.3461
 159   2.0000      -0.635337       -17.2884
 160   2.0000      -0.635281       -17.2869
 161   2.0000      -0.629993       -17.1430
 162   2.0000      -0.627334       -17.0706
 163   2.0000      -0.626920       -17.0594
 164   2.0000      -0.610893       -16.6232
 165   2.0000      -0.608145       -16.5485
 166   2.0000      -0.605072       -16.4648
 167   2.0000      -0.603109       -16.4114
 168   2.0000      -0.597948       -16.2710
 169   2.0000      -0.594410       -16.1747
 170   2.0000      -0.584148       -15.8955
 171   2.0000      -0.581545       -15.8246
 172   2.0000      -0.574928       -15.6446
 173   2.0000      -0.571157       -15.5420
 174   2.0000      -0.567888       -15.4530
 175   2.0000      -0.566058       -15.4032
 176   2.0000      -0.559203       -15.2167
 177   2.0000      -0.557279       -15.1643
 178   2.0000      -0.549836       -14.9618
 179   2.0000      -0.545638       -14.8476
 180   2.0000      -0.544907       -14.8277
 181   2.0000      -0.533469       -14.5164
 182   2.0000      -0.529691       -14.4136
 183   2.0000      -0.527132       -14.3440
 184   2.0000      -0.524773       -14.2798
 185   2.0000      -0.520370       -14.1600
 186   2.0000      -0.519489       -14.1360
 187   2.0000      -0.517789       -14.0897
 188   2.0000      -0.515860       -14.0373
 189   2.0000      -0.512892       -13.9565
 190   2.0000      -0.506041       -13.7701
 191   2.0000      -0.505080       -13.7439
 192   2.0000      -0.502587       -13.6761
 193   2.0000      -0.502323       -13.6689
 194   2.0000      -0.499883       -13.6025
 195   2.0000      -0.495407       -13.4807
 196   2.0000      -0.493562       -13.4305
 197   2.0000      -0.490708       -13.3528
 198   2.0000      -0.484843       -13.1933
 199   2.0000      -0.483328       -13.1520
 200   2.0000      -0.481132       -13.0923
 201   2.0000      -0.478151       -13.0112
 202   2.0000      -0.477188       -12.9849
 203   2.0000      -0.473774       -12.8921
 204   2.0000      -0.472777       -12.8649
 205   2.0000      -0.471671       -12.8348
 206   2.0000      -0.467839       -12.7306
 207   2.0000      -0.465643       -12.6708
 208   2.0000      -0.462446       -12.5838
 209   2.0000      -0.458935       -12.4882
 210   2.0000      -0.453128       -12.3303
 211   2.0000      -0.452043       -12.3007
 212   2.0000      -0.450710       -12.2644
 213   2.0000      -0.444310       -12.0903
 214   2.0000      -0.441997       -12.0273
 215   2.0000      -0.440734       -11.9930
 216   2.0000      -0.435847       -11.8600
 217   2.0000      -0.434248       -11.8165
 218   2.0000      -0.431665       -11.7462
 219   2.0000      -0.426914       -11.6169
 220   2.0000      -0.425457       -11.5773
 221   2.0000      -0.425037       -11.5658
 222   2.0000      -0.419751       -11.4220
 223   2.0000      -0.416223       -11.3260
 224   2.0000      -0.409529       -11.1439
 225   2.0000      -0.404096       -10.9960
 226   2.0000      -0.403423       -10.9777
 227   2.0000      -0.401556       -10.9269
 228   2.0000      -0.397543       -10.8177
 229   2.0000      -0.396780       -10.7969
 230   2.0000      -0.393345       -10.7035
 231   2.0000      -0.390214       -10.6183
 232   2.0000      -0.388153       -10.5622
 233   2.0000      -0.382850       -10.4179
 234   2.0000      -0.381135       -10.3712
 235   2.0000      -0.379926       -10.3383
 236   2.0000      -0.369149       -10.0450
 237   2.0000      -0.366869        -9.9830
 238   2.0000      -0.361745        -9.8436
 239   2.0000      -0.358505        -9.7554
 240   2.0000      -0.356113        -9.6903
 241   2.0000      -0.348846        -9.4926
 242   2.0000      -0.345904        -9.4125
 243   2.0000      -0.342690        -9.3251
 244   2.0000      -0.339979        -9.2513
 245   2.0000      -0.332324        -9.0430
 246   2.0000      -0.330266        -8.9870
 247   2.0000      -0.326554        -8.8860
 248   2.0000      -0.321545        -8.7497
 249   2.0000      -0.315085        -8.5739
 250   2.0000      -0.305775        -8.3206
 251   2.0000      -0.296256        -8.0615
 252   2.0000      -0.286305        -7.7908
 253   2.0000      -0.272945        -7.4272
 254   2.0000      -0.268404        -7.3037
 255   2.0000      -0.233369        -6.3503
 256   2.0000      -0.212001        -5.7688
 257   0.0000      -0.117204        -3.1893
 258   0.0000      -0.081178        -2.2090
 259   0.0000      -0.067050        -1.8245
 260   0.0000      -0.046210        -1.2574
 261   0.0000      -0.044104        -1.2001

MULLIKEN ATOMIC CHARGES
-----------------------
   0 C :   -0.021799
   1 C :   -0.066892
   2 C :    0.058289
   3 C :    0.028376
   4 C :   -0.058771
   5 S :    0.093758
   6 C :   -0.042163
   7 C :    0.033674
   8 C :    0.029315
   9 C :    0.008357
  10 S :    0.061997
  11 C :   -0.065391
  12 C :    0.096050
  13 C :   -0.041160
  14 C :   -0.042288
  15 C :    0.099498
  16 C :   -0.017434
  17 N :   -0.081513
  18 C :    0.053429
  19 C :    0.021639
  20 N :   -0.012820
  21 C :   -0.028989
  22 C :   -0.174140
  23 S :    0.187462
  24 C :   -0.152294
  25 C :    0.140025
  26 C :    0.156807
  27 O :   -0.188824
  28 C :    0.234914
  29 N :    0.280016
  30 O :   -0.243528
  31 O :   -0.230896
  32 C :   -0.089724
  33 C :    0.056255
  34 C :   -0.041390
  35 C :    0.044673
  36 C :    0.024826
  37 C :   -0.001997
  38 S :    0.062733
  39 C :   -0.058558
  40 C :    0.039020
  41 C :    0.031382
  42 C :   -0.003457
  43 S :    0.136702
  44 C :    0.001527
  45 C :   -0.007582
  46 C :   -0.103450
  47 C :    0.311986
  48 C :   -0.360062
  49 C :   -0.187726
  50 N :    0.136490
  51 C :   -0.197612
  52 N :    0.139308
  53 C :    0.033022
  54 C :    0.011683
  55 C :    0.098316
  56 O :   -0.172962
  57 C :   -0.098110
  58 C :    0.101009
  59 C :   -0.096369
  60 C :   -0.016969
  61 S :    0.201373
  62 C :   -0.107331
  63 C :    0.015661
  64 Br:    0.006354
  65 H :    0.026011
  66 H :    0.029794
  67 H :   -0.005878
  68 H :   -0.007997
  69 H :   -0.010690
  70 H :   -0.008928
  71 H :   -0.006529
  72 H :   -0.010862
  73 H :    0.001239
  74 H :    0.012620
  75 H :    0.015943
  76 H :    0.022705
  77 H :   -0.012561
  78 H :   -0.003344
  79 H :   -0.005603
  80 H :   -0.012476
  81 H :   -0.009281
  82 H :   -0.006898
  83 H :    0.019514
  84 H :   -0.024893
  85 H :   -0.010888
  86 H :   -0.014725
Sum of atomic charges:   -0.0000000

LOEWDIN ATOMIC CHARGES
----------------------
   0 C :   -0.061169
   1 C :   -0.141154
   2 C :   -0.021607
   3 C :   -0.027632
   4 C :   -0.166053
   5 S :    0.362841
   6 C :   -0.187074
   7 C :   -0.028564
   8 C :   -0.032328
   9 C :   -0.131059
  10 S :    0.385981
  11 C :   -0.060212
  12 C :   -0.019213
  13 C :   -0.021644
  14 C :    0.009366
  15 C :   -0.056583
  16 C :   -0.004708
  17 N :   -0.055940
  18 C :    0.015794
  19 C :    0.002093
  20 N :   -0.027245
  21 C :    0.000664
  22 C :   -0.175991
  23 S :    0.498423
  24 C :   -0.185227
  25 C :   -0.074655
  26 C :    0.022289
  27 O :    0.012431
  28 C :    0.019786
  29 N :    0.277731
  30 O :   -0.208165
  31 O :   -0.197415
  32 C :   -0.016695
  33 C :   -0.043884
  34 C :   -0.166777
  35 C :   -0.012569
  36 C :   -0.044505
  37 C :   -0.145249
  38 S :    0.431964
  39 C :   -0.193955
  40 C :   -0.027089
  41 C :   -0.037279
  42 C :   -0.115112
  43 S :    0.487519
  44 C :   -0.073752
  45 C :    0.035330
  46 C :   -0.117504
  47 C :    0.079738
  48 C :   -0.152834
  49 C :   -0.017574
  50 N :   -0.068272
  51 C :   -0.021526
  52 N :   -0.066483
  53 C :   -0.016183
  54 C :   -0.042680
  55 C :    0.043944
  56 O :   -0.178384
  57 C :    0.003483
  58 C :   -0.049093
  59 C :   -0.150952
  60 C :   -0.004304
  61 S :    0.450850
  62 C :   -0.274585
  63 C :   -0.086427
  64 Br:    0.133155
  65 H :    0.031400
  66 H :    0.029876
  67 H :    0.035765
  68 H :    0.033641
  69 H :    0.032732
  70 H :    0.035021
  71 H :    0.035565
  72 H :    0.016001
  73 H :    0.032291
  74 H :    0.028255
  75 H :    0.028066
  76 H :    0.029142
  77 H :    0.036681
  78 H :    0.036540
  79 H :    0.035849
  80 H :    0.033101
  81 H :    0.034404
  82 H :    0.038136
  83 H :    0.044911
  84 H :    0.034268
  85 H :    0.039906
  86 H :    0.032370

  Mayer bond orders larger than 0.100000
B(  0-C ,  1-C ) :   1.8637 B(  0-C , 65-H ) :   0.9513 B(  0-C , 66-H ) :   0.9423
B(  1-C ,  2-C ) :   1.0793 B(  1-C ,  5-S ) :   1.0054 B(  2-C ,  3-C ) :   1.6613
B(  2-C , 67-H ) :   0.9937 B(  3-C ,  4-C ) :   1.1495 B(  3-C , 68-H ) :   0.9927
B(  4-C ,  5-S ) :   1.0581 B(  4-C ,  6-C ) :   1.5465 B(  6-C ,  7-C ) :   1.1714
B(  6-C , 10-S ) :   1.0286 B(  7-C ,  8-C ) :   1.5977 B(  7-C , 69-H ) :   0.9931
B(  8-C ,  9-C ) :   1.1417 B(  8-C , 70-H ) :   1.0007 B(  9-C , 10-S ) :   1.0456
B(  9-C , 11-C ) :   1.5220 B( 11-C , 12-C ) :   1.1989 B( 11-C , 71-H ) :   0.9621
B( 12-C , 13-C ) :   1.3227 B( 12-C , 21-C ) :   1.1680 B( 13-C , 14-C ) :   1.3237
B( 13-C , 72-H ) :   0.9792 B( 14-C , 15-C ) :   1.3663 B( 14-C , 73-H ) :   0.9898
B( 15-C , 16-C ) :   1.1911 B( 15-C , 22-C ) :   1.1459 B( 16-C , 17-N ) :   1.4288
B( 16-C , 21-C ) :   1.2334 B( 17-N , 18-C ) :   1.5948 B( 18-C , 19-C ) :   1.2613
B( 18-C , 74-H ) :   0.9734 B( 19-C , 20-N ) :   1.6297 B( 19-C , 75-H ) :   0.9769
B( 20-N , 21-C ) :   1.5021 B( 22-C , 23-S ) :   1.1316 B( 22-C , 26-C ) :   1.4223
B( 23-S , 24-C ) :   1.0529 B( 24-C , 25-C ) :   1.2535 B( 24-C , 33-C ) :   1.2839
B( 25-C , 26-C ) :   1.2589 B( 25-C , 32-C ) :   1.1023 B( 26-C , 27-O ) :   1.1173
B( 27-O , 28-C ) :   1.1015 B( 28-C , 29-N ) :   0.9344 B( 28-C , 32-C ) :   1.5364
B( 29-N , 30-O ) :   1.5102 B( 29-N , 31-O ) :   1.4840 B( 30-O , 31-O ) :   0.2669
B( 32-C , 76-H ) :   1.0013 B( 33-C , 34-C ) :   1.5015 B( 33-C , 77-H ) :   0.9440
B( 34-C , 35-C ) :   1.1943 B( 34-C , 38-S ) :   1.0444 B( 35-C , 36-C ) :   1.5308
B( 35-C , 78-H ) :   0.9981 B( 36-C , 37-C ) :   1.2348 B( 36-C , 79-H ) :   0.9960
B( 37-C , 38-S ) :   1.0886 B( 37-C , 39-C ) :   1.4008 B( 39-C , 40-C ) :   1.2241
B( 39-C , 43-S ) :   1.0846 B( 40-C , 41-C ) :   1.5411 B( 40-C , 80-H ) :   0.9953
B( 41-C , 42-C ) :   1.1954 B( 41-C , 81-H ) :   0.9956 B( 42-C , 43-S ) :   1.1361
B( 42-C , 44-C ) :   1.4200 B( 44-C , 45-C ) :   1.3775 B( 44-C , 82-H ) :   0.9517
B( 45-C , 46-C ) :   1.4041 B( 45-C , 83-H ) :   0.9340 B( 46-C , 47-C ) :   1.1247
B( 46-C , 55-C ) :   1.0062 B( 47-C , 48-C ) :   1.5933 B( 47-C , 53-C ) :   0.9878
B( 48-C , 49-C ) :   1.1487 B( 48-C , 51-C ) :   1.1462 B( 49-C , 50-N ) :   2.9663
B( 51-C , 52-N ) :   2.9730 B( 53-C , 54-C ) :   1.2707 B( 53-C , 60-C ) :   1.4219
B( 54-C , 55-C ) :   0.9256 B( 54-C , 57-C ) :   1.4340 B( 55-C , 56-O ) :   2.1687
B( 57-C , 58-C ) :   1.2264 B( 57-C , 84-H ) :   1.0181 B( 58-C , 59-C ) :   1.3110
B( 58-C , 63-C ) :   1.1639 B( 59-C , 60-C ) :   1.3171 B( 59-C , 61-S ) :   1.0966
B( 60-C , 85-H ) :   0.9779 B( 61-S , 62-C ) :   1.1018 B( 62-C , 63-C ) :   1.6076
B( 62-C , 64-Br) :   1.0072 B( 63-C , 86-H ) :   1.0011

-----------------------------------------------------------------------------
         ABSORPTION SPECTRUM VIA TRANSITION ELECTRIC DIPOLE MOMENTS
-----------------------------------------------------------------------------
State   Energy  Wavelength   fosc         T2         TX        TY        TZ
        (cm-1)    (nm)                  (au**2)     (au)      (au)      (au)
-----------------------------------------------------------------------------
   0    7621.1   1312.1   0.695225052  30.03192   2.97283   4.50055  -0.96917
   1   13498.5    740.8   0.524250899  12.78584  -1.45924  -1.56373  -2.86552
   2   15579.2    641.9   0.586827068  12.40057  -1.12920  -1.45332  -3.00222
   3   16731.2    597.7   0.063718381   1.25375   0.70316   0.86660  -0.09125
   4   18473.1    541.3   0.017467027   0.31128   0.12970   0.00529  -0.54262
   5   20048.8    498.8   0.141693303   2.32668  -0.76785  -0.89920  -0.96360
   6   20260.5    493.6   0.199046285   3.23429   1.05168   0.86797   1.17255
   7   21152.2    472.8   0.060892814   0.94773   0.58828   0.36223  -0.68590
   8   21532.4    464.4   0.047136955   0.72068   0.57115  -0.31332  -0.54433
   9   22799.7    438.6   0.353081804   5.09825   0.10938   1.09992   1.96887
  10   23032.6    434.2   0.078914504   1.12795  -0.13145  -0.57957  -0.88021
  11   24047.7    415.8   0.105017390   1.43768   0.47488   0.75760   0.79888
  12   25662.2    389.7   0.143983481   1.84712   1.21417   0.60988   0.03079
  13   25828.0    387.2   0.038273534   0.48785  -0.10569  -0.24690  -0.64476
  14   26630.7    375.5   0.340767412   4.21260  -1.27713  -1.22536  -1.03925
  15   26857.2    372.3   0.042133351   0.51647   0.39260   0.59871   0.06224
  16   27793.0    359.8   0.184809839   2.18910  -0.61593  -0.19372   1.33124
  17   28200.3    354.6   0.023760825   0.27739   0.16729  -0.10334  -0.48859
  18   28535.4    350.4   0.027831497   0.32109  -0.05818  -0.12866   0.54877
  19   28610.5    349.5   0.126194944   1.45209   0.36430   0.04687  -1.14768
  20   28821.3    347.0   0.263636682   3.01139   1.13181   0.62862  -1.15552
  21   28942.1    345.5   0.011960852   0.13605  -0.03226   0.36669   0.02339
  22   29283.9    341.5   0.017210556   0.19348   0.01567   0.19058  -0.39613
  23   29557.6    338.3   0.072996722   0.81304  -0.68867  -0.56746   0.12947
  24   29690.4    336.8   0.081959117   0.90878   0.70213   0.64292  -0.04953
  25   30220.5    330.9   0.025890072   0.28204  -0.25845   0.16531   0.43349
  26   30839.1    324.3   0.067516780   0.72075  -0.46199  -0.14757   0.69681
  27   31283.3    319.7   0.024909970   0.26214   0.39456   0.14252  -0.29352
  28   31666.1    315.8   0.225668157   2.34613  -0.92470  -1.20541   0.19508
  29   31974.5    312.7   0.007908280   0.08142   0.01462  -0.20803   0.19477
  30   32188.4    310.7   0.040362767   0.41282   0.51283   0.35974  -0.14285
  31   32338.8    309.2   0.043408337   0.44190   0.51397   0.35703  -0.22420
  32   32504.9    307.6   0.040767019   0.41289  -0.19247  -0.45396   0.41203
  33   32881.0    304.1   0.047760587   0.47819   0.61065   0.32109  -0.04689
  34   33118.3    301.9   0.227263569   2.25911   0.67008   0.20770  -1.32928
  35   33697.3    296.8   0.002871109   0.02805  -0.10208   0.08088   0.10530
  36   33803.9    295.8   0.055208587   0.53767   0.39471   0.54220  -0.29648
  37   33944.5    294.6   0.080960743   0.78520  -0.71033  -0.46480   0.25417
  38   34306.7    291.5   0.145483828   1.39608  -0.70109  -0.49685   0.81099
  39   34848.9    287.0   0.008148985   0.07698   0.20134   0.03736  -0.18722
  40   34972.6    285.9   0.034821607   0.32779  -0.17565  -0.17614  -0.51567
  41   35225.7    283.9   0.064873687   0.60630  -0.51696  -0.54504   0.20490
  42   35415.0    282.4   0.043345636   0.40293  -0.38159   0.38375   0.33175
  43   35576.2    281.1   0.072053054   0.66676  -0.66886  -0.20282   0.42220
  44   35767.1    279.6   0.007802256   0.07181  -0.24358  -0.11165  -0.00436
  45   35853.8    278.9   0.029996980   0.27543  -0.03508  -0.18962  -0.48810
  46   36022.9    277.6   0.008668162   0.07922  -0.05150  -0.05611   0.27096
  47   36285.8    275.6   0.018158660   0.16475   0.33694   0.19292  -0.11832
  48   36419.3    274.6   0.019198676   0.17355  -0.05816   0.11804   0.39526
  49   36619.7    273.1   0.029266532   0.26311   0.01106  -0.37078  -0.35427
  50   36941.2    270.7   0.307618241   2.74142   0.51057  -0.18821  -1.56375
  51   37181.3    269.0   0.144403822   1.27859   0.63869   0.45654  -0.81378
  52   37571.7    266.2   0.152076936   1.33253  -0.22601   0.08238   1.12901
  53   37626.5    265.8   0.131503818   1.15059   0.66371   0.57111  -0.61961
  54   37773.6    264.7   0.030110313   0.26242  -0.13550  -0.35112  -0.34753
  55   37886.1    263.9   0.000977378   0.00849  -0.05230  -0.07521  -0.01006
  56   38317.2    261.0   0.049936750   0.42904  -0.39974  -0.19417   0.48120
  57   38566.4    259.3   0.023495555   0.20056   0.06859   0.25201   0.36380
  58   38928.9    256.9   0.000708061   0.00599  -0.01144   0.00745  -0.07617
  59   38952.8    256.7   0.008223332   0.06950   0.13702   0.22135  -0.04161
  60   39263.7    254.7   0.018115069   0.15189  -0.25274  -0.10509   0.27743
  61   39375.8    254.0   0.038572086   0.32249   0.43433   0.06020  -0.36087
  62   39552.5    252.8   0.009490430   0.07899   0.07535   0.03234  -0.26883
  63   39713.1    251.8   0.014502903   0.12023  -0.17080  -0.28749  -0.09165
  64   40126.5    249.2   0.017067800   0.14003   0.00078   0.07993  -0.36557

FINAL SINGLE POINT ENERGY     -7414.157282536995

DIPOLE MOMENT
-------------
                                X             Y             Z
Electronic contribution:     10.21537      -2.49310      30.46841
Nuclear contribution   :     -7.03930       5.22793     -36.27091
                        -----------------------------------------
Total Dipole Moment    :      3.17607       2.73482      -5.80250
                        -----------------------------------------
Magnitude (a.u.)       :      7.15792
Magnitude (Debye)      :     18.19397

Rotational constants in cm-1:     0.001508     0.000529     0.000407
Rotational constants in MHz :    45.207915    15.872459    12.187891

                             ****ORCA TERMINATED NORMALLY****
TOTAL RUN TIME: 0 days 0 hours 10 minutes 20 seconds 30 msec
