                         Program Version 4.2.0 -  RELEASE  -
|  1> # ORCA input file
|  2> # SCF done       -157.075865703849          0.006467813692
|  3> ! CAM-B3LYP def2-SVP def2/J RIJCOSX Grid4 TightSCF
|  4> %maxcore 5000
|  5> %tddft
|  6>     Mode sTDDFT
|  7>     Ethresh 5.0
|  8>     maxcore 5000
|  9> end
| 10>
| 11> %pal
| 12>   nprocs 6
| 13>   end
| 14> * xyz 0 1
| 15>    C        7.75942        -0.81828        -6.49906
| 16>    C        6.56724        -1.43808        -6.46639
| 17>    C        5.45260        -1.24720        -7.34887
| 18>    C        4.38800        -2.03496        -7.07588
| 19>    C        4.57808        -2.90613        -5.96854
| 20>    S        6.15920        -2.67500        -5.26552
| 21>    C        3.69660        -3.85338        -5.48339
| 22>    C        2.41728        -4.19522        -5.97426
| 23>    C        1.82897        -5.21827        -5.29389
| 24>    C        2.60495        -5.73050        -4.22732
| 25>    S        4.11693        -4.85898        -4.11239
| 26>    C        2.21497        -6.77152        -3.40402
| 27>    C        2.89981        -7.32896        -2.33198
| 28>    S        2.09111        -8.56515        -1.35886
| 29>    C        3.44384        -8.78589        -0.25001
| 30>    C        4.49270        -7.92251        -0.66262
| 31>    C        4.17299        -7.12813        -1.78504
| 32>    O        5.19653        -6.32132        -2.10065
| 33>    C        6.16893        -6.57510        -1.18013
| 34>    N        7.35935        -5.84026        -1.25098
| 35>    O        8.21003        -6.09842        -0.41067
| 36>    O        7.46856        -4.99911        -2.12511
| 37>    C        5.79018        -7.54789        -0.27754
| 38>    C        3.44678        -9.64327         0.81867
| 39>    C        2.37224       -10.40670         1.28854
| 40>    C        2.40387       -11.31913         2.34565
| 41>    C        1.18406       -11.90251         2.61855
| 42>    C        0.15723       -11.44898         1.79319
| 43>    S        0.75941       -10.28915         0.63746
| 44>    C       -1.20449       -11.79102         1.81293
| 45>    C       -1.84536       -12.79474         2.54106
| 46>    C       -3.20116       -12.85866         2.30878
| 47>    C       -3.66938       -11.89862         1.40349
| 48>    S       -2.34604       -10.90955         0.83828
| 49>    C       -4.98280       -11.73548         0.97056
| 50>    C       -5.44596       -10.76726         0.10639
| 51>    S       -4.46755        -9.46004        -0.57132
| 52>    C       -5.78556        -8.77526        -1.52524
| 53>    C       -6.94995        -9.55566        -1.29904
| 54>    C       -6.74612       -10.62265        -0.40534
| 55>    O       -7.87061       -11.32949        -0.22772
| 56>    C       -8.80693       -10.72188        -1.00620
| 57>    N      -10.10381       -11.26539        -1.03443
| 58>    O      -10.91369       -10.70206        -1.75200
| 59>    O      -10.32848       -12.24811        -0.35706
| 60>    C       -8.30204        -9.63213        -1.68351
| 61>    C       -5.65563        -7.68443        -2.34605
| 62>    C       -4.51774        -6.89613        -2.52463
| 63>    C       -4.39566        -5.82498        -3.41988
| 64>    C       -3.17388        -5.19911        -3.38371
| 65>    C       -2.29206        -5.74809        -2.44207
| 66>    S       -3.03656        -7.10379        -1.62621
| 67>    C       -1.00143        -5.33072        -2.12743
| 68>    C       -0.25684        -4.30449        -2.74636
| 69>    C        0.99314        -4.13594        -2.23439
| 70>    C        1.30268        -5.01466        -1.15535
| 71>    S       -0.08202        -6.07037        -0.84436
| 72>    C        2.46338        -5.12673        -0.48231
| 73>    H        7.97622        -0.07465        -7.24722
| 74>    H        8.53097        -1.04341        -5.78522
| 75>    H        5.50080        -0.52924        -8.14877
| 76>    H        3.46935        -2.02580        -7.63241
| 77>    H        1.97253        -3.69021        -6.81265
| 78>    H        0.86063        -5.62031        -5.52049
| 79>    H        1.23624        -7.19126        -3.60102
| 80>    H        6.38819        -7.91125         0.53203
| 81>    H        4.37438        -9.72810         1.36985
| 82>    H        3.30889       -11.53457         2.88558
| 83>    H        1.02208       -12.61986         3.40235
| 84>    H       -1.31561       -13.45739         3.20083
| 85>    H       -3.85959       -13.57275         2.76896
| 86>    H       -5.71460       -12.44078         1.33751
| 87>    H       -8.85434        -9.00372        -2.35094
| 88>    H       -6.53019        -7.39990        -2.91680
| 89>    H       -5.20157        -5.53710        -4.07201
| 90>    H       -2.90996        -4.35833        -4.00163
| 91>    H       -0.65511        -3.72858        -3.56382
| 92>    H        1.70099        -3.39970        -2.57090
| 93>    H        3.28955        -4.47534        -0.70659
| 94>    H        2.57648        -5.81735         0.33538
| 95> *
| 96>
| 97>                          ****END OF INPUT****

CARTESIAN COORDINATES (ANGSTROEM)
---------------------------------
  C      7.759420   -0.818280   -6.499060
  C      6.567240   -1.438080   -6.466390
  C      5.452600   -1.247200   -7.348870
  C      4.388000   -2.034960   -7.075880
  C      4.578080   -2.906130   -5.968540
  S      6.159200   -2.675000   -5.265520
  C      3.696600   -3.853380   -5.483390
  C      2.417280   -4.195220   -5.974260
  C      1.828970   -5.218270   -5.293890
  C      2.604950   -5.730500   -4.227320
  S      4.116930   -4.858980   -4.112390
  C      2.214970   -6.771520   -3.404020
  C      2.899810   -7.328960   -2.331980
  S      2.091110   -8.565150   -1.358860
  C      3.443840   -8.785890   -0.250010
  C      4.492700   -7.922510   -0.662620
  C      4.172990   -7.128130   -1.785040
  O      5.196530   -6.321320   -2.100650
  C      6.168930   -6.575100   -1.180130
  N      7.359350   -5.840260   -1.250980
  O      8.210030   -6.098420   -0.410670
  O      7.468560   -4.999110   -2.125110
  C      5.790180   -7.547890   -0.277540
  C      3.446780   -9.643270    0.818670
  C      2.372240  -10.406700    1.288540
  C      2.403870  -11.319130    2.345650
  C      1.184060  -11.902510    2.618550
  C      0.157230  -11.448980    1.793190
  S      0.759410  -10.289150    0.637460
  C     -1.204490  -11.791020    1.812930
  C     -1.845360  -12.794740    2.541060
  C     -3.201160  -12.858660    2.308780
  C     -3.669380  -11.898620    1.403490
  S     -2.346040  -10.909550    0.838280
  C     -4.982800  -11.735480    0.970560
  C     -5.445960  -10.767260    0.106390
  S     -4.467550   -9.460040   -0.571320
  C     -5.785560   -8.775260   -1.525240
  C     -6.949950   -9.555660   -1.299040
  C     -6.746120  -10.622650   -0.405340
  O     -7.870610  -11.329490   -0.227720
  C     -8.806930  -10.721880   -1.006200
  N    -10.103810  -11.265390   -1.034430
  O    -10.913690  -10.702060   -1.752000
  O    -10.328480  -12.248110   -0.357060
  C     -8.302040   -9.632130   -1.683510
  C     -5.655630   -7.684430   -2.346050
  C     -4.517740   -6.896130   -2.524630
  C     -4.395660   -5.824980   -3.419880
  C     -3.173880   -5.199110   -3.383710
  C     -2.292060   -5.748090   -2.442070
  S     -3.036560   -7.103790   -1.626210
  C     -1.001430   -5.330720   -2.127430
  C     -0.256840   -4.304490   -2.746360
  C      0.993140   -4.135940   -2.234390
  C      1.302680   -5.014660   -1.155350
  S     -0.082020   -6.070370   -0.844360
  C      2.463380   -5.126730   -0.482310
  H      7.976220   -0.074650   -7.247220
  H      8.530970   -1.043410   -5.785220
  H      5.500800   -0.529240   -8.148770
  H      3.469350   -2.025800   -7.632410
  H      1.972530   -3.690210   -6.812650
  H      0.860630   -5.620310   -5.520490
  H      1.236240   -7.191260   -3.601020
  H      6.388190   -7.911250    0.532030
  H      4.374380   -9.728100    1.369850
  H      3.308890  -11.534570    2.885580
  H      1.022080  -12.619860    3.402350
  H     -1.315610  -13.457390    3.200830
  H     -3.859590  -13.572750    2.768960
  H     -5.714600  -12.440780    1.337510
  H     -8.854340   -9.003720   -2.350940
  H     -6.530190   -7.399900   -2.916800
  H     -5.201570   -5.537100   -4.072010
  H     -2.909960   -4.358330   -4.001630
  H     -0.655110   -3.728580   -3.563820
  H      1.700990   -3.399700   -2.570900
  H      3.289550   -4.475340   -0.706590
  H      2.576480   -5.817350    0.335380

 Total Charge           Charge          ....    0
 Multiplicity           Mult            ....    1
 Number of Electrons    NEL             ....  464
 Basis Dimension        Dim             ....  954

ORBITAL ENERGIES
----------------

  NO   OCC          E(Eh)            E(eV)
   0   2.0000     -88.963508     -2420.8201
   1   2.0000     -88.961436     -2420.7637
   2   2.0000     -88.960020     -2420.7252
   3   2.0000     -88.958706     -2420.6895
   4   2.0000     -88.956164     -2420.6203
   5   2.0000     -88.954434     -2420.5732
   6   2.0000     -88.946178     -2420.3485
   7   2.0000     -88.940084     -2420.1827
   8   2.0000     -19.319165      -525.7012
   9   2.0000     -19.308493      -525.4108
  10   2.0000     -19.235864      -523.4345
  11   2.0000     -19.233842      -523.3795
  12   2.0000     -19.226030      -523.1669
  13   2.0000     -19.223488      -523.0977
  14   2.0000     -14.648808      -398.6143
  15   2.0000     -14.638715      -398.3397
  16   2.0000     -10.380392      -282.4648
  17   2.0000     -10.370582      -282.1979
  18   2.0000     -10.355141      -281.7777
  19   2.0000     -10.350449      -281.6500
  20   2.0000     -10.322483      -280.8890
  21   2.0000     -10.320556      -280.8366
  22   2.0000     -10.319354      -280.8039
  23   2.0000     -10.317165      -280.7443
  24   2.0000     -10.315957      -280.7115
  25   2.0000     -10.314553      -280.6733
  26   2.0000     -10.314028      -280.6590
  27   2.0000     -10.314004      -280.6583
  28   2.0000     -10.313957      -280.6570
  29   2.0000     -10.313925      -280.6562
  30   2.0000     -10.312221      -280.6098
  31   2.0000     -10.311545      -280.5914
  32   2.0000     -10.307958      -280.4938
  33   2.0000     -10.307627      -280.4848
  34   2.0000     -10.307387      -280.4782
  35   2.0000     -10.307332      -280.4768
  36   2.0000     -10.307205      -280.4733
  37   2.0000     -10.305190      -280.4185
  38   2.0000     -10.300497      -280.2908
  39   2.0000     -10.297559      -280.2108
  40   2.0000     -10.293580      -280.1025
  41   2.0000     -10.291409      -280.0435
  42   2.0000     -10.290328      -280.0141
  43   2.0000     -10.289747      -279.9982
  44   2.0000     -10.289085      -279.9802
  45   2.0000     -10.288441      -279.9627
  46   2.0000     -10.288129      -279.9542
  47   2.0000     -10.287887      -279.9476
  48   2.0000     -10.287412      -279.9347
  49   2.0000     -10.286514      -279.9103
  50   2.0000     -10.285630      -279.8862
  51   2.0000     -10.285267      -279.8763
  52   2.0000     -10.284998      -279.8690
  53   2.0000     -10.284988      -279.8687
  54   2.0000     -10.281550      -279.7752
  55   2.0000     -10.281129      -279.7637
  56   2.0000     -10.277432      -279.6631
  57   2.0000     -10.273885      -279.5666
  58   2.0000      -8.058124      -219.2727
  59   2.0000      -8.057037      -219.2431
  60   2.0000      -8.054414      -219.1717
  61   2.0000      -8.054382      -219.1709
  62   2.0000      -8.051825      -219.1013
  63   2.0000      -8.050229      -219.0579
  64   2.0000      -8.041899      -218.8312
  65   2.0000      -8.036804      -218.6926
  66   2.0000      -6.027932      -164.0284
  67   2.0000      -6.026520      -163.9899
  68   2.0000      -6.024158      -163.9257
  69   2.0000      -6.023806      -163.9161
  70   2.0000      -6.023748      -163.9145
  71   2.0000      -6.022346      -163.8764
  72   2.0000      -6.021260      -163.8468
  73   2.0000      -6.019960      -163.8114
  74   2.0000      -6.019774      -163.8064
  75   2.0000      -6.019656      -163.8032
  76   2.0000      -6.019180      -163.7902
  77   2.0000      -6.018678      -163.7766
  78   2.0000      -6.017115      -163.7340
  79   2.0000      -6.016139      -163.7075
  80   2.0000      -6.015755      -163.6970
  81   2.0000      -6.015677      -163.6949
  82   2.0000      -6.013572      -163.6376
  83   2.0000      -6.011584      -163.5835
  84   2.0000      -6.011533      -163.5821
  85   2.0000      -6.007439      -163.4707
  86   2.0000      -6.006599      -163.4479
  87   2.0000      -6.002894      -163.3470
  88   2.0000      -6.002553      -163.3378
  89   2.0000      -5.997438      -163.1986
  90   2.0000      -1.318631       -35.8818
  91   2.0000      -1.306783       -35.5594
  92   2.0000      -1.236492       -33.6467
  93   2.0000      -1.227781       -33.4096
  94   2.0000      -1.134312       -30.8662
  95   2.0000      -1.122327       -30.5401
  96   2.0000      -1.004968       -27.3466
  97   2.0000      -1.000457       -27.2238
  98   2.0000      -0.997671       -27.1480
  99   2.0000      -0.993854       -27.0442
 100   2.0000      -0.988052       -26.8863
 101   2.0000      -0.978468       -26.6255
 102   2.0000      -0.972957       -26.4755
 103   2.0000      -0.970944       -26.4207
 104   2.0000      -0.936239       -25.4764
 105   2.0000      -0.928988       -25.2791
 106   2.0000      -0.908426       -24.7195
 107   2.0000      -0.899682       -24.4816
 108   2.0000      -0.898744       -24.4561
 109   2.0000      -0.889392       -24.2016
 110   2.0000      -0.878681       -23.9101
 111   2.0000      -0.877356       -23.8741
 112   2.0000      -0.863678       -23.5019
 113   2.0000      -0.851925       -23.1821
 114   2.0000      -0.850830       -23.1523
 115   2.0000      -0.847012       -23.0484
 116   2.0000      -0.845826       -23.0161
 117   2.0000      -0.833184       -22.6721
 118   2.0000      -0.828526       -22.5453
 119   2.0000      -0.826193       -22.4818
 120   2.0000      -0.822039       -22.3688
 121   2.0000      -0.812274       -22.1031
 122   2.0000      -0.800168       -21.7737
 123   2.0000      -0.790911       -21.5218
 124   2.0000      -0.788100       -21.4453
 125   2.0000      -0.774278       -21.0692
 126   2.0000      -0.758877       -20.6501
 127   2.0000      -0.743680       -20.2366
 128   2.0000      -0.728547       -19.8248
 129   2.0000      -0.720019       -19.5927
 130   2.0000      -0.706705       -19.2304
 131   2.0000      -0.698638       -19.0109
 132   2.0000      -0.690475       -18.7888
 133   2.0000      -0.682757       -18.5788
 134   2.0000      -0.679822       -18.4989
 135   2.0000      -0.675507       -18.3815
 136   2.0000      -0.666585       -18.1387
 137   2.0000      -0.649706       -17.6794
 138   2.0000      -0.645212       -17.5571
 139   2.0000      -0.642852       -17.4929
 140   2.0000      -0.640640       -17.4327
 141   2.0000      -0.635154       -17.2834
 142   2.0000      -0.630668       -17.1614
 143   2.0000      -0.628309       -17.0972
 144   2.0000      -0.625543       -17.0219
 145   2.0000      -0.623335       -16.9618
 146   2.0000      -0.620490       -16.8844
 147   2.0000      -0.618917       -16.8416
 148   2.0000      -0.616708       -16.7815
 149   2.0000      -0.612430       -16.6651
 150   2.0000      -0.609956       -16.5978
 151   2.0000      -0.605968       -16.4892
 152   2.0000      -0.600518       -16.3409
 153   2.0000      -0.598941       -16.2980
 154   2.0000      -0.594859       -16.1869
 155   2.0000      -0.581279       -15.8174
 156   2.0000      -0.578349       -15.7377
 157   2.0000      -0.574430       -15.6310
 158   2.0000      -0.570142       -15.5144
 159   2.0000      -0.569305       -15.4916
 160   2.0000      -0.563581       -15.3358
 161   2.0000      -0.555668       -15.1205
 162   2.0000      -0.552614       -15.0374
 163   2.0000      -0.548966       -14.9381
 164   2.0000      -0.542612       -14.7652
 165   2.0000      -0.536023       -14.5859
 166   2.0000      -0.526493       -14.3266
 167   2.0000      -0.523586       -14.2475
 168   2.0000      -0.519655       -14.1405
 169   2.0000      -0.515654       -14.0317
 170   2.0000      -0.512513       -13.9462
 171   2.0000      -0.510886       -13.9019
 172   2.0000      -0.509731       -13.8705
 173   2.0000      -0.508411       -13.8346
 174   2.0000      -0.502192       -13.6653
 175   2.0000      -0.499860       -13.6019
 176   2.0000      -0.498192       -13.5565
 177   2.0000      -0.495368       -13.4797
 178   2.0000      -0.493177       -13.4200
 179   2.0000      -0.489994       -13.3334
 180   2.0000      -0.486622       -13.2417
 181   2.0000      -0.485229       -13.2037
 182   2.0000      -0.483887       -13.1672
 183   2.0000      -0.483317       -13.1517
 184   2.0000      -0.480730       -13.0813
 185   2.0000      -0.474636       -12.9155
 186   2.0000      -0.469308       -12.7705
 187   2.0000      -0.466465       -12.6931
 188   2.0000      -0.464803       -12.6479
 189   2.0000      -0.463578       -12.6146
 190   2.0000      -0.460006       -12.5174
 191   2.0000      -0.455993       -12.4082
 192   2.0000      -0.453933       -12.3521
 193   2.0000      -0.451507       -12.2861
 194   2.0000      -0.446202       -12.1418
 195   2.0000      -0.442830       -12.0500
 196   2.0000      -0.439505       -11.9595
 197   2.0000      -0.431676       -11.7465
 198   2.0000      -0.427975       -11.6458
 199   2.0000      -0.424933       -11.5630
 200   2.0000      -0.419182       -11.4065
 201   2.0000      -0.418557       -11.3895
 202   2.0000      -0.416503       -11.3336
 203   2.0000      -0.409060       -11.1311
 204   2.0000      -0.400223       -10.8906
 205   2.0000      -0.393819       -10.7164
 206   2.0000      -0.388272       -10.5654
 207   2.0000      -0.386069       -10.5055
 208   2.0000      -0.382988       -10.4216
 209   2.0000      -0.381070       -10.3694
 210   2.0000      -0.380208       -10.3460
 211   2.0000      -0.374549       -10.1920
 212   2.0000      -0.372727       -10.1424
 213   2.0000      -0.364430        -9.9167
 214   2.0000      -0.363781        -9.8990
 215   2.0000      -0.356318        -9.6959
 216   2.0000      -0.354716        -9.6523
 217   2.0000      -0.349663        -9.5148
 218   2.0000      -0.342469        -9.3191
 219   2.0000      -0.338849        -9.2205
 220   2.0000      -0.337763        -9.1910
 221   2.0000      -0.333659        -9.0793
 222   2.0000      -0.329146        -8.9565
 223   2.0000      -0.327185        -8.9032
 224   2.0000      -0.320633        -8.7249
 225   2.0000      -0.315257        -8.5786
 226   2.0000      -0.310150        -8.4396
 227   2.0000      -0.294491        -8.0135
 228   2.0000      -0.279448        -7.6042
 229   2.0000      -0.243099        -6.6151
 230   2.0000      -0.217900        -5.9294
 231   2.0000      -0.187994        -5.1156
 232   0.0000      -0.106571        -2.9000
 233   0.0000      -0.079834        -2.1724
 234   0.0000      -0.059874        -1.6292
 235   0.0000      -0.046993        -1.2788
 236   0.0000      -0.040250        -1.0952

MULLIKEN ATOMIC CHARGES
-----------------------
   0 C :   -0.022305
   1 C :   -0.072876
   2 C :    0.053549
   3 C :    0.030218
   4 C :   -0.069229
   5 S :    0.113727
   6 C :   -0.047709
   7 C :    0.022892
   8 C :    0.036701
   9 C :   -0.052417
  10 S :    0.107863
  11 C :    0.071248
  12 C :   -0.233257
  13 S :    0.102990
  14 C :   -0.081957
  15 C :    0.103668
  16 C :    0.215773
  17 O :   -0.187354
  18 C :    0.217757
  19 N :    0.279909
  20 O :   -0.273169
  21 O :   -0.253619
  22 C :   -0.103586
  23 C :   -0.019412
  24 C :   -0.043164
  25 C :    0.013694
  26 C :    0.020304
  27 C :   -0.042241
  28 S :    0.090335
  29 C :   -0.024427
  30 C :    0.014382
  31 C :    0.030507
  32 C :   -0.051896
  33 S :    0.093465
  34 C :    0.011986
  35 C :   -0.133312
  36 S :    0.054298
  37 C :   -0.058933
  38 C :    0.114092
  39 C :    0.196271
  40 O :   -0.163356
  41 C :    0.214326
  42 N :    0.279397
  43 O :   -0.261099
  44 O :   -0.242216
  45 C :   -0.086249
  46 C :   -0.015491
  47 C :   -0.043205
  48 C :    0.017989
  49 C :    0.019058
  50 C :   -0.039168
  51 S :    0.100558
  52 C :   -0.068387
  53 C :   -0.003055
  54 C :    0.107517
  55 C :   -0.127893
  56 S :    0.118178
  57 C :    0.045992
  58 H :    0.023442
  59 H :    0.031105
  60 H :   -0.008217
  61 H :   -0.013854
  62 H :   -0.017433
  63 H :   -0.016967
  64 H :   -0.015447
  65 H :    0.005557
  66 H :   -0.015623
  67 H :   -0.017170
  68 H :   -0.015983
  69 H :   -0.015997
  70 H :   -0.011233
  71 H :    0.006741
  72 H :    0.009980
  73 H :   -0.014545
  74 H :   -0.015053
  75 H :   -0.016281
  76 H :   -0.016812
  77 H :   -0.005700
  78 H :    0.033150
  79 H :    0.028682
Sum of atomic charges:   -0.0000000

LOEWDIN ATOMIC CHARGES
----------------------
   0 C :   -0.064582
   1 C :   -0.142218
   2 C :   -0.026169
   3 C :   -0.030239
   4 C :   -0.171389
   5 S :    0.378261
   6 C :   -0.193202
   7 C :   -0.036963
   8 C :   -0.038280
   9 C :   -0.143141
  10 S :    0.411755
  11 C :   -0.076962
  12 C :   -0.192954
  13 S :    0.414720
  14 C :   -0.158047
  15 C :   -0.094551
  16 C :    0.024646
  17 O :    0.012423
  18 C :   -0.001330
  19 N :    0.271100
  20 O :   -0.233767
  21 O :   -0.216097
  22 C :   -0.004887
  23 C :   -0.083809
  24 C :   -0.160511
  25 C :   -0.054513
  26 C :   -0.042270
  27 C :   -0.194415
  28 S :    0.410485
  29 C :   -0.170848
  30 C :   -0.055530
  31 C :   -0.032882
  32 C :   -0.178610
  33 S :    0.416135
  34 C :   -0.042950
  35 C :   -0.194014
  36 S :    0.393421
  37 C :   -0.152862
  38 C :   -0.082941
  39 C :    0.036109
  40 O :    0.027627
  41 C :    0.009003
  42 N :    0.271842
  43 O :   -0.221978
  44 O :   -0.203729
  45 C :   -0.005475
  46 C :   -0.077973
  47 C :   -0.159836
  48 C :   -0.049228
  49 C :   -0.043223
  50 C :   -0.194108
  51 S :    0.413843
  52 C :   -0.172151
  53 C :   -0.049694
  54 C :   -0.016566
  55 C :   -0.150487
  56 S :    0.398406
  57 C :   -0.034434
  58 H :    0.029866
  59 H :    0.029966
  60 H :    0.034267
  61 H :    0.031500
  62 H :    0.029883
  63 H :    0.030591
  64 H :    0.035447
  65 H :    0.044555
  66 H :    0.039826
  67 H :    0.031128
  68 H :    0.031081
  69 H :    0.031110
  70 H :    0.033737
  71 H :    0.048347
  72 H :    0.045582
  73 H :    0.041032
  74 H :    0.032310
  75 H :    0.030785
  76 H :    0.030018
  77 H :    0.034847
  78 H :    0.033904
  79 H :    0.030257

  Mayer bond orders larger than 0.100000
B(  0-C ,  1-C ) :   1.8527 B(  0-C , 58-H ) :   0.9522 B(  0-C , 59-H ) :   0.9412
B(  1-C ,  2-C ) :   1.0838 B(  1-C ,  5-S ) :   1.0080 B(  2-C ,  3-C ) :   1.6473
B(  2-C , 60-H ) :   0.9935 B(  3-C ,  4-C ) :   1.1619 B(  3-C , 61-H ) :   0.9931
B(  4-C ,  5-S ) :   1.0669 B(  4-C ,  6-C ) :   1.5070 B(  6-C ,  7-C ) :   1.1931
B(  6-C , 10-S ) :   1.0302 B(  7-C ,  8-C ) :   1.5543 B(  7-C , 62-H ) :   0.9953
B(  8-C ,  9-C ) :   1.1832 B(  8-C , 63-H ) :   0.9982 B(  9-C , 10-S ) :   1.0636
B(  9-C , 11-C ) :   1.4666 B( 11-C , 12-C ) :   1.3053 B( 11-C , 64-H ) :   0.9388
B( 12-C , 13-S ) :   1.0654 B( 12-C , 16-C ) :   1.2434 B( 13-S , 14-C ) :   1.0395
B( 14-C , 15-C ) :   1.1636 B( 14-C , 23-C ) :   1.4949 B( 15-C , 16-C ) :   1.3345
B( 15-C , 22-C ) :   1.1681 B( 16-C , 17-O ) :   1.1349 B( 17-O , 18-C ) :   1.0976
B( 18-C , 19-N ) :   0.9554 B( 18-C , 22-C ) :   1.4835 B( 19-N , 20-O ) :   1.5045
B( 19-N , 21-O ) :   1.4856 B( 20-O , 21-O ) :   0.2605 B( 22-C , 65-H ) :   1.0266
B( 23-C , 24-C ) :   1.2752 B( 23-C , 66-H ) :   0.9674 B( 24-C , 25-C ) :   1.3394
B( 24-C , 28-S ) :   1.0921 B( 25-C , 26-C ) :   1.3758 B( 25-C , 67-H ) :   1.0012
B( 26-C , 27-C ) :   1.3874 B( 26-C , 68-H ) :   0.9958 B( 27-C , 28-S ) :   1.0874
B( 27-C , 29-C ) :   1.2381 B( 29-C , 30-C ) :   1.3758 B( 29-C , 33-S ) :   1.1121
B( 30-C , 31-C ) :   1.3877 B( 30-C , 69-H ) :   0.9954 B( 31-C , 32-C ) :   1.3267
B( 31-C , 70-H ) :   1.0006 B( 32-C , 33-S ) :   1.0742 B( 32-C , 34-C ) :   1.2830
B( 34-C , 35-C ) :   1.4629 B( 34-C , 71-H ) :   0.9760 B( 35-C , 36-S ) :   1.0174
B( 35-C , 39-C ) :   1.2357 B( 36-S , 37-C ) :   1.0424 B( 37-C , 38-C ) :   1.1446
B( 37-C , 46-C ) :   1.5069 B( 38-C , 39-C ) :   1.3543 B( 38-C , 45-C ) :   1.1578
B( 39-C , 40-O ) :   1.1763 B( 40-O , 41-C ) :   1.1235 B( 41-C , 42-N ) :   0.9387
B( 41-C , 45-C ) :   1.5050 B( 42-N , 43-O ) :   1.5194 B( 42-N , 44-O ) :   1.4994
B( 43-O , 44-O ) :   0.2697 B( 45-C , 72-H ) :   1.0231 B( 46-C , 47-C ) :   1.2895
B( 46-C , 73-H ) :   0.9656 B( 47-C , 48-C ) :   1.3095 B( 47-C , 51-S ) :   1.0916
B( 48-C , 49-C ) :   1.4166 B( 48-C , 74-H ) :   1.0009 B( 49-C , 50-C ) :   1.3289
B( 49-C , 75-H ) :   0.9953 B( 50-C , 51-S ) :   1.0804 B( 50-C , 52-C ) :   1.3203
B( 52-C , 53-C ) :   1.2746 B( 52-C , 56-S ) :   1.0895 B( 53-C , 54-C ) :   1.5122
B( 53-C , 76-H ) :   0.9961 B( 54-C , 55-C ) :   1.1486 B( 54-C , 77-H ) :   0.9822
B( 55-C , 56-S ) :   1.0306 B( 55-C , 57-C ) :   1.7708 B( 57-C , 78-H ) :   0.9364
B( 57-C , 79-H ) :   0.9302

-----------------------------------------------------------------------------
         ABSORPTION SPECTRUM VIA TRANSITION ELECTRIC DIPOLE MOMENTS
-----------------------------------------------------------------------------
State   Energy  Wavelength   fosc         T2         TX        TY        TZ
        (cm-1)    (nm)                  (au**2)     (au)      (au)      (au)
-----------------------------------------------------------------------------
   0    4935.2   2026.2   0.214148529  14.28505   3.45820   0.75433  -1.32549
   1    8196.9   1220.0   0.008958639   0.35981  -0.55983   0.11305  -0.18334
   2   12739.0    785.0   0.621677955  16.06590   2.52494   2.71960  -1.51472
   3   13455.2    743.2   0.996282454  24.37625   1.93258   3.61893  -2.74677
   4   15474.5    646.2   0.127944218   2.72195   0.14355  -1.54680   0.55567
   5   16709.0    598.5   0.407983024   8.03837   2.57460  -0.62998   1.00645
   6   18822.4    531.3   0.315122116   5.51163   1.43143  -1.26381   1.36580
   7   19653.1    508.8   0.778649027  13.04326  -3.41302  -1.05384  -0.53290
   8   21128.1    473.3   0.017106566   0.26655   0.12202  -0.30441   0.39874
   9   22668.2    441.1   0.067665621   0.98271   0.78312   0.58751   0.15580
  10   23106.8    432.8   0.044084995   0.62810  -0.32083   0.45105  -0.56721
  11   23824.3    419.7   0.223469002   3.08797  -0.77339  -1.29047   0.90803
  12   24877.5    402.0   0.164340822   2.17477   0.26835   1.25461  -0.72713
  13   25480.2    392.5   0.300712398   3.88529   1.12100  -0.97585   1.29475
  14   25819.8    387.3   0.117584745   1.49925   1.12036   0.49351   0.02245
  15   26597.6    376.0   0.138110147   1.70946  -1.04166   0.39493  -0.68443
  16   26891.8    371.9   0.029599907   0.36237   0.50557   0.05821   0.32152
  17   27888.0    358.6   0.133053165   1.57067  -0.98686  -0.74481  -0.20502
  18   28833.8    346.8   0.015844033   0.18090  -0.34816   0.06122  -0.23651
  19   29199.0    342.5   0.253522418   2.85841  -1.47895  -0.73910  -0.35332
  20   29376.9    340.4   0.020967405   0.23497  -0.44044  -0.17656  -0.09906
  21   29978.6    333.6   0.003472970   0.03814  -0.03729   0.18790  -0.03799
  22   30538.3    327.5   0.012876152   0.13881   0.27145   0.13827   0.21448
  23   30846.0    324.2   0.010435907   0.11138   0.18560   0.06026  -0.27074
  24   31094.7    321.6   0.029268625   0.30988   0.34208  -0.15471   0.41100
  25   31222.6    320.3   0.003060191   0.03227  -0.11440  -0.09922   0.09661
  26   31545.2    317.0   0.022617736   0.23604  -0.15991   0.23677  -0.39295
  27   32208.5    310.5   0.081460076   0.83263  -0.75801  -0.13951  -0.48845
  28   32464.4    308.0   0.094443187   0.95772   0.93742   0.22339   0.17049
  29   32879.9    304.1   0.037352501   0.37399   0.40025  -0.23016   0.40103
  30   32902.9    303.9   0.008924734   0.08930   0.12938   0.03355   0.26727
  31   33026.7    302.8   0.043990113   0.43850  -0.02394   0.40001  -0.52718
  32   33326.3    300.1   0.032573502   0.32178  -0.32906  -0.31756   0.33563
  33   34008.1    294.0   0.112644203   1.09044   0.83095  -0.06125   0.62945
  34   34253.5    291.9   0.028813682   0.27693  -0.08015   0.20957  -0.47601
  35   34425.5    290.5   0.026066705   0.24928   0.18054  -0.20332   0.41874
  36   34599.1    289.0   0.016912183   0.16092  -0.10594   0.09312  -0.37553
  37   34953.8    286.1   0.121384748   1.14326  -1.02692  -0.25726  -0.15008
  38   35520.3    281.5   0.002333774   0.02163   0.12840   0.03584   0.06213
  39   35572.0    281.1   0.149660150   1.38508  -0.99436  -0.62953  -0.00491
  40   35762.3    279.6   0.130867000   1.20470   1.04237   0.34163  -0.03825
  41   36045.7    277.4   0.000151791   0.00139   0.03721   0.00104  -0.00073
  42   36251.6    275.8   0.052719585   0.47876  -0.66278  -0.18294   0.07762
  43   36522.0    273.8   0.039433219   0.35545  -0.55114  -0.18836   0.12735
  44   36851.4    271.4   0.008088672   0.07226   0.20149   0.17084  -0.04976
  45   36913.3    270.9   0.168658878   1.50419  -0.92635  -0.79494   0.11890
  46   37440.3    267.1   0.012311506   0.10825  -0.25670  -0.02006  -0.20483
  47   37694.0    265.3   0.001655148   0.01446   0.01434   0.01402  -0.11855
  48   37950.9    263.5   0.064563526   0.56007  -0.68589  -0.23536  -0.18501
  49   38041.3    262.9   0.035172844   0.30439   0.08134   0.41012  -0.35996
  50   38322.1    260.9   0.018590596   0.15971   0.32921   0.21741   0.06373
  51   38727.6    258.2   0.029959478   0.25468  -0.31623  -0.29515   0.25993
  52   38838.0    257.5   0.011648308   0.09874  -0.29411  -0.10258   0.04139
  53   39010.4    256.3   0.004098115   0.03458  -0.12259   0.10703  -0.09000
  54   39374.2    254.0   0.003235179   0.02705  -0.08417   0.06128   0.12732
  55   39503.2    253.1   0.005418839   0.04516   0.15127   0.14921   0.00360
  56   39836.0    251.0   0.033873261   0.27993   0.44647   0.26852  -0.09217
  57   40060.5    249.6   0.073206788   0.60160   0.72964   0.26311  -0.00265

FINAL SINGLE POINT ENERGY     -5356.033596533949

DIPOLE MOMENT
-------------
                                X             Y             Z
Electronic contribution:    -15.43533     -18.63558      11.22615
Nuclear contribution   :     15.77759      19.90583     -12.17383
                        -----------------------------------------
Total Dipole Moment    :      0.34227       1.27025      -0.94768
                        -----------------------------------------
Magnitude (a.u.)       :      1.62135
Magnitude (Debye)      :      4.12114

Rotational constants in cm-1:     0.002074     0.000575     0.000463
Rotational constants in MHz :    62.183196    17.230258    13.868431

                             ****ORCA TERMINATED NORMALLY****
TOTAL RUN TIME: 0 days 0 hours 8 minutes 50 seconds 210 msec
