                         Program Version 4.2.0 -  RELEASE  -
|  1> # ORCA input file
|  2> # SCF done       -169.006743622640          0.000761303167
|  3> ! CAM-B3LYP def2-SVP def2/J RIJCOSX Grid4 TightSCF
|  4> %maxcore 5000
|  5> %tddft
|  6>     Mode sTDDFT
|  7>     Ethresh 5.0
|  8>     maxcore 5000
|  9> end
| 10>
| 11> %pal
| 12>   nprocs 6
| 13>   end
| 14> * xyz 0 1
| 15>    C        7.54802        -3.53080        -7.85844
| 16>    C        8.24179        -3.93371        -6.78524
| 17>    C        9.65847        -3.86535        -6.56971
| 18>    C       10.06821        -4.34752        -5.37422
| 19>    C        9.01904        -4.83293        -4.54794
| 20>    S        7.47701        -4.66003        -5.36469
| 21>    C        9.11037        -5.36197        -3.28146
| 22>    C       10.25518        -5.54999        -2.47375
| 23>    C        9.98508        -6.08161        -1.24869
| 24>    C        8.61516        -6.33385        -1.00530
| 25>    S        7.67809        -5.90129        -2.42211
| 26>    C        8.07628        -6.91719         0.11760
| 27>    C        6.72040        -7.14043         0.37403
| 28>    S        6.30120        -8.56242         1.29789
| 29>    C        4.62855        -8.49871         0.81711
| 30>    C        4.37422        -7.29378         0.11301
| 31>    C        5.54571        -6.50281        -0.08950
| 32>    C        5.41387        -5.17848        -0.58719
| 33>    C        6.51434        -4.18644        -0.46007
| 34>    O        7.33505        -4.25777         0.42915
| 35>    C        6.50207        -3.01903        -1.42247
| 36>    C        4.16722        -4.75924        -1.00953
| 37>    C        3.03639        -5.56739        -0.87626
| 38>    C        3.12216        -6.79911        -0.27885
| 39>    C        3.79943        -9.58050         1.11898
| 40>    C        2.64333        -9.91643         0.44890
| 41>    C        1.81428       -10.98194         0.77922
| 42>    C        0.72162       -11.34639         0.01302
| 43>    C       -0.21389       -12.37179         0.24615
| 44>    C       -1.17872       -12.49033        -0.71834
| 45>    C       -1.04502       -11.56664        -1.76953
| 46>    S        0.33291       -10.52384        -1.48765
| 47>    C       -1.79280       -11.42664        -2.92614
| 48>    C       -2.90036       -12.16123        -3.39103
| 49>    C       -3.34404       -11.79090        -4.62854
| 50>    C       -2.60148       -10.74142        -5.21903
| 51>    S       -1.34685       -10.20579        -4.09833
| 52>    C       -2.71917       -10.18529        -6.46174
| 53>    N       -1.85725        -9.22544        -6.88403
| 54>    C       -1.80980        -8.60797        -8.08227
| 55>    S       -2.97176        -8.94954        -9.32414
| 56>    C       -2.15966        -7.81680       -10.36435
| 57>    N       -2.68655        -7.63472       -11.63731
| 58>    O       -2.13582        -6.83599       -12.37889
| 59>    O       -3.67792        -8.29558       -11.92170
| 60>    C       -1.06783        -7.22583        -9.78243
| 61>    C       -0.84185        -7.65884        -8.46490
| 62>    C        0.22514        -7.23300        -7.60512
| 63>    C        1.19014        -6.35452        -7.94653
| 64>    C        2.24649        -5.91927        -7.09379
| 65>    S        2.79253        -4.28918        -7.33357
| 66>    C        3.77694        -4.29928        -5.91905
| 67>    C        3.73146        -5.55476        -5.30555
| 68>    C        2.89392        -6.49639        -5.99666
| 69>    C        2.87330        -7.85087        -5.54533
| 70>    C        2.36680        -8.95459        -6.39561
| 71>    O        2.43013        -8.91689        -7.60475
| 72>    C        1.82755       -10.16986        -5.67393
| 73>    C        3.53053        -8.16365        -4.37559
| 74>    C        4.28253        -7.21453        -3.66612
| 75>    C        4.41563        -5.94114        -4.13650
| 76>    C        4.48889        -3.13698        -5.48647
| 77>    C        4.54557        -1.98142        -6.15017
| 78>    H        8.04944        -3.09462        -8.70406
| 79>    H        6.47894        -3.62849        -7.90809
| 80>    H       10.30746        -3.45443        -7.32268
| 81>    H       11.09303        -4.37218        -5.04771
| 82>    H       11.24001        -5.28598        -2.81507
| 83>    H       10.72781        -6.28616        -0.49793
| 84>    H        8.77940        -7.33840         0.82518
| 85>    H        6.18476        -3.31629        -2.41728
| 86>    H        7.50080        -2.59096        -1.46627
| 87>    H        5.82624        -2.25333        -1.04329
| 88>    H        4.03638        -3.75685        -1.38536
| 89>    H        2.07652        -5.18650        -1.18994
| 90>    H        2.22670        -7.35936        -0.06834
| 91>    H        4.15113       -10.25201         1.89260
| 92>    H        2.37473        -9.35531        -0.43586
| 93>    H        2.01598       -11.55782         1.67230
| 94>    H       -0.15308       -12.99751         1.11935
| 95>    H       -1.96921       -13.21917        -0.69841
| 96>    H       -3.33582       -12.95126        -2.80586
| 97>    H       -4.16894       -12.25041        -5.14249
| 98>    H       -3.48614       -10.50103        -7.15137
| 99>    H       -1.13168        -8.96775        -6.22178
|100>    H       -0.46652        -6.50974       -10.31044
|101>    H        0.24471        -7.64576        -6.60477
|102>    H        1.14664        -5.86254        -8.90793
|103>    H        1.13011       -10.69115        -6.32603
|104>    H        1.34717        -9.90845        -4.73554
|105>    H        2.65195       -10.85085        -5.46864
|106>    H        3.53011        -9.18081        -4.01660
|107>    H        4.80205        -7.51590        -2.77002
|108>    H        5.05902        -5.24079        -3.63099
|109>    H        5.01720        -3.24331        -4.54972
|110>    H        4.03423        -1.84458        -7.08889
|111>    H        5.10658        -1.14424        -5.77611
|112> *
|113>
|114>                          ****END OF INPUT****

CARTESIAN COORDINATES (ANGSTROEM)
---------------------------------
  C      7.548020   -3.530800   -7.858440
  C      8.241790   -3.933710   -6.785240
  C      9.658470   -3.865350   -6.569710
  C     10.068210   -4.347520   -5.374220
  C      9.019040   -4.832930   -4.547940
  S      7.477010   -4.660030   -5.364690
  C      9.110370   -5.361970   -3.281460
  C     10.255180   -5.549990   -2.473750
  C      9.985080   -6.081610   -1.248690
  C      8.615160   -6.333850   -1.005300
  S      7.678090   -5.901290   -2.422110
  C      8.076280   -6.917190    0.117600
  C      6.720400   -7.140430    0.374030
  S      6.301200   -8.562420    1.297890
  C      4.628550   -8.498710    0.817110
  C      4.374220   -7.293780    0.113010
  C      5.545710   -6.502810   -0.089500
  C      5.413870   -5.178480   -0.587190
  C      6.514340   -4.186440   -0.460070
  O      7.335050   -4.257770    0.429150
  C      6.502070   -3.019030   -1.422470
  C      4.167220   -4.759240   -1.009530
  C      3.036390   -5.567390   -0.876260
  C      3.122160   -6.799110   -0.278850
  C      3.799430   -9.580500    1.118980
  C      2.643330   -9.916430    0.448900
  C      1.814280  -10.981940    0.779220
  C      0.721620  -11.346390    0.013020
  C     -0.213890  -12.371790    0.246150
  C     -1.178720  -12.490330   -0.718340
  C     -1.045020  -11.566640   -1.769530
  S      0.332910  -10.523840   -1.487650
  C     -1.792800  -11.426640   -2.926140
  C     -2.900360  -12.161230   -3.391030
  C     -3.344040  -11.790900   -4.628540
  C     -2.601480  -10.741420   -5.219030
  S     -1.346850  -10.205790   -4.098330
  C     -2.719170  -10.185290   -6.461740
  N     -1.857250   -9.225440   -6.884030
  C     -1.809800   -8.607970   -8.082270
  S     -2.971760   -8.949540   -9.324140
  C     -2.159660   -7.816800  -10.364350
  N     -2.686550   -7.634720  -11.637310
  O     -2.135820   -6.835990  -12.378890
  O     -3.677920   -8.295580  -11.921700
  C     -1.067830   -7.225830   -9.782430
  C     -0.841850   -7.658840   -8.464900
  C      0.225140   -7.233000   -7.605120
  C      1.190140   -6.354520   -7.946530
  C      2.246490   -5.919270   -7.093790
  S      2.792530   -4.289180   -7.333570
  C      3.776940   -4.299280   -5.919050
  C      3.731460   -5.554760   -5.305550
  C      2.893920   -6.496390   -5.996660
  C      2.873300   -7.850870   -5.545330
  C      2.366800   -8.954590   -6.395610
  O      2.430130   -8.916890   -7.604750
  C      1.827550  -10.169860   -5.673930
  C      3.530530   -8.163650   -4.375590
  C      4.282530   -7.214530   -3.666120
  C      4.415630   -5.941140   -4.136500
  C      4.488890   -3.136980   -5.486470
  C      4.545570   -1.981420   -6.150170
  H      8.049440   -3.094620   -8.704060
  H      6.478940   -3.628490   -7.908090
  H     10.307460   -3.454430   -7.322680
  H     11.093030   -4.372180   -5.047710
  H     11.240010   -5.285980   -2.815070
  H     10.727810   -6.286160   -0.497930
  H      8.779400   -7.338400    0.825180
  H      6.184760   -3.316290   -2.417280
  H      7.500800   -2.590960   -1.466270
  H      5.826240   -2.253330   -1.043290
  H      4.036380   -3.756850   -1.385360
  H      2.076520   -5.186500   -1.189940
  H      2.226700   -7.359360   -0.068340
  H      4.151130  -10.252010    1.892600
  H      2.374730   -9.355310   -0.435860
  H      2.015980  -11.557820    1.672300
  H     -0.153080  -12.997510    1.119350
  H     -1.969210  -13.219170   -0.698410
  H     -3.335820  -12.951260   -2.805860
  H     -4.168940  -12.250410   -5.142490
  H     -3.486140  -10.501030   -7.151370
  H     -1.131680   -8.967750   -6.221780
  H     -0.466520   -6.509740  -10.310440
  H      0.244710   -7.645760   -6.604770
  H      1.146640   -5.862540   -8.907930
  H      1.130110  -10.691150   -6.326030
  H      1.347170   -9.908450   -4.735540
  H      2.651950  -10.850850   -5.468640
  H      3.530110   -9.180810   -4.016600
  H      4.802050   -7.515900   -2.770020
  H      5.059020   -5.240790   -3.630990
  H      5.017200   -3.243310   -4.549720
  H      4.034230   -1.844580   -7.088890
  H      5.106580   -1.144240   -5.776110

 Total Charge           Charge          ....    0
 Multiplicity           Mult            ....    1
 Number of Electrons    NEL             ....  492
 Basis Dimension        Dim             .... 1080

ORBITAL ENERGIES
----------------

  NO   OCC          E(Eh)            E(eV)
   0   2.0000     -88.975810     -2421.1549
   1   2.0000     -88.961196     -2420.7572
   2   2.0000     -88.959450     -2420.7097
   3   2.0000     -88.954468     -2420.5741
   4   2.0000     -88.946885     -2420.3678
   5   2.0000     -88.943307     -2420.2704
   6   2.0000     -88.937056     -2420.1003
   7   2.0000     -19.222666      -523.0753
   8   2.0000     -19.222269      -523.0645
   9   2.0000     -19.193298      -522.2762
  10   2.0000     -19.189027      -522.1600
  11   2.0000     -14.634369      -398.2214
  12   2.0000     -14.487538      -394.2259
  13   2.0000     -10.361525      -281.9514
  14   2.0000     -10.347600      -281.5725
  15   2.0000     -10.346192      -281.5342
  16   2.0000     -10.338831      -281.3339
  17   2.0000     -10.330149      -281.0976
  18   2.0000     -10.317009      -280.7401
  19   2.0000     -10.313025      -280.6317
  20   2.0000     -10.310413      -280.5606
  21   2.0000     -10.307788      -280.4892
  22   2.0000     -10.307080      -280.4699
  23   2.0000     -10.306289      -280.4484
  24   2.0000     -10.304378      -280.3964
  25   2.0000     -10.303975      -280.3854
  26   2.0000     -10.302657      -280.3495
  27   2.0000     -10.300418      -280.2886
  28   2.0000     -10.300126      -280.2807
  29   2.0000     -10.299050      -280.2514
  30   2.0000     -10.297586      -280.2116
  31   2.0000     -10.294289      -280.1219
  32   2.0000     -10.290734      -280.0251
  33   2.0000     -10.290496      -280.0186
  34   2.0000     -10.289221      -279.9839
  35   2.0000     -10.286243      -279.9029
  36   2.0000     -10.285728      -279.8889
  37   2.0000     -10.285013      -279.8694
  38   2.0000     -10.284811      -279.8639
  39   2.0000     -10.284675      -279.8602
  40   2.0000     -10.282541      -279.8022
  41   2.0000     -10.282523      -279.8017
  42   2.0000     -10.281767      -279.7811
  43   2.0000     -10.280852      -279.7562
  44   2.0000     -10.280759      -279.7537
  45   2.0000     -10.280442      -279.7450
  46   2.0000     -10.279973      -279.7323
  47   2.0000     -10.279736      -279.7258
  48   2.0000     -10.279456      -279.7182
  49   2.0000     -10.279391      -279.7165
  50   2.0000     -10.279102      -279.7086
  51   2.0000     -10.278913      -279.7035
  52   2.0000     -10.278780      -279.6998
  53   2.0000     -10.278673      -279.6969
  54   2.0000     -10.278327      -279.6875
  55   2.0000     -10.276460      -279.6367
  56   2.0000     -10.275281      -279.6046
  57   2.0000     -10.274551      -279.5848
  58   2.0000     -10.267499      -279.3929
  59   2.0000     -10.265974      -279.3514
  60   2.0000     -10.264052      -279.2991
  61   2.0000     -10.259799      -279.1833
  62   2.0000     -10.257937      -279.1327
  63   2.0000      -8.071201      -219.6285
  64   2.0000      -8.056816      -219.2371
  65   2.0000      -8.055017      -219.1881
  66   2.0000      -8.050644      -219.0692
  67   2.0000      -8.042947      -218.8597
  68   2.0000      -8.038124      -218.7285
  69   2.0000      -8.033041      -218.5902
  70   2.0000      -6.040968      -164.3831
  71   2.0000      -6.036584      -164.2638
  72   2.0000      -6.032471      -164.1519
  73   2.0000      -6.025764      -163.9694
  74   2.0000      -6.023821      -163.9165
  75   2.0000      -6.021880      -163.8637
  76   2.0000      -6.020485      -163.8257
  77   2.0000      -6.019838      -163.8081
  78   2.0000      -6.019366      -163.7953
  79   2.0000      -6.017981      -163.7576
  80   2.0000      -6.016502      -163.7174
  81   2.0000      -6.012632      -163.6120
  82   2.0000      -6.011386      -163.5781
  83   2.0000      -6.008722      -163.5056
  84   2.0000      -6.007905      -163.4834
  85   2.0000      -6.003939      -163.3755
  86   2.0000      -6.003839      -163.3728
  87   2.0000      -6.002909      -163.3474
  88   2.0000      -5.999206      -163.2467
  89   2.0000      -5.998881      -163.2378
  90   2.0000      -5.993703      -163.0970
  91   2.0000      -1.301217       -35.4079
  92   2.0000      -1.120076       -30.4788
  93   2.0000      -1.111883       -30.2559
  94   2.0000      -1.108374       -30.1604
  95   2.0000      -1.094498       -29.7828
  96   2.0000      -1.002110       -27.2688
  97   2.0000      -0.995971       -27.1017
  98   2.0000      -0.993558       -27.0361
  99   2.0000      -0.991628       -26.9836
 100   2.0000      -0.987565       -26.8730
 101   2.0000      -0.974680       -26.5224
 102   2.0000      -0.965190       -26.2642
 103   2.0000      -0.935945       -25.4684
 104   2.0000      -0.931466       -25.3465
 105   2.0000      -0.915324       -24.9072
 106   2.0000      -0.912743       -24.8370
 107   2.0000      -0.897727       -24.4284
 108   2.0000      -0.890053       -24.2196
 109   2.0000      -0.878672       -23.9099
 110   2.0000      -0.871913       -23.7260
 111   2.0000      -0.864926       -23.5358
 112   2.0000      -0.859022       -23.3752
 113   2.0000      -0.852934       -23.2095
 114   2.0000      -0.850101       -23.1324
 115   2.0000      -0.843603       -22.9556
 116   2.0000      -0.840855       -22.8808
 117   2.0000      -0.838185       -22.8082
 118   2.0000      -0.831695       -22.6316
 119   2.0000      -0.824737       -22.4422
 120   2.0000      -0.824311       -22.4306
 121   2.0000      -0.820500       -22.3269
 122   2.0000      -0.813020       -22.1234
 123   2.0000      -0.810727       -22.0610
 124   2.0000      -0.803051       -21.8521
 125   2.0000      -0.791341       -21.5335
 126   2.0000      -0.779401       -21.2086
 127   2.0000      -0.768580       -20.9141
 128   2.0000      -0.750360       -20.4183
 129   2.0000      -0.735323       -20.0092
 130   2.0000      -0.725794       -19.7498
 131   2.0000      -0.721002       -19.6195
 132   2.0000      -0.716670       -19.5016
 133   2.0000      -0.714962       -19.4551
 134   2.0000      -0.703873       -19.1534
 135   2.0000      -0.694193       -18.8900
 136   2.0000      -0.683156       -18.5896
 137   2.0000      -0.681382       -18.5413
 138   2.0000      -0.676364       -18.4048
 139   2.0000      -0.663783       -18.0624
 140   2.0000      -0.658259       -17.9122
 141   2.0000      -0.652545       -17.7567
 142   2.0000      -0.651598       -17.7309
 143   2.0000      -0.635281       -17.2869
 144   2.0000      -0.632901       -17.2221
 145   2.0000      -0.628491       -17.1021
 146   2.0000      -0.624320       -16.9886
 147   2.0000      -0.621340       -16.9075
 148   2.0000      -0.617547       -16.8043
 149   2.0000      -0.616249       -16.7690
 150   2.0000      -0.615325       -16.7439
 151   2.0000      -0.614709       -16.7271
 152   2.0000      -0.602737       -16.4013
 153   2.0000      -0.594680       -16.1821
 154   2.0000      -0.593819       -16.1586
 155   2.0000      -0.593228       -16.1425
 156   2.0000      -0.587641       -15.9905
 157   2.0000      -0.578559       -15.7434
 158   2.0000      -0.572623       -15.5819
 159   2.0000      -0.570698       -15.5295
 160   2.0000      -0.564364       -15.3571
 161   2.0000      -0.560076       -15.2405
 162   2.0000      -0.559761       -15.2319
 163   2.0000      -0.555746       -15.1226
 164   2.0000      -0.552830       -15.0433
 165   2.0000      -0.550015       -14.9667
 166   2.0000      -0.540883       -14.7182
 167   2.0000      -0.539220       -14.6729
 168   2.0000      -0.537832       -14.6352
 169   2.0000      -0.536722       -14.6049
 170   2.0000      -0.534023       -14.5315
 171   2.0000      -0.527325       -14.3492
 172   2.0000      -0.523812       -14.2536
 173   2.0000      -0.520451       -14.1622
 174   2.0000      -0.518923       -14.1206
 175   2.0000      -0.516748       -14.0614
 176   2.0000      -0.514544       -14.0015
 177   2.0000      -0.510875       -13.9016
 178   2.0000      -0.505354       -13.7514
 179   2.0000      -0.504149       -13.7186
 180   2.0000      -0.501193       -13.6382
 181   2.0000      -0.497449       -13.5363
 182   2.0000      -0.496140       -13.5007
 183   2.0000      -0.495201       -13.4751
 184   2.0000      -0.491868       -13.3844
 185   2.0000      -0.490578       -13.3493
 186   2.0000      -0.488772       -13.3002
 187   2.0000      -0.485757       -13.2181
 188   2.0000      -0.484330       -13.1793
 189   2.0000      -0.483080       -13.1453
 190   2.0000      -0.477679       -12.9983
 191   2.0000      -0.476284       -12.9604
 192   2.0000      -0.475388       -12.9360
 193   2.0000      -0.473873       -12.8947
 194   2.0000      -0.467882       -12.7317
 195   2.0000      -0.465323       -12.6621
 196   2.0000      -0.465037       -12.6543
 197   2.0000      -0.461809       -12.5665
 198   2.0000      -0.460112       -12.5203
 199   2.0000      -0.453940       -12.3523
 200   2.0000      -0.453211       -12.3325
 201   2.0000      -0.449569       -12.2334
 202   2.0000      -0.448151       -12.1948
 203   2.0000      -0.442580       -12.0432
 204   2.0000      -0.440615       -11.9897
 205   2.0000      -0.439766       -11.9666
 206   2.0000      -0.436967       -11.8905
 207   2.0000      -0.434808       -11.8317
 208   2.0000      -0.431155       -11.7323
 209   2.0000      -0.429726       -11.6934
 210   2.0000      -0.425811       -11.5869
 211   2.0000      -0.422481       -11.4963
 212   2.0000      -0.422230       -11.4895
 213   2.0000      -0.420474       -11.4417
 214   2.0000      -0.418826       -11.3968
 215   2.0000      -0.415531       -11.3072
 216   2.0000      -0.414474       -11.2784
 217   2.0000      -0.408418       -11.1136
 218   2.0000      -0.403303       -10.9744
 219   2.0000      -0.400421       -10.8960
 220   2.0000      -0.400024       -10.8852
 221   2.0000      -0.392194       -10.6722
 222   2.0000      -0.386860       -10.5270
 223   2.0000      -0.371795       -10.1171
 224   2.0000      -0.369442       -10.0530
 225   2.0000      -0.368522       -10.0280
 226   2.0000      -0.361252        -9.8302
 227   2.0000      -0.351497        -9.5647
 228   2.0000      -0.351306        -9.5595
 229   2.0000      -0.343604        -9.3499
 230   2.0000      -0.337481        -9.1833
 231   2.0000      -0.330027        -8.9805
 232   2.0000      -0.327900        -8.9226
 233   2.0000      -0.324740        -8.8366
 234   2.0000      -0.322177        -8.7669
 235   2.0000      -0.318738        -8.6733
 236   2.0000      -0.316542        -8.6135
 237   2.0000      -0.313962        -8.5433
 238   2.0000      -0.310174        -8.4403
 239   2.0000      -0.306519        -8.3408
 240   2.0000      -0.304270        -8.2796
 241   2.0000      -0.281792        -7.6679
 242   2.0000      -0.260278        -7.0825
 243   2.0000      -0.233291        -6.3482
 244   2.0000      -0.221010        -6.0140
 245   2.0000      -0.192286        -5.2324
 246   0.0000      -0.093157        -2.5349
 247   0.0000      -0.060775        -1.6538
 248   0.0000      -0.055399        -1.5075
 249   0.0000      -0.043488        -1.1834
 250   0.0000      -0.031862        -0.8670

MULLIKEN ATOMIC CHARGES
-----------------------
   0 C :   -0.022628
   1 C :   -0.058655
   2 C :    0.053373
   3 C :    0.023476
   4 C :   -0.051945
   5 S :    0.053517
   6 C :   -0.038381
   7 C :    0.017391
   8 C :    0.048894
   9 C :   -0.027505
  10 S :    0.032617
  11 C :    0.066064
  12 C :   -0.167929
  13 S :    0.155893
  14 C :   -0.119781
  15 C :    0.096118
  16 C :    0.088484
  17 C :    0.015167
  18 C :   -0.034152
  19 O :   -0.178904
  20 C :    0.074037
  21 C :   -0.037362
  22 C :    0.044477
  23 C :   -0.038360
  24 C :    0.036362
  25 C :   -0.024730
  26 C :   -0.004365
  27 C :   -0.021843
  28 C :    0.032377
  29 C :    0.020224
  30 C :   -0.039165
  31 S :    0.040208
  32 C :   -0.034322
  33 C :    0.021510
  34 C :    0.044001
  35 C :   -0.045205
  36 S :    0.012377
  37 C :    0.039105
  38 N :   -0.032090
  39 C :   -0.120420
  40 S :    0.145777
  41 C :   -0.009799
  42 N :    0.280350
  43 O :   -0.260636
  44 O :   -0.278342
  45 C :    0.009816
  46 C :    0.118270
  47 C :    0.001210
  48 C :    0.045917
  49 C :   -0.160258
  50 S :    0.144603
  51 C :   -0.140092
  52 C :    0.116558
  53 C :    0.124111
  54 C :    0.014119
  55 C :   -0.070228
  56 O :   -0.174820
  57 C :    0.048513
  58 C :   -0.030380
  59 C :    0.041425
  60 C :   -0.003683
  61 C :    0.008194
  62 C :   -0.025001
  63 H :    0.017961
  64 H :    0.026708
  65 H :   -0.011969
  66 H :   -0.011695
  67 H :   -0.018454
  68 H :   -0.014035
  69 H :   -0.015980
  70 H :    0.014616
  71 H :    0.030253
  72 H :    0.035965
  73 H :   -0.017358
  74 H :   -0.012166
  75 H :   -0.015695
  76 H :   -0.016005
  77 H :    0.009502
  78 H :   -0.018005
  79 H :   -0.013319
  80 H :   -0.013055
  81 H :   -0.011822
  82 H :   -0.008968
  83 H :    0.026427
  84 H :    0.154805
  85 H :    0.010373
  86 H :   -0.032127
  87 H :   -0.019507
  88 H :    0.023681
  89 H :    0.028010
  90 H :    0.049263
  91 H :   -0.017729
  92 H :   -0.010830
  93 H :   -0.033440
  94 H :   -0.021625
  95 H :    0.018258
  96 H :    0.024409
Sum of atomic charges:    0.0000000

LOEWDIN ATOMIC CHARGES
----------------------
   0 C :   -0.070613
   1 C :   -0.140136
   2 C :   -0.030992
   3 C :   -0.028404
   4 C :   -0.179776
   5 S :    0.370777
   6 C :   -0.180284
   7 C :   -0.041526
   8 C :   -0.024928
   9 C :   -0.147239
  10 S :    0.416324
  11 C :   -0.067460
  12 C :   -0.167385
  13 S :    0.468414
  14 C :   -0.166313
  15 C :   -0.044958
  16 C :   -0.049132
  17 C :   -0.068873
  18 C :    0.058868
  19 O :   -0.146614
  20 C :   -0.081869
  21 C :   -0.001058
  22 C :   -0.025373
  23 C :    0.000764
  24 C :   -0.046927
  25 C :   -0.040660
  26 C :   -0.058700
  27 C :   -0.146095
  28 C :   -0.040042
  29 C :   -0.034353
  30 C :   -0.186475
  31 S :    0.360764
  32 C :   -0.172421
  33 C :   -0.043739
  34 C :   -0.029175
  35 C :   -0.186707
  36 S :    0.358816
  37 C :   -0.004571
  38 N :    0.054058
  39 C :   -0.104411
  40 S :    0.444559
  41 C :   -0.212774
  42 N :    0.274614
  43 O :   -0.226953
  44 O :   -0.244911
  45 C :    0.010116
  46 C :   -0.096105
  47 C :   -0.025534
  48 C :   -0.035925
  49 C :   -0.164965
  50 S :    0.482816
  51 C :   -0.188798
  52 C :   -0.042423
  53 C :   -0.039612
  54 C :   -0.066699
  55 C :    0.070473
  56 O :   -0.139876
  57 C :   -0.087469
  58 C :    0.000088
  59 C :   -0.025024
  60 C :    0.004601
  61 C :   -0.046669
  62 C :   -0.053966
  63 H :    0.028295
  64 H :    0.026809
  65 H :    0.033305
  66 H :    0.032496
  67 H :    0.030195
  68 H :    0.034151
  69 H :    0.033596
  70 H :    0.020051
  71 H :    0.041506
  72 H :    0.041577
  73 H :    0.030120
  74 H :    0.031599
  75 H :    0.031543
  76 H :    0.029500
  77 H :    0.018931
  78 H :    0.032069
  79 H :    0.033204
  80 H :    0.031883
  81 H :    0.033412
  82 H :    0.034809
  83 H :    0.032579
  84 H :    0.081801
  85 H :    0.044400
  86 H :    0.019455
  87 H :    0.026492
  88 H :    0.034275
  89 H :    0.015450
  90 H :    0.051295
  91 H :    0.030353
  92 H :    0.029600
  93 H :    0.015588
  94 H :    0.025956
  95 H :    0.015507
  96 H :    0.027057

  Mayer bond orders larger than 0.100000
B(  0-C ,  1-C ) :   1.8670 B(  0-C , 63-H ) :   0.9487 B(  0-C , 64-H ) :   0.9358
B(  1-C ,  2-C ) :   1.0819 B(  1-C ,  5-S ) :   1.0104 B(  2-C ,  3-C ) :   1.6547
B(  2-C , 65-H ) :   0.9926 B(  3-C ,  4-C ) :   1.1549 B(  3-C , 66-H ) :   0.9932
B(  4-C ,  5-S ) :   1.0385 B(  4-C ,  6-C ) :   1.5430 B(  6-C ,  7-C ) :   1.1765
B(  6-C , 10-S ) :   1.0280 B(  7-C ,  8-C ) :   1.5897 B(  7-C , 67-H ) :   0.9925
B(  8-C ,  9-C ) :   1.1600 B(  8-C , 68-H ) :   0.9971 B(  9-C , 10-S ) :   1.0315
B(  9-C , 11-C ) :   1.5740 B( 11-C , 12-C ) :   1.1939 B( 11-C , 69-H ) :   0.9437
B( 12-C , 13-S ) :   1.1290 B( 12-C , 16-C ) :   1.3019 B( 13-S , 14-C ) :   1.1473
B( 14-C , 15-C ) :   1.2635 B( 14-C , 24-C ) :   1.2094 B( 15-C , 16-C ) :   1.2345
B( 15-C , 23-C ) :   1.2321 B( 16-C , 17-C ) :   1.2037 B( 17-C , 18-C ) :   0.9058
B( 17-C , 21-C ) :   1.5050 B( 18-C , 19-O ) :   2.1675 B( 18-C , 20-C ) :   1.0383
B( 20-C , 70-H ) :   0.9621 B( 20-C , 71-H ) :   0.9403 B( 20-C , 72-H ) :   0.9274
B( 21-C , 22-C ) :   1.2447 B( 21-C , 73-H ) :   0.9847 B( 22-C , 23-C ) :   1.4956
B( 22-C , 74-H ) :   0.9858 B( 23-C , 75-H ) :   0.9919 B( 24-C , 25-C ) :   1.5512
B( 24-C , 76-H ) :   0.9581 B( 25-C , 26-C ) :   1.2203 B( 25-C , 77-H ) :   0.9638
B( 26-C , 27-C ) :   1.5028 B( 26-C , 78-H ) :   0.9857 B( 27-C , 28-C ) :   1.1767
B( 27-C , 31-S ) :   1.0359 B( 28-C , 29-C ) :   1.5528 B( 28-C , 79-H ) :   0.9990
B( 29-C , 30-C ) :   1.2158 B( 29-C , 80-H ) :   0.9949 B( 30-C , 31-S ) :   1.0393
B( 30-C , 32-C ) :   1.4835 B( 32-C , 33-C ) :   1.2052 B( 32-C , 36-S ) :   1.0496
B( 33-C , 34-C ) :   1.5896 B( 33-C , 81-H ) :   0.9926 B( 34-C , 35-C ) :   1.1665
B( 34-C , 82-H ) :   0.9948 B( 35-C , 36-S ) :   1.0130 B( 35-C , 37-C ) :   1.5826
B( 37-C , 38-N ) :   1.1490 B( 37-C , 83-H ) :   0.9632 B( 38-N , 39-C ) :   1.2416
B( 38-N , 84-H ) :   0.8973 B( 39-C , 40-S ) :   1.1236 B( 39-C , 46-C ) :   1.3353
B( 40-S , 41-C ) :   1.0608 B( 41-C , 42-N ) :   0.9916 B( 41-C , 45-C ) :   1.4775
B( 42-N , 43-O ) :   1.5196 B( 42-N , 44-O ) :   1.4953 B( 43-O , 44-O ) :   0.2497
B( 45-C , 46-C ) :   1.2412 B( 45-C , 85-H ) :   0.9994 B( 46-C , 47-C ) :   1.1042
B( 47-C , 48-C ) :   1.7496 B( 47-C , 86-H ) :   0.9417 B( 48-C , 49-C ) :   1.1042
B( 48-C , 87-H ) :   0.9424 B( 49-C , 50-S ) :   1.1549 B( 49-C , 51-C ) :   0.1118
B( 49-C , 53-C ) :   1.3916 B( 50-S , 51-C ) :   1.1477 B( 51-C , 52-C ) :   1.3442
B( 51-C , 61-C ) :   1.1366 B( 52-C , 53-C ) :   1.1988 B( 52-C , 60-C ) :   1.2001
B( 53-C , 54-C ) :   1.1749 B( 54-C , 55-C ) :   0.9075 B( 54-C , 58-C ) :   1.5204
B( 55-C , 56-O ) :   2.1716 B( 55-C , 57-C ) :   1.0381 B( 57-C , 88-H ) :   0.9447
B( 57-C , 89-H ) :   0.9527 B( 57-C , 90-H ) :   0.9291 B( 58-C , 59-C ) :   1.2173
B( 58-C , 91-H ) :   0.9847 B( 59-C , 60-C ) :   1.5412 B( 59-C , 92-H ) :   0.9814
B( 60-C , 93-H ) :   0.9833 B( 61-C , 62-C ) :   1.9053 B( 61-C , 94-H ) :   0.9588
B( 62-C , 95-H ) :   0.9544 B( 62-C , 96-H ) :   0.9476

-----------------------------------------------------------------------------
         ABSORPTION SPECTRUM VIA TRANSITION ELECTRIC DIPOLE MOMENTS
-----------------------------------------------------------------------------
State   Energy  Wavelength   fosc         T2         TX        TY        TZ
        (cm-1)    (nm)                  (au**2)     (au)      (au)      (au)
-----------------------------------------------------------------------------
   0    8472.3   1180.3   0.532851607  20.70530   4.03456   1.74295   1.17889
   1   14409.9    694.0   0.033226216   0.75909  -0.31112   0.21244  -0.78560
   2   14864.3    672.8   0.360886850   7.99287   0.73991   1.62681  -2.19064
   3   16704.5    598.6   0.708596513  13.96500  -0.49757  -1.41592   3.42236
   4   17379.4    575.4   0.356264877   6.74859  -1.61119  -0.34568  -2.00827
   5   18618.2    537.1   0.361148289   6.38591   0.82386   0.75298  -2.26720
   6   20680.0    483.6   0.349483432   5.56355  -1.57557  -1.47535  -0.95104
   7   21584.2    463.3   0.092009154   1.40336   0.43776   0.79656  -0.75975
   8   22321.8    448.0   0.149759420   2.20872   0.85249   1.21307  -0.10210
   9   22815.5    438.3   0.266024649   3.83855   1.36219   0.93626   1.05186
  10   23068.1    433.5   0.072809684   1.03909   0.08520  -0.28821   0.97404
  11   24669.2    405.4   0.037114440   0.49529   0.42936   0.54500  -0.11799
  12   24942.8    400.9   0.245315884   3.23785   1.40226   1.12368  -0.09404
  13   25289.1    395.4   0.246262898   3.20583   0.25027  -0.43740   1.71810
  14   26614.0    375.7   0.062483698   0.77292   0.24645   0.58874  -0.60462
  15   27530.6    363.2   0.022327307   0.26699   0.42911   0.28520  -0.03895
  16   27640.4    361.8   0.000674552   0.00803   0.01279  -0.06141   0.06403
  17   28106.9    355.8   0.098542731   1.15422   0.51518  -0.21234   0.91854
  18   28585.3    349.8   0.031493772   0.36271  -0.48610   0.00297  -0.35554
  19   29034.1    344.4   0.031208300   0.35386   0.02647  -0.23198   0.54713
  20   29275.0    341.6   0.044131159   0.49628  -0.33990  -0.20974  -0.58031
  21   29651.9    337.2   0.094320464   1.04720   0.90349   0.33718   0.34236
  22   30108.7    332.1   0.024559754   0.26854   0.08306  -0.32977   0.39101
  23   30401.1    328.9   0.130548883   1.41371   0.96706   0.51000   0.46733
  24   30505.4    327.8   0.100804073   1.08787  -0.01626  -0.78838   0.68269
  25   31351.1    319.0   0.030890462   0.32438  -0.18392   0.41396  -0.34523
  26   31517.6    317.3   0.044457323   0.46437   0.45951  -0.24251   0.44092
  27   31901.1    313.5   0.021203875   0.21882   0.32693  -0.09406   0.32108
  28   32052.1    312.0   0.004192070   0.04306   0.20521   0.00410   0.03052
  29   32460.2    308.1   0.001857190   0.01884   0.08438   0.02444   0.10544
  30   32769.9    305.2   0.007442778   0.07477   0.07022   0.21687  -0.15102
  31   32876.1    304.2   0.015584167   0.15606   0.08175  -0.27589   0.27066
  32   33151.6    301.6   0.036607046   0.36353   0.41859  -0.13725   0.41167
  33   33520.1    298.3   0.007324002   0.07193  -0.01418  -0.15116   0.22109
  34   33853.4    295.4   0.150836226   1.46683   0.52994  -0.76201   0.77803
  35   34026.0    293.9   0.000094517   0.00091   0.01414  -0.00579  -0.02609
  36   34263.6    291.9   0.024961742   0.23984  -0.33649   0.01881  -0.35533
  37   34407.8    290.6   0.003641177   0.03484  -0.13212  -0.12412  -0.04446
  38   34709.8    288.1   0.001866793   0.01771   0.00652   0.13160  -0.01859
  39   34940.3    286.2   0.062196591   0.58602   0.55639  -0.52276  -0.05639
  40   35172.1    284.3   0.045010198   0.42130   0.55229  -0.33876   0.03885
  41   35254.2    283.7   0.057339055   0.53545   0.41787  -0.31199   0.51331
  42   35592.9    281.0   0.000440466   0.00407   0.04804  -0.03985   0.01333
  43   35910.5    278.5   0.019871688   0.18218   0.31359   0.24606   0.15261
  44   36185.8    276.4   0.001389707   0.01264  -0.05413   0.09498  -0.02633
  45   36334.4    275.2   0.002478599   0.02246   0.05071  -0.14052  -0.01180
  46   36713.1    272.4   0.018858312   0.16911   0.12810   0.19242   0.34010
  47   36864.9    271.3   0.026565358   0.23723  -0.48002   0.02383   0.07905
  48   37092.4    269.6   0.022231244   0.19731  -0.21779  -0.38446   0.04551
  49   37234.0    268.6   0.044319230   0.39186  -0.18784  -0.59288   0.07117
  50   37599.1    266.0   0.051195954   0.44826  -0.01890   0.42392  -0.51788
  51   37825.8    264.4   0.013796770   0.12008  -0.04913  -0.28010  -0.19801
  52   38210.9    261.7   0.109499630   0.94341  -0.93123   0.11850  -0.24935
  53   38257.0    261.4   0.045229160   0.38921   0.23697   0.49703  -0.29329
  54   38492.0    259.8   0.048370869   0.41370   0.17988  -0.53447   0.30933
  55   38550.3    259.4   0.044870621   0.38319   0.00425   0.26871  -0.55764
  56   38625.9    258.9   0.035560426   0.30308   0.46547   0.16059  -0.24623
  57   38784.9    257.8   0.004243810   0.03602  -0.17757   0.04719  -0.04757
  58   39037.8    256.2   0.009897700   0.08347   0.11918  -0.25478  -0.06599
  59   39156.1    255.4   0.014857726   0.12492   0.28735   0.19782  -0.05668
  60   39501.0    253.2   0.000212510   0.00177  -0.01880   0.00117  -0.03763
  61   39625.2    252.4   0.051245765   0.42576  -0.55424  -0.02055  -0.34373
  62   39767.4    251.5   0.170387219   1.41054   0.36140  -0.68084   0.90354
  63   40025.8    249.8   0.015941076   0.13112   0.00142   0.34578  -0.10747
  64   40042.6    249.7   0.012012088   0.09876  -0.22611   0.12716  -0.17738
  65   40188.9    248.8   0.010708726   0.08772   0.09115  -0.03297   0.27987

FINAL SINGLE POINT ENERGY     -5119.460277320358

DIPOLE MOMENT
-------------
                                X             Y             Z
Electronic contribution:    -19.43316     -11.29247     -12.31569
Nuclear contribution   :     20.19944      10.47269      15.01028
                        -----------------------------------------
Total Dipole Moment    :      0.76628      -0.81978       2.69459
                        -----------------------------------------
Magnitude (a.u.)       :      2.91891
Magnitude (Debye)      :      7.41927

Rotational constants in cm-1:     0.001320     0.000732     0.000505
Rotational constants in MHz :    39.580380    21.958340    15.153920

                             ****ORCA TERMINATED NORMALLY****
TOTAL RUN TIME: 0 days 0 hours 11 minutes 54 seconds 957 msec
