                         Program Version 4.2.0 -  RELEASE  -
|  1> # ORCA input file
|  2> # SCF done       -155.441164797147          0.000768503856
|  3> ! CAM-B3LYP def2-SVP def2/J RIJCOSX Grid4 TightSCF
|  4> %maxcore 5000
|  5> %tddft
|  6>     Mode sTDDFT
|  7>     Ethresh 5.0
|  8>     maxcore 5000
|  9> end
| 10>
| 11> %pal
| 12>   nprocs 6
| 13>   end
| 14> * xyz 0 1
| 15>    C       -2.01117        -6.42947         1.18484
| 16>    C       -0.93667        -5.74685         0.75380
| 17>    C       -0.84449        -4.35111         0.45873
| 18>    C        0.35999        -3.96422        -0.03306
| 19>    C        1.29555        -5.01650        -0.16967
| 20>    S        0.60845        -6.52471         0.38706
| 21>    C        2.58732        -4.94184        -0.66357
| 22>    C        3.29305        -3.80096        -1.09203
| 23>    C        4.57353        -4.06567        -1.49045
| 24>    C        4.93835        -5.42407        -1.40203
| 25>    S        3.59038        -6.36927        -0.80891
| 26>    C        6.18324        -5.95128        -1.69955
| 27>    C        6.56683        -7.27956        -1.61596
| 28>    S        5.47416        -8.59858        -1.20308
| 29>    C        6.73340        -9.82174        -1.29504
| 30>    C        7.96341        -9.20033        -1.64544
| 31>    C        7.84517        -7.80689        -1.82757
| 32>    S        9.34072        -7.05665        -2.25822
| 33>    C       10.10770        -8.62288        -2.19114
| 34>    N       11.47478        -8.68087        -2.47552
| 35>    O       12.01980        -9.77088        -2.43049
| 36>    O       12.02589        -7.62700        -2.75157
| 37>    C        9.26969        -9.65886        -1.85820
| 38>    C        6.52077       -11.15597        -1.04711
| 39>    C        5.29798       -11.76513        -0.75606
| 40>    C        5.09286       -13.11572        -0.45058
| 41>    C        3.77524       -13.44623        -0.22414
| 42>    C        2.90129       -12.36579        -0.35809
| 43>    S        3.77861       -10.91011        -0.75359
| 44>    C        1.50702       -12.34007        -0.23021
| 45>    C        0.64743       -13.36220         0.18368
| 46>    C       -0.67594       -12.99124         0.20338
| 47>    C       -0.90413       -11.66927        -0.20695
| 48>    S        0.60965       -10.89494        -0.61195
| 49>    C       -2.13513       -11.02939        -0.27717
| 50>    C       -2.37757        -9.74571        -0.72777
| 51>    S       -1.16989        -8.67541        -1.42026
| 52>    C       -2.29743        -7.33643        -1.62811
| 53>    C       -3.59494        -7.74943        -1.22521
| 54>    C       -3.60732        -9.07483        -0.73178
| 55>    S       -5.17198        -9.61655        -0.24554
| 56>    C       -5.81447        -8.07670        -0.74527
| 57>    N       -7.19400        -7.87804        -0.60517
| 58>    O       -7.65486        -6.80894        -0.96157
| 59>    O       -7.83594        -8.80092        -0.13233
| 60>    C       -4.88718        -7.19788        -1.24197
| 61>    C       -1.74870        -6.17760        -2.15396
| 62>    C       -2.21103        -4.87318        -2.20514
| 63>    C       -1.47965        -3.80361        -2.76888
| 64>    C       -2.07867        -2.58285        -2.65620
| 65>    C       -3.32117        -2.62089        -1.99138
| 66>    S       -3.70328        -4.26794        -1.52960
| 67>    C       -4.17986        -1.57777        -1.70621
| 68>    C       -4.01279        -0.20680        -2.03897
| 69>    C       -5.03002         0.58980        -1.63619
| 70>    C       -6.08275        -0.09918        -0.94884
| 71>    S       -5.68376        -1.82164        -0.85025
| 72>    C       -7.21148         0.41665        -0.44066
| 73>    H       -2.94138        -5.92413         1.37527
| 74>    H       -1.96615        -7.48383         1.38843
| 75>    H       -1.67513        -3.69310         0.64125
| 76>    H        0.60159        -2.95441        -0.31331
| 77>    H        2.85362        -2.81981        -1.08605
| 78>    H        5.26636        -3.32076        -1.84031
| 79>    H        6.94902        -5.25336        -2.01481
| 80>    H        9.60678       -10.67592        -1.77990
| 81>    H        7.38489       -11.80612        -1.08248
| 82>    H        5.90736       -13.81651        -0.40089
| 83>    H        3.43670       -14.43740         0.01787
| 84>    H        1.00479       -14.33523         0.46833
| 85>    H       -1.48207       -13.63900         0.49907
| 86>    H       -2.99884       -11.58792         0.06176
| 87>    H       -5.16539        -6.22681        -1.60262
| 88>    H       -0.73391        -6.29611        -2.51896
| 89>    H       -0.52607        -3.96912        -3.23887
| 90>    H       -1.65786        -1.66628        -3.02816
| 91>    H       -3.14432         0.13968        -2.57051
| 92>    H       -5.08372         1.65117        -1.80061
| 93>    H       -7.41953         1.46898        -0.52089
| 94>    H       -7.93948        -0.19807         0.05623
| 95> *
| 96>
| 97>                          ****END OF INPUT****

CARTESIAN COORDINATES (ANGSTROEM)
---------------------------------
  C     -2.011170   -6.429470    1.184840
  C     -0.936670   -5.746850    0.753800
  C     -0.844490   -4.351110    0.458730
  C      0.359990   -3.964220   -0.033060
  C      1.295550   -5.016500   -0.169670
  S      0.608450   -6.524710    0.387060
  C      2.587320   -4.941840   -0.663570
  C      3.293050   -3.800960   -1.092030
  C      4.573530   -4.065670   -1.490450
  C      4.938350   -5.424070   -1.402030
  S      3.590380   -6.369270   -0.808910
  C      6.183240   -5.951280   -1.699550
  C      6.566830   -7.279560   -1.615960
  S      5.474160   -8.598580   -1.203080
  C      6.733400   -9.821740   -1.295040
  C      7.963410   -9.200330   -1.645440
  C      7.845170   -7.806890   -1.827570
  S      9.340720   -7.056650   -2.258220
  C     10.107700   -8.622880   -2.191140
  N     11.474780   -8.680870   -2.475520
  O     12.019800   -9.770880   -2.430490
  O     12.025890   -7.627000   -2.751570
  C      9.269690   -9.658860   -1.858200
  C      6.520770  -11.155970   -1.047110
  C      5.297980  -11.765130   -0.756060
  C      5.092860  -13.115720   -0.450580
  C      3.775240  -13.446230   -0.224140
  C      2.901290  -12.365790   -0.358090
  S      3.778610  -10.910110   -0.753590
  C      1.507020  -12.340070   -0.230210
  C      0.647430  -13.362200    0.183680
  C     -0.675940  -12.991240    0.203380
  C     -0.904130  -11.669270   -0.206950
  S      0.609650  -10.894940   -0.611950
  C     -2.135130  -11.029390   -0.277170
  C     -2.377570   -9.745710   -0.727770
  S     -1.169890   -8.675410   -1.420260
  C     -2.297430   -7.336430   -1.628110
  C     -3.594940   -7.749430   -1.225210
  C     -3.607320   -9.074830   -0.731780
  S     -5.171980   -9.616550   -0.245540
  C     -5.814470   -8.076700   -0.745270
  N     -7.194000   -7.878040   -0.605170
  O     -7.654860   -6.808940   -0.961570
  O     -7.835940   -8.800920   -0.132330
  C     -4.887180   -7.197880   -1.241970
  C     -1.748700   -6.177600   -2.153960
  C     -2.211030   -4.873180   -2.205140
  C     -1.479650   -3.803610   -2.768880
  C     -2.078670   -2.582850   -2.656200
  C     -3.321170   -2.620890   -1.991380
  S     -3.703280   -4.267940   -1.529600
  C     -4.179860   -1.577770   -1.706210
  C     -4.012790   -0.206800   -2.038970
  C     -5.030020    0.589800   -1.636190
  C     -6.082750   -0.099180   -0.948840
  S     -5.683760   -1.821640   -0.850250
  C     -7.211480    0.416650   -0.440660
  H     -2.941380   -5.924130    1.375270
  H     -1.966150   -7.483830    1.388430
  H     -1.675130   -3.693100    0.641250
  H      0.601590   -2.954410   -0.313310
  H      2.853620   -2.819810   -1.086050
  H      5.266360   -3.320760   -1.840310
  H      6.949020   -5.253360   -2.014810
  H      9.606780  -10.675920   -1.779900
  H      7.384890  -11.806120   -1.082480
  H      5.907360  -13.816510   -0.400890
  H      3.436700  -14.437400    0.017870
  H      1.004790  -14.335230    0.468330
  H     -1.482070  -13.639000    0.499070
  H     -2.998840  -11.587920    0.061760
  H     -5.165390   -6.226810   -1.602620
  H     -0.733910   -6.296110   -2.518960
  H     -0.526070   -3.969120   -3.238870
  H     -1.657860   -1.666280   -3.028160
  H     -3.144320    0.139680   -2.570510
  H     -5.083720    1.651170   -1.800610
  H     -7.419530    1.468980   -0.520890
  H     -7.939480   -0.198070    0.056230

 Total Charge           Charge          ....    0
 Multiplicity           Mult            ....    1
 Number of Electrons    NEL             ....  480
 Basis Dimension        Dim             ....  962

ORBITAL ENERGIES
----------------

  NO   OCC          E(Eh)            E(eV)
   0   2.0000     -88.972335     -2421.0603
   1   2.0000     -88.972178     -2421.0560
   2   2.0000     -88.963936     -2420.8318
   3   2.0000     -88.962215     -2420.7849
   4   2.0000     -88.958861     -2420.6937
   5   2.0000     -88.957510     -2420.6569
   6   2.0000     -88.956489     -2420.6291
   7   2.0000     -88.955593     -2420.6047
   8   2.0000     -88.948059     -2420.3997
   9   2.0000     -88.947918     -2420.3959
  10   2.0000     -19.235138      -523.4147
  11   2.0000     -19.234374      -523.3939
  12   2.0000     -19.233215      -523.3624
  13   2.0000     -19.232146      -523.3333
  14   2.0000     -14.645209      -398.5164
  15   2.0000     -14.643267      -398.4636
  16   2.0000     -10.342251      -281.4270
  17   2.0000     -10.341938      -281.4184
  18   2.0000     -10.321570      -280.8642
  19   2.0000     -10.321087      -280.8511
  20   2.0000     -10.319584      -280.8102
  21   2.0000     -10.317339      -280.7491
  22   2.0000     -10.316819      -280.7349
  23   2.0000     -10.316120      -280.7159
  24   2.0000     -10.315289      -280.6933
  25   2.0000     -10.314572      -280.6738
  26   2.0000     -10.314507      -280.6720
  27   2.0000     -10.314373      -280.6684
  28   2.0000     -10.314152      -280.6623
  29   2.0000     -10.313964      -280.6572
  30   2.0000     -10.312817      -280.6260
  31   2.0000     -10.311318      -280.5852
  32   2.0000     -10.310610      -280.5660
  33   2.0000     -10.310536      -280.5640
  34   2.0000     -10.309207      -280.5278
  35   2.0000     -10.307668      -280.4859
  36   2.0000     -10.307062      -280.4694
  37   2.0000     -10.304497      -280.3996
  38   2.0000     -10.300424      -280.2888
  39   2.0000     -10.297726      -280.2154
  40   2.0000     -10.295635      -280.1585
  41   2.0000     -10.295407      -280.1523
  42   2.0000     -10.294066      -280.1158
  43   2.0000     -10.294005      -280.1141
  44   2.0000     -10.293961      -280.1129
  45   2.0000     -10.292777      -280.0807
  46   2.0000     -10.291714      -280.0518
  47   2.0000     -10.291122      -280.0357
  48   2.0000     -10.287151      -279.9276
  49   2.0000     -10.286850      -279.9194
  50   2.0000     -10.285912      -279.8939
  51   2.0000     -10.285229      -279.8753
  52   2.0000     -10.285136      -279.8728
  53   2.0000     -10.284771      -279.8629
  54   2.0000     -10.283676      -279.8331
  55   2.0000     -10.282548      -279.8023
  56   2.0000     -10.279773      -279.7268
  57   2.0000     -10.276860      -279.6476
  58   2.0000      -8.067380      -219.5246
  59   2.0000      -8.067261      -219.5213
  60   2.0000      -8.058350      -219.2789
  61   2.0000      -8.056756      -219.2355
  62   2.0000      -8.054323      -219.1693
  63   2.0000      -8.053306      -219.1416
  64   2.0000      -8.052286      -219.1139
  65   2.0000      -8.051276      -219.0864
  66   2.0000      -8.044781      -218.9096
  67   2.0000      -8.043731      -218.8811
  68   2.0000      -6.037094      -164.2777
  69   2.0000      -6.036924      -164.2731
  70   2.0000      -6.032809      -164.1611
  71   2.0000      -6.032702      -164.1582
  72   2.0000      -6.028702      -164.0493
  73   2.0000      -6.028654      -164.0480
  74   2.0000      -6.027894      -164.0273
  75   2.0000      -6.026387      -163.9863
  76   2.0000      -6.023977      -163.9208
  77   2.0000      -6.023692      -163.9130
  78   2.0000      -6.022809      -163.8890
  79   2.0000      -6.022177      -163.8718
  80   2.0000      -6.021766      -163.8606
  81   2.0000      -6.020895      -163.8369
  82   2.0000      -6.020032      -163.8134
  83   2.0000      -6.019963      -163.8115
  84   2.0000      -6.018652      -163.7758
  85   2.0000      -6.018248      -163.7648
  86   2.0000      -6.017599      -163.7472
  87   2.0000      -6.016707      -163.7229
  88   2.0000      -6.015507      -163.6903
  89   2.0000      -6.014872      -163.6730
  90   2.0000      -6.014555      -163.6644
  91   2.0000      -6.013897      -163.6465
  92   2.0000      -6.013377      -163.6323
  93   2.0000      -6.012637      -163.6122
  94   2.0000      -6.010612      -163.5571
  95   2.0000      -6.009383      -163.5236
  96   2.0000      -6.005361      -163.4142
  97   2.0000      -6.004853      -163.4004
  98   2.0000      -1.315174       -35.7877
  99   2.0000      -1.312247       -35.7081
 100   2.0000      -1.133968       -30.8568
 101   2.0000      -1.131102       -30.7788
 102   2.0000      -1.021456       -27.7952
 103   2.0000      -1.020563       -27.7709
 104   2.0000      -1.002996       -27.2929
 105   2.0000      -1.000393       -27.2221
 106   2.0000      -0.997482       -27.1429
 107   2.0000      -0.981396       -26.7052
 108   2.0000      -0.979969       -26.6663
 109   2.0000      -0.974691       -26.5227
 110   2.0000      -0.965260       -26.2661
 111   2.0000      -0.960762       -26.1437
 112   2.0000      -0.916306       -24.9339
 113   2.0000      -0.909500       -24.7488
 114   2.0000      -0.893501       -24.3134
 115   2.0000      -0.887260       -24.1436
 116   2.0000      -0.881543       -23.9880
 117   2.0000      -0.875315       -23.8185
 118   2.0000      -0.870291       -23.6818
 119   2.0000      -0.856507       -23.3067
 120   2.0000      -0.853994       -23.2384
 121   2.0000      -0.850297       -23.1378
 122   2.0000      -0.849102       -23.1052
 123   2.0000      -0.848000       -23.0752
 124   2.0000      -0.846062       -23.0225
 125   2.0000      -0.832094       -22.6424
 126   2.0000      -0.827589       -22.5199
 127   2.0000      -0.825465       -22.4620
 128   2.0000      -0.820098       -22.3160
 129   2.0000      -0.807830       -21.9822
 130   2.0000      -0.799101       -21.7446
 131   2.0000      -0.780697       -21.2439
 132   2.0000      -0.777602       -21.1596
 133   2.0000      -0.774509       -21.0755
 134   2.0000      -0.756378       -20.5821
 135   2.0000      -0.744357       -20.2550
 136   2.0000      -0.724455       -19.7134
 137   2.0000      -0.708570       -19.2812
 138   2.0000      -0.694459       -18.8972
 139   2.0000      -0.687259       -18.7013
 140   2.0000      -0.684615       -18.6293
 141   2.0000      -0.670536       -18.2462
 142   2.0000      -0.664608       -18.0849
 143   2.0000      -0.653221       -17.7750
 144   2.0000      -0.642771       -17.4907
 145   2.0000      -0.641813       -17.4646
 146   2.0000      -0.639609       -17.4046
 147   2.0000      -0.637063       -17.3354
 148   2.0000      -0.633986       -17.2516
 149   2.0000      -0.632060       -17.1992
 150   2.0000      -0.626700       -17.0534
 151   2.0000      -0.624953       -17.0058
 152   2.0000      -0.624550       -16.9949
 153   2.0000      -0.623963       -16.9789
 154   2.0000      -0.615597       -16.7513
 155   2.0000      -0.610901       -16.6235
 156   2.0000      -0.609981       -16.5984
 157   2.0000      -0.608823       -16.5669
 158   2.0000      -0.607066       -16.5191
 159   2.0000      -0.602514       -16.3952
 160   2.0000      -0.600665       -16.3449
 161   2.0000      -0.595997       -16.2179
 162   2.0000      -0.584573       -15.9070
 163   2.0000      -0.578126       -15.7316
 164   2.0000      -0.576232       -15.6801
 165   2.0000      -0.575228       -15.6527
 166   2.0000      -0.573614       -15.6088
 167   2.0000      -0.554368       -15.0851
 168   2.0000      -0.545620       -14.8471
 169   2.0000      -0.543057       -14.7773
 170   2.0000      -0.532362       -14.4863
 171   2.0000      -0.528978       -14.3942
 172   2.0000      -0.525428       -14.2976
 173   2.0000      -0.524201       -14.2642
 174   2.0000      -0.522523       -14.2186
 175   2.0000      -0.518336       -14.1046
 176   2.0000      -0.517009       -14.0685
 177   2.0000      -0.515205       -14.0194
 178   2.0000      -0.510062       -13.8795
 179   2.0000      -0.506188       -13.7741
 180   2.0000      -0.502928       -13.6854
 181   2.0000      -0.499012       -13.5788
 182   2.0000      -0.498211       -13.5570
 183   2.0000      -0.495980       -13.4963
 184   2.0000      -0.495667       -13.4878
 185   2.0000      -0.492556       -13.4031
 186   2.0000      -0.488257       -13.2861
 187   2.0000      -0.483342       -13.1524
 188   2.0000      -0.479705       -13.0534
 189   2.0000      -0.478406       -13.0181
 190   2.0000      -0.476972       -12.9791
 191   2.0000      -0.474438       -12.9101
 192   2.0000      -0.471963       -12.8428
 193   2.0000      -0.469603       -12.7785
 194   2.0000      -0.467444       -12.7198
 195   2.0000      -0.462601       -12.5880
 196   2.0000      -0.459691       -12.5088
 197   2.0000      -0.458285       -12.4706
 198   2.0000      -0.453805       -12.3487
 199   2.0000      -0.449355       -12.2276
 200   2.0000      -0.443004       -12.0548
 201   2.0000      -0.439202       -11.9513
 202   2.0000      -0.438709       -11.9379
 203   2.0000      -0.435918       -11.8619
 204   2.0000      -0.435076       -11.8390
 205   2.0000      -0.433385       -11.7930
 206   2.0000      -0.429967       -11.7000
 207   2.0000      -0.424717       -11.5571
 208   2.0000      -0.421459       -11.4685
 209   2.0000      -0.415412       -11.3039
 210   2.0000      -0.412863       -11.2346
 211   2.0000      -0.406059       -11.0494
 212   2.0000      -0.404573       -11.0090
 213   2.0000      -0.398772       -10.8511
 214   2.0000      -0.387657       -10.5487
 215   2.0000      -0.383526       -10.4363
 216   2.0000      -0.381028       -10.3683
 217   2.0000      -0.378288       -10.2937
 218   2.0000      -0.375590       -10.2203
 219   2.0000      -0.373560       -10.1651
 220   2.0000      -0.371682       -10.1140
 221   2.0000      -0.365445        -9.9443
 222   2.0000      -0.362108        -9.8535
 223   2.0000      -0.360233        -9.8024
 224   2.0000      -0.347194        -9.4476
 225   2.0000      -0.342200        -9.3117
 226   2.0000      -0.341293        -9.2871
 227   2.0000      -0.338981        -9.2241
 228   2.0000      -0.335140        -9.1196
 229   2.0000      -0.333698        -9.0804
 230   2.0000      -0.328520        -8.9395
 231   2.0000      -0.326839        -8.8937
 232   2.0000      -0.324366        -8.8264
 233   2.0000      -0.314060        -8.5460
 234   2.0000      -0.310700        -8.4546
 235   2.0000      -0.292147        -7.9497
 236   2.0000      -0.277281        -7.5452
 237   2.0000      -0.243719        -6.6319
 238   2.0000      -0.217968        -5.9312
 239   2.0000      -0.188750        -5.1361
 240   0.0000      -0.110075        -2.9953
 241   0.0000      -0.082471        -2.2441
 242   0.0000      -0.066408        -1.8071
 243   0.0000      -0.048297        -1.3142
 244   0.0000      -0.044175        -1.2021

MULLIKEN ATOMIC CHARGES
-----------------------
   0 C :    0.032996
   1 C :   -0.124607
   2 C :    0.097583
   3 C :    0.015431
   4 C :   -0.079318
   5 S :    0.098584
   6 C :   -0.031718
   7 C :    0.016618
   8 C :    0.030167
   9 C :   -0.044944
  10 S :    0.084693
  11 C :   -0.021847
  12 C :   -0.085644
  13 S :    0.063414
  14 C :   -0.043728
  15 C :    0.117160
  16 C :   -0.033435
  17 S :    0.185735
  18 C :   -0.017110
  19 N :    0.272700
  20 O :   -0.252721
  21 O :   -0.261228
  22 C :    0.006536
  23 C :   -0.019816
  24 C :   -0.042168
  25 C :    0.018184
  26 C :    0.020102
  27 C :   -0.030965
  28 S :    0.086563
  29 C :   -0.032559
  30 C :    0.020090
  31 C :    0.027049
  32 C :   -0.046165
  33 S :    0.087586
  34 C :   -0.025497
  35 C :   -0.094319
  36 S :    0.114400
  37 C :   -0.138214
  38 C :    0.150606
  39 C :   -0.071649
  40 S :    0.181406
  41 C :   -0.018191
  42 N :    0.273137
  43 O :   -0.245528
  44 O :   -0.259845
  45 C :   -0.011468
  46 C :    0.045306
  47 C :   -0.050508
  48 C :    0.054117
  49 C :    0.013484
  50 C :   -0.052181
  51 S :    0.066630
  52 C :   -0.060393
  53 C :    0.027316
  54 C :    0.056351
  55 C :   -0.069774
  56 S :    0.094668
  57 C :   -0.020323
  58 H :    0.024432
  59 H :    0.022968
  60 H :   -0.005860
  61 H :   -0.019657
  62 H :   -0.018476
  63 H :   -0.013460
  64 H :   -0.010437
  65 H :    0.009428
  66 H :   -0.014194
  67 H :   -0.013568
  68 H :   -0.016410
  69 H :   -0.015349
  70 H :   -0.012616
  71 H :   -0.007701
  72 H :    0.014361
  73 H :   -0.007846
  74 H :   -0.010547
  75 H :   -0.015631
  76 H :   -0.010825
  77 H :   -0.006701
  78 H :    0.025454
  79 H :    0.029883
Sum of atomic charges:   -0.0000000

LOEWDIN ATOMIC CHARGES
----------------------
   0 C :   -0.051949
   1 C :   -0.147989
   2 C :   -0.025161
   3 C :   -0.039368
   4 C :   -0.180908
   5 S :    0.381394
   6 C :   -0.185957
   7 C :   -0.046556
   8 C :   -0.038608
   9 C :   -0.163167
  10 S :    0.395749
  11 C :   -0.070834
  12 C :   -0.188591
  13 S :    0.408602
  14 C :   -0.158947
  15 C :   -0.080181
  16 C :   -0.177889
  17 S :    0.451673
  18 C :   -0.189781
  19 N :    0.273037
  20 O :   -0.219043
  21 O :   -0.227814
  22 C :   -0.002424
  23 C :   -0.071556
  24 C :   -0.163755
  25 C :   -0.043913
  26 C :   -0.045512
  27 C :   -0.184232
  28 S :    0.409028
  29 C :   -0.177990
  30 C :   -0.045770
  31 C :   -0.038857
  32 C :   -0.165232
  33 S :    0.404093
  34 C :   -0.069012
  35 C :   -0.195003
  36 S :    0.434891
  37 C :   -0.153684
  38 C :   -0.080998
  39 C :   -0.185173
  40 S :    0.449494
  41 C :   -0.190187
  42 N :    0.273008
  43 O :   -0.213384
  44 O :   -0.225904
  45 C :   -0.014500
  46 C :   -0.081160
  47 C :   -0.146171
  48 C :   -0.029877
  49 C :   -0.040712
  50 C :   -0.188660
  51 S :    0.406220
  52 C :   -0.172328
  53 C :   -0.029398
  54 C :   -0.025054
  55 C :   -0.141493
  56 S :    0.364807
  57 C :   -0.062633
  58 H :    0.029656
  59 H :    0.026736
  60 H :    0.031356
  61 H :    0.029152
  62 H :    0.029910
  63 H :    0.033199
  64 H :    0.038948
  65 H :    0.044214
  66 H :    0.040151
  67 H :    0.032514
  68 H :    0.031129
  69 H :    0.031717
  70 H :    0.033368
  71 H :    0.038596
  72 H :    0.024857
  73 H :    0.035505
  74 H :    0.034230
  75 H :    0.031103
  76 H :    0.032921
  77 H :    0.035270
  78 H :    0.031029
  79 H :    0.029763

  Mayer bond orders larger than 0.100000
B(  0-C ,  1-C ) :   1.8040 B(  0-C , 58-H ) :   0.9450 B(  0-C , 59-H ) :   0.9307
B(  1-C ,  2-C ) :   1.1137 B(  1-C ,  5-S ) :   1.0230 B(  2-C ,  3-C ) :   1.5672
B(  2-C , 60-H ) :   0.9893 B(  3-C ,  4-C ) :   1.2271 B(  3-C , 61-H ) :   0.9936
B(  4-C ,  5-S ) :   1.0632 B(  4-C ,  6-C ) :   1.4077 B(  6-C ,  7-C ) :   1.2613
B(  6-C , 10-S ) :   1.0673 B(  7-C ,  8-C ) :   1.4869 B(  7-C , 62-H ) :   0.9950
B(  8-C ,  9-C ) :   1.2413 B(  8-C , 63-H ) :   0.9999 B(  9-C , 10-S ) :   1.0640
B(  9-C , 11-C ) :   1.3997 B( 11-C , 12-C ) :   1.3711 B( 11-C , 64-H ) :   0.9661
B( 12-C , 13-S ) :   1.0529 B( 12-C , 16-C ) :   1.3257 B( 13-S , 14-C ) :   1.0571
B( 14-C , 15-C ) :   1.1761 B( 14-C , 23-C ) :   1.4531 B( 15-C , 16-C ) :   1.3537
B( 15-C , 22-C ) :   1.2016 B( 16-C , 17-S ) :   1.0642 B( 17-S , 18-C ) :   1.0929
B( 18-C , 19-N ) :   0.9667 B( 18-C , 22-C ) :   1.5082 B( 19-N , 20-O ) :   1.5315
B( 19-N , 21-O ) :   1.5137 B( 20-O , 21-O ) :   0.2615 B( 22-C , 65-H ) :   0.9996
B( 23-C , 24-C ) :   1.3201 B( 23-C , 66-H ) :   0.9652 B( 24-C , 25-C ) :   1.2983
B( 24-C , 28-S ) :   1.0815 B( 25-C , 26-C ) :   1.4189 B( 25-C , 67-H ) :   1.0014
B( 26-C , 27-C ) :   1.3395 B( 26-C , 68-H ) :   0.9948 B( 27-C , 28-S ) :   1.0841
B( 27-C , 29-C ) :   1.2953 B( 29-C , 30-C ) :   1.3314 B( 29-C , 33-S ) :   1.0884
B( 30-C , 31-C ) :   1.4341 B( 30-C , 69-H ) :   0.9941 B( 31-C , 32-C ) :   1.2760
B( 31-C , 70-H ) :   1.0007 B( 32-C , 33-S ) :   1.0692 B( 32-C , 34-C ) :   1.3732
B( 34-C , 35-C ) :   1.3650 B( 34-C , 71-H ) :   0.9688 B( 35-C , 36-S ) :   1.0533
B( 35-C , 39-C ) :   1.3299 B( 36-S , 37-C ) :   1.1087 B( 37-C , 38-C ) :   1.1834
B( 37-C , 46-C ) :   1.3119 B( 38-C , 39-C ) :   1.3329 B( 38-C , 45-C ) :   1.1797
B( 39-C , 40-S ) :   1.0655 B( 40-S , 41-C ) :   1.0908 B( 41-C , 42-N ) :   0.9579
B( 41-C , 45-C ) :   1.5265 B( 42-N , 43-O ) :   1.5351 B( 42-N , 44-O ) :   1.5164
B( 43-O , 44-O ) :   0.2637 B( 45-C , 72-H ) :   0.9814 B( 46-C , 47-C ) :   1.5061
B( 46-C , 73-H ) :   0.9328 B( 47-C , 48-C ) :   1.1841 B( 47-C , 51-S ) :   1.0437
B( 48-C , 49-C ) :   1.5525 B( 48-C , 74-H ) :   0.9959 B( 49-C , 50-C ) :   1.1961
B( 49-C , 75-H ) :   0.9948 B( 50-C , 51-S ) :   1.0375 B( 50-C , 52-C ) :   1.5064
B( 52-C , 53-C ) :   1.1660 B( 52-C , 56-S ) :   1.0606 B( 53-C , 54-C ) :   1.6459
B( 53-C , 76-H ) :   0.9928 B( 54-C , 55-C ) :   1.0855 B( 54-C , 77-H ) :   0.9931
B( 55-C , 56-S ) :   1.0073 B( 55-C , 57-C ) :   1.8560 B( 57-C , 78-H ) :   0.9513
B( 57-C , 79-H ) :   0.9412

-----------------------------------------------------------------------------
         ABSORPTION SPECTRUM VIA TRANSITION ELECTRIC DIPOLE MOMENTS
-----------------------------------------------------------------------------
State   Energy  Wavelength   fosc         T2         TX        TY        TZ
        (cm-1)    (nm)                  (au**2)     (au)      (au)      (au)
-----------------------------------------------------------------------------
   0    4690.3   2132.0   0.211833355  14.86849  -3.74040   0.81886  -0.45542
   1    7362.7   1358.2   0.016509863   0.73821  -0.84470   0.14659  -0.05657
   2   11841.5    844.5   0.777614103  21.61885   1.47421  -4.40108   0.27571
   3   13683.8    730.8   0.521845447  12.55480   2.07879  -2.82906  -0.47941
   4   15078.1    663.2   0.064739268   1.41350   1.04910  -0.44273   0.34188
   5   16822.9    594.4   1.077949602  21.09465   3.89617  -2.33908  -0.66576
   6   17116.1    584.2   0.323644452   6.22498  -1.66384  -1.81053   0.42259
   7   19200.9    520.8   0.034392462   0.58968  -0.74090   0.12402  -0.15928
   8   19874.1    503.2   0.541839632   8.97551   2.71024   1.20876  -0.41108
   9   21570.4    463.6   0.369187918   5.63462  -1.89059  -1.34121   0.51132
  10   22177.9    450.9   0.122542779   1.81904  -1.15867  -0.07751   0.68594
  11   23437.3    426.7   0.103061641   1.44765  -0.52964  -1.07689   0.08630
  12   24615.3    406.3   0.012725834   0.17020  -0.19629  -0.33800   0.13201
  13   25079.2    398.7   0.017702309   0.23238   0.38056   0.27096  -0.11888
  14   25349.9    394.5   0.075350443   0.97856  -0.73057   0.40751   0.52798
  15   26354.9    379.4   0.011496948   0.14361   0.24594   0.18528  -0.22091
  16   26567.3    376.4   0.393230684   4.87277   1.29674   1.53174  -0.91924
  17   27372.0    365.3   0.019059384   0.22923  -0.32994  -0.09819   0.33277
  18   27973.2    357.5   0.110789964   1.30387   0.92197  -0.62633  -0.24810
  19   28398.5    352.1   0.041411663   0.48007  -0.58387   0.16179   0.33614
  20   29143.7    343.1   0.084735757   0.95719   0.51164   0.62728  -0.54948
  21   29656.5    337.2   0.007409151   0.08225   0.27564   0.06629   0.04329
  22   29762.2    336.0   0.117881518   1.30394  -1.00945  -0.10777   0.52281
  23   30381.1    329.2   0.013832272   0.14989   0.34511  -0.15806   0.07618
  24   30887.8    323.8   0.078585143   0.83759   0.81042  -0.40377  -0.13333
  25   31131.4    321.2   0.073457627   0.77681  -0.74746   0.36399   0.29260
  26   31428.2    318.2   0.055653615   0.58298  -0.70425   0.13795   0.26073
  27   31779.1    314.7   0.015116056   0.15659   0.31230  -0.23356  -0.06716
  28   31814.7    314.3   0.002756692   0.02853  -0.05814  -0.15649   0.02562
  29   32096.2    311.6   0.008333770   0.08548  -0.06788  -0.25594   0.12397
  30   32139.8    311.1   0.001437823   0.01473   0.03923  -0.06446   0.09504
  31   32236.6    310.2   0.008229129   0.08404   0.23618  -0.09229   0.14050
  32   32588.4    306.9   0.041072655   0.41492  -0.31823   0.53539  -0.16436
  33   33249.1    300.8   0.171483970   1.69793  -1.19823  -0.27573   0.43145
  34   33440.0    299.0   0.046953759   0.46225   0.23131  -0.52206   0.36905
  35   34019.0    294.0   0.102840676   0.99522  -0.87169  -0.18837   0.44709
  36   34289.3    291.6   0.009889025   0.09494   0.10418   0.27676  -0.08659
  37   34373.5    290.9   0.065595569   0.62824   0.69596  -0.28336  -0.25216
  38   34641.8    288.7   0.072881111   0.69261  -0.73112  -0.28446   0.27778
  39   34905.5    286.5   0.013113644   0.12368  -0.11300  -0.33243  -0.02001
  40   35019.7    285.6   0.004913978   0.04620   0.20601  -0.05572   0.02548
  41   35403.5    282.5   0.066467974   0.61808   0.43109  -0.64035   0.14896
  42   35821.9    279.2   0.073596407   0.67637   0.66157  -0.48630  -0.04704
  43   35932.9    278.3   0.003441801   0.03153   0.06608   0.11679  -0.11630
  44   36039.1    277.5   0.017706611   0.16175   0.24305  -0.18331  -0.26281
  45   36334.4    275.2   0.072613081   0.65792   0.78926  -0.18339  -0.03684
  46   36537.3    273.7   0.001104164   0.00995   0.03240  -0.01003  -0.09380
  47   36768.5    272.0   0.006571570   0.05884  -0.02790   0.16462   0.17596
  48   37228.0    268.6   0.083620656   0.73947   0.74031  -0.41688  -0.13277
  49   37631.7    265.7   0.092043628   0.80522  -0.84006   0.17217   0.26435
  50   37713.1    265.2   0.074941259   0.65419  -0.77183   0.19726   0.13984
  51   37930.3    263.6   0.039243918   0.34061   0.52394  -0.19658  -0.16570
  52   37990.7    263.2   0.026950898   0.23355  -0.46245  -0.11540  -0.07982
  53   38107.2    262.4   0.001407779   0.01216  -0.08751   0.06651   0.00900
  54   38327.0    260.9   0.002178482   0.01871  -0.10187  -0.09127  -0.00223
  55   38626.2    258.9   0.007089389   0.06042   0.20924  -0.11076  -0.06612
  56   38810.5    257.7   0.130800387   1.10952  -0.84555   0.62707   0.03668
  57   39141.6    255.5   0.018865005   0.15867   0.38944  -0.02059  -0.08113
  58   39409.5    253.7   0.011905911   0.09946  -0.18533   0.06411   0.24698
  59   39690.3    252.0   0.048067490   0.39870   0.54707  -0.26801   0.16609
  60   39947.0    250.3   0.015962185   0.13155   0.35561   0.00878  -0.07081
  61   40171.9    248.9   0.002774094   0.02273   0.08940   0.11969  -0.02039
  62   40289.1    248.2   0.014522054   0.11866  -0.17421   0.29199  -0.05530

FINAL SINGLE POINT ENERGY     -6001.927760460560

DIPOLE MOMENT
-------------
                                X             Y             Z
Electronic contribution:     16.33273     -20.48195      -3.02357
Nuclear contribution   :    -17.28429      21.96636       3.20746
                        -----------------------------------------
Total Dipole Moment    :     -0.95157       1.48442       0.18389
                        -----------------------------------------
Magnitude (a.u.)       :      1.77279
Magnitude (Debye)      :      4.50608

Rotational constants in cm-1:     0.001759     0.000567     0.000440
Rotational constants in MHz :    52.747306    17.000182    13.183876

                             ****ORCA TERMINATED NORMALLY****
TOTAL RUN TIME: 0 days 0 hours 18 minutes 18 seconds 151 msec
