                         Program Version 4.2.0 -  RELEASE  -
|  1> # ORCA input file
|  2> # SCF done       -151.241060893412          0.000796434237
|  3> ! CAM-B3LYP def2-SVP def2/J RIJCOSX Grid4 TightSCF
|  4> %maxcore 5000
|  5> %tddft
|  6>     Mode sTDDFT
|  7>     Ethresh 5.0
|  8>     maxcore 5000
|  9> end
| 10>
| 11> %pal
| 12>   nprocs 6
| 13>   end
| 14> * xyz 0 1
| 15>    C        6.11250       -15.11516         8.36197
| 16>    C        6.93453       -14.42740         7.55875
| 17>    C        8.36529       -14.33497         7.64021
| 18>    C        8.93088       -13.56373         6.68706
| 19>    C        8.00337       -12.98346         5.77466
| 20>    S        6.37003       -13.46273         6.18402
| 21>    C        8.27888       -12.16340         4.70877
| 22>    C        9.54328       -11.70447         4.25963
| 23>    C        9.48061       -10.90582         3.16468
| 24>    C        8.16420       -10.67696         2.67626
| 25>    S        7.00476       -11.52755         3.67830
| 26>    C        7.84524        -9.91208         1.58693
| 27>    C        6.56042        -9.64394         1.08152
| 28>    S        5.10210       -10.23817         1.81872
| 29>    C        4.09238        -9.43948         0.64622
| 30>    C        4.86900        -8.73448        -0.26377
| 31>    C        6.24779        -8.87032        -0.03502
| 32>    C        7.28907        -8.20443        -0.88315
| 33>    F        7.87294        -7.16260        -0.18887
| 34>    C        6.65013        -7.69441        -2.17736
| 35>    F        7.54866        -6.95479        -2.89986
| 36>    C        5.37214        -6.90198        -1.90631
| 37>    F        5.56948        -5.89558        -1.00001
| 38>    C        4.31446        -7.85866        -1.34398
| 39>    F        3.84261        -8.62249        -2.40358
| 40>    C        2.68669        -9.60387         0.78196
| 41>    C        1.72837        -9.32917        -0.12906
| 42>    N        0.40710        -9.52139         0.15554
| 43>    C       -0.63652        -9.36287        -0.69342
| 44>    S       -0.40076        -8.97637        -2.36712
| 45>    C       -2.11523        -9.11153        -2.62244
| 46>    N       -2.59740        -8.86801        -3.90502
| 47>    O       -3.79830        -8.97113        -4.09305
| 48>    O       -1.77266        -8.56550        -4.75531
| 49>    C       -2.80814        -9.44170        -1.48541
| 50>    C       -1.98185        -9.56684        -0.35832
| 51>    C       -2.47629        -9.87045         0.96740
| 52>    C       -1.94959        -9.41750         2.11885
| 53>    C       -2.45192        -9.77812         3.41495
| 54>    C       -1.99432        -9.30343         4.58358
| 55>    C       -0.88318        -8.30004         4.69803
| 56>    C       -2.51392        -9.84118         5.89334
| 57>    N       -1.49762       -10.60508         6.59205
| 58>    C       -1.16444       -11.86422         6.15126
| 59>    C        0.04494       -12.42851         6.29051
| 60>    C        0.31053       -13.79475         5.93089
| 61>    C        1.50330       -14.40018         5.98133
| 62>    C        2.76788       -13.70768         6.40409
| 63>    C        1.68624       -15.85827         5.61332
| 64>    N        0.48547       -16.63758         5.46321
| 65>    C       -0.25358       -16.58475         4.30485
| 66>    C       -1.54167       -16.89473         4.20116
| 67>    H        6.50271       -15.68807         9.18456
| 68>    H        5.04807       -15.11780         8.21607
| 69>    H        8.90416       -14.85334         8.41333
| 70>    H        9.98766       -13.38439         6.59920
| 71>    H       10.45600       -11.97943         4.75683
| 72>    H       10.33427       -10.46334         2.68244
| 73>    H        8.67060        -9.44299         1.06949
| 74>    H        8.11421        -8.88725        -1.12966
| 75>    H        6.37989        -8.55654        -2.80347
| 76>    H        5.01492        -6.43470        -2.83268
| 77>    H        3.45695        -7.28002        -0.97574
| 78>    H        2.37851       -10.03936         1.72523
| 79>    H        1.93090        -8.96773        -1.12297
| 80>    H        0.17717        -9.90630         1.06631
| 81>    H       -3.87632        -9.56136        -1.47483
| 82>    H       -3.36724       -10.48350         0.99820
| 83>    H       -1.12481        -8.71898         2.09570
| 84>    H       -3.25905       -10.49896         3.42231
| 85>    H       -1.00276        -7.49622         3.97534
| 86>    H        0.08506        -8.77171         4.52107
| 87>    H       -0.86854        -7.85994         5.69289
| 88>    H       -3.37344       -10.49434         5.72649
| 89>    H       -2.82345        -9.01799         6.54627
| 90>    H       -0.70101       -10.05428         6.88596
| 91>    H       -1.98882       -12.41817         5.72273
| 92>    H        0.85389       -11.84802         6.71176
| 93>    H       -0.55100       -14.35393         5.58899
| 94>    H        2.77007       -13.52600         7.47980
| 95>    H        2.87661       -12.74813         5.90327
| 96>    H        3.63596       -14.31463         6.15663
| 97>    H        2.30053       -16.33643         6.38756
| 98>    H        2.24741       -15.91907         4.67242
| 99>    H       -0.06751       -16.71476         6.30602
|100>    H        0.32649       -16.32181         3.42954
|101>    H       -2.13224       -17.15896         5.06206
|102>    H       -2.03568       -16.91377         3.24849
|103> *
|104>
|105>                          ****END OF INPUT****

CARTESIAN COORDINATES (ANGSTROEM)
---------------------------------
  C      6.112500  -15.115160    8.361970
  C      6.934530  -14.427400    7.558750
  C      8.365290  -14.334970    7.640210
  C      8.930880  -13.563730    6.687060
  C      8.003370  -12.983460    5.774660
  S      6.370030  -13.462730    6.184020
  C      8.278880  -12.163400    4.708770
  C      9.543280  -11.704470    4.259630
  C      9.480610  -10.905820    3.164680
  C      8.164200  -10.676960    2.676260
  S      7.004760  -11.527550    3.678300
  C      7.845240   -9.912080    1.586930
  C      6.560420   -9.643940    1.081520
  S      5.102100  -10.238170    1.818720
  C      4.092380   -9.439480    0.646220
  C      4.869000   -8.734480   -0.263770
  C      6.247790   -8.870320   -0.035020
  C      7.289070   -8.204430   -0.883150
  F      7.872940   -7.162600   -0.188870
  C      6.650130   -7.694410   -2.177360
  F      7.548660   -6.954790   -2.899860
  C      5.372140   -6.901980   -1.906310
  F      5.569480   -5.895580   -1.000010
  C      4.314460   -7.858660   -1.343980
  F      3.842610   -8.622490   -2.403580
  C      2.686690   -9.603870    0.781960
  C      1.728370   -9.329170   -0.129060
  N      0.407100   -9.521390    0.155540
  C     -0.636520   -9.362870   -0.693420
  S     -0.400760   -8.976370   -2.367120
  C     -2.115230   -9.111530   -2.622440
  N     -2.597400   -8.868010   -3.905020
  O     -3.798300   -8.971130   -4.093050
  O     -1.772660   -8.565500   -4.755310
  C     -2.808140   -9.441700   -1.485410
  C     -1.981850   -9.566840   -0.358320
  C     -2.476290   -9.870450    0.967400
  C     -1.949590   -9.417500    2.118850
  C     -2.451920   -9.778120    3.414950
  C     -1.994320   -9.303430    4.583580
  C     -0.883180   -8.300040    4.698030
  C     -2.513920   -9.841180    5.893340
  N     -1.497620  -10.605080    6.592050
  C     -1.164440  -11.864220    6.151260
  C      0.044940  -12.428510    6.290510
  C      0.310530  -13.794750    5.930890
  C      1.503300  -14.400180    5.981330
  C      2.767880  -13.707680    6.404090
  C      1.686240  -15.858270    5.613320
  N      0.485470  -16.637580    5.463210
  C     -0.253580  -16.584750    4.304850
  C     -1.541670  -16.894730    4.201160
  H      6.502710  -15.688070    9.184560
  H      5.048070  -15.117800    8.216070
  H      8.904160  -14.853340    8.413330
  H      9.987660  -13.384390    6.599200
  H     10.456000  -11.979430    4.756830
  H     10.334270  -10.463340    2.682440
  H      8.670600   -9.442990    1.069490
  H      8.114210   -8.887250   -1.129660
  H      6.379890   -8.556540   -2.803470
  H      5.014920   -6.434700   -2.832680
  H      3.456950   -7.280020   -0.975740
  H      2.378510  -10.039360    1.725230
  H      1.930900   -8.967730   -1.122970
  H      0.177170   -9.906300    1.066310
  H     -3.876320   -9.561360   -1.474830
  H     -3.367240  -10.483500    0.998200
  H     -1.124810   -8.718980    2.095700
  H     -3.259050  -10.498960    3.422310
  H     -1.002760   -7.496220    3.975340
  H      0.085060   -8.771710    4.521070
  H     -0.868540   -7.859940    5.692890
  H     -3.373440  -10.494340    5.726490
  H     -2.823450   -9.017990    6.546270
  H     -0.701010  -10.054280    6.885960
  H     -1.988820  -12.418170    5.722730
  H      0.853890  -11.848020    6.711760
  H     -0.551000  -14.353930    5.588990
  H      2.770070  -13.526000    7.479800
  H      2.876610  -12.748130    5.903270
  H      3.635960  -14.314630    6.156630
  H      2.300530  -16.336430    6.387560
  H      2.247410  -15.919070    4.672420
  H     -0.067510  -16.714760    6.306020
  H      0.326490  -16.321810    3.429540
  H     -2.132240  -17.158960    5.062060
  H     -2.035680  -16.913770    3.248490

 Total Charge           Charge          ....    0
 Multiplicity           Mult            ....    1
 Number of Electrons    NEL             ....  408
 Basis Dimension        Dim             ....  924

ORBITAL ENERGIES
----------------

  NO   OCC          E(Eh)            E(eV)
   0   2.0000     -88.978967     -2421.2408
   1   2.0000     -88.963278     -2420.8139
   2   2.0000     -88.949799     -2420.4471
   3   2.0000     -88.945174     -2420.3212
   4   2.0000     -24.770337      -674.0351
   5   2.0000     -24.759654      -673.7444
   6   2.0000     -24.756195      -673.6503
   7   2.0000     -24.746656      -673.3907
   8   2.0000     -19.224583      -523.1275
   9   2.0000     -19.223964      -523.1106
  10   2.0000     -14.636691      -398.2846
  11   2.0000     -14.480403      -394.0318
  12   2.0000     -14.418329      -392.3427
  13   2.0000     -14.398861      -391.8129
  14   2.0000     -10.365358      -282.0557
  15   2.0000     -10.364443      -282.0308
  16   2.0000     -10.357168      -281.8329
  17   2.0000     -10.357121      -281.8316
  18   2.0000     -10.355623      -281.7908
  19   2.0000     -10.335723      -281.2493
  20   2.0000     -10.331244      -281.1274
  21   2.0000     -10.316310      -280.7211
  22   2.0000     -10.313949      -280.6568
  23   2.0000     -10.312918      -280.6288
  24   2.0000     -10.312506      -280.6176
  25   2.0000     -10.312253      -280.6107
  26   2.0000     -10.310387      -280.5599
  27   2.0000     -10.307078      -280.4698
  28   2.0000     -10.302324      -280.3405
  29   2.0000     -10.295070      -280.1431
  30   2.0000     -10.294973      -280.1405
  31   2.0000     -10.292167      -280.0641
  32   2.0000     -10.292139      -280.0633
  33   2.0000     -10.291069      -280.0342
  34   2.0000     -10.291006      -280.0325
  35   2.0000     -10.290858      -280.0285
  36   2.0000     -10.290237      -280.0116
  37   2.0000     -10.287831      -279.9461
  38   2.0000     -10.287567      -279.9389
  39   2.0000     -10.287250      -279.9303
  40   2.0000     -10.285870      -279.8928
  41   2.0000     -10.284370      -279.8519
  42   2.0000     -10.282916      -279.8124
  43   2.0000     -10.282874      -279.8112
  44   2.0000     -10.277422      -279.6629
  45   2.0000     -10.276147      -279.6282
  46   2.0000     -10.271997      -279.5152
  47   2.0000     -10.253453      -279.0106
  48   2.0000     -10.250694      -278.9356
  49   2.0000     -10.244553      -278.7685
  50   2.0000     -10.242451      -278.7113
  51   2.0000     -10.221450      -278.1398
  52   2.0000      -8.074270      -219.7121
  53   2.0000      -8.058686      -219.2880
  54   2.0000      -8.045843      -218.9385
  55   2.0000      -8.041376      -218.8170
  56   2.0000      -6.043936      -164.4638
  57   2.0000      -6.039609      -164.3461
  58   2.0000      -6.035670      -164.2389
  59   2.0000      -6.027917      -164.0280
  60   2.0000      -6.023800      -163.9159
  61   2.0000      -6.020845      -163.8355
  62   2.0000      -6.015683      -163.6951
  63   2.0000      -6.011521      -163.5818
  64   2.0000      -6.011224      -163.5737
  65   2.0000      -6.007256      -163.4657
  66   2.0000      -6.006666      -163.4497
  67   2.0000      -6.001983      -163.3223
  68   2.0000      -1.304378       -35.4939
  69   2.0000      -1.283867       -34.9358
  70   2.0000      -1.277434       -34.7607
  71   2.0000      -1.267433       -34.4886
  72   2.0000      -1.255226       -34.1564
  73   2.0000      -1.123112       -30.5614
  74   2.0000      -1.088901       -29.6305
  75   2.0000      -1.021453       -27.7952
  76   2.0000      -1.003093       -27.2955
  77   2.0000      -1.002579       -27.2816
  78   2.0000      -0.997578       -27.1455
  79   2.0000      -0.994018       -27.0486
  80   2.0000      -0.973827       -26.4992
  81   2.0000      -0.927404       -25.2359
  82   2.0000      -0.919647       -25.0249
  83   2.0000      -0.913263       -24.8512
  84   2.0000      -0.900912       -24.5151
  85   2.0000      -0.889511       -24.2048
  86   2.0000      -0.884489       -24.0682
  87   2.0000      -0.874222       -23.7888
  88   2.0000      -0.858322       -23.3561
  89   2.0000      -0.850668       -23.1478
  90   2.0000      -0.849801       -23.1243
  91   2.0000      -0.845332       -23.0026
  92   2.0000      -0.835410       -22.7327
  93   2.0000      -0.834830       -22.7169
  94   2.0000      -0.824996       -22.4493
  95   2.0000      -0.810688       -22.0599
  96   2.0000      -0.809533       -22.0285
  97   2.0000      -0.791073       -21.5262
  98   2.0000      -0.784720       -21.3533
  99   2.0000      -0.776286       -21.1238
 100   2.0000      -0.754842       -20.5403
 101   2.0000      -0.743932       -20.2434
 102   2.0000      -0.738375       -20.0922
 103   2.0000      -0.734439       -19.9851
 104   2.0000      -0.724341       -19.7103
 105   2.0000      -0.723261       -19.6809
 106   2.0000      -0.704474       -19.1697
 107   2.0000      -0.694321       -18.8934
 108   2.0000      -0.684889       -18.6368
 109   2.0000      -0.672911       -18.3108
 110   2.0000      -0.671482       -18.2720
 111   2.0000      -0.664039       -18.0694
 112   2.0000      -0.661093       -17.9892
 113   2.0000      -0.644011       -17.5244
 114   2.0000      -0.641218       -17.4484
 115   2.0000      -0.631445       -17.1825
 116   2.0000      -0.626543       -17.0491
 117   2.0000      -0.623528       -16.9671
 118   2.0000      -0.619128       -16.8473
 119   2.0000      -0.617906       -16.8141
 120   2.0000      -0.616995       -16.7893
 121   2.0000      -0.609563       -16.5871
 122   2.0000      -0.606576       -16.5058
 123   2.0000      -0.604603       -16.4521
 124   2.0000      -0.602050       -16.3826
 125   2.0000      -0.598853       -16.2956
 126   2.0000      -0.592021       -16.1097
 127   2.0000      -0.588534       -16.0148
 128   2.0000      -0.586588       -15.9619
 129   2.0000      -0.582328       -15.8460
 130   2.0000      -0.577125       -15.7044
 131   2.0000      -0.568867       -15.4797
 132   2.0000      -0.564370       -15.3573
 133   2.0000      -0.561442       -15.2776
 134   2.0000      -0.555841       -15.1252
 135   2.0000      -0.554558       -15.0903
 136   2.0000      -0.552267       -15.0280
 137   2.0000      -0.548908       -14.9365
 138   2.0000      -0.547232       -14.8909
 139   2.0000      -0.541763       -14.7421
 140   2.0000      -0.535227       -14.5643
 141   2.0000      -0.531221       -14.4553
 142   2.0000      -0.529848       -14.4179
 143   2.0000      -0.526243       -14.3198
 144   2.0000      -0.524295       -14.2668
 145   2.0000      -0.518896       -14.1199
 146   2.0000      -0.512052       -13.9336
 147   2.0000      -0.509629       -13.8677
 148   2.0000      -0.502745       -13.6804
 149   2.0000      -0.501046       -13.6342
 150   2.0000      -0.497370       -13.5341
 151   2.0000      -0.496514       -13.5108
 152   2.0000      -0.494880       -13.4664
 153   2.0000      -0.494407       -13.4535
 154   2.0000      -0.489572       -13.3219
 155   2.0000      -0.486617       -13.2415
 156   2.0000      -0.485187       -13.2026
 157   2.0000      -0.483119       -13.1463
 158   2.0000      -0.481972       -13.1151
 159   2.0000      -0.476704       -12.9718
 160   2.0000      -0.475050       -12.9268
 161   2.0000      -0.468379       -12.7452
 162   2.0000      -0.467171       -12.7124
 163   2.0000      -0.466659       -12.6984
 164   2.0000      -0.462617       -12.5885
 165   2.0000      -0.459389       -12.5006
 166   2.0000      -0.456821       -12.4307
 167   2.0000      -0.453985       -12.3536
 168   2.0000      -0.452898       -12.3240
 169   2.0000      -0.448129       -12.1942
 170   2.0000      -0.445346       -12.1185
 171   2.0000      -0.444190       -12.0870
 172   2.0000      -0.439579       -11.9615
 173   2.0000      -0.435790       -11.8585
 174   2.0000      -0.432549       -11.7703
 175   2.0000      -0.429388       -11.6842
 176   2.0000      -0.425306       -11.5732
 177   2.0000      -0.424848       -11.5607
 178   2.0000      -0.421636       -11.4733
 179   2.0000      -0.412264       -11.2183
 180   2.0000      -0.409622       -11.1464
 181   2.0000      -0.405778       -11.0418
 182   2.0000      -0.404188       -10.9985
 183   2.0000      -0.400978       -10.9112
 184   2.0000      -0.399254       -10.8642
 185   2.0000      -0.389466       -10.5979
 186   2.0000      -0.382904       -10.4193
 187   2.0000      -0.381328       -10.3765
 188   2.0000      -0.374310       -10.1855
 189   2.0000      -0.373557       -10.1650
 190   2.0000      -0.366418        -9.9707
 191   2.0000      -0.353530        -9.6200
 192   2.0000      -0.350248        -9.5307
 193   2.0000      -0.345314        -9.3965
 194   2.0000      -0.342739        -9.3264
 195   2.0000      -0.336505        -9.1568
 196   2.0000      -0.332618        -9.0510
 197   2.0000      -0.323858        -8.8126
 198   2.0000      -0.308473        -8.3940
 199   2.0000      -0.286752        -7.8029
 200   2.0000      -0.256298        -6.9742
 201   2.0000      -0.252846        -6.8803
 202   2.0000      -0.235197        -6.4000
 203   2.0000      -0.217943        -5.9305
 204   0.0000      -0.076879        -2.0920
 205   0.0000      -0.047785        -1.3003
 206   0.0000      -0.025416        -0.6916
 207   0.0000      -0.006908        -0.1880
 208   0.0000       0.015753         0.4287

MULLIKEN ATOMIC CHARGES
-----------------------
   0 C :   -0.034115
   1 C :   -0.055583
   2 C :    0.051893
   3 C :    0.033612
   4 C :   -0.060143
   5 S :    0.069709
   6 C :   -0.036302
   7 C :    0.035040
   8 C :    0.031896
   9 C :   -0.026256
  10 S :    0.059466
  11 C :   -0.031579
  12 C :   -0.090124
  13 S :    0.111082
  14 C :   -0.110834
  15 C :   -0.043292
  16 C :   -0.080496
  17 C :    0.320195
  18 F :   -0.245323
  19 C :    0.192248
  20 F :   -0.233495
  21 C :    0.244866
  22 F :   -0.231674
  23 C :    0.246256
  24 F :   -0.249830
  25 C :    0.011696
  26 C :    0.039145
  27 N :   -0.027944
  28 C :   -0.110824
  29 S :    0.151828
  30 C :   -0.010896
  31 N :    0.280891
  32 O :   -0.261513
  33 O :   -0.276230
  34 C :    0.014652
  35 C :    0.100851
  36 C :   -0.025365
  37 C :   -0.034168
  38 C :    0.005685
  39 C :   -0.179570
  40 C :    0.068410
  41 C :    0.191852
  42 N :   -0.170847
  43 C :    0.055032
  44 C :   -0.023095
  45 C :   -0.002252
  46 C :   -0.236519
  47 C :    0.073304
  48 C :    0.189260
  49 N :   -0.178764
  50 C :    0.052995
  51 C :   -0.087470
  52 H :    0.022586
  53 H :    0.020318
  54 H :   -0.008030
  55 H :   -0.008719
  56 H :   -0.013358
  57 H :   -0.009457
  58 H :   -0.001709
  59 H :    0.013852
  60 H :    0.028124
  61 H :    0.022506
  62 H :    0.019292
  63 H :   -0.016494
  64 H :    0.039149
  65 H :    0.138230
  66 H :    0.007170
  67 H :   -0.001174
  68 H :   -0.009053
  69 H :   -0.026594
  70 H :    0.039738
  71 H :    0.033091
  72 H :    0.010931
  73 H :    0.008270
  74 H :    0.013863
  75 H :    0.105559
  76 H :   -0.008524
  77 H :   -0.041023
  78 H :   -0.030994
  79 H :    0.027660
  80 H :    0.020503
  81 H :    0.008127
  82 H :    0.005774
  83 H :    0.018546
  84 H :    0.104441
  85 H :   -0.002090
  86 H :   -0.011576
  87 H :    0.003707
Sum of atomic charges:   -0.0000000

LOEWDIN ATOMIC CHARGES
----------------------
   0 C :   -0.072682
   1 C :   -0.137921
   2 C :   -0.027137
   3 C :   -0.025905
   4 C :   -0.173153
   5 S :    0.362418
   6 C :   -0.181724
   7 C :   -0.031920
   8 C :   -0.031395
   9 C :   -0.146149
  10 S :    0.361205
  11 C :   -0.077787
  12 C :   -0.162153
  13 S :    0.447051
  14 C :   -0.156354
  15 C :   -0.089736
  16 C :   -0.081410
  17 C :    0.098350
  18 F :   -0.123247
  19 C :    0.072903
  20 F :   -0.111075
  21 C :    0.085578
  22 F :   -0.107873
  23 C :    0.096422
  24 F :   -0.128410
  25 C :   -0.098037
  26 C :    0.027556
  27 N :    0.044794
  28 C :   -0.096272
  29 S :    0.456174
  30 C :   -0.219892
  31 N :    0.274364
  32 O :   -0.227382
  33 O :   -0.241693
  34 C :    0.005184
  35 C :   -0.112359
  36 C :   -0.018063
  37 C :   -0.044083
  38 C :   -0.051963
  39 C :   -0.037460
  40 C :   -0.056738
  41 C :    0.039880
  42 N :   -0.033172
  43 C :    0.029577
  44 C :   -0.113267
  45 C :   -0.052580
  46 C :   -0.076274
  47 C :   -0.057007
  48 C :    0.031863
  49 N :   -0.037284
  50 C :    0.026797
  51 C :   -0.168342
  52 H :    0.030124
  53 H :    0.025823
  54 H :    0.034772
  55 H :    0.033361
  56 H :    0.032150
  57 H :    0.034812
  58 H :    0.040396
  59 H :    0.024828
  60 H :    0.031633
  61 H :    0.028787
  62 H :    0.025027
  63 H :    0.027715
  64 H :    0.022094
  65 H :    0.093842
  66 H :    0.045609
  67 H :    0.032875
  68 H :    0.020975
  69 H :    0.025032
  70 H :    0.037636
  71 H :    0.037004
  72 H :    0.027740
  73 H :    0.027266
  74 H :    0.025891
  75 H :    0.067727
  76 H :    0.023082
  77 H :    0.014875
  78 H :    0.023977
  79 H :    0.032638
  80 H :    0.031026
  81 H :    0.015443
  82 H :    0.021929
  83 H :    0.029311
  84 H :    0.069034
  85 H :    0.023008
  86 H :    0.011394
  87 H :    0.018948

  Mayer bond orders larger than 0.100000
B(  0-C ,  1-C ) :   1.8670 B(  0-C , 52-H ) :   0.9507 B(  0-C , 53-H ) :   0.9394
B(  1-C ,  2-C ) :   1.0779 B(  1-C ,  5-S ) :   1.0052 B(  2-C ,  3-C ) :   1.6659
B(  2-C , 54-H ) :   0.9933 B(  3-C ,  4-C ) :   1.1462 B(  3-C , 55-H ) :   0.9916
B(  4-C ,  5-S ) :   1.0434 B(  4-C ,  6-C ) :   1.5659 B(  6-C ,  7-C ) :   1.1633
B(  6-C , 10-S ) :   1.0267 B(  7-C ,  8-C ) :   1.6123 B(  7-C , 56-H ) :   0.9922
B(  8-C ,  9-C ) :   1.1307 B(  8-C , 57-H ) :   1.0003 B(  9-C , 10-S ) :   1.0365
B(  9-C , 11-C ) :   1.5777 B( 11-C , 12-C ) :   1.1855 B( 11-C , 58-H ) :   0.9599
B( 12-C , 13-S ) :   1.1046 B( 12-C , 16-C ) :   1.4708 B( 13-S , 14-C ) :   1.1295
B( 14-C , 15-C ) :   1.4928 B( 14-C , 25-C ) :   1.1612 B( 15-C , 16-C ) :   1.3649
B( 15-C , 23-C ) :   0.9677 B( 16-C , 17-C ) :   0.9712 B( 17-C , 18-F ) :   1.0407
B( 17-C , 19-C ) :   0.9901 B( 17-C , 59-H ) :   0.9180 B( 19-C , 20-F ) :   1.0477
B( 19-C , 21-C ) :   0.9974 B( 19-C , 60-H ) :   0.9314 B( 21-C , 22-F ) :   1.0447
B( 21-C , 23-C ) :   0.9936 B( 21-C , 61-H ) :   0.9270 B( 23-C , 24-F ) :   0.9757
B( 23-C , 62-H ) :   0.9233 B( 25-C , 26-C ) :   1.6678 B( 25-C , 63-H ) :   0.9402
B( 26-C , 27-N ) :   1.1191 B( 26-C , 64-H ) :   0.9503 B( 27-N , 28-C ) :   1.2282
B( 27-N , 65-H ) :   0.9009 B( 28-C , 29-S ) :   1.1411 B( 28-C , 35-C ) :   1.3632
B( 29-S , 30-C ) :   1.0609 B( 30-C , 31-N ) :   0.9899 B( 30-C , 34-C ) :   1.4687
B( 31-N , 32-O ) :   1.5248 B( 31-N , 33-O ) :   1.4989 B( 32-O , 33-O ) :   0.2500
B( 34-C , 35-C ) :   1.2475 B( 34-C , 66-H ) :   1.0084 B( 35-C , 36-C ) :   1.0289
B( 36-C , 37-C ) :   1.7339 B( 36-C , 67-H ) :   0.9743 B( 37-C , 38-C ) :   1.1032
B( 37-C , 68-H ) :   0.9630 B( 38-C , 39-C ) :   1.7873 B( 38-C , 69-H ) :   0.9789
B( 39-C , 40-C ) :   1.0616 B( 39-C , 41-C ) :   1.0390 B( 40-C , 70-H ) :   0.9466
B( 40-C , 71-H ) :   0.9498 B( 40-C , 72-H ) :   0.9528 B( 41-C , 42-N ) :   1.0426
B( 41-C , 73-H ) :   0.9418 B( 41-C , 74-H ) :   0.9341 B( 42-N , 43-C ) :   1.1516
B( 42-N , 75-H ) :   0.9427 B( 43-C , 44-C ) :   1.7080 B( 43-C , 76-H ) :   0.9685
B( 44-C , 45-C ) :   1.1043 B( 44-C , 77-H ) :   0.9610 B( 45-C , 46-C ) :   1.8201
B( 45-C , 78-H ) :   0.9606 B( 46-C , 47-C ) :   1.0701 B( 46-C , 48-C ) :   0.9936
B( 47-C , 79-H ) :   0.9478 B( 47-C , 80-H ) :   0.9438 B( 47-C , 81-H ) :   0.9536
B( 48-C , 49-N ) :   1.0730 B( 48-C , 82-H ) :   0.9425 B( 48-C , 83-H ) :   0.9221
B( 49-N , 50-C ) :   1.1589 B( 49-N , 84-H ) :   0.9455 B( 50-C , 51-C ) :   1.8867
B( 50-C , 85-H ) :   0.9609 B( 51-C , 86-H ) :   0.9559 B( 51-C , 87-H ) :   0.9535

-----------------------------------------------------------------------------
         ABSORPTION SPECTRUM VIA TRANSITION ELECTRIC DIPOLE MOMENTS
-----------------------------------------------------------------------------
State   Energy  Wavelength   fosc         T2         TX        TY        TZ
        (cm-1)    (nm)                  (au**2)     (au)      (au)      (au)
-----------------------------------------------------------------------------
   0   16985.2    588.7   1.348016193  26.12771  -2.55621   2.38520  -3.72885
   1   22125.8    452.0   0.012852424   0.19123   0.03527   0.25399  -0.35423
   2   24213.8    413.0   0.260988497   3.54841  -1.70809  -0.75195   0.25570
   3   25268.0    395.8   0.412857282   5.37904   2.13753   0.79341  -0.42485
   4   27203.7    367.6   0.001713760   0.02074  -0.08654   0.02870  -0.11147
   5   28244.3    354.1   0.406898722   4.74276  -0.49583  -0.64767   2.01927
   6   28774.4    347.5   0.088912632   1.01726  -0.80758  -0.06777   0.60040
   7   29805.9    335.5   0.031448518   0.34736  -0.32414   0.19272  -0.45293
   8   30318.5    329.8   0.013392687   0.14542   0.25176  -0.28630   0.00862
   9   31380.3    318.7   0.101214063   1.06184   0.31171   0.43270  -0.88173
  10   31637.5    316.1   0.002360338   0.02456   0.08331   0.03655  -0.12761
  11   33247.3    300.8   0.201311275   1.99337   1.29951   0.09113   0.54438
  12   33864.0    295.3   0.002194392   0.02133  -0.14545   0.01181  -0.00614
  13   34249.9    292.0   0.000999606   0.00961  -0.09513  -0.02167   0.00944
  14   34808.3    287.3   0.128921783   1.21932  -0.77995  -0.22857  -0.74750
  15   35163.3    284.4   0.107224670   1.00388  -0.73380  -0.15246   0.66496
  16   36462.9    274.3   0.178102351   1.60803   0.23270   0.14885  -1.23763
  17   36631.6    273.0   0.013300787   0.11954  -0.24832   0.12028   0.20834
  18   37218.3    268.7   0.000600493   0.00531  -0.01406   0.03767   0.06078
  19   38337.0    260.8   0.012426880   0.10671   0.18137  -0.09861   0.25317
  20   39770.8    251.4   0.150559540   1.24629   0.36498   0.55235  -0.89888
  21   39950.1    250.3   0.020920855   0.17240   0.29894   0.16326   0.23744
  22   40298.9    248.1   0.005155386   0.04212  -0.01478   0.06557  -0.19390

FINAL SINGLE POINT ENERGY     -3827.838721685714

DIPOLE MOMENT
-------------
                                X             Y             Z
Electronic contribution:     45.11495      48.38551     -71.87605
Nuclear contribution   :    -43.77224     -49.15398      75.48297
                        -----------------------------------------
Total Dipole Moment    :      1.34270      -0.76847       3.60692
                        -----------------------------------------
Magnitude (a.u.)       :      3.92470
Magnitude (Debye)      :      9.97579

Rotational constants in cm-1:     0.001270     0.000980     0.000616
Rotational constants in MHz :    38.086362    29.393088    18.469100

                             ****ORCA TERMINATED NORMALLY****
TOTAL RUN TIME: 0 days 0 hours 12 minutes 19 seconds 638 msec
