                         Program Version 4.2.0 -  RELEASE  -
|  1> # ORCA input file
|  2> # SCF done       -155.451404333578          0.000739325395
|  3> ! CAM-B3LYP def2-SVP def2/J RIJCOSX Grid4 TightSCF
|  4> %maxcore 5000
|  5> %tddft
|  6>     Mode sTDDFT
|  7>     Ethresh 5.0
|  8>     maxcore 5000
|  9> end
| 10>
| 11> %pal
| 12>   nprocs 6
| 13>   end
| 14> * xyz 0 1
| 15>    C       10.93298        -1.24563        -4.85115
| 16>    C       10.23535        -1.37099        -3.71475
| 17>    C       10.18217        -0.45369        -2.61051
| 18>    C        9.38853        -0.85117        -1.59373
| 19>    C        8.75054        -2.10911        -1.80485
| 20>    S        9.20387        -2.76688        -3.36115
| 21>    C        7.90024        -2.76469        -0.94871
| 22>    C        7.46602        -2.35406         0.33741
| 23>    C        6.63486        -3.23698         0.94599
| 24>    C        6.35372        -4.40585         0.18351
| 25>    S        7.19224        -4.32083        -1.35263
| 26>    C        5.56688        -5.44560         0.59529
| 27>    C        5.26850        -6.62215        -0.12460
| 28>    O        4.52242        -7.57269         0.50468
| 29>    C        4.34523        -8.61882        -0.32971
| 30>    C        4.99422        -8.32368        -1.53776
| 31>    C        5.58145        -7.05498        -1.40300
| 32>    N        5.07903        -9.12232        -2.70359
| 33>    O        4.56368       -10.22086        -2.68873
| 34>    O        5.67306        -8.64632        -3.65146
| 35>    C        3.62001        -9.76067         0.08724
| 36>    C        3.10915        -9.86740         1.34272
| 37>    C        2.40436       -11.00107         1.81244
| 38>    O        1.97269       -11.02197         3.10627
| 39>    C        2.03629       -12.19688         1.21930
| 40>    C        2.07061       -12.96979        -0.02598
| 41>    O        2.52606       -12.71443        -1.10790
| 42>    N        1.41469       -14.15699         0.30739
| 43>    C        0.96012       -14.23764         1.61738
| 44>    O        0.37415       -15.17687         2.09609
| 45>    C        1.36433       -12.95858         2.20482
| 46>    C        1.34389       -12.19953         3.36264
| 47>    C        0.81611       -12.45504         4.65385
| 48>    C        0.20759       -13.62494         4.96813
| 49>    C       -0.32465       -13.92001         6.24958
| 50>    O       -0.27301       -12.99957         7.25476
| 51>    C       -0.83767       -13.53028         8.35685
| 52>    C       -1.26521       -14.83766         8.05018
| 53>    C       -0.93360       -15.07178         6.70302
| 54>    N       -1.90541       -15.75594         8.90060
| 55>    O       -2.12608       -15.42101        10.05376
| 56>    O       -2.20273       -16.83896         8.43108
| 57>    C       -0.92990       -12.79829         9.55370
| 58>    C       -0.47290       -11.51370         9.68192
| 59>    C       -0.56565       -10.77634        10.86576
| 60>    C       -0.12392        -9.48171        11.00647
| 61>    C       -0.19549        -8.68267        12.17537
| 62>    C        0.31182        -7.42951        12.03013
| 63>    C        0.81756        -7.16223        10.73426
| 64>    S        0.62329        -8.57048         9.70849
| 65>    C        1.38877        -5.99885        10.27281
| 66>    C        1.59453        -4.79127        10.99915
| 67>    C        2.18120        -3.80604        10.28508
| 68>    C        2.49017        -4.16071         8.92908
| 69>    S        1.97510        -5.82960         8.63366
| 70>    C        3.07123        -3.39894         7.99270
| 71>    H       11.54875        -0.38083        -5.02596
| 72>    H       10.90218        -1.99691        -5.61887
| 73>    H       10.74410         0.46325        -2.63203
| 74>    H        9.23173        -0.28926        -0.69024
| 75>    H        7.78341        -1.42356         0.77257
| 76>    H        6.20792        -3.09789         1.92345
| 77>    H        5.12858        -5.38301         1.58155
| 78>    H        6.14729        -6.54821        -2.15571
| 79>    H        3.50217       -10.55400        -0.63818
| 80>    H        3.24302        -9.06524         2.05502
| 81>    H        1.28105       -14.90243        -0.36099
| 82>    H        0.92634       -11.67114         5.38873
| 83>    H        0.10665       -14.40434         4.22624
| 84>    H       -1.11894       -15.96913         6.15012
| 85>    H       -1.39251       -13.30458        10.38731
| 86>    H       -0.01695       -11.03442         8.82459
| 87>    H       -1.01580       -11.24690        11.72956
| 88>    H       -0.62237        -9.06536        13.08552
| 89>    H        0.33751        -6.69320        12.81314
| 90>    H        1.29672        -4.69952        12.02841
| 91>    H        2.41468        -2.82651        10.66269
| 92>    H        3.36652        -2.38813         8.21197
| 93>    H        3.25440        -3.76650         6.99970
| 94> *
| 95>
| 96>                          ****END OF INPUT****

CARTESIAN COORDINATES (ANGSTROEM)
---------------------------------
  C     10.932980   -1.245630   -4.851150
  C     10.235350   -1.370990   -3.714750
  C     10.182170   -0.453690   -2.610510
  C      9.388530   -0.851170   -1.593730
  C      8.750540   -2.109110   -1.804850
  S      9.203870   -2.766880   -3.361150
  C      7.900240   -2.764690   -0.948710
  C      7.466020   -2.354060    0.337410
  C      6.634860   -3.236980    0.945990
  C      6.353720   -4.405850    0.183510
  S      7.192240   -4.320830   -1.352630
  C      5.566880   -5.445600    0.595290
  C      5.268500   -6.622150   -0.124600
  O      4.522420   -7.572690    0.504680
  C      4.345230   -8.618820   -0.329710
  C      4.994220   -8.323680   -1.537760
  C      5.581450   -7.054980   -1.403000
  N      5.079030   -9.122320   -2.703590
  O      4.563680  -10.220860   -2.688730
  O      5.673060   -8.646320   -3.651460
  C      3.620010   -9.760670    0.087240
  C      3.109150   -9.867400    1.342720
  C      2.404360  -11.001070    1.812440
  O      1.972690  -11.021970    3.106270
  C      2.036290  -12.196880    1.219300
  C      2.070610  -12.969790   -0.025980
  O      2.526060  -12.714430   -1.107900
  N      1.414690  -14.156990    0.307390
  C      0.960120  -14.237640    1.617380
  O      0.374150  -15.176870    2.096090
  C      1.364330  -12.958580    2.204820
  C      1.343890  -12.199530    3.362640
  C      0.816110  -12.455040    4.653850
  C      0.207590  -13.624940    4.968130
  C     -0.324650  -13.920010    6.249580
  O     -0.273010  -12.999570    7.254760
  C     -0.837670  -13.530280    8.356850
  C     -1.265210  -14.837660    8.050180
  C     -0.933600  -15.071780    6.703020
  N     -1.905410  -15.755940    8.900600
  O     -2.126080  -15.421010   10.053760
  O     -2.202730  -16.838960    8.431080
  C     -0.929900  -12.798290    9.553700
  C     -0.472900  -11.513700    9.681920
  C     -0.565650  -10.776340   10.865760
  C     -0.123920   -9.481710   11.006470
  C     -0.195490   -8.682670   12.175370
  C      0.311820   -7.429510   12.030130
  C      0.817560   -7.162230   10.734260
  S      0.623290   -8.570480    9.708490
  C      1.388770   -5.998850   10.272810
  C      1.594530   -4.791270   10.999150
  C      2.181200   -3.806040   10.285080
  C      2.490170   -4.160710    8.929080
  S      1.975100   -5.829600    8.633660
  C      3.071230   -3.398940    7.992700
  H     11.548750   -0.380830   -5.025960
  H     10.902180   -1.996910   -5.618870
  H     10.744100    0.463250   -2.632030
  H      9.231730   -0.289260   -0.690240
  H      7.783410   -1.423560    0.772570
  H      6.207920   -3.097890    1.923450
  H      5.128580   -5.383010    1.581550
  H      6.147290   -6.548210   -2.155710
  H      3.502170  -10.554000   -0.638180
  H      3.243020   -9.065240    2.055020
  H      1.281050  -14.902430   -0.360990
  H      0.926340  -11.671140    5.388730
  H      0.106650  -14.404340    4.226240
  H     -1.118940  -15.969130    6.150120
  H     -1.392510  -13.304580   10.387310
  H     -0.016950  -11.034420    8.824590
  H     -1.015800  -11.246900   11.729560
  H     -0.622370   -9.065360   13.085520
  H      0.337510   -6.693200   12.813140
  H      1.296720   -4.699520   12.028410
  H      2.414680   -2.826510   10.662690
  H      3.366520   -2.388130    8.211970
  H      3.254400   -3.766500    6.999700

 Total Charge           Charge          ....    0
 Multiplicity           Mult            ....    1
 Number of Electrons    NEL             ....  420
 Basis Dimension        Dim             ....  915

ORBITAL ENERGIES
----------------

  NO   OCC          E(Eh)            E(eV)
   0   2.0000     -88.953257     -2420.5412
   1   2.0000     -88.951581     -2420.4956
   2   2.0000     -88.950786     -2420.4739
   3   2.0000     -88.945461     -2420.3290
   4   2.0000     -19.306897      -525.3674
   5   2.0000     -19.305287      -525.3236
   6   2.0000     -19.304620      -525.3054
   7   2.0000     -19.229250      -523.2545
   8   2.0000     -19.228598      -523.2367
   9   2.0000     -19.227829      -523.2158
  10   2.0000     -19.227574      -523.2089
  11   2.0000     -19.209216      -522.7093
  12   2.0000     -19.207684      -522.6677
  13   2.0000     -14.639835      -398.3702
  14   2.0000     -14.638911      -398.3450
  15   2.0000     -14.450454      -393.2168
  16   2.0000     -10.396798      -282.9112
  17   2.0000     -10.395260      -282.8694
  18   2.0000     -10.360682      -281.9285
  19   2.0000     -10.358649      -281.8732
  20   2.0000     -10.356531      -281.8155
  21   2.0000     -10.356491      -281.8144
  22   2.0000     -10.346138      -281.5327
  23   2.0000     -10.341950      -281.4188
  24   2.0000     -10.324084      -280.9326
  25   2.0000     -10.322101      -280.8787
  26   2.0000     -10.319808      -280.8163
  27   2.0000     -10.319591      -280.8104
  28   2.0000     -10.318876      -280.7909
  29   2.0000     -10.318645      -280.7846
  30   2.0000     -10.318306      -280.7754
  31   2.0000     -10.318185      -280.7721
  32   2.0000     -10.313947      -280.6568
  33   2.0000     -10.313192      -280.6362
  34   2.0000     -10.300697      -280.2962
  35   2.0000     -10.299814      -280.2722
  36   2.0000     -10.297228      -280.2018
  37   2.0000     -10.296724      -280.1881
  38   2.0000     -10.295147      -280.1452
  39   2.0000     -10.294860      -280.1374
  40   2.0000     -10.294261      -280.1211
  41   2.0000     -10.293452      -280.0991
  42   2.0000     -10.292541      -280.0743
  43   2.0000     -10.291720      -280.0519
  44   2.0000     -10.290627      -280.0222
  45   2.0000     -10.290223      -280.0112
  46   2.0000     -10.290156      -280.0094
  47   2.0000     -10.290153      -280.0093
  48   2.0000     -10.287985      -279.9503
  49   2.0000     -10.286556      -279.9114
  50   2.0000     -10.284334      -279.8510
  51   2.0000     -10.283998      -279.8418
  52   2.0000     -10.283512      -279.8286
  53   2.0000     -10.283018      -279.8151
  54   2.0000     -10.280340      -279.7423
  55   2.0000     -10.278356      -279.6883
  56   2.0000      -8.049602      -219.0408
  57   2.0000      -8.047552      -218.9850
  58   2.0000      -8.047544      -218.9848
  59   2.0000      -8.042241      -218.8405
  60   2.0000      -6.019295      -163.7934
  61   2.0000      -6.017339      -163.7401
  62   2.0000      -6.017337      -163.7401
  63   2.0000      -6.015386      -163.6870
  64   2.0000      -6.013424      -163.6336
  65   2.0000      -6.013285      -163.6298
  66   2.0000      -6.012075      -163.5969
  67   2.0000      -6.010455      -163.5528
  68   2.0000      -6.008396      -163.4968
  69   2.0000      -6.008105      -163.4888
  70   2.0000      -6.008102      -163.4888
  71   2.0000      -6.002768      -163.3436
  72   2.0000      -1.311093       -35.6766
  73   2.0000      -1.307511       -35.5792
  74   2.0000      -1.223872       -33.3032
  75   2.0000      -1.223072       -33.2815
  76   2.0000      -1.221853       -33.2483
  77   2.0000      -1.152578       -31.3632
  78   2.0000      -1.132531       -30.8177
  79   2.0000      -1.129004       -30.7218
  80   2.0000      -1.124972       -30.6120
  81   2.0000      -1.039060       -28.2743
  82   2.0000      -1.003720       -27.3126
  83   2.0000      -0.999688       -27.2029
  84   2.0000      -0.980878       -26.6911
  85   2.0000      -0.976976       -26.5849
  86   2.0000      -0.942291       -25.6410
  87   2.0000      -0.941193       -25.6112
  88   2.0000      -0.935702       -25.4617
  89   2.0000      -0.929148       -25.2834
  90   2.0000      -0.919636       -25.0246
  91   2.0000      -0.913441       -24.8560
  92   2.0000      -0.901613       -24.5341
  93   2.0000      -0.889405       -24.2020
  94   2.0000      -0.879521       -23.9330
  95   2.0000      -0.868391       -23.6301
  96   2.0000      -0.856026       -23.2937
  97   2.0000      -0.852564       -23.1995
  98   2.0000      -0.850936       -23.1552
  99   2.0000      -0.838539       -22.8178
 100   2.0000      -0.828943       -22.5567
 101   2.0000      -0.827268       -22.5111
 102   2.0000      -0.823648       -22.4126
 103   2.0000      -0.810927       -22.0664
 104   2.0000      -0.805966       -21.9315
 105   2.0000      -0.789038       -21.4708
 106   2.0000      -0.773229       -21.0406
 107   2.0000      -0.764698       -20.8085
 108   2.0000      -0.760160       -20.6850
 109   2.0000      -0.749527       -20.3957
 110   2.0000      -0.733738       -19.9660
 111   2.0000      -0.715716       -19.4756
 112   2.0000      -0.705300       -19.1922
 113   2.0000      -0.703351       -19.1391
 114   2.0000      -0.694813       -18.9068
 115   2.0000      -0.693898       -18.8819
 116   2.0000      -0.690716       -18.7953
 117   2.0000      -0.677889       -18.4463
 118   2.0000      -0.662124       -18.0173
 119   2.0000      -0.646201       -17.5840
 120   2.0000      -0.644019       -17.5246
 121   2.0000      -0.638309       -17.3693
 122   2.0000      -0.635427       -17.2908
 123   2.0000      -0.630502       -17.1568
 124   2.0000      -0.627848       -17.0846
 125   2.0000      -0.622679       -16.9440
 126   2.0000      -0.622051       -16.9269
 127   2.0000      -0.620563       -16.8864
 128   2.0000      -0.615444       -16.7471
 129   2.0000      -0.611682       -16.6447
 130   2.0000      -0.608908       -16.5692
 131   2.0000      -0.607085       -16.5196
 132   2.0000      -0.601441       -16.3660
 133   2.0000      -0.600511       -16.3407
 134   2.0000      -0.591982       -16.1086
 135   2.0000      -0.591174       -16.0867
 136   2.0000      -0.580223       -15.7887
 137   2.0000      -0.577785       -15.7223
 138   2.0000      -0.574808       -15.6413
 139   2.0000      -0.572008       -15.5651
 140   2.0000      -0.569562       -15.4986
 141   2.0000      -0.565952       -15.4003
 142   2.0000      -0.565546       -15.3893
 143   2.0000      -0.564565       -15.3626
 144   2.0000      -0.556014       -15.1299
 145   2.0000      -0.554553       -15.0902
 146   2.0000      -0.552222       -15.0267
 147   2.0000      -0.539917       -14.6919
 148   2.0000      -0.539462       -14.6795
 149   2.0000      -0.535086       -14.5604
 150   2.0000      -0.527644       -14.3579
 151   2.0000      -0.521964       -14.2034
 152   2.0000      -0.516012       -14.0414
 153   2.0000      -0.514558       -14.0018
 154   2.0000      -0.512756       -13.9528
 155   2.0000      -0.510097       -13.8804
 156   2.0000      -0.505742       -13.7619
 157   2.0000      -0.503054       -13.6888
 158   2.0000      -0.501433       -13.6447
 159   2.0000      -0.499276       -13.5860
 160   2.0000      -0.497105       -13.5269
 161   2.0000      -0.495965       -13.4959
 162   2.0000      -0.495711       -13.4890
 163   2.0000      -0.489260       -13.3134
 164   2.0000      -0.487938       -13.2775
 165   2.0000      -0.484008       -13.1705
 166   2.0000      -0.479888       -13.0584
 167   2.0000      -0.476114       -12.9557
 168   2.0000      -0.473428       -12.8826
 169   2.0000      -0.472783       -12.8651
 170   2.0000      -0.468607       -12.7514
 171   2.0000      -0.465851       -12.6764
 172   2.0000      -0.463141       -12.6027
 173   2.0000      -0.458952       -12.4887
 174   2.0000      -0.457552       -12.4506
 175   2.0000      -0.453828       -12.3493
 176   2.0000      -0.438607       -11.9351
 177   2.0000      -0.435847       -11.8600
 178   2.0000      -0.433630       -11.7997
 179   2.0000      -0.429977       -11.7003
 180   2.0000      -0.427048       -11.6206
 181   2.0000      -0.423433       -11.5222
 182   2.0000      -0.410595       -11.1729
 183   2.0000      -0.407347       -11.0845
 184   2.0000      -0.403937       -10.9917
 185   2.0000      -0.397843       -10.8259
 186   2.0000      -0.384964       -10.4754
 187   2.0000      -0.378439       -10.2979
 188   2.0000      -0.377015       -10.2591
 189   2.0000      -0.375676       -10.2227
 190   2.0000      -0.375372       -10.2144
 191   2.0000      -0.371295       -10.1034
 192   2.0000      -0.367079        -9.9887
 193   2.0000      -0.366222        -9.9654
 194   2.0000      -0.365426        -9.9437
 195   2.0000      -0.358918        -9.7667
 196   2.0000      -0.356132        -9.6909
 197   2.0000      -0.355028        -9.6608
 198   2.0000      -0.354244        -9.6395
 199   2.0000      -0.348179        -9.4744
 200   2.0000      -0.344433        -9.3725
 201   2.0000      -0.343254        -9.3404
 202   2.0000      -0.340103        -9.2547
 203   2.0000      -0.332032        -9.0351
 204   2.0000      -0.325595        -8.8599
 205   2.0000      -0.308579        -8.3969
 206   2.0000      -0.286055        -7.7839
 207   2.0000      -0.258510        -7.0344
 208   2.0000      -0.226656        -6.1676
 209   2.0000      -0.218738        -5.9522
 210   0.0000      -0.092598        -2.5197
 211   0.0000      -0.081126        -2.2076
 212   0.0000      -0.060576        -1.6484
 213   0.0000      -0.048570        -1.3217
 214   0.0000      -0.035187        -0.9575

MULLIKEN ATOMIC CHARGES
-----------------------
   0 C :   -0.020845
   1 C :   -0.070394
   2 C :    0.058161
   3 C :    0.031435
   4 C :   -0.062969
   5 S :    0.093254
   6 C :   -0.046132
   7 C :    0.039284
   8 C :    0.031185
   9 C :   -0.020043
  10 S :    0.066667
  11 C :   -0.026800
  12 C :    0.192681
  13 O :   -0.203934
  14 C :    0.100456
  15 C :    0.160430
  16 C :   -0.106458
  17 N :    0.263210
  18 O :   -0.231628
  19 O :   -0.244992
  20 C :   -0.079213
  21 C :    0.008600
  22 C :    0.126171
  23 O :   -0.202363
  24 C :   -0.058268
  25 C :    0.177041
  26 O :   -0.131037
  27 N :   -0.160061
  28 C :    0.188735
  29 O :   -0.161053
  30 C :   -0.082052
  31 C :    0.133429
  32 C :   -0.008348
  33 C :   -0.013011
  34 C :    0.181763
  35 O :   -0.206100
  36 C :    0.142806
  37 C :    0.132751
  38 C :   -0.063097
  39 N :    0.270031
  40 O :   -0.258821
  41 O :   -0.249993
  42 C :   -0.100137
  43 C :    0.048009
  44 C :   -0.023388
  45 C :   -0.007237
  46 C :    0.036462
  47 C :    0.031653
  48 C :   -0.051635
  49 S :    0.080069
  50 C :   -0.061211
  51 C :    0.030826
  52 C :    0.057888
  53 C :   -0.068316
  54 S :    0.089073
  55 C :   -0.020517
  56 H :    0.024492
  57 H :    0.028878
  58 H :   -0.007440
  59 H :   -0.009923
  60 H :   -0.012786
  61 H :   -0.014067
  62 H :   -0.008434
  63 H :    0.011637
  64 H :    0.047198
  65 H :    0.000220
  66 H :    0.138856
  67 H :   -0.002173
  68 H :    0.020334
  69 H :    0.008294
  70 H :    0.022858
  71 H :    0.011237
  72 H :   -0.007668
  73 H :   -0.007485
  74 H :   -0.008110
  75 H :   -0.007990
  76 H :   -0.007168
  77 H :    0.023710
  78 H :    0.023513
Sum of atomic charges:   -0.0000000

LOEWDIN ATOMIC CHARGES
----------------------
   0 C :   -0.064387
   1 C :   -0.140909
   2 C :   -0.022732
   3 C :   -0.027660
   4 C :   -0.167090
   5 S :    0.361247
   6 C :   -0.185855
   7 C :   -0.027228
   8 C :   -0.036802
   9 C :   -0.131921
  10 S :    0.383876
  11 C :   -0.087111
  12 C :    0.040297
  13 O :    0.018135
  14 C :    0.055434
  15 C :   -0.065202
  16 C :   -0.058954
  17 N :    0.284678
  18 O :   -0.198542
  19 O :   -0.210414
  20 C :   -0.016145
  21 C :   -0.025695
  22 C :    0.061644
  23 O :    0.015462
  24 C :   -0.092780
  25 C :    0.086228
  26 O :   -0.143997
  27 N :   -0.002446
  28 C :    0.087650
  29 O :   -0.166625
  30 C :   -0.105210
  31 C :    0.070986
  32 C :   -0.047384
  33 C :   -0.000696
  34 C :    0.028804
  35 O :    0.016354
  36 C :    0.075274
  37 C :   -0.085508
  38 C :   -0.021439
  39 N :    0.287550
  40 O :   -0.223694
  41 O :   -0.214490
  42 C :   -0.060218
  43 C :    0.007971
  44 C :   -0.066263
  45 C :   -0.127348
  46 C :   -0.036384
  47 C :   -0.020631
  48 C :   -0.184334
  49 S :    0.374451
  50 C :   -0.167613
  51 C :   -0.026166
  52 C :   -0.024038
  53 C :   -0.139628
  54 S :    0.359829
  55 C :   -0.066890
  56 H :    0.030832
  57 H :    0.029378
  58 H :    0.035327
  59 H :    0.032943
  60 H :    0.032307
  61 H :    0.033112
  62 H :    0.040770
  63 H :    0.031050
  64 H :    0.045664
  65 H :    0.038795
  66 H :    0.095463
  67 H :    0.038605
  68 H :    0.044608
  69 H :    0.047037
  70 H :    0.040843
  71 H :    0.025160
  72 H :    0.036126
  73 H :    0.035761
  74 H :    0.033516
  75 H :    0.033902
  76 H :    0.035421
  77 H :    0.030542
  78 H :    0.027395

  Mayer bond orders larger than 0.100000
B(  0-C ,  1-C ) :   1.8702 B(  0-C , 56-H ) :   0.9505 B(  0-C , 57-H ) :   0.9412
B(  1-C ,  2-C ) :   1.0759 B(  1-C ,  5-S ) :   1.0057 B(  2-C ,  3-C ) :   1.6702
B(  2-C , 58-H ) :   0.9926 B(  3-C ,  4-C ) :   1.1445 B(  3-C , 59-H ) :   0.9914
B(  4-C ,  5-S ) :   1.0559 B(  4-C ,  6-C ) :   1.5627 B(  6-C ,  7-C ) :   1.1679
B(  6-C , 10-S ) :   1.0274 B(  7-C ,  8-C ) :   1.6140 B(  7-C , 60-H ) :   0.9918
B(  8-C ,  9-C ) :   1.1314 B(  8-C , 61-H ) :   0.9985 B(  9-C , 10-S ) :   1.0495
B(  9-C , 11-C ) :   1.5873 B( 11-C , 12-C ) :   1.1468 B( 11-C , 62-H ) :   0.9614
B( 12-C , 13-O ) :   1.0937 B( 12-C , 16-C ) :   1.3934 B( 13-O , 14-C ) :   1.1739
B( 14-C , 15-C ) :   1.3457 B( 14-C , 20-C ) :   1.1935 B( 15-C , 16-C ) :   1.2557
B( 15-C , 17-N ) :   0.9345 B( 16-C , 63-H ) :   1.0035 B( 17-N , 18-O ) :   1.5249
B( 17-N , 19-O ) :   1.5322 B( 18-O , 19-O ) :   0.2692 B( 20-C , 21-C ) :   1.5561
B( 20-C , 64-H ) :   0.9446 B( 21-C , 22-C ) :   1.1482 B( 21-C , 65-H ) :   0.9718
B( 22-C , 23-O ) :   1.1305 B( 22-C , 24-C ) :   1.4191 B( 23-O , 31-C ) :   1.1447
B( 24-C , 25-C ) :   0.8811 B( 24-C , 30-C ) :   1.2853 B( 25-C , 26-O ) :   2.2084
B( 25-C , 27-N ) :   1.0824 B( 27-N , 28-C ) :   1.1050 B( 27-N , 66-H ) :   0.9160
B( 28-C , 29-O ) :   2.1602 B( 28-C , 30-C ) :   0.8893 B( 30-C , 31-C ) :   1.4101
B( 31-C , 32-C ) :   1.1562 B( 32-C , 33-C ) :   1.5960 B( 32-C , 67-H ) :   0.9759
B( 33-C , 34-C ) :   1.1668 B( 33-C , 68-H ) :   0.9409 B( 34-C , 35-O ) :   1.1006
B( 34-C , 38-C ) :   1.4017 B( 35-O , 36-C ) :   1.1791 B( 36-C , 37-C ) :   1.3145
B( 36-C , 42-C ) :   1.2059 B( 37-C , 38-C ) :   1.2230 B( 37-C , 39-N ) :   0.9564
B( 38-C , 69-H ) :   1.0284 B( 39-N , 40-O ) :   1.5008 B( 39-N , 41-O ) :   1.5369
B( 40-O , 41-O ) :   0.2578 B( 42-C , 43-C ) :   1.5271 B( 42-C , 70-H ) :   0.9696
B( 43-C , 44-C ) :   1.1770 B( 43-C , 71-H ) :   0.9784 B( 44-C , 45-C ) :   1.5298
B( 44-C , 72-H ) :   0.9861 B( 45-C , 46-C ) :   1.1456 B( 45-C , 49-S ) :   1.0476
B( 46-C , 47-C ) :   1.5943 B( 46-C , 73-H ) :   0.9999 B( 47-C , 48-C ) :   1.1799
B( 47-C , 74-H ) :   0.9932 B( 48-C , 49-S ) :   1.0357 B( 48-C , 50-C ) :   1.5446
B( 50-C , 51-C ) :   1.1521 B( 50-C , 54-S ) :   1.0563 B( 51-C , 52-C ) :   1.6636
B( 51-C , 75-H ) :   0.9917 B( 52-C , 53-C ) :   1.0800 B( 52-C , 76-H ) :   0.9925
B( 53-C , 54-S ) :   1.0064 B( 53-C , 55-C ) :   1.8657 B( 55-C , 77-H ) :   0.9504
B( 55-C , 78-H ) :   0.9410

-----------------------------------------------------------------------------
         ABSORPTION SPECTRUM VIA TRANSITION ELECTRIC DIPOLE MOMENTS
-----------------------------------------------------------------------------
State   Energy  Wavelength   fosc         T2         TX        TY        TZ
        (cm-1)    (nm)                  (au**2)     (au)      (au)      (au)
-----------------------------------------------------------------------------
   0   14030.4    712.7   0.571153416  13.40169  -0.59799   2.01218   2.99921
   1   16882.6    592.3   2.588261686  50.47138  -3.63298  -5.82044   1.84265
   2   19437.9    514.5   0.007288495   0.12344  -0.21052  -0.28024   0.02434
   3   21006.2    476.0   0.056883071   0.89148   0.16833   0.68676  -0.62570
   4   21495.5    465.2   0.204942645   3.13878  -1.12801  -1.26963   0.50439
   5   23244.4    430.2   0.021047320   0.29809  -0.29506  -0.31020   0.33883
   6   24022.4    416.3   0.735121137  10.07436  -1.32672  -1.38278   2.53024
   7   25565.3    391.2   0.138356101   1.78165   0.57899   1.14739  -0.36045
   8   26165.9    382.2   0.096491367   1.21403   0.37463   0.52617  -0.89265
   9   26525.2    377.0   0.091431675   1.13478   0.46978   0.13369  -0.94669
  10   27806.0    359.6   0.004392160   0.05200   0.05560   0.21956  -0.02650
  11   29659.4    337.2   0.140756331   1.56236   0.51342   0.33464  -1.08940
  12   29979.8    333.6   0.093556475   1.02736  -0.23910  -0.83417  -0.52379
  13   30838.3    324.3   0.279139760   2.97993  -0.45670   0.62923   1.54124
  14   31802.6    314.4   0.052499052   0.54346   0.21930   0.65678   0.25298
  15   31983.9    312.7   0.092691984   0.95408  -0.38682  -0.46178   0.76891
  16   32641.3    306.4   0.002147450   0.02166   0.06777   0.06973  -0.11047
  17   32868.5    304.2   0.008519430   0.08533   0.11991   0.24461  -0.10543
  18   33341.5    299.9   0.061757753   0.60979   0.29561   0.10049  -0.71576
  19   33920.4    294.8   0.010518169   0.10208   0.01270  -0.20864  -0.24165
  20   34590.5    289.1   0.016184873   0.15404  -0.13357   0.04811   0.36590
  21   35848.2    279.0   0.090260661   0.82891   0.10925   0.73274   0.52921
  22   36255.4    275.8   0.016733220   0.15194  -0.08221  -0.35175  -0.14650
  23   36801.9    271.7   0.019195403   0.17171   0.14642   0.38480  -0.04697
  24   37155.2    269.1   0.079009665   0.70006  -0.26595  -0.01804   0.79310
  25   37545.6    266.3   0.093626523   0.82095   0.35216   0.82610  -0.12035
  26   38169.6    262.0   0.033744622   0.29105   0.07548  -0.13600  -0.51658
  27   38466.6    260.0   0.002282512   0.01953   0.05557   0.02109  -0.12650
  28   39065.7    256.0   0.092386111   0.77855  -0.26517   0.17670   0.82281
  29   39730.9    251.7   0.091376050   0.75715  -0.52150  -0.34358   0.60592

FINAL SINGLE POINT ENERGY     -3968.441494714329

DIPOLE MOMENT
-------------
                                X             Y             Z
Electronic contribution:     -9.25223     -29.26841     -14.13071
Nuclear contribution   :     10.90292      34.78364      16.56215
                        -----------------------------------------
Total Dipole Moment    :      1.65069       5.51523       2.43144
                        -----------------------------------------
Magnitude (a.u.)       :      6.24936
Magnitude (Debye)      :     15.88461

Rotational constants in cm-1:     0.001346     0.000463     0.000346
Rotational constants in MHz :    40.348190    13.891963    10.369135

                             ****ORCA TERMINATED NORMALLY****
TOTAL RUN TIME: 0 days 0 hours 8 minutes 29 seconds 394 msec
