                         Program Version 4.2.0 -  RELEASE  -
|  1> # ORCA input file
|  2> # SCF done       -134.931447271794          0.000335331262
|  3> ! CAM-B3LYP def2-SVP def2/J RIJCOSX Grid4 TightSCF
|  4> %maxcore 5000
|  5> %tddft
|  6>     Mode sTDDFT
|  7>     Ethresh 5.0
|  8>     maxcore 5000
|  9> end
| 10>
| 11> %pal
| 12>   nprocs 6
| 13>   end
| 14> * xyz 0 1
| 15>    O        5.48049         0.46035         2.23138
| 16>    C        5.47573         0.86154         3.52665
| 17>    C        5.38719         2.16880         3.90675
| 18>    C        5.38788         2.50142         5.28088
| 19>    C        5.32170         3.76268         5.86679
| 20>    C        5.13224         5.03707         5.25447
| 21>    S        6.01692         6.41892         5.80664
| 22>    C        5.30120         7.43960         4.63887
| 23>    C        4.39453         6.77913         3.84526
| 24>    C        3.59770         7.30738         2.77233
| 25>    C        3.71285         8.68932         2.41418
| 26>    C        3.16837         9.28572         1.32357
| 27>    C        3.26504        10.66547         1.04401
| 28>    S        4.04513        11.77827         2.12187
| 29>    C        3.67892        13.14108         1.11901
| 30>    C        4.05342        14.44800         1.51315
| 31>    N        3.74597        15.48698         0.73560
| 32>    N        4.02360        16.71241         1.05063
| 33>    C        4.63641        17.06230         2.16925
| 34>    C        4.85878        18.45812         2.42492
| 35>    C        5.43820        19.06252         3.51231
| 36>    C        5.38458        20.45852         3.26175
| 37>    C        5.78543        21.60422         3.95155
| 38>    C        5.55162        22.82856         3.36832
| 39>    C        4.93178        22.93613         2.11975
| 40>    C        4.52515        21.82069         1.41569
| 41>    C        4.75747        20.58549         2.00071
| 42>    O        4.44539        19.37200         1.50549
| 43>    C        5.04329        16.04953         3.08667
| 44>    N        5.67722        16.13513         4.25159
| 45>    S        5.87188        14.64776         4.84685
| 46>    N        5.15799        13.82904         3.65206
| 47>    C        4.74086        14.69495         2.73965
| 48>    C        2.97787        12.74518        -0.03114
| 49>    C        2.51335        13.56982        -1.06802
| 50>    C        1.83497        13.01836        -2.12302
| 51>    O        1.36178        13.77708        -3.14961
| 52>    C        1.60322        11.61579        -2.17422
| 53>    S        0.73389        10.91831        -3.53937
| 54>    C        2.04996        10.79673        -1.16871
| 55>    C        2.74306        11.34093        -0.07597
| 56>    C        2.71315         6.44064         2.15584
| 57>    C        2.55966         5.10935         2.56418
| 58>    C        3.31672         4.58007         3.57354
| 59>    C        4.27968         5.39074         4.20708
| 60>    S        5.51922         3.64277         7.58950
| 61>    C        5.63867         1.94245         7.53670
| 62>    C        5.55415         1.45625         6.25149
| 63>    C        5.62797         0.10723         5.82971
| 64>    C        5.57580        -0.18158         4.49950
| 65>    S        5.65234        -1.81750         3.85293
| 66>    H        5.41575         1.22189         1.64296
| 67>    H        5.33473         2.95061         3.16281
| 68>    H        5.59691         8.46874         4.61266
| 69>    H        4.28846         9.31471         3.08273
| 70>    H        2.61979         8.70116         0.59954
| 71>    H        5.84133        18.56104         4.36770
| 72>    H        6.26371        21.52266         4.91541
| 73>    H        5.85080        23.73061         3.88113
| 74>    H        4.76786        23.91642         1.69820
| 75>    H        4.04643        21.89503         0.45257
| 76>    H        2.70076        14.63097        -1.00784
| 77>    H        1.58242        14.70292        -2.98841
| 78>    H        0.54843        12.07786        -4.15980
| 79>    H        1.86281         9.73680        -1.23241
| 80>    H        2.08247         6.80192         1.35890
| 81>    H        1.81517         4.49852         2.07545
| 82>    H        3.17032         3.56458         3.90625
| 83>    H        5.76656         1.38769         8.44425
| 84>    H        5.73088        -0.67255         6.56900
| 85>    H        5.73736        -2.41485         5.04369
| 86> *
| 87>
| 88>                          ****END OF INPUT****

CARTESIAN COORDINATES (ANGSTROEM)
---------------------------------
  O      5.480490    0.460350    2.231380
  C      5.475730    0.861540    3.526650
  C      5.387190    2.168800    3.906750
  C      5.387880    2.501420    5.280880
  C      5.321700    3.762680    5.866790
  C      5.132240    5.037070    5.254470
  S      6.016920    6.418920    5.806640
  C      5.301200    7.439600    4.638870
  C      4.394530    6.779130    3.845260
  C      3.597700    7.307380    2.772330
  C      3.712850    8.689320    2.414180
  C      3.168370    9.285720    1.323570
  C      3.265040   10.665470    1.044010
  S      4.045130   11.778270    2.121870
  C      3.678920   13.141080    1.119010
  C      4.053420   14.448000    1.513150
  N      3.745970   15.486980    0.735600
  N      4.023600   16.712410    1.050630
  C      4.636410   17.062300    2.169250
  C      4.858780   18.458120    2.424920
  C      5.438200   19.062520    3.512310
  C      5.384580   20.458520    3.261750
  C      5.785430   21.604220    3.951550
  C      5.551620   22.828560    3.368320
  C      4.931780   22.936130    2.119750
  C      4.525150   21.820690    1.415690
  C      4.757470   20.585490    2.000710
  O      4.445390   19.372000    1.505490
  C      5.043290   16.049530    3.086670
  N      5.677220   16.135130    4.251590
  S      5.871880   14.647760    4.846850
  N      5.157990   13.829040    3.652060
  C      4.740860   14.694950    2.739650
  C      2.977870   12.745180   -0.031140
  C      2.513350   13.569820   -1.068020
  C      1.834970   13.018360   -2.123020
  O      1.361780   13.777080   -3.149610
  C      1.603220   11.615790   -2.174220
  S      0.733890   10.918310   -3.539370
  C      2.049960   10.796730   -1.168710
  C      2.743060   11.340930   -0.075970
  C      2.713150    6.440640    2.155840
  C      2.559660    5.109350    2.564180
  C      3.316720    4.580070    3.573540
  C      4.279680    5.390740    4.207080
  S      5.519220    3.642770    7.589500
  C      5.638670    1.942450    7.536700
  C      5.554150    1.456250    6.251490
  C      5.627970    0.107230    5.829710
  C      5.575800   -0.181580    4.499500
  S      5.652340   -1.817500    3.852930
  H      5.415750    1.221890    1.642960
  H      5.334730    2.950610    3.162810
  H      5.596910    8.468740    4.612660
  H      4.288460    9.314710    3.082730
  H      2.619790    8.701160    0.599540
  H      5.841330   18.561040    4.367700
  H      6.263710   21.522660    4.915410
  H      5.850800   23.730610    3.881130
  H      4.767860   23.916420    1.698200
  H      4.046430   21.895030    0.452570
  H      2.700760   14.630970   -1.007840
  H      1.582420   14.702920   -2.988410
  H      0.548430   12.077860   -4.159800
  H      1.862810    9.736800   -1.232410
  H      2.082470    6.801920    1.358900
  H      1.815170    4.498520    2.075450
  H      3.170320    3.564580    3.906250
  H      5.766560    1.387690    8.444250
  H      5.730880   -0.672550    6.569000
  H      5.737360   -2.414850    5.043690

 Total Charge           Charge          ....    0
 Multiplicity           Mult            ....    1
 Number of Electrons    NEL             ....  396
 Basis Dimension        Dim             ....  838

ORBITAL ENERGIES
----------------

  NO   OCC          E(Eh)            E(eV)
   0   2.0000     -89.036351     -2422.8023
   1   2.0000     -88.964152     -2420.8376
   2   2.0000     -88.960161     -2420.7290
   3   2.0000     -88.959670     -2420.7157
   4   2.0000     -88.924475     -2419.7580
   5   2.0000     -88.919537     -2419.6236
   6   2.0000     -19.271458      -524.4030
   7   2.0000     -19.255132      -523.9588
   8   2.0000     -19.250196      -523.8245
   9   2.0000     -14.455124      -393.3439
  10   2.0000     -14.452474      -393.2718
  11   2.0000     -14.432149      -392.7187
  12   2.0000     -14.427259      -392.5857
  13   2.0000     -10.340341      -281.3750
  14   2.0000     -10.338801      -281.3331
  15   2.0000     -10.335463      -281.2423
  16   2.0000     -10.334432      -281.2142
  17   2.0000     -10.329421      -281.0778
  18   2.0000     -10.326449      -280.9970
  19   2.0000     -10.321292      -280.8566
  20   2.0000     -10.316695      -280.7315
  21   2.0000     -10.307213      -280.4735
  22   2.0000     -10.304003      -280.3862
  23   2.0000     -10.302978      -280.3583
  24   2.0000     -10.302568      -280.3471
  25   2.0000     -10.298535      -280.2374
  26   2.0000     -10.296871      -280.1921
  27   2.0000     -10.290277      -280.0127
  28   2.0000     -10.289022      -279.9785
  29   2.0000     -10.283973      -279.8411
  30   2.0000     -10.282840      -279.8103
  31   2.0000     -10.282719      -279.8070
  32   2.0000     -10.281965      -279.7865
  33   2.0000     -10.279530      -279.7202
  34   2.0000     -10.279509      -279.7196
  35   2.0000     -10.279373      -279.7159
  36   2.0000     -10.277451      -279.6637
  37   2.0000     -10.277342      -279.6607
  38   2.0000     -10.276515      -279.6382
  39   2.0000     -10.275976      -279.6235
  40   2.0000     -10.272123      -279.5187
  41   2.0000     -10.272067      -279.5172
  42   2.0000     -10.269941      -279.4593
  43   2.0000     -10.267480      -279.3923
  44   2.0000     -10.265254      -279.3318
  45   2.0000     -10.265056      -279.3264
  46   2.0000     -10.264679      -279.3161
  47   2.0000     -10.263647      -279.2880
  48   2.0000     -10.263071      -279.2724
  49   2.0000     -10.259923      -279.1867
  50   2.0000     -10.258888      -279.1585
  51   2.0000      -8.128017      -221.1746
  52   2.0000      -8.059610      -219.3131
  53   2.0000      -8.055083      -219.1900
  54   2.0000      -8.054269      -219.1678
  55   2.0000      -8.019684      -218.2267
  56   2.0000      -8.015346      -218.1087
  57   2.0000      -6.099299      -165.9704
  58   2.0000      -6.091521      -165.7587
  59   2.0000      -6.090270      -165.7247
  60   2.0000      -6.028555      -164.0453
  61   2.0000      -6.024242      -163.9280
  62   2.0000      -6.024105      -163.9242
  63   2.0000      -6.023396      -163.9049
  64   2.0000      -6.022669      -163.8852
  65   2.0000      -6.019837      -163.8081
  66   2.0000      -6.019187      -163.7904
  67   2.0000      -6.017980      -163.7576
  68   2.0000      -6.016903      -163.7283
  69   2.0000      -5.990136      -162.9999
  70   2.0000      -5.985895      -162.8845
  71   2.0000      -5.985518      -162.8742
  72   2.0000      -5.981491      -162.7646
  73   2.0000      -5.979580      -162.7127
  74   2.0000      -5.975619      -162.6048
  75   2.0000      -1.193474       -32.4761
  76   2.0000      -1.149168       -31.2705
  77   2.0000      -1.146985       -31.2110
  78   2.0000      -1.139759       -31.0144
  79   2.0000      -1.107380       -30.1333
  80   2.0000      -1.001899       -27.2631
  81   2.0000      -0.999386       -27.1947
  82   2.0000      -0.988171       -26.8895
  83   2.0000      -0.981576       -26.7101
  84   2.0000      -0.941376       -25.6161
  85   2.0000      -0.939543       -25.5663
  86   2.0000      -0.937076       -25.4991
  87   2.0000      -0.931310       -25.3422
  88   2.0000      -0.926314       -25.2063
  89   2.0000      -0.915451       -24.9107
  90   2.0000      -0.895447       -24.3663
  91   2.0000      -0.879383       -23.9292
  92   2.0000      -0.875342       -23.8193
  93   2.0000      -0.869984       -23.6735
  94   2.0000      -0.862162       -23.4606
  95   2.0000      -0.852093       -23.1866
  96   2.0000      -0.832069       -22.6417
  97   2.0000      -0.829257       -22.5652
  98   2.0000      -0.825911       -22.4742
  99   2.0000      -0.817508       -22.2455
 100   2.0000      -0.811322       -22.0772
 101   2.0000      -0.794275       -21.6133
 102   2.0000      -0.789919       -21.4948
 103   2.0000      -0.786362       -21.3980
 104   2.0000      -0.766354       -20.8535
 105   2.0000      -0.756981       -20.5985
 106   2.0000      -0.739711       -20.1286
 107   2.0000      -0.732657       -19.9366
 108   2.0000      -0.727275       -19.7901
 109   2.0000      -0.722120       -19.6499
 110   2.0000      -0.714648       -19.4466
 111   2.0000      -0.695685       -18.9305
 112   2.0000      -0.691560       -18.8183
 113   2.0000      -0.680932       -18.5291
 114   2.0000      -0.670350       -18.2412
 115   2.0000      -0.668552       -18.1922
 116   2.0000      -0.661327       -17.9956
 117   2.0000      -0.652329       -17.7508
 118   2.0000      -0.648024       -17.6336
 119   2.0000      -0.640635       -17.4326
 120   2.0000      -0.631744       -17.1906
 121   2.0000      -0.623524       -16.9669
 122   2.0000      -0.619008       -16.8441
 123   2.0000      -0.613280       -16.6882
 124   2.0000      -0.609548       -16.5867
 125   2.0000      -0.599151       -16.3037
 126   2.0000      -0.592137       -16.1129
 127   2.0000      -0.591454       -16.0943
 128   2.0000      -0.568943       -15.4817
 129   2.0000      -0.567953       -15.4548
 130   2.0000      -0.564874       -15.3710
 131   2.0000      -0.559147       -15.2152
 132   2.0000      -0.558046       -15.1852
 133   2.0000      -0.556208       -15.1352
 134   2.0000      -0.550101       -14.9690
 135   2.0000      -0.542660       -14.7665
 136   2.0000      -0.539197       -14.6723
 137   2.0000      -0.530584       -14.4379
 138   2.0000      -0.520225       -14.1560
 139   2.0000      -0.517187       -14.0734
 140   2.0000      -0.514869       -14.0103
 141   2.0000      -0.512782       -13.9535
 142   2.0000      -0.511724       -13.9247
 143   2.0000      -0.511231       -13.9113
 144   2.0000      -0.504292       -13.7225
 145   2.0000      -0.503122       -13.6907
 146   2.0000      -0.500220       -13.6117
 147   2.0000      -0.498626       -13.5683
 148   2.0000      -0.496913       -13.5217
 149   2.0000      -0.492393       -13.3987
 150   2.0000      -0.490834       -13.3563
 151   2.0000      -0.487426       -13.2635
 152   2.0000      -0.484841       -13.1932
 153   2.0000      -0.480841       -13.0843
 154   2.0000      -0.479337       -13.0434
 155   2.0000      -0.474363       -12.9081
 156   2.0000      -0.469190       -12.7673
 157   2.0000      -0.462205       -12.5772
 158   2.0000      -0.460662       -12.5353
 159   2.0000      -0.458612       -12.4795
 160   2.0000      -0.447758       -12.1841
 161   2.0000      -0.442161       -12.0318
 162   2.0000      -0.440921       -11.9981
 163   2.0000      -0.435505       -11.8507
 164   2.0000      -0.433697       -11.8015
 165   2.0000      -0.432189       -11.7605
 166   2.0000      -0.430573       -11.7165
 167   2.0000      -0.428425       -11.6580
 168   2.0000      -0.425187       -11.5699
 169   2.0000      -0.423613       -11.5271
 170   2.0000      -0.415858       -11.3161
 171   2.0000      -0.413960       -11.2644
 172   2.0000      -0.412651       -11.2288
 173   2.0000      -0.406989       -11.0747
 174   2.0000      -0.406903       -11.0724
 175   2.0000      -0.403588       -10.9822
 176   2.0000      -0.400790       -10.9061
 177   2.0000      -0.398442       -10.8422
 178   2.0000      -0.395014       -10.7489
 179   2.0000      -0.380992       -10.3673
 180   2.0000      -0.373928       -10.1751
 181   2.0000      -0.372258       -10.1296
 182   2.0000      -0.369409       -10.0521
 183   2.0000      -0.362427        -9.8621
 184   2.0000      -0.360442        -9.8081
 185   2.0000      -0.349587        -9.5127
 186   2.0000      -0.341866        -9.3026
 187   2.0000      -0.329400        -8.9634
 188   2.0000      -0.313948        -8.5430
 189   2.0000      -0.312511        -8.5039
 190   2.0000      -0.296846        -8.0776
 191   2.0000      -0.289752        -7.8845
 192   2.0000      -0.282502        -7.6873
 193   2.0000      -0.277566        -7.5530
 194   2.0000      -0.270818        -7.3693
 195   2.0000      -0.266165        -7.2427
 196   2.0000      -0.237509        -6.4629
 197   2.0000      -0.218989        -5.9590
 198   0.0000      -0.092821        -2.5258
 199   0.0000      -0.051275        -1.3953
 200   0.0000      -0.032698        -0.8898
 201   0.0000      -0.013087        -0.3561
 202   0.0000       0.000415         0.0113

MULLIKEN ATOMIC CHARGES
-----------------------
   0 O :   -0.184709
   1 C :    0.163862
   2 C :   -0.131899
   3 C :    0.162807
   4 C :   -0.204294
   5 C :   -0.185769
   6 S :    0.169364
   7 C :   -0.165600
   8 C :    0.063107
   9 C :    0.135771
  10 C :   -0.029622
  11 C :    0.005260
  12 C :   -0.061154
  13 S :    0.161904
  14 C :   -0.165334
  15 C :    0.052507
  16 N :   -0.099176
  17 N :   -0.022032
  18 C :   -0.029876
  19 C :    0.107387
  20 C :   -0.088762
  21 C :    0.087858
  22 C :   -0.032482
  23 C :    0.028444
  24 C :    0.011581
  25 C :   -0.060178
  26 C :    0.190267
  27 O :   -0.183131
  28 C :    0.052086
  29 N :   -0.261727
  30 S :    0.523665
  31 N :   -0.284975
  32 C :   -0.012182
  33 C :    0.086746
  34 C :   -0.117423
  35 C :    0.196584
  36 O :   -0.201217
  37 C :   -0.093069
  38 S :    0.016852
  39 C :   -0.069704
  40 C :    0.117623
  41 C :   -0.053965
  42 C :    0.027548
  43 C :   -0.038024
  44 C :    0.135963
  45 S :    0.157261
  46 C :   -0.133266
  47 C :    0.087263
  48 C :   -0.046947
  49 C :   -0.082970
  50 S :    0.059297
  51 H :    0.186474
  52 H :   -0.031638
  53 H :    0.019522
  54 H :   -0.017162
  55 H :   -0.013997
  56 H :   -0.019002
  57 H :   -0.028423
  58 H :   -0.019393
  59 H :   -0.012715
  60 H :   -0.020163
  61 H :   -0.018515
  62 H :    0.193327
  63 H :    0.084110
  64 H :   -0.034132
  65 H :   -0.028620
  66 H :   -0.017869
  67 H :   -0.005245
  68 H :    0.012444
  69 H :   -0.037778
  70 H :    0.047250
Sum of atomic charges:   -0.0000000

LOEWDIN ATOMIC CHARGES
----------------------
   0 O :   -0.052906
   1 C :    0.036646
   2 C :   -0.085538
   3 C :   -0.042261
   4 C :   -0.219374
   5 C :   -0.201689
   6 S :    0.482944
   7 C :   -0.211419
   8 C :   -0.043104
   9 C :   -0.024228
  10 C :   -0.007278
  11 C :   -0.036284
  12 C :   -0.153110
  13 S :    0.497307
  14 C :   -0.203159
  15 C :   -0.021545
  16 N :   -0.069818
  17 N :   -0.037373
  18 C :   -0.045767
  19 C :    0.035877
  20 C :   -0.049124
  21 C :   -0.050072
  22 C :   -0.019921
  23 C :   -0.037300
  24 C :   -0.023302
  25 C :   -0.042781
  26 C :    0.050161
  27 O :    0.010664
  28 C :   -0.050002
  29 N :   -0.271837
  30 S :    0.648981
  31 N :   -0.282378
  32 C :   -0.063661
  33 C :   -0.015899
  34 C :   -0.068671
  35 C :    0.044034
  36 O :   -0.053881
  37 C :   -0.166060
  38 S :    0.217094
  39 C :   -0.039502
  40 C :   -0.052402
  41 C :   -0.016111
  42 C :   -0.034693
  43 C :   -0.013114
  44 C :   -0.053325
  45 S :    0.468822
  46 C :   -0.203520
  47 C :   -0.055602
  48 C :   -0.046057
  49 C :   -0.167881
  50 S :    0.241274
  51 H :    0.099444
  52 H :    0.029669
  53 H :    0.020150
  54 H :    0.020345
  55 H :    0.031061
  56 H :    0.029671
  57 H :    0.027891
  58 H :    0.026508
  59 H :    0.028295
  60 H :    0.034507
  61 H :    0.030370
  62 H :    0.103528
  63 H :   -0.016360
  64 H :    0.026721
  65 H :    0.025365
  66 H :    0.029132
  67 H :    0.033671
  68 H :    0.021988
  69 H :    0.026618
  70 H :   -0.030427

  Mayer bond orders larger than 0.100000
B(  0-O ,  1-C ) :   1.2393 B(  0-O , 51-H ) :   0.9580 B(  1-C ,  2-C ) :   1.5158
B(  1-C , 49-C ) :   1.1997 B(  2-C ,  3-C ) :   1.1602 B(  2-C , 52-H ) :   0.9852
B(  3-C ,  4-C ) :   1.4020 B(  3-C , 47-C ) :   1.1959 B(  4-C ,  5-C ) :   1.0969
B(  4-C , 45-S ) :   1.1732 B(  4-C , 46-C ) :   0.1220 B(  5-C ,  6-S ) :   1.2040
B(  5-C ,  7-C ) :   0.1209 B(  5-C , 44-C ) :   1.3770 B(  6-S ,  7-C ) :   1.1777
B(  7-C ,  8-C ) :   1.4754 B(  7-C , 53-H ) :   0.9546 B(  8-C ,  9-C ) :   1.1198
B(  8-C , 44-C ) :   1.1880 B(  9-C , 10-C ) :   1.1025 B(  9-C , 41-C ) :   1.4943
B( 10-C , 11-C ) :   1.6410 B( 10-C , 54-H ) :   0.9773 B( 11-C , 12-C ) :   1.1915
B( 11-C , 55-H ) :   0.9683 B( 12-C , 13-S ) :   1.1325 B( 12-C , 14-C ) :   0.1022
B( 12-C , 40-C ) :   1.2839 B( 13-S , 14-C ) :   1.1284 B( 14-C , 15-C ) :   1.2452
B( 14-C , 33-C ) :   1.3008 B( 15-C , 16-N ) :   1.5971 B( 15-C , 18-C ) :   0.1084
B( 15-C , 32-C ) :   1.0862 B( 16-N , 17-N ) :   1.2323 B( 17-N , 18-C ) :   1.6738
B( 18-C , 19-C ) :   1.0533 B( 18-C , 28-C ) :   1.1561 B( 19-C , 20-C ) :   1.5712
B( 19-C , 27-O ) :   1.1600 B( 20-C , 21-C ) :   1.1059 B( 20-C , 56-H ) :   0.9968
B( 21-C , 22-C ) :   1.2731 B( 21-C , 26-C ) :   1.2831 B( 22-C , 23-C ) :   1.4405
B( 22-C , 57-H ) :   1.0014 B( 23-C , 24-C ) :   1.3356 B( 23-C , 58-H ) :   0.9886
B( 24-C , 25-C ) :   1.4038 B( 24-C , 59-H ) :   0.9875 B( 25-C , 26-C ) :   1.3447
B( 25-C , 60-H ) :   1.0082 B( 26-C , 27-O ) :   1.1307 B( 28-C , 29-N ) :   1.5602
B( 28-C , 32-C ) :   1.2084 B( 29-N , 30-S ) :   1.2568 B( 29-N , 31-N ) :   0.1416
B( 30-S , 31-N ) :   1.2548 B( 31-N , 32-C ) :   1.5388 B( 33-C , 34-C ) :   1.2486
B( 33-C , 40-C ) :   1.2020 B( 34-C , 35-C ) :   1.4174 B( 34-C , 61-H ) :   0.9767
B( 35-C , 36-O ) :   1.1786 B( 35-C , 37-C ) :   1.2373 B( 36-O , 62-H ) :   0.9533
B( 37-C , 38-S ) :   1.0713 B( 37-C , 39-C ) :   1.5249 B( 38-S , 63-H ) :   0.9413
B( 39-C , 40-C ) :   1.2188 B( 39-C , 64-H ) :   0.9886 B( 41-C , 42-C ) :   1.2233
B( 41-C , 65-H ) :   0.9874 B( 42-C , 43-C ) :   1.5154 B( 42-C , 66-H ) :   0.9840
B( 43-C , 44-C ) :   1.2000 B( 43-C , 67-H ) :   0.9907 B( 45-S , 46-C ) :   1.1868
B( 46-C , 47-C ) :   1.4314 B( 46-C , 68-H ) :   0.9702 B( 47-C , 48-C ) :   1.1640
B( 48-C , 49-C ) :   1.5846 B( 48-C , 69-H ) :   0.9938 B( 49-C , 50-S ) :   1.0454
B( 50-S , 70-H ) :   0.9527

-----------------------------------------------------------------------------
         ABSORPTION SPECTRUM VIA TRANSITION ELECTRIC DIPOLE MOMENTS
-----------------------------------------------------------------------------
State   Energy  Wavelength   fosc         T2         TX        TY        TZ
        (cm-1)    (nm)                  (au**2)     (au)      (au)      (au)
-----------------------------------------------------------------------------
   0   12744.9    784.6   0.885994230  22.88608  -0.70388  -4.72340  -0.28300
   1   18350.4    544.9   0.126736225   2.27369   0.67843  -0.34431   1.30187
   2   18825.0    531.2   0.000435179   0.00761  -0.04690   0.00542  -0.07336
   3   21559.5    463.8   0.501486969   7.65767   0.46203  -2.37169   1.34881
   4   22707.6    440.4   0.081668764   1.18402  -0.39716  -0.64959  -0.77739
   5   24551.7    407.3   0.070490880   0.94521  -0.45841   0.53868  -0.66700
   6   25312.6    395.1   0.005470421   0.07115   0.00489   0.11192  -0.24207
   7   26151.2    382.4   0.144755581   1.82230   0.39081  -0.91833   0.90898
   8   26925.9    371.4   0.096624273   1.18139   0.13198  -0.98610   0.43769
   9   28721.3    348.2   0.036804703   0.42187  -0.07956  -0.63320  -0.12082
  10   29467.6    339.4   0.061257678   0.68437  -0.03506   0.77533  -0.28638
  11   29599.1    337.8   0.014797210   0.16458  -0.04078  -0.03163  -0.40239
  12   30603.2    326.8   0.110461667   1.18828  -0.01028  -1.07600   0.17434
  13   31638.3    316.1   0.008430042   0.08772  -0.11247  -0.04231   0.27070
  14   31973.8    312.8   0.186755228   1.92289   0.65680   0.10320   1.21690
  15   32691.0    305.9   0.317578191   3.19814   0.62377   1.37067   0.96453
  16   32939.1    303.6   0.094736808   0.94685   0.04563  -0.97160   0.02764
  17   33453.4    298.9   0.172797156   1.70048   0.50493  -0.84885   0.85146
  18   34030.7    293.9   0.124900728   1.20829  -0.12805   0.64765   0.87889
  19   34249.9    292.0   0.125247218   1.20388   0.26196   0.85489   0.63595
  20   35162.2    284.4   0.028027584   0.26241   0.21026   0.33732   0.32314
  21   35324.5    283.1   0.072712860   0.67766  -0.43197  -0.63587  -0.29450
  22   35634.0    280.6   0.003387406   0.03130  -0.05367   0.14154   0.09155
  23   35835.8    279.1   0.031250938   0.28709  -0.11125  -0.40162  -0.33677
  24   36248.9    275.9   0.013276462   0.12058  -0.03812  -0.21550   0.26960
  25   36417.9    274.6   0.002848659   0.02575   0.15802  -0.01894  -0.02054
  26   36833.3    271.5   0.050807945   0.45412  -0.16707   0.62520  -0.18795
  27   37789.7    264.6   0.115523076   1.00640   0.03493   0.52932   0.85147
  28   38572.5    259.3   0.065237219   0.55679  -0.38454   0.38881  -0.50769
  29   39294.7    254.5   0.074673770   0.62562  -0.27594  -0.47135  -0.57210
  30   39992.6    250.0   0.022006145   0.18115   0.28684   0.04190   0.31164

FINAL SINGLE POINT ENERGY     -4290.749000450457

DIPOLE MOMENT
-------------
                                X             Y             Z
Electronic contribution:      6.20297      -0.12611       8.41655
Nuclear contribution   :     -5.79827      -0.35739      -7.33920
                        -----------------------------------------
Total Dipole Moment    :      0.40470      -0.48350       1.07734
                        -----------------------------------------
Magnitude (a.u.)       :      1.24829
Magnitude (Debye)      :      3.17289

Rotational constants in cm-1:     0.002697     0.000456     0.000394
Rotational constants in MHz :    80.839885    13.669669    11.820915

                             ****ORCA TERMINATED NORMALLY****
TOTAL RUN TIME: 0 days 0 hours 5 minutes 10 seconds 487 msec
