                         Program Version 4.2.0 -  RELEASE  -
|  1> # ORCA input file
|  2> # SCF done       -151.182401816084          0.000224313818
|  3> ! CAM-B3LYP def2-SVP def2/J RIJCOSX Grid4 TightSCF
|  4> %maxcore 5000
|  5> %tddft
|  6>     Mode sTDDFT
|  7>     Ethresh 5.0
|  8>     maxcore 5000
|  9> end
| 10>
| 11> %pal
| 12>   nprocs 6
| 13>   end
| 14> * xyz 0 1
| 15>    C        3.18427         8.21121         1.71400
| 16>    S        4.89077         8.29275         1.52328
| 17>    C        4.96308         6.56637         1.27679
| 18>    C        3.72705         5.98432         1.35921
| 19>    C        2.70717         6.94482         1.61355
| 20>    C        1.26180         6.57739         1.76536
| 21>    C        0.90496         6.50502         3.25397
| 22>    C        0.99029         5.25757         1.03823
| 23>    C        1.99362         4.18067         1.43294
| 24>    C        3.43481         4.54540         1.04444
| 25>    C        3.68465         4.31687        -0.42245
| 26>    C        4.51440         3.40727        -0.89574
| 27>    N        6.20825         6.01149         1.02672
| 28>    C        6.70623         4.82789         1.46711
| 29>    S        7.95385         4.08763         0.50511
| 30>    C        7.95129         2.71090         1.56530
| 31>    N        8.84596         1.67771         1.30326
| 32>    O        8.83009         0.70930         2.04575
| 33>    O        9.58486         1.81522         0.33966
| 34>    C        7.04384         2.83016         2.58499
| 35>    C        6.33950         4.04723         2.56944
| 36>    C        5.40547         4.39513         3.62048
| 37>    C        5.15493         5.63336         4.07527
| 38>    C        4.16615         5.89758         5.08197
| 39>    C        3.83122         7.08987         5.59732
| 40>    C        4.48121         8.39647         5.28395
| 41>    C        2.72770         7.17253         6.62990
| 42>    N        3.24787         7.23502         7.97640
| 43>    C        3.58103         8.39777         8.57953
| 44>    C        4.21432         8.48696         9.77893
| 45>    C        4.54207         9.68772        10.44620
| 46>    C        4.59778        10.96264         9.94535
| 47>    C        4.89672        12.13088        10.69082
| 48>    C        4.97029        13.27633         9.95793
| 49>    C        4.75068        13.09036         8.57646
| 50>    S        4.40250        11.40464         8.24907
| 51>    C        4.80480        14.02377         7.56162
| 52>    C        4.99911        15.41816         7.65790
| 53>    C        5.02847        16.05602         6.45543
| 54>    C        4.87800        15.20984         5.32614
| 55>    S        4.65723        13.55403         5.88014
| 56>    C        4.91921        15.62127         4.02001
| 57>    C        4.85740        14.84947         2.83859
| 58>    C        4.92437        15.37112         1.54493
| 59>    C        4.87658        14.30155         0.61368
| 60>    C        4.92745        14.26706        -0.76010
| 61>    C        4.87731        13.00820        -1.38903
| 62>    C        4.92298        12.64435        -2.72404
| 63>    C        4.84621        11.21574        -2.82229
| 64>    C        4.75195        10.70321        -1.54381
| 65>    C        4.77088        11.78663        -0.61039
| 66>    C        4.72038        11.81700         0.75565
| 67>    C        4.77269        13.07691         1.38774
| 68>    C        4.75862        13.41962         2.72393
| 69>    C        4.86767        10.43105        -4.03228
| 70>    C        4.97436        10.91138        -5.26848
| 71>    H        2.63108         9.11515         1.87535
| 72>    H        0.64685         7.36301         1.31197
| 73>    H        1.55728         5.80940         3.77456
| 74>    H       -0.12697         6.18575         3.37974
| 75>    H        1.02531         7.48282         3.71359
| 76>    H        1.04242         5.42603        -0.03895
| 77>    H       -0.02074         4.91789         1.27100
| 78>    H        1.73212         3.23735         0.94950
| 79>    H        1.95005         4.02347         2.51168
| 80>    H        4.11051         3.89395         1.60559
| 81>    H        3.13673         4.96211        -1.09566
| 82>    H        5.07055         2.75197        -0.24477
| 83>    H        4.66942         3.26855        -1.95186
| 84>    H        6.78420         6.50760         0.35944
| 85>    H        6.92147         2.07139         3.33711
| 86>    H        4.91350         3.55091         4.08804
| 87>    H        5.70953         6.46993         3.68213
| 88>    H        3.61935         5.02388         5.42082
| 89>    H        4.82752         8.86976         6.20339
| 90>    H        3.75844         9.07226         4.82624
| 91>    H        5.32641         8.29051         4.61330
| 92>    H        2.07330         6.29858         6.55865
| 93>    H        2.12953         8.07173         6.46187
| 94>    H        3.68054         6.39274         8.32731
| 95>    H        3.21758         9.28408         8.08250
| 96>    H        4.46304         7.56813        10.29498
| 97>    H        4.81868         9.59126        11.48890
| 98>    H        5.05231        12.08311        11.75473
| 99>    H        5.19999        14.24363        10.36804
|100>    H        5.10634        15.91094         8.60794
|101>    H        5.16731        17.11667         6.33662
|102>    H        5.04015        16.68848         3.87295
|103>    H        5.00624        16.41249         1.29258
|104>    H        5.00946        15.17061        -1.34799
|105>    H        5.00470        13.31916        -3.55626
|106>    H        4.67761         9.66406        -1.27811
|107>    H        4.65693        10.91467         1.34776
|108>    H        4.69576        12.73014         3.54474
|109>    H        4.79083         9.36057        -3.88134
|110>    H        5.05514        11.96569        -5.46951
|111>    H        4.98598        10.26214        -6.12697
|112> *
|113>
|114>                          ****END OF INPUT****

CARTESIAN COORDINATES (ANGSTROEM)
---------------------------------
  C      3.184270    8.211210    1.714000
  S      4.890770    8.292750    1.523280
  C      4.963080    6.566370    1.276790
  C      3.727050    5.984320    1.359210
  C      2.707170    6.944820    1.613550
  C      1.261800    6.577390    1.765360
  C      0.904960    6.505020    3.253970
  C      0.990290    5.257570    1.038230
  C      1.993620    4.180670    1.432940
  C      3.434810    4.545400    1.044440
  C      3.684650    4.316870   -0.422450
  C      4.514400    3.407270   -0.895740
  N      6.208250    6.011490    1.026720
  C      6.706230    4.827890    1.467110
  S      7.953850    4.087630    0.505110
  C      7.951290    2.710900    1.565300
  N      8.845960    1.677710    1.303260
  O      8.830090    0.709300    2.045750
  O      9.584860    1.815220    0.339660
  C      7.043840    2.830160    2.584990
  C      6.339500    4.047230    2.569440
  C      5.405470    4.395130    3.620480
  C      5.154930    5.633360    4.075270
  C      4.166150    5.897580    5.081970
  C      3.831220    7.089870    5.597320
  C      4.481210    8.396470    5.283950
  C      2.727700    7.172530    6.629900
  N      3.247870    7.235020    7.976400
  C      3.581030    8.397770    8.579530
  C      4.214320    8.486960    9.778930
  C      4.542070    9.687720   10.446200
  C      4.597780   10.962640    9.945350
  C      4.896720   12.130880   10.690820
  C      4.970290   13.276330    9.957930
  C      4.750680   13.090360    8.576460
  S      4.402500   11.404640    8.249070
  C      4.804800   14.023770    7.561620
  C      4.999110   15.418160    7.657900
  C      5.028470   16.056020    6.455430
  C      4.878000   15.209840    5.326140
  S      4.657230   13.554030    5.880140
  C      4.919210   15.621270    4.020010
  C      4.857400   14.849470    2.838590
  C      4.924370   15.371120    1.544930
  C      4.876580   14.301550    0.613680
  C      4.927450   14.267060   -0.760100
  C      4.877310   13.008200   -1.389030
  C      4.922980   12.644350   -2.724040
  C      4.846210   11.215740   -2.822290
  C      4.751950   10.703210   -1.543810
  C      4.770880   11.786630   -0.610390
  C      4.720380   11.817000    0.755650
  C      4.772690   13.076910    1.387740
  C      4.758620   13.419620    2.723930
  C      4.867670   10.431050   -4.032280
  C      4.974360   10.911380   -5.268480
  H      2.631080    9.115150    1.875350
  H      0.646850    7.363010    1.311970
  H      1.557280    5.809400    3.774560
  H     -0.126970    6.185750    3.379740
  H      1.025310    7.482820    3.713590
  H      1.042420    5.426030   -0.038950
  H     -0.020740    4.917890    1.271000
  H      1.732120    3.237350    0.949500
  H      1.950050    4.023470    2.511680
  H      4.110510    3.893950    1.605590
  H      3.136730    4.962110   -1.095660
  H      5.070550    2.751970   -0.244770
  H      4.669420    3.268550   -1.951860
  H      6.784200    6.507600    0.359440
  H      6.921470    2.071390    3.337110
  H      4.913500    3.550910    4.088040
  H      5.709530    6.469930    3.682130
  H      3.619350    5.023880    5.420820
  H      4.827520    8.869760    6.203390
  H      3.758440    9.072260    4.826240
  H      5.326410    8.290510    4.613300
  H      2.073300    6.298580    6.558650
  H      2.129530    8.071730    6.461870
  H      3.680540    6.392740    8.327310
  H      3.217580    9.284080    8.082500
  H      4.463040    7.568130   10.294980
  H      4.818680    9.591260   11.488900
  H      5.052310   12.083110   11.754730
  H      5.199990   14.243630   10.368040
  H      5.106340   15.910940    8.607940
  H      5.167310   17.116670    6.336620
  H      5.040150   16.688480    3.872950
  H      5.006240   16.412490    1.292580
  H      5.009460   15.170610   -1.347990
  H      5.004700   13.319160   -3.556260
  H      4.677610    9.664060   -1.278110
  H      4.656930   10.914670    1.347760
  H      4.695760   12.730140    3.544740
  H      4.790830    9.360570   -3.881340
  H      5.055140   11.965690   -5.469510
  H      4.985980   10.262140   -6.126970

 Total Charge           Charge          ....    0
 Multiplicity           Mult            ....    1
 Number of Electrons    NEL             ....  424
 Basis Dimension        Dim             .... 1005

ORBITAL ENERGIES
----------------

  NO   OCC          E(Eh)            E(eV)
   0   2.0000     -88.972490     -2421.0645
   1   2.0000     -88.963625     -2420.8233
   2   2.0000     -88.931288     -2419.9434
   3   2.0000     -88.928250     -2419.8607
   4   2.0000     -19.225449      -523.1511
   5   2.0000     -19.224373      -523.1218
   6   2.0000     -14.637146      -398.2970
   7   2.0000     -14.474677      -393.8760
   8   2.0000     -14.435642      -392.8138
   9   2.0000     -10.361706      -281.9563
  10   2.0000     -10.338077      -281.3134
  11   2.0000     -10.330567      -281.1090
  12   2.0000     -10.312696      -280.6227
  13   2.0000     -10.311051      -280.5780
  14   2.0000     -10.300383      -280.2877
  15   2.0000     -10.294350      -280.1235
  16   2.0000     -10.291862      -280.0558
  17   2.0000     -10.291733      -280.0523
  18   2.0000     -10.290219      -280.0111
  19   2.0000     -10.290077      -280.0072
  20   2.0000     -10.289478      -279.9909
  21   2.0000     -10.288782      -279.9720
  22   2.0000     -10.283040      -279.8157
  23   2.0000     -10.280833      -279.7557
  24   2.0000     -10.280124      -279.7364
  25   2.0000     -10.278801      -279.7004
  26   2.0000     -10.278259      -279.6856
  27   2.0000     -10.278128      -279.6821
  28   2.0000     -10.278009      -279.6789
  29   2.0000     -10.277095      -279.6540
  30   2.0000     -10.274923      -279.5949
  31   2.0000     -10.274603      -279.5862
  32   2.0000     -10.271341      -279.4974
  33   2.0000     -10.270896      -279.4853
  34   2.0000     -10.270635      -279.4782
  35   2.0000     -10.270341      -279.4702
  36   2.0000     -10.269108      -279.4366
  37   2.0000     -10.266407      -279.3631
  38   2.0000     -10.266298      -279.3602
  39   2.0000     -10.266273      -279.3595
  40   2.0000     -10.265259      -279.3319
  41   2.0000     -10.265028      -279.3256
  42   2.0000     -10.264860      -279.3210
  43   2.0000     -10.263873      -279.2942
  44   2.0000     -10.262652      -279.2610
  45   2.0000     -10.261785      -279.2374
  46   2.0000     -10.261473      -279.2289
  47   2.0000     -10.260953      -279.2147
  48   2.0000     -10.260620      -279.2057
  49   2.0000     -10.259024      -279.1622
  50   2.0000     -10.258276      -279.1419
  51   2.0000     -10.258258      -279.1414
  52   2.0000     -10.257733      -279.1271
  53   2.0000     -10.257305      -279.1155
  54   2.0000     -10.253510      -279.0122
  55   2.0000     -10.251326      -278.9528
  56   2.0000      -8.068370      -219.5515
  57   2.0000      -8.058445      -219.2814
  58   2.0000      -8.026953      -218.4245
  59   2.0000      -8.024234      -218.3505
  60   2.0000      -6.038108      -164.3053
  61   2.0000      -6.033727      -164.1860
  62   2.0000      -6.029603      -164.0738
  63   2.0000      -6.027892      -164.0273
  64   2.0000      -6.023674      -163.9125
  65   2.0000      -6.020490      -163.8259
  66   2.0000      -5.996697      -163.1784
  67   2.0000      -5.994039      -163.1061
  68   2.0000      -5.992682      -163.0692
  69   2.0000      -5.990039      -162.9973
  70   2.0000      -5.987989      -162.9415
  71   2.0000      -5.985061      -162.8618
  72   2.0000      -1.304840       -35.5065
  73   2.0000      -1.123387       -30.5689
  74   2.0000      -1.080218       -29.3942
  75   2.0000      -1.036205       -28.1966
  76   2.0000      -0.999779       -27.2054
  77   2.0000      -0.979862       -26.6634
  78   2.0000      -0.977888       -26.6097
  79   2.0000      -0.976359       -26.5681
  80   2.0000      -0.956965       -26.0404
  81   2.0000      -0.950069       -25.8527
  82   2.0000      -0.926643       -25.2152
  83   2.0000      -0.921299       -25.0698
  84   2.0000      -0.899019       -24.4636
  85   2.0000      -0.892452       -24.2848
  86   2.0000      -0.891870       -24.2690
  87   2.0000      -0.882237       -24.0069
  88   2.0000      -0.870344       -23.6833
  89   2.0000      -0.859526       -23.3889
  90   2.0000      -0.856070       -23.2949
  91   2.0000      -0.845325       -23.0025
  92   2.0000      -0.839519       -22.8445
  93   2.0000      -0.830782       -22.6067
  94   2.0000      -0.829300       -22.5664
  95   2.0000      -0.827666       -22.5219
  96   2.0000      -0.815778       -22.1985
  97   2.0000      -0.805688       -21.9239
  98   2.0000      -0.803441       -21.8628
  99   2.0000      -0.791300       -21.5324
 100   2.0000      -0.788220       -21.4486
 101   2.0000      -0.781755       -21.2726
 102   2.0000      -0.767902       -20.8957
 103   2.0000      -0.763344       -20.7717
 104   2.0000      -0.751579       -20.4515
 105   2.0000      -0.743730       -20.2379
 106   2.0000      -0.735817       -20.0226
 107   2.0000      -0.720155       -19.5964
 108   2.0000      -0.708575       -19.2813
 109   2.0000      -0.705157       -19.1883
 110   2.0000      -0.696639       -18.9565
 111   2.0000      -0.694320       -18.8934
 112   2.0000      -0.676457       -18.4073
 113   2.0000      -0.672868       -18.3097
 114   2.0000      -0.662592       -18.0300
 115   2.0000      -0.659868       -17.9559
 116   2.0000      -0.653686       -17.7877
 117   2.0000      -0.638636       -17.3782
 118   2.0000      -0.634028       -17.2528
 119   2.0000      -0.632970       -17.2240
 120   2.0000      -0.628978       -17.1154
 121   2.0000      -0.620339       -16.8803
 122   2.0000      -0.618094       -16.8192
 123   2.0000      -0.616224       -16.7683
 124   2.0000      -0.615618       -16.7518
 125   2.0000      -0.610086       -16.6013
 126   2.0000      -0.607587       -16.5333
 127   2.0000      -0.606889       -16.5143
 128   2.0000      -0.600474       -16.3397
 129   2.0000      -0.590564       -16.0701
 130   2.0000      -0.582463       -15.8496
 131   2.0000      -0.581760       -15.8305
 132   2.0000      -0.575847       -15.6696
 133   2.0000      -0.572669       -15.5831
 134   2.0000      -0.568582       -15.4719
 135   2.0000      -0.567368       -15.4389
 136   2.0000      -0.557977       -15.1833
 137   2.0000      -0.555596       -15.1185
 138   2.0000      -0.546910       -14.8822
 139   2.0000      -0.544928       -14.8283
 140   2.0000      -0.540211       -14.6999
 141   2.0000      -0.534293       -14.5389
 142   2.0000      -0.529935       -14.4203
 143   2.0000      -0.527484       -14.3536
 144   2.0000      -0.519859       -14.1461
 145   2.0000      -0.518565       -14.1109
 146   2.0000      -0.515354       -14.0235
 147   2.0000      -0.513356       -13.9691
 148   2.0000      -0.509620       -13.8675
 149   2.0000      -0.507867       -13.8198
 150   2.0000      -0.503792       -13.7089
 151   2.0000      -0.498417       -13.5626
 152   2.0000      -0.493934       -13.4406
 153   2.0000      -0.491718       -13.3803
 154   2.0000      -0.490689       -13.3523
 155   2.0000      -0.487637       -13.2693
 156   2.0000      -0.486542       -13.2395
 157   2.0000      -0.483173       -13.1478
 158   2.0000      -0.482427       -13.1275
 159   2.0000      -0.479414       -13.0455
 160   2.0000      -0.478089       -13.0095
 161   2.0000      -0.474293       -12.9062
 162   2.0000      -0.472093       -12.8463
 163   2.0000      -0.465671       -12.6715
 164   2.0000      -0.465044       -12.6545
 165   2.0000      -0.462442       -12.5837
 166   2.0000      -0.460859       -12.5406
 167   2.0000      -0.456058       -12.4100
 168   2.0000      -0.455129       -12.3847
 169   2.0000      -0.453375       -12.3370
 170   2.0000      -0.451468       -12.2851
 171   2.0000      -0.447084       -12.1658
 172   2.0000      -0.442728       -12.0472
 173   2.0000      -0.441222       -12.0063
 174   2.0000      -0.439788       -11.9672
 175   2.0000      -0.437698       -11.9104
 176   2.0000      -0.436488       -11.8774
 177   2.0000      -0.435440       -11.8489
 178   2.0000      -0.427797       -11.6409
 179   2.0000      -0.425989       -11.5917
 180   2.0000      -0.420110       -11.4318
 181   2.0000      -0.415598       -11.3090
 182   2.0000      -0.413000       -11.2383
 183   2.0000      -0.410354       -11.1663
 184   2.0000      -0.408642       -11.1197
 185   2.0000      -0.406074       -11.0498
 186   2.0000      -0.404377       -11.0037
 187   2.0000      -0.399540       -10.8720
 188   2.0000      -0.394352       -10.7309
 189   2.0000      -0.390302       -10.6207
 190   2.0000      -0.388780       -10.5792
 191   2.0000      -0.387581       -10.5466
 192   2.0000      -0.379834       -10.3358
 193   2.0000      -0.374084       -10.1793
 194   2.0000      -0.368188       -10.0189
 195   2.0000      -0.366443        -9.9714
 196   2.0000      -0.359408        -9.7800
 197   2.0000      -0.353603        -9.6220
 198   2.0000      -0.347082        -9.4446
 199   2.0000      -0.338952        -9.2234
 200   2.0000      -0.333391        -9.0720
 201   2.0000      -0.323764        -8.8101
 202   2.0000      -0.322024        -8.7627
 203   2.0000      -0.313635        -8.5344
 204   2.0000      -0.309715        -8.4278
 205   2.0000      -0.303654        -8.2629
 206   2.0000      -0.280059        -7.6208
 207   2.0000      -0.268390        -7.3033
 208   2.0000      -0.261346        -7.1116
 209   2.0000      -0.259237        -7.0542
 210   2.0000      -0.236446        -6.4340
 211   2.0000      -0.186102        -5.0641
 212   0.0000      -0.088302        -2.4028
 213   0.0000      -0.051941        -1.4134
 214   0.0000      -0.046044        -1.2529
 215   0.0000      -0.014536        -0.3955
 216   0.0000       0.001099         0.0299

MULLIKEN ATOMIC CHARGES
-----------------------
   0 C :   -0.148586
   1 S :    0.067804
   2 C :   -0.212746
   3 C :    0.092776
   4 C :   -0.000981
   5 C :   -0.027176
   6 C :    0.076270
   7 C :    0.057501
   8 C :    0.075755
   9 C :    0.040274
  10 C :   -0.028197
  11 C :   -0.016513
  12 N :   -0.005606
  13 C :   -0.126708
  14 S :    0.156267
  15 C :   -0.010602
  16 N :    0.279689
  17 O :   -0.261999
  18 O :   -0.273376
  19 C :   -0.014444
  20 C :    0.115217
  21 C :   -0.092112
  22 C :    0.086275
  23 C :   -0.005483
  24 C :   -0.181079
  25 C :    0.102141
  26 C :    0.192352
  27 N :   -0.147740
  28 C :    0.050269
  29 C :   -0.044685
  30 C :    0.012655
  31 C :   -0.049467
  32 C :    0.039507
  33 C :    0.012339
  34 C :   -0.037501
  35 S :    0.029568
  36 C :   -0.040613
  37 C :    0.029457
  38 C :    0.022670
  39 C :   -0.017884
  40 S :    0.021656
  41 C :   -0.026726
  42 C :    0.073411
  43 C :   -0.052435
  44 C :    0.073306
  45 C :   -0.008641
  46 C :    0.050079
  47 C :   -0.028397
  48 C :    0.068882
  49 C :   -0.039748
  50 C :    0.074000
  51 C :    0.004905
  52 C :    0.040247
  53 C :   -0.032081
  54 C :    0.007000
  55 C :   -0.028650
  56 H :    0.012643
  57 H :   -0.005590
  58 H :    0.008780
  59 H :    0.007831
  60 H :    0.002539
  61 H :    0.002016
  62 H :   -0.003438
  63 H :    0.003849
  64 H :   -0.003847
  65 H :   -0.003211
  66 H :   -0.003079
  67 H :    0.017468
  68 H :    0.020996
  69 H :    0.142959
  70 H :    0.004832
  71 H :   -0.013110
  72 H :   -0.005403
  73 H :   -0.033970
  74 H :    0.031789
  75 H :    0.015721
  76 H :    0.013024
  77 H :    0.009436
  78 H :    0.013154
  79 H :    0.115992
  80 H :    0.022080
  81 H :   -0.031393
  82 H :   -0.017536
  83 H :   -0.019585
  84 H :   -0.023113
  85 H :   -0.020324
  86 H :   -0.020173
  87 H :   -0.030997
  88 H :   -0.034332
  89 H :   -0.029869
  90 H :   -0.027039
  91 H :   -0.040283
  92 H :   -0.060292
  93 H :   -0.012526
  94 H :   -0.022845
  95 H :    0.006549
  96 H :    0.018197
Sum of atomic charges:   -0.0000000

LOEWDIN ATOMIC CHARGES
----------------------
   0 C :   -0.195716
   1 S :    0.421061
   2 C :   -0.146222
   3 C :   -0.059667
   4 C :   -0.043673
   5 C :   -0.025528
   6 C :   -0.043325
   7 C :   -0.024748
   8 C :   -0.018653
   9 C :   -0.025967
  10 C :   -0.014568
  11 C :   -0.058081
  12 N :    0.007743
  13 C :   -0.095656
  14 S :    0.442031
  15 C :   -0.220234
  16 N :    0.274599
  17 O :   -0.227697
  18 O :   -0.239364
  19 C :    0.003001
  20 C :   -0.114926
  21 C :   -0.040026
  22 C :   -0.014331
  23 C :   -0.052088
  24 C :   -0.033490
  25 C :   -0.050887
  26 C :    0.044904
  27 N :    0.005407
  28 C :    0.039565
  29 C :   -0.133905
  30 C :   -0.035529
  31 C :   -0.178044
  32 C :   -0.026653
  33 C :   -0.058450
  34 C :   -0.174781
  35 S :    0.354581
  36 C :   -0.195024
  37 C :   -0.036912
  38 C :   -0.043288
  39 C :   -0.148552
  40 S :    0.355054
  41 C :   -0.064839
  42 C :   -0.056562
  43 C :   -0.003855
  44 C :   -0.054333
  45 C :    0.060494
  46 C :   -0.060395
  47 C :    0.038781
  48 C :   -0.060524
  49 C :    0.003646
  50 C :   -0.057034
  51 C :    0.058580
  52 C :   -0.062715
  53 C :    0.029541
  54 C :   -0.021334
  55 C :   -0.059057
  56 H :    0.020809
  57 H :    0.029697
  58 H :    0.019949
  59 H :    0.022029
  60 H :    0.022032
  61 H :    0.021834
  62 H :    0.023757
  63 H :    0.027648
  64 H :    0.019767
  65 H :    0.035741
  66 H :    0.021428
  67 H :    0.019679
  68 H :    0.024294
  69 H :    0.088441
  70 H :    0.044250
  71 H :    0.025708
  72 H :    0.022083
  73 H :    0.019658
  74 H :    0.034830
  75 H :    0.032267
  76 H :    0.024248
  77 H :    0.025357
  78 H :    0.029473
  79 H :    0.078076
  80 H :    0.012063
  81 H :    0.021507
  82 H :    0.033064
  83 H :    0.030444
  84 H :    0.027946
  85 H :    0.029580
  86 H :    0.029754
  87 H :    0.031921
  88 H :    0.021090
  89 H :    0.032647
  90 H :    0.023463
  91 H :    0.014881
  92 H :    0.016985
  93 H :    0.011206
  94 H :    0.027611
  95 H :    0.017207
  96 H :    0.023222

  Mayer bond orders larger than 0.100000
B(  0-C ,  1-S ) :   1.1098 B(  0-C ,  4-C ) :   1.6012 B(  0-C , 56-H ) :   0.9682
B(  1-S ,  2-C ) :   1.1461 B(  2-C ,  3-C ) :   1.4960 B(  2-C , 12-N ) :   1.0786
B(  3-C ,  4-C ) :   1.2828 B(  3-C ,  9-C ) :   0.9945 B(  4-C ,  5-C ) :   0.9841
B(  5-C ,  6-C ) :   1.0718 B(  5-C ,  7-C ) :   1.0590 B(  5-C , 57-H ) :   0.9079
B(  6-C , 58-H ) :   0.9579 B(  6-C , 59-H ) :   0.9609 B(  6-C , 60-H ) :   0.9615
B(  7-C ,  8-C ) :   1.0666 B(  7-C , 61-H ) :   0.9445 B(  7-C , 62-H ) :   0.9325
B(  8-C ,  9-C ) :   1.0581 B(  8-C , 63-H ) :   0.9283 B(  8-C , 64-H ) :   0.9392
B(  9-C , 10-C ) :   1.0063 B(  9-C , 65-H ) :   0.8808 B( 10-C , 11-C ) :   2.0173
B( 10-C , 66-H ) :   0.9637 B( 11-C , 67-H ) :   0.9528 B( 11-C , 68-H ) :   0.9518
B( 12-N , 13-C ) :   1.2056 B( 12-N , 69-H ) :   0.8999 B( 13-C , 14-S ) :   1.1341
B( 13-C , 20-C ) :   1.3779 B( 14-S , 15-C ) :   1.0705 B( 15-C , 16-N ) :   0.9852
B( 15-C , 19-C ) :   1.4680 B( 16-N , 17-O ) :   1.5254 B( 16-N , 18-O ) :   1.5039
B( 17-O , 18-O ) :   0.2520 B( 19-C , 20-C ) :   1.2272 B( 19-C , 70-H ) :   1.0115
B( 20-C , 21-C ) :   1.0230 B( 21-C , 22-C ) :   1.7565 B( 21-C , 71-H ) :   0.9677
B( 22-C , 23-C ) :   1.1140 B( 22-C , 72-H ) :   0.9523 B( 23-C , 24-C ) :   1.7687
B( 23-C , 73-H ) :   0.9666 B( 24-C , 25-C ) :   1.0819 B( 24-C , 26-C ) :   1.0302
B( 25-C , 74-H ) :   0.9368 B( 25-C , 75-H ) :   0.9410 B( 25-C , 76-H ) :   0.9472
B( 26-C , 27-N ) :   1.0204 B( 26-C , 77-H ) :   0.9444 B( 26-C , 78-H ) :   0.9286
B( 27-N , 28-C ) :   1.2359 B( 27-N , 79-H ) :   0.9400 B( 28-C , 29-C ) :   1.5729
B( 28-C , 80-H ) :   0.9443 B( 29-C , 30-C ) :   1.2098 B( 29-C , 81-H ) :   0.9611
B( 30-C , 31-C ) :   1.5930 B( 30-C , 82-H ) :   0.9592 B( 31-C , 32-C ) :   1.1554
B( 31-C , 35-S ) :   1.0051 B( 32-C , 33-C ) :   1.5865 B( 32-C , 83-H ) :   0.9962
B( 33-C , 34-C ) :   1.1878 B( 33-C , 84-H ) :   0.9929 B( 34-C , 35-S ) :   1.0414
B( 34-C , 36-C ) :   1.5132 B( 36-C , 37-C ) :   1.1897 B( 36-C , 40-S ) :   1.0232
B( 37-C , 38-C ) :   1.5883 B( 37-C , 85-H ) :   0.9936 B( 38-C , 39-C ) :   1.1399
B( 38-C , 86-H ) :   0.9989 B( 39-C , 40-S ) :   1.0214 B( 39-C , 41-C ) :   1.5802
B( 41-C , 42-C ) :   1.1291 B( 41-C , 87-H ) :   0.9692 B( 42-C , 43-C ) :   1.4507
B( 42-C , 53-C ) :   1.1247 B( 43-C , 44-C ) :   1.0985 B( 43-C , 88-H ) :   1.0208
B( 44-C , 45-C ) :   1.4497 B( 44-C , 52-C ) :   1.1184 B( 45-C , 46-C ) :   1.1257
B( 45-C , 89-H ) :   1.0054 B( 46-C , 47-C ) :   1.4518 B( 46-C , 50-C ) :   1.1254
B( 47-C , 48-C ) :   1.1357 B( 47-C , 90-H ) :   1.0078 B( 48-C , 49-C ) :   1.5125
B( 48-C , 54-C ) :   1.0844 B( 49-C , 50-C ) :   1.0808 B( 49-C , 91-H ) :   1.0151
B( 50-C , 51-C ) :   1.4580 B( 51-C , 52-C ) :   1.1361 B( 51-C , 92-H ) :   0.9998
B( 52-C , 53-C ) :   1.4648 B( 53-C , 93-H ) :   0.9888 B( 54-C , 55-C ) :   1.9313
B( 54-C , 94-H ) :   0.9663 B( 55-C , 95-H ) :   0.9526 B( 55-C , 96-H ) :   0.9497

-----------------------------------------------------------------------------
         ABSORPTION SPECTRUM VIA TRANSITION ELECTRIC DIPOLE MOMENTS
-----------------------------------------------------------------------------
State   Energy  Wavelength   fosc         T2         TX        TY        TZ
        (cm-1)    (nm)                  (au**2)     (au)      (au)      (au)
-----------------------------------------------------------------------------
   0    5240.1   1908.4   0.015853964   0.99603   0.04990   0.40561  -0.91051
   1   13970.1    715.8   0.086283550   2.03331   0.10294   0.85346  -1.13768
   2   15470.5    646.4   1.051326766  22.37226  -0.38276  -2.64386   3.90330
   3   21025.1    475.6   0.007198252   0.11271   0.03469  -0.10935   0.31551
   4   22287.3    448.7   0.117260601   1.73209   0.02720  -0.69931  -1.11459
   5   23873.7    418.9   0.013166086   0.18156  -0.07490   0.41796   0.03547
   6   24319.7    411.2   0.063789619   0.86351   0.13620   0.03095  -0.91870
   7   25033.2    399.5   0.083613413   1.09960  -0.05620  -0.07031   1.04475
   8   25205.6    396.7   0.308804696   4.03332  -0.01957   1.25894   1.56462
   9   27888.0    358.6   1.438595044  16.98234  -0.06127  -2.97485  -2.85112
  10   28364.4    352.6   0.414060085   4.80580   1.47005  -1.46980   0.69600
  11   28718.7    348.2   0.193143929   2.21407  -0.09342  -0.89932  -1.18177
  12   30181.1    331.3   0.014730502   0.16068   0.03079   0.17334   0.36012
  13   30476.1    328.1   0.019084135   0.20615   0.09492  -0.14297  -0.42036
  14   30681.4    325.9   0.020958048   0.22488   0.20759   0.11961   0.40924
  15   31303.5    319.5   0.057467658   0.60437  -0.58317   0.50314  -0.10555
  16   31671.6    315.7   0.313437414   3.25804   0.00999   0.34558   1.77159
  17   32316.9    309.4   0.036404863   0.37086   0.34535  -0.49429   0.08526
  18   32656.5    306.2   0.048348328   0.48740  -0.13421  -0.65130  -0.21259
  19   32928.9    303.7   0.014575907   0.14573  -0.32914  -0.11548  -0.15510
  20   33184.9    301.3   0.123472896   1.22492   0.67977  -0.37262  -0.78993
  21   33438.2    299.1   0.006772170   0.06667   0.16804  -0.19487  -0.02154
  22   33769.4    296.1   0.004468277   0.04356  -0.11559   0.11162   0.13320
  23   34501.8    289.8   0.131670890   1.25639  -0.52309   0.34970   0.92762
  24   34743.0    287.8   0.002193511   0.02078  -0.07323   0.11824  -0.03797
  25   35691.1    280.2   0.027559742   0.25421   0.02533   0.23432   0.44571
  26   35878.3    278.7   0.002802515   0.02572  -0.00294   0.10336   0.12257
  27   36360.0    275.0   0.000551939   0.00500   0.07032  -0.00713  -0.00142
  28   36808.0    271.7   0.002680725   0.02398   0.00705   0.08076   0.13193
  29   37217.0    268.7   0.063023284   0.55749  -0.28364   0.32655   0.60861
  30   37660.7    265.5   0.081449160   0.71199   0.13256   0.23219   0.80032
  31   37734.8    265.0   0.122018717   1.06454  -0.13726   0.52671   0.87651
  32   38045.2    262.8   0.020549470   0.17782   0.14500  -0.30388  -0.25388
  33   38260.5    261.4   0.012345853   0.10623   0.01345  -0.18809   0.26584
  34   38591.5    259.1   0.049258659   0.42021   0.10707  -0.33380  -0.54528
  35   38798.3    257.7   0.022153813   0.18798  -0.04010  -0.12144  -0.41427
  36   39237.5    254.9   0.038949167   0.32679  -0.14282  -0.02630   0.55291
  37   39333.2    254.2   0.007956003   0.06659  -0.04723   0.09065  -0.23694
  38   40291.9    248.2   0.007322812   0.05983   0.11123   0.09022   0.19829

FINAL SINGLE POINT ENERGY     -3719.650806182350

DIPOLE MOMENT
-------------
                                X             Y             Z
Electronic contribution:     35.43585      12.13144       2.63476
Nuclear contribution   :    -37.53630     -11.22682      -1.91799
                        -----------------------------------------
Total Dipole Moment    :     -2.10045       0.90461       0.71677
                        -----------------------------------------
Magnitude (a.u.)       :      2.39666
Magnitude (Debye)      :      6.09182

Rotational constants in cm-1:     0.001430     0.000883     0.000639
Rotational constants in MHz :    42.874381    26.457575    19.164789

                             ****ORCA TERMINATED NORMALLY****
TOTAL RUN TIME: 0 days 0 hours 12 minutes 8 seconds 415 msec
