                         Program Version 4.2.0 -  RELEASE  -
|  1> # ORCA input file
|  2> # SCF done       -180.763447886322          0.000949234788
|  3> ! CAM-B3LYP def2-SVP def2/J RIJCOSX Grid4 TightSCF
|  4> %maxcore 5000
|  5> %tddft
|  6>     Mode sTDDFT
|  7>     Ethresh 5.0
|  8>     maxcore 5000
|  9> end
| 10>
| 11> %pal
| 12>   nprocs 6
| 13>   end
| 14> * xyz 0 1
| 15>    C        6.93069         0.81128        -2.14100
| 16>    S        5.82867         1.49659        -1.02313
| 17>    C        6.07961         3.08918        -1.68934
| 18>    C        6.98570         3.04878        -2.72407
| 19>    C        7.47898         1.73869        -2.97259
| 20>    C        8.53650         1.40550        -3.98764
| 21>    C        9.82741         0.98869        -3.27191
| 22>    C        8.78041         2.59170        -4.92494
| 23>    C        8.82212         3.90602        -4.15415
| 24>    C        7.44920         4.22053        -3.53876
| 25>    C        6.46907         4.53752        -4.64203
| 26>    C        6.39640         5.71493        -5.23589
| 27>    C        5.40181         4.20752        -1.06416
| 28>    C        5.06581         5.36620        -1.77510
| 29>    C        4.50660         6.42968        -1.10616
| 30>    C        4.27468         6.36207         0.27498
| 31>    C        4.51948         5.18963         0.97067
| 32>    C        5.08078         4.12511         0.29675
| 33>    C        3.77472         7.64190         0.72012
| 34>    C        3.68279         8.50429        -0.38705
| 35>    C        4.08633         7.77908        -1.65437
| 36>    C        2.87844         7.63160        -2.60077
| 37>    C        1.68891         6.93651        -1.94931
| 38>    C        5.28646         8.39277        -2.40402
| 39>    C        5.18048         9.86502        -2.77846
| 40>    C        3.21611         9.78519        -0.21188
| 41>    C        2.87426        10.24238         1.07175
| 42>    C        2.97943         9.36713         2.15918
| 43>    C        3.41915         8.07150         1.98954
| 44>    C        2.46435        11.61794         1.22565
| 45>    C        1.99390        12.19294         2.34472
| 46>    N        1.73037        13.53690         2.40663
| 47>    C        1.27202        14.22912         3.46897
| 48>    S        0.52136        13.43097         4.81423
| 49>    C        0.13796        14.98304         5.50408
| 50>    N       -0.51939        14.99556         6.72707
| 51>    O       -0.79812        16.07915         7.21772
| 52>    O       -0.77561        13.90819         7.22870
| 53>    C        0.56720        16.03610         4.73780
| 54>    C        1.25021        15.63292         3.57749
| 55>    C        1.87502        16.54779         2.66467
| 56>    C        2.92607        16.24708         1.85834
| 57>    C        3.52650        17.11795         0.92903
| 58>    C        4.53232        16.71407         0.08903
| 59>    C        5.21348        17.48406        -0.88392
| 60>    C        6.14793        16.79368        -1.59434
| 61>    C        6.26543        15.43345        -1.23151
| 62>    S        5.14163        15.05903         0.05904
| 63>    C        7.11140        14.48684        -1.77376
| 64>    C        8.02638        14.67572        -2.83496
| 65>    C        8.72258        13.55679        -3.16701
| 66>    C        8.41170        12.41166        -2.38842
| 67>    S        7.17761        12.83006        -1.20654
| 68>    C        8.98240        11.17980        -2.56090
| 69>    C        8.77935         9.97857        -1.84691
| 70>    C        8.03307         9.71067        -0.69900
| 71>    C        8.15318         8.32632        -0.39444
| 72>    C        7.61847         7.55218         0.61125
| 73>    C        7.92842         6.18057         0.61853
| 74>    C        7.57540         5.16218         1.48942
| 75>    C        8.15420         3.93176         1.03349
| 76>    C        8.86907         4.19654        -0.11547
| 77>    C        8.76823         5.59379        -0.41069
| 78>    C        9.31491         6.35867        -1.40213
| 79>    C        9.01161         7.73820        -1.40899
| 80>    C        9.38879         8.74553        -2.26926
| 81>    C        8.01445         2.63079         1.64059
| 82>    C        7.32337         2.36282         2.74546
| 83>    H        7.11228        -0.24558        -2.11884
| 84>    H        8.19646         0.54746        -4.58038
| 85>    H       10.21323         1.80100        -2.66105
| 86>    H       10.58929         0.71148        -3.99731
| 87>    H        9.64274         0.13651        -2.62321
| 88>    H        7.98328         2.64300        -5.66923
| 89>    H        9.72172         2.44150        -5.45787
| 90>    H        9.10648         4.72130        -4.82241
| 91>    H        9.56715         3.84277        -3.35937
| 92>    H        7.54940         5.10101        -2.89266
| 93>    H        5.82273         3.72681        -4.95246
| 94>    H        7.02772         6.53751        -4.93770
| 95>    H        5.70548         5.91004        -6.03870
| 96>    H        5.21996         5.40794        -2.84037
| 97>    H        4.28729         5.11074         2.02230
| 98>    H        5.29200         3.20842         0.82730
| 99>    H        3.19465         7.05938        -3.47593
|100>    H        2.57117         8.62297        -2.93760
|101>    H        1.96314         5.93861        -1.61492
|102>    H        0.87233         6.84799        -2.66233
|103>    H        1.33542         7.50104        -1.08957
|104>    H        5.43200         7.80529        -3.31371
|105>    H        6.17315         8.25950        -1.78367
|106>    H        4.27612        10.07039        -3.34576
|107>    H        6.03494        10.13886        -3.39463
|108>    H        5.19861        10.49272        -1.89230
|109>    H        3.09628        10.45574        -1.04890
|110>    H        2.72134         9.70959         3.14881
|111>    H        3.48886         7.40262         2.83450
|112>    H        2.58274        12.24088         0.34676
|113>    H        1.81542        11.65559         3.26286
|114>    H        1.92813        14.07712         1.57132
|115>    H        0.41733        17.05943         5.03109
|116>    H        1.49009        17.55863         2.67301
|117>    H        3.40013        15.27658         1.93356
|118>    H        3.17238        18.13610         0.85066
|119>    H        4.99071        18.52707        -1.02434
|120>    H        6.75670        17.22755        -2.36731
|121>    H        8.14054        15.62623        -3.32405
|122>    H        9.45936        13.51141        -3.95009
|123>    H        9.69337        11.11601        -3.37731
|124>    H        7.46224        10.41785        -0.12780
|125>    H        6.97368         7.97516         1.36851
|126>    H        6.98823         5.27926         2.38069
|127>    H        9.41719         3.47814        -0.69709
|128>    H        9.96726         5.94451        -2.15817
|129>    H       10.02440         8.64518        -3.13153
|130>    H        8.52171         1.82843         1.11880
|131>    H        6.80201         3.12759         3.29563
|132>    H        7.25545         1.36354         3.13895
|133> *
|134>
|135>                          ****END OF INPUT****

CARTESIAN COORDINATES (ANGSTROEM)
---------------------------------
  C      6.930690    0.811280   -2.141000
  S      5.828670    1.496590   -1.023130
  C      6.079610    3.089180   -1.689340
  C      6.985700    3.048780   -2.724070
  C      7.478980    1.738690   -2.972590
  C      8.536500    1.405500   -3.987640
  C      9.827410    0.988690   -3.271910
  C      8.780410    2.591700   -4.924940
  C      8.822120    3.906020   -4.154150
  C      7.449200    4.220530   -3.538760
  C      6.469070    4.537520   -4.642030
  C      6.396400    5.714930   -5.235890
  C      5.401810    4.207520   -1.064160
  C      5.065810    5.366200   -1.775100
  C      4.506600    6.429680   -1.106160
  C      4.274680    6.362070    0.274980
  C      4.519480    5.189630    0.970670
  C      5.080780    4.125110    0.296750
  C      3.774720    7.641900    0.720120
  C      3.682790    8.504290   -0.387050
  C      4.086330    7.779080   -1.654370
  C      2.878440    7.631600   -2.600770
  C      1.688910    6.936510   -1.949310
  C      5.286460    8.392770   -2.404020
  C      5.180480    9.865020   -2.778460
  C      3.216110    9.785190   -0.211880
  C      2.874260   10.242380    1.071750
  C      2.979430    9.367130    2.159180
  C      3.419150    8.071500    1.989540
  C      2.464350   11.617940    1.225650
  C      1.993900   12.192940    2.344720
  N      1.730370   13.536900    2.406630
  C      1.272020   14.229120    3.468970
  S      0.521360   13.430970    4.814230
  C      0.137960   14.983040    5.504080
  N     -0.519390   14.995560    6.727070
  O     -0.798120   16.079150    7.217720
  O     -0.775610   13.908190    7.228700
  C      0.567200   16.036100    4.737800
  C      1.250210   15.632920    3.577490
  C      1.875020   16.547790    2.664670
  C      2.926070   16.247080    1.858340
  C      3.526500   17.117950    0.929030
  C      4.532320   16.714070    0.089030
  C      5.213480   17.484060   -0.883920
  C      6.147930   16.793680   -1.594340
  C      6.265430   15.433450   -1.231510
  S      5.141630   15.059030    0.059040
  C      7.111400   14.486840   -1.773760
  C      8.026380   14.675720   -2.834960
  C      8.722580   13.556790   -3.167010
  C      8.411700   12.411660   -2.388420
  S      7.177610   12.830060   -1.206540
  C      8.982400   11.179800   -2.560900
  C      8.779350    9.978570   -1.846910
  C      8.033070    9.710670   -0.699000
  C      8.153180    8.326320   -0.394440
  C      7.618470    7.552180    0.611250
  C      7.928420    6.180570    0.618530
  C      7.575400    5.162180    1.489420
  C      8.154200    3.931760    1.033490
  C      8.869070    4.196540   -0.115470
  C      8.768230    5.593790   -0.410690
  C      9.314910    6.358670   -1.402130
  C      9.011610    7.738200   -1.408990
  C      9.388790    8.745530   -2.269260
  C      8.014450    2.630790    1.640590
  C      7.323370    2.362820    2.745460
  H      7.112280   -0.245580   -2.118840
  H      8.196460    0.547460   -4.580380
  H     10.213230    1.801000   -2.661050
  H     10.589290    0.711480   -3.997310
  H      9.642740    0.136510   -2.623210
  H      7.983280    2.643000   -5.669230
  H      9.721720    2.441500   -5.457870
  H      9.106480    4.721300   -4.822410
  H      9.567150    3.842770   -3.359370
  H      7.549400    5.101010   -2.892660
  H      5.822730    3.726810   -4.952460
  H      7.027720    6.537510   -4.937700
  H      5.705480    5.910040   -6.038700
  H      5.219960    5.407940   -2.840370
  H      4.287290    5.110740    2.022300
  H      5.292000    3.208420    0.827300
  H      3.194650    7.059380   -3.475930
  H      2.571170    8.622970   -2.937600
  H      1.963140    5.938610   -1.614920
  H      0.872330    6.847990   -2.662330
  H      1.335420    7.501040   -1.089570
  H      5.432000    7.805290   -3.313710
  H      6.173150    8.259500   -1.783670
  H      4.276120   10.070390   -3.345760
  H      6.034940   10.138860   -3.394630
  H      5.198610   10.492720   -1.892300
  H      3.096280   10.455740   -1.048900
  H      2.721340    9.709590    3.148810
  H      3.488860    7.402620    2.834500
  H      2.582740   12.240880    0.346760
  H      1.815420   11.655590    3.262860
  H      1.928130   14.077120    1.571320
  H      0.417330   17.059430    5.031090
  H      1.490090   17.558630    2.673010
  H      3.400130   15.276580    1.933560
  H      3.172380   18.136100    0.850660
  H      4.990710   18.527070   -1.024340
  H      6.756700   17.227550   -2.367310
  H      8.140540   15.626230   -3.324050
  H      9.459360   13.511410   -3.950090
  H      9.693370   11.116010   -3.377310
  H      7.462240   10.417850   -0.127800
  H      6.973680    7.975160    1.368510
  H      6.988230    5.279260    2.380690
  H      9.417190    3.478140   -0.697090
  H      9.967260    5.944510   -2.158170
  H     10.024400    8.645180   -3.131530
  H      8.521710    1.828430    1.118800
  H      6.802010    3.127590    3.295630
  H      7.255450    1.363540    3.138950

 Total Charge           Charge          ....    0
 Multiplicity           Mult            ....    1
 Number of Electrons    NEL             ....  504
 Basis Dimension        Dim             .... 1218

ORBITAL ENERGIES
----------------

  NO   OCC          E(Eh)            E(eV)
   0   2.0000     -88.971388     -2421.0345
   1   2.0000     -88.943884     -2420.2861
   2   2.0000     -88.942273     -2420.2423
   3   2.0000     -88.939861     -2420.1767
   4   2.0000     -19.218688      -522.9671
   5   2.0000     -19.217925      -522.9463
   6   2.0000     -14.630473      -398.1154
   7   2.0000     -14.469716      -393.7410
   8   2.0000     -10.358494      -281.8690
   9   2.0000     -10.324996      -280.9574
  10   2.0000     -10.319584      -280.8102
  11   2.0000     -10.308277      -280.5025
  12   2.0000     -10.305790      -280.4348
  13   2.0000     -10.304675      -280.4045
  14   2.0000     -10.299842      -280.2729
  15   2.0000     -10.296577      -280.1841
  16   2.0000     -10.293633      -280.1040
  17   2.0000     -10.293529      -280.1012
  18   2.0000     -10.285865      -279.8926
  19   2.0000     -10.285709      -279.8884
  20   2.0000     -10.284671      -279.8601
  21   2.0000     -10.284130      -279.8454
  22   2.0000     -10.284082      -279.8441
  23   2.0000     -10.281774      -279.7813
  24   2.0000     -10.280853      -279.7562
  25   2.0000     -10.280706      -279.7522
  26   2.0000     -10.277833      -279.6741
  27   2.0000     -10.277598      -279.6677
  28   2.0000     -10.276074      -279.6262
  29   2.0000     -10.275529      -279.6113
  30   2.0000     -10.275235      -279.6034
  31   2.0000     -10.274733      -279.5897
  32   2.0000     -10.273738      -279.5626
  33   2.0000     -10.270944      -279.4866
  34   2.0000     -10.270842      -279.4838
  35   2.0000     -10.270215      -279.4667
  36   2.0000     -10.269746      -279.4540
  37   2.0000     -10.269333      -279.4428
  38   2.0000     -10.267431      -279.3910
  39   2.0000     -10.266811      -279.3741
  40   2.0000     -10.266643      -279.3696
  41   2.0000     -10.266003      -279.3521
  42   2.0000     -10.265936      -279.3503
  43   2.0000     -10.264539      -279.3123
  44   2.0000     -10.264476      -279.3106
  45   2.0000     -10.263608      -279.2870
  46   2.0000     -10.262619      -279.2601
  47   2.0000     -10.262537      -279.2578
  48   2.0000     -10.262364      -279.2531
  49   2.0000     -10.262330      -279.2522
  50   2.0000     -10.262099      -279.2459
  51   2.0000     -10.261670      -279.2342
  52   2.0000     -10.261515      -279.2300
  53   2.0000     -10.260799      -279.2105
  54   2.0000     -10.260553      -279.2038
  55   2.0000     -10.260078      -279.1909
  56   2.0000     -10.259789      -279.1831
  57   2.0000     -10.259668      -279.1798
  58   2.0000     -10.258415      -279.1457
  59   2.0000     -10.257916      -279.1321
  60   2.0000     -10.257897      -279.1316
  61   2.0000     -10.256760      -279.1006
  62   2.0000     -10.255135      -279.0564
  63   2.0000     -10.254929      -279.0508
  64   2.0000     -10.254719      -279.0451
  65   2.0000     -10.246738      -278.8279
  66   2.0000     -10.238808      -278.6121
  67   2.0000     -10.238319      -278.5988
  68   2.0000      -8.066834      -219.5097
  69   2.0000      -8.039250      -218.7591
  70   2.0000      -8.038373      -218.7353
  71   2.0000      -8.035302      -218.6517
  72   2.0000      -6.036531      -164.2623
  73   2.0000      -6.032160      -164.1434
  74   2.0000      -6.028206      -164.0358
  75   2.0000      -6.009017      -163.5137
  76   2.0000      -6.008128      -163.4895
  77   2.0000      -6.004984      -163.4039
  78   2.0000      -6.004564      -163.3925
  79   2.0000      -6.004183      -163.3821
  80   2.0000      -6.000269      -163.2756
  81   2.0000      -6.000257      -163.2753
  82   2.0000      -5.999238      -163.2476
  83   2.0000      -5.997701      -163.2057
  84   2.0000      -1.297275       -35.3007
  85   2.0000      -1.115847       -30.3637
  86   2.0000      -1.078921       -29.3589
  87   2.0000      -0.991099       -26.9692
  88   2.0000      -0.989542       -26.9268
  89   2.0000      -0.983763       -26.7695
  90   2.0000      -0.980244       -26.6738
  91   2.0000      -0.974560       -26.5191
  92   2.0000      -0.969387       -26.3784
  93   2.0000      -0.955899       -26.0113
  94   2.0000      -0.937835       -25.5198
  95   2.0000      -0.919973       -25.0337
  96   2.0000      -0.915513       -24.9124
  97   2.0000      -0.907499       -24.6943
  98   2.0000      -0.897318       -24.4173
  99   2.0000      -0.889842       -24.2138
 100   2.0000      -0.885010       -24.0823
 101   2.0000      -0.877995       -23.8914
 102   2.0000      -0.869248       -23.6534
 103   2.0000      -0.859494       -23.3880
 104   2.0000      -0.858670       -23.3656
 105   2.0000      -0.849420       -23.1139
 106   2.0000      -0.846502       -23.0345
 107   2.0000      -0.837675       -22.7943
 108   2.0000      -0.829169       -22.5628
 109   2.0000      -0.826537       -22.4912
 110   2.0000      -0.825062       -22.4511
 111   2.0000      -0.824756       -22.4428
 112   2.0000      -0.823969       -22.4213
 113   2.0000      -0.817981       -22.2584
 114   2.0000      -0.813846       -22.1459
 115   2.0000      -0.808404       -21.9978
 116   2.0000      -0.794258       -21.6129
 117   2.0000      -0.790106       -21.4999
 118   2.0000      -0.775758       -21.1094
 119   2.0000      -0.762952       -20.7610
 120   2.0000      -0.755223       -20.5507
 121   2.0000      -0.754495       -20.5308
 122   2.0000      -0.747273       -20.3343
 123   2.0000      -0.740934       -20.1618
 124   2.0000      -0.729412       -19.8483
 125   2.0000      -0.717323       -19.5194
 126   2.0000      -0.713022       -19.4023
 127   2.0000      -0.702537       -19.1170
 128   2.0000      -0.700967       -19.0743
 129   2.0000      -0.692920       -18.8553
 130   2.0000      -0.681756       -18.5515
 131   2.0000      -0.680087       -18.5061
 132   2.0000      -0.673075       -18.3153
 133   2.0000      -0.670776       -18.2527
 134   2.0000      -0.665131       -18.0991
 135   2.0000      -0.663378       -18.0514
 136   2.0000      -0.654435       -17.8081
 137   2.0000      -0.652052       -17.7432
 138   2.0000      -0.647087       -17.6081
 139   2.0000      -0.633778       -17.2460
 140   2.0000      -0.632941       -17.2232
 141   2.0000      -0.630470       -17.1560
 142   2.0000      -0.625433       -17.0189
 143   2.0000      -0.620912       -16.8959
 144   2.0000      -0.619241       -16.8504
 145   2.0000      -0.616386       -16.7727
 146   2.0000      -0.611583       -16.6420
 147   2.0000      -0.610414       -16.6102
 148   2.0000      -0.608024       -16.5452
 149   2.0000      -0.597277       -16.2527
 150   2.0000      -0.594199       -16.1690
 151   2.0000      -0.592265       -16.1163
 152   2.0000      -0.586624       -15.9628
 153   2.0000      -0.583985       -15.8910
 154   2.0000      -0.580434       -15.7944
 155   2.0000      -0.573862       -15.6156
 156   2.0000      -0.572094       -15.5675
 157   2.0000      -0.569511       -15.4972
 158   2.0000      -0.555421       -15.1138
 159   2.0000      -0.552216       -15.0266
 160   2.0000      -0.548660       -14.9298
 161   2.0000      -0.547112       -14.8877
 162   2.0000      -0.546544       -14.8722
 163   2.0000      -0.538424       -14.6513
 164   2.0000      -0.531152       -14.4534
 165   2.0000      -0.529928       -14.4201
 166   2.0000      -0.528648       -14.3853
 167   2.0000      -0.527751       -14.3608
 168   2.0000      -0.524635       -14.2761
 169   2.0000      -0.520813       -14.1721
 170   2.0000      -0.518116       -14.0987
 171   2.0000      -0.515413       -14.0251
 172   2.0000      -0.513618       -13.9763
 173   2.0000      -0.511041       -13.9061
 174   2.0000      -0.508894       -13.8477
 175   2.0000      -0.507703       -13.8153
 176   2.0000      -0.506111       -13.7720
 177   2.0000      -0.503767       -13.7082
 178   2.0000      -0.499567       -13.5939
 179   2.0000      -0.495534       -13.4842
 180   2.0000      -0.494829       -13.4650
 181   2.0000      -0.493419       -13.4266
 182   2.0000      -0.491980       -13.3874
 183   2.0000      -0.488378       -13.2894
 184   2.0000      -0.487849       -13.2750
 185   2.0000      -0.485299       -13.2057
 186   2.0000      -0.479504       -13.0480
 187   2.0000      -0.478297       -13.0151
 188   2.0000      -0.474634       -12.9154
 189   2.0000      -0.472072       -12.8457
 190   2.0000      -0.470144       -12.7933
 191   2.0000      -0.468549       -12.7499
 192   2.0000      -0.467126       -12.7112
 193   2.0000      -0.466572       -12.6961
 194   2.0000      -0.463433       -12.6107
 195   2.0000      -0.462169       -12.5763
 196   2.0000      -0.458922       -12.4879
 197   2.0000      -0.456604       -12.4248
 198   2.0000      -0.453710       -12.3461
 199   2.0000      -0.452525       -12.3138
 200   2.0000      -0.451342       -12.2817
 201   2.0000      -0.447235       -12.1699
 202   2.0000      -0.446021       -12.1368
 203   2.0000      -0.444179       -12.0867
 204   2.0000      -0.441556       -12.0153
 205   2.0000      -0.439003       -11.9459
 206   2.0000      -0.434706       -11.8290
 207   2.0000      -0.433810       -11.8046
 208   2.0000      -0.433198       -11.7879
 209   2.0000      -0.432238       -11.7618
 210   2.0000      -0.427544       -11.6341
 211   2.0000      -0.425500       -11.5785
 212   2.0000      -0.419772       -11.4226
 213   2.0000      -0.419021       -11.4022
 214   2.0000      -0.417536       -11.3617
 215   2.0000      -0.416015       -11.3203
 216   2.0000      -0.413787       -11.2597
 217   2.0000      -0.411538       -11.1985
 218   2.0000      -0.410071       -11.1586
 219   2.0000      -0.403795       -10.9878
 220   2.0000      -0.400773       -10.9056
 221   2.0000      -0.397947       -10.8287
 222   2.0000      -0.392745       -10.6871
 223   2.0000      -0.390703       -10.6316
 224   2.0000      -0.389291       -10.5932
 225   2.0000      -0.386560       -10.5188
 226   2.0000      -0.384022       -10.4498
 227   2.0000      -0.380839       -10.3632
 228   2.0000      -0.376928       -10.2567
 229   2.0000      -0.370653       -10.0860
 230   2.0000      -0.368959       -10.0399
 231   2.0000      -0.368461       -10.0263
 232   2.0000      -0.368027       -10.0145
 233   2.0000      -0.359531        -9.7833
 234   2.0000      -0.357004        -9.7146
 235   2.0000      -0.347435        -9.4542
 236   2.0000      -0.343555        -9.3486
 237   2.0000      -0.336263        -9.1502
 238   2.0000      -0.335230        -9.1221
 239   2.0000      -0.327287        -8.9059
 240   2.0000      -0.321771        -8.7558
 241   2.0000      -0.320468        -8.7204
 242   2.0000      -0.314626        -8.5614
 243   2.0000      -0.307603        -8.3703
 244   2.0000      -0.298998        -8.1362
 245   2.0000      -0.297778        -8.1030
 246   2.0000      -0.286371        -7.7926
 247   2.0000      -0.264955        -7.2098
 248   2.0000      -0.258333        -7.0296
 249   2.0000      -0.247328        -6.7301
 250   2.0000      -0.232540        -6.3277
 251   2.0000      -0.201229        -5.4757
 252   0.0000      -0.092413        -2.5147
 253   0.0000      -0.068068        -1.8522
 254   0.0000      -0.045096        -1.2271
 255   0.0000      -0.018862        -0.5133
 256   0.0000      -0.013138        -0.3575

MULLIKEN ATOMIC CHARGES
-----------------------
   0 C :   -0.146117
   1 S :    0.106979
   2 C :   -0.159443
   3 C :    0.020029
   4 C :   -0.016348
   5 C :   -0.017213
   6 C :    0.066274
   7 C :    0.065431
   8 C :    0.078295
   9 C :   -0.024336
  10 C :   -0.029804
  11 C :   -0.002391
  12 C :    0.111780
  13 C :   -0.083889
  14 C :    0.022701
  15 C :    0.102404
  16 C :   -0.089172
  17 C :    0.009019
  18 C :    0.095582
  19 C :    0.034677
  20 C :   -0.123975
  21 C :    0.066241
  22 C :    0.020538
  23 C :    0.065566
  24 C :    0.038558
  25 C :   -0.124251
  26 C :    0.126700
  27 C :   -0.021400
  28 C :   -0.058446
  29 C :   -0.025719
  30 C :    0.067353
  31 N :   -0.031056
  32 C :   -0.112203
  33 S :    0.148191
  34 C :   -0.013294
  35 N :    0.279862
  36 O :   -0.266097
  37 O :   -0.280433
  38 C :    0.010709
  39 C :    0.107592
  40 C :   -0.019349
  41 C :   -0.044055
  42 C :   -0.013792
  43 C :   -0.019074
  44 C :    0.031277
  45 C :    0.029135
  46 C :   -0.054860
  47 S :    0.045191
  48 C :   -0.037823
  49 C :    0.021019
  50 C :    0.034199
  51 C :   -0.017292
  52 S :    0.075604
  53 C :   -0.028094
  54 C :    0.073706
  55 C :   -0.056399
  56 C :    0.034045
  57 C :    0.007214
  58 C :    0.046151
  59 C :    0.024021
  60 C :    0.034859
  61 C :    0.006156
  62 C :    0.056167
  63 C :   -0.010295
  64 C :    0.070111
  65 C :   -0.059161
  66 C :    0.018561
  67 C :   -0.024850
  68 H :    0.005662
  69 H :   -0.003395
  70 H :    0.003644
  71 H :    0.006004
  72 H :    0.005365
  73 H :   -0.000259
  74 H :   -0.009267
  75 H :   -0.007999
  76 H :   -0.002149
  77 H :    0.021611
  78 H :    0.010419
  79 H :    0.020024
  80 H :    0.019742
  81 H :   -0.070355
  82 H :   -0.042570
  83 H :   -0.016571
  84 H :   -0.001723
  85 H :    0.000719
  86 H :    0.022783
  87 H :    0.006431
  88 H :    0.021142
  89 H :   -0.012282
  90 H :    0.018762
  91 H :   -0.006701
  92 H :    0.011663
  93 H :    0.014073
  94 H :   -0.040444
  95 H :   -0.039962
  96 H :   -0.040357
  97 H :   -0.022458
  98 H :    0.020995
  99 H :    0.135441
 100 H :    0.005118
 101 H :   -0.011047
 102 H :    0.010156
 103 H :   -0.018568
 104 H :   -0.014512
 105 H :   -0.014613
 106 H :   -0.018104
 107 H :   -0.014076
 108 H :   -0.025174
 109 H :   -0.015767
 110 H :   -0.023459
 111 H :   -0.026698
 112 H :   -0.042330
 113 H :   -0.031683
 114 H :   -0.031811
 115 H :   -0.020786
 116 H :    0.005406
 117 H :    0.018695
Sum of atomic charges:   -0.0000000

LOEWDIN ATOMIC CHARGES
----------------------
   0 C :   -0.200775
   1 S :    0.445518
   2 C :   -0.161377
   3 C :   -0.055072
   4 C :   -0.061454
   5 C :   -0.027169
   6 C :   -0.043313
   7 C :   -0.024542
   8 C :   -0.016524
   9 C :   -0.032675
  10 C :   -0.010832
  11 C :   -0.058593
  12 C :   -0.033141
  13 C :   -0.019119
  14 C :    0.009059
  15 C :   -0.024820
  16 C :   -0.024598
  17 C :   -0.020226
  18 C :   -0.022778
  19 C :    0.004816
  20 C :   -0.031510
  21 C :   -0.011912
  22 C :   -0.057985
  23 C :   -0.015940
  24 C :   -0.059518
  25 C :   -0.023842
  26 C :   -0.023024
  27 C :   -0.023293
  28 C :   -0.023338
  29 C :   -0.063453
  30 C :    0.018266
  31 N :    0.045916
  32 C :   -0.093729
  33 S :    0.445837
  34 C :   -0.221355
  35 N :    0.274494
  36 O :   -0.231815
  37 O :   -0.246592
  38 C :    0.005163
  39 C :   -0.112628
  40 C :   -0.022123
  41 C :   -0.057028
  42 C :   -0.065540
  43 C :   -0.140782
  44 C :   -0.041406
  45 C :   -0.029219
  46 C :   -0.186699
  47 S :    0.350891
  48 C :   -0.173537
  49 C :   -0.045983
  50 C :   -0.026426
  51 C :   -0.155098
  52 S :    0.382386
  53 C :   -0.044694
  54 C :   -0.067311
  55 C :   -0.006202
  56 C :   -0.061473
  57 C :    0.075187
  58 C :   -0.063611
  59 C :    0.067493
  60 C :   -0.059895
  61 C :    0.022731
  62 C :   -0.053705
  63 C :    0.057559
  64 C :   -0.063705
  65 C :    0.022518
  66 C :   -0.017638
  67 C :   -0.063013
  68 H :    0.017511
  69 H :    0.029239
  70 H :    0.018336
  71 H :    0.020966
  72 H :    0.022040
  73 H :    0.022553
  74 H :    0.021589
  75 H :    0.022178
  76 H :    0.012823
  77 H :    0.036442
  78 H :    0.025419
  79 H :    0.020355
  80 H :    0.023880
  81 H :    0.028174
  82 H :    0.022175
  83 H :    0.018869
  84 H :    0.020646
  85 H :    0.018362
  86 H :    0.025745
  87 H :    0.022945
  88 H :    0.025019
  89 H :    0.019653
  90 H :    0.030077
  91 H :    0.015004
  92 H :    0.026955
  93 H :    0.014187
  94 H :    0.024413
  95 H :    0.022357
  96 H :    0.025059
  97 H :    0.026262
  98 H :    0.021890
  99 H :    0.091968
 100 H :    0.044512
 101 H :    0.031302
 102 H :    0.015666
 103 H :    0.031214
 104 H :    0.032781
 105 H :    0.031382
 106 H :    0.030046
 107 H :    0.032523
 108 H :    0.033032
 109 H :    0.014836
 110 H :    0.036781
 111 H :    0.023242
 112 H :    0.022161
 113 H :    0.031642
 114 H :    0.021797
 115 H :    0.028533
 116 H :    0.015801
 117 H :    0.023853

  Mayer bond orders larger than 0.100000
B(  0-C ,  1-S ) :   1.1526 B(  0-C ,  4-C ) :   1.5666 B(  0-C , 68-H ) :   0.9700
B(  1-S ,  2-C ) :   1.1497 B(  2-C ,  3-C ) :   1.5463 B(  2-C , 12-C ) :   1.0314
B(  3-C ,  4-C ) :   1.3067 B(  3-C ,  9-C ) :   0.9803 B(  4-C ,  5-C ) :   0.9756
B(  5-C ,  6-C ) :   1.0750 B(  5-C ,  7-C ) :   1.0627 B(  5-C , 69-H ) :   0.9059
B(  6-C , 70-H ) :   0.9619 B(  6-C , 71-H ) :   0.9615 B(  6-C , 72-H ) :   0.9640
B(  7-C ,  8-C ) :   1.0632 B(  7-C , 73-H ) :   0.9372 B(  7-C , 74-H ) :   0.9326
B(  8-C ,  9-C ) :   1.0621 B(  8-C , 75-H ) :   0.9259 B(  8-C , 76-H ) :   0.9406
B(  9-C , 10-C ) :   1.0077 B(  9-C , 77-H ) :   0.8892 B( 10-C , 11-C ) :   1.9865
B( 10-C , 78-H ) :   0.9645 B( 11-C , 79-H ) :   0.9382 B( 11-C , 80-H ) :   0.9534
B( 12-C , 13-C ) :   1.3197 B( 12-C , 17-C ) :   1.3526 B( 13-C , 14-C ) :   1.3911
B( 13-C , 81-H ) :   0.9990 B( 14-C , 15-C ) :   1.3699 B( 14-C , 20-C ) :   0.9216
B( 15-C , 16-C ) :   1.3399 B( 15-C , 18-C ) :   0.9911 B( 16-C , 17-C ) :   1.3612
B( 16-C , 82-H ) :   0.9949 B( 17-C , 83-H ) :   0.9726 B( 18-C , 19-C ) :   1.3824
B( 18-C , 28-C ) :   1.3254 B( 19-C , 20-C ) :   0.9151 B( 19-C , 25-C ) :   1.3817
B( 20-C , 21-C ) :   1.0236 B( 20-C , 23-C ) :   1.0337 B( 21-C , 22-C ) :   1.1029
B( 21-C , 84-H ) :   0.9403 B( 21-C , 85-H ) :   0.9398 B( 22-C , 86-H ) :   0.9645
B( 22-C , 87-H ) :   0.9634 B( 22-C , 88-H ) :   0.9644 B( 23-C , 24-C ) :   1.1198
B( 23-C , 89-H ) :   0.9220 B( 23-C , 90-H ) :   0.9418 B( 24-C , 91-H ) :   0.9570
B( 24-C , 92-H ) :   0.9570 B( 24-C , 93-H ) :   0.9528 B( 25-C , 26-C ) :   1.2872
B( 25-C , 94-H ) :   1.0072 B( 26-C , 27-C ) :   1.3490 B( 26-C , 29-C ) :   1.0911
B( 27-C , 28-C ) :   1.3921 B( 27-C , 95-H ) :   0.9840 B( 28-C , 96-H ) :   0.9935
B( 29-C , 30-C ) :   1.6958 B( 29-C , 97-H ) :   0.9743 B( 30-C , 31-N ) :   1.0979
B( 30-C , 98-H ) :   0.9560 B( 31-N , 32-C ) :   1.2503 B( 31-N , 99-H ) :   0.9069
B( 32-C , 33-S ) :   1.1369 B( 32-C , 39-C ) :   1.3265 B( 33-S , 34-C ) :   1.0571
B( 34-C , 35-N ) :   0.9955 B( 34-C , 38-C ) :   1.4668 B( 35-N , 36-O ) :   1.5198
B( 35-N , 37-O ) :   1.4953 B( 36-O , 37-O ) :   0.2472 B( 38-C , 39-C ) :   1.2359
B( 38-C ,100-H ) :   1.0082 B( 39-C , 40-C ) :   1.0824 B( 40-C , 41-C ) :   1.6448
B( 40-C ,101-H ) :   0.9750 B( 41-C , 42-C ) :   1.1510 B( 41-C ,102-H ) :   0.9607
B( 42-C , 43-C ) :   1.5738 B( 42-C ,103-H ) :   0.9870 B( 43-C , 44-C ) :   1.1423
B( 43-C , 47-S ) :   1.0237 B( 44-C , 45-C ) :   1.5889 B( 44-C ,104-H ) :   0.9987
B( 45-C , 46-C ) :   1.1889 B( 45-C ,105-H ) :   0.9935 B( 46-C , 47-S ) :   1.0327
B( 46-C , 48-C ) :   1.5176 B( 48-C , 49-C ) :   1.1811 B( 48-C , 52-S ) :   1.0469
B( 49-C , 50-C ) :   1.5902 B( 49-C ,106-H ) :   0.9928 B( 50-C , 51-C ) :   1.1370
B( 50-C ,107-H ) :   1.0000 B( 51-C , 52-S ) :   1.0260 B( 51-C , 53-C ) :   1.5837
B( 53-C , 54-C ) :   1.1252 B( 53-C ,108-H ) :   0.9660 B( 54-C , 55-C ) :   1.4324
B( 54-C , 65-C ) :   1.1257 B( 55-C , 56-C ) :   1.1298 B( 55-C ,109-H ) :   1.0069
B( 56-C , 57-C ) :   1.4066 B( 56-C , 64-C ) :   1.1355 B( 57-C , 58-C ) :   1.1472
B( 57-C ,110-H ) :   1.0063 B( 58-C , 59-C ) :   1.4284 B( 58-C , 62-C ) :   1.1355
B( 59-C , 60-C ) :   1.1340 B( 59-C ,111-H ) :   0.9956 B( 60-C , 61-C ) :   1.5126
B( 60-C , 66-C ) :   1.0954 B( 61-C , 62-C ) :   1.0723 B( 61-C ,112-H ) :   1.0163
B( 62-C , 63-C ) :   1.4534 B( 63-C , 64-C ) :   1.1201 B( 63-C ,113-H ) :   1.0009
B( 64-C , 65-C ) :   1.4341 B( 65-C ,114-H ) :   1.0184 B( 66-C , 67-C ) :   1.9157
B( 66-C ,115-H ) :   0.9630 B( 67-C ,116-H ) :   0.9509 B( 67-C ,117-H ) :   0.9484

-----------------------------------------------------------------------------
         ABSORPTION SPECTRUM VIA TRANSITION ELECTRIC DIPOLE MOMENTS
-----------------------------------------------------------------------------
State   Energy  Wavelength   fosc         T2         TX        TY        TZ
        (cm-1)    (nm)                  (au**2)     (au)      (au)      (au)
-----------------------------------------------------------------------------
   0    7656.8   1306.0   0.049983437   2.14908  -0.58449   1.34342   0.05185
   1   14078.0    710.3   0.423482322   9.90305  -2.28424   1.98437   0.86460
   2   14798.2    675.8   0.384223610   8.54773  -1.30089   2.47314   0.85963
   3   16345.6    611.8   0.028633868   0.57671  -0.61913  -0.37258   0.23361
   4   20376.6    490.8   0.087179559   1.40851  -0.33149   0.78664   0.82451
   5   20858.6    479.4   0.319467247   5.04216  -1.24368   1.56716   1.01953
   6   21889.6    456.8   0.620776876   9.33627  -0.07143  -3.01497   0.49105
   7   23400.8    427.3   0.117191530   1.64870  -0.04137  -1.28093  -0.07875
   8   24916.4    401.3   0.218612448   2.88845   0.29374  -1.65011   0.28164
   9   25830.4    387.1   0.807111231  10.28675   1.72303  -1.03959  -2.49743
  10   26330.4    379.8   0.611377836   7.64413   0.53132   2.60471  -0.75981
  11   26551.9    376.6   0.198921738   2.46639   0.49011   1.41371  -0.47709
  12   27209.2    367.5   0.559498658   6.76954  -1.70060   0.33939   1.93967
  13   27333.0    365.9   0.057753995   0.69562  -0.40667   0.71265   0.14957
  14   28001.6    357.1   0.077890465   0.91575   0.03207  -0.71558   0.63456
  15   28912.9    345.9   0.031821339   0.36233   0.38001  -0.17108   0.43434
  16   29806.3    335.5   0.108843135   1.20218   0.40553   0.39024  -0.94098
  17   30834.7    324.3   0.024131853   0.25765   0.17309  -0.45060   0.15701
  18   31512.9    317.3   0.151481391   1.58251   0.80635  -0.14836  -0.95410
  19   31829.1    314.2   0.077658541   0.80323   0.24412  -0.78517  -0.35658
  20   32263.1    310.0   0.112077652   1.14364  -0.49836   0.52677   0.78599
  21   32442.2    308.2   0.337539460   3.42523  -0.37855   1.80974  -0.08222
  22   32966.2    303.3   0.000874169   0.00873  -0.03341   0.08660   0.01066
  23   33352.7    299.8   0.177460898   1.75165   0.42847   0.93887  -0.82861
  24   33427.4    299.2   0.064396148   0.63421   0.22294   0.49910  -0.57914
  25   33517.1    298.4   0.005186813   0.05095  -0.00953   0.22535  -0.00858
  26   33936.5    294.7   0.016202628   0.15718   0.14297  -0.33966  -0.14618
  27   34133.0    293.0   0.175569578   1.69336   0.32713  -1.24969   0.15689
  28   34500.7    289.8   0.034342449   0.32770   0.02599   0.49748  -0.28203
  29   34919.3    286.4   0.030035187   0.28317   0.27709  -0.03004  -0.45330
  30   35055.5    285.3   0.037438373   0.35159   0.08496   0.24752  -0.53208
  31   35192.2    284.2   0.019439494   0.18185   0.22396  -0.36041   0.04242
  32   35430.1    282.2   0.040293026   0.37440   0.06358  -0.60480  -0.06761
  33   35661.5    280.4   0.073721966   0.68057   0.45084  -0.20965  -0.65830
  34   35848.9    278.9   0.165281920   1.51784  -0.14342   1.19159  -0.27818
  35   36738.8    272.2   0.051661634   0.46293   0.29076   0.38234  -0.48188
  36   37229.6    268.6   0.087975679   0.77795  -0.47542   0.72366   0.16804
  37   37330.2    267.9   0.003425698   0.03021  -0.11249  -0.11245   0.07009
  38   37434.7    267.1   0.017560064   0.15443  -0.15670   0.36034   0.00534
  39   37728.2    265.1   0.094396448   0.82369   0.09973   0.81775  -0.38083
  40   38387.1    260.5   0.046735689   0.40081   0.28620   0.25786  -0.50240
  41   38465.6    260.0   0.002923289   0.02502   0.07046   0.08443  -0.11370
  42   38766.3    258.0   0.046210550   0.39243  -0.36466  -0.13532   0.49106
  43   38937.8    256.8   0.003802307   0.03215  -0.04287  -0.08906  -0.14960
  44   39228.6    254.9   0.001887048   0.01584   0.03925   0.00670  -0.11938
  45   39629.2    252.3   0.011787295   0.09792  -0.24195   0.06508   0.18748
  46   39641.4    252.3   0.010970730   0.09111   0.03207  -0.14780  -0.26122
  47   39710.2    251.8   0.029642990   0.24575  -0.21323  -0.21357   0.39328
  48   40132.6    249.2   0.019516413   0.16010   0.11974  -0.32167  -0.20563

FINAL SINGLE POINT ENERGY     -4165.177245061303

DIPOLE MOMENT
-------------
                                X             Y             Z
Electronic contribution:    -28.00330      62.73847      55.98754
Nuclear contribution   :     30.26119     -63.38879     -59.42415
                        -----------------------------------------
Total Dipole Moment    :      2.25789      -0.65032      -3.43661
                        -----------------------------------------
Magnitude (a.u.)       :      4.16309
Magnitude (Debye)      :     10.58172

Rotational constants in cm-1:     0.001666     0.000522     0.000438
Rotational constants in MHz :    49.959529    15.642930    13.140949

                             ****ORCA TERMINATED NORMALLY****
TOTAL RUN TIME: 0 days 0 hours 25 minutes 42 seconds 846 msec
