                         Program Version 4.2.0 -  RELEASE  -
|  1> # ORCA input file
|  2> # SCF done       -198.942813128171          0.000582697168
|  3> ! CAM-B3LYP def2-SVP def2/J RIJCOSX Grid4 TightSCF
|  4> %maxcore 5000
|  5> %tddft
|  6>     Mode sTDDFT
|  7>     Ethresh 5.0
|  8>     maxcore 5000
|  9> end
| 10>
| 11> %pal
| 12>   nprocs 6
| 13>   end
| 14> * xyz 0 1
| 15>    C       -0.35914         4.00453        -0.73649
| 16>    C        0.68395         4.75291        -1.21796
| 17>    C        0.75915         6.15652        -1.11910
| 18>    N        0.88134         7.29598        -1.05385
| 19>    C        1.75474         4.20344        -1.95397
| 20>    N        2.61396         3.80049        -2.60026
| 21>    C       -1.62739         4.54767        -0.25266
| 22>    C       -2.61627         3.55200        -0.36801
| 23>    C       -3.92880         3.79809        -0.02666
| 24>    C       -4.25959         5.06659         0.45079
| 25>    C       -3.27522         6.05117         0.58731
| 26>    C       -1.95343         5.80148         0.23607
| 27>    C       -3.62986         7.38444         1.19099
| 28>    O       -3.61253         7.59588         2.37343
| 29>    O       -3.85995         8.28904         0.24672
| 30>    C       -4.25151         9.57775         0.70444
| 31>    C       -5.65403         5.42766         0.81490
| 32>    O       -6.01559         6.55637         1.04276
| 33>    O       -6.46491         4.36933         0.85526
| 34>    C       -7.81711         4.63798         1.19946
| 35>    C       -1.99839         2.29898        -0.86601
| 36>    O       -2.54814         1.25591        -1.13436
| 37>    C       -0.54199         2.58141        -0.90769
| 38>    C        0.35821         1.55949        -1.00736
| 39>    C        1.71867         1.55770        -0.63965
| 40>    C        2.69604         0.66899        -1.07348
| 41>    C        3.95105         0.91599        -0.54351
| 42>    C        3.93325         1.98215         0.35690
| 43>    S        2.37800         2.68904         0.52476
| 44>    C        5.15008         2.35177         0.96683
| 45>    C        6.30039         1.65541         0.60324
| 46>   Ge        5.81086         0.27555        -0.72073
| 47>    C        6.08410        -1.57440        -0.05857
| 48>    C        6.55143         0.62548        -2.52328
| 49>    C        7.43118         2.14660         1.24452
| 50>    C        7.16301         3.20308         2.09892
| 51>    S        5.46295         3.60056         2.10860
| 52>    C        8.08705         3.95213         2.88719
| 53>    C        7.69869         4.96206         3.75415
| 54>    C        8.59856         5.72762         4.49626
| 55>    C        9.97311         5.56545         4.43321
| 56>    C       10.42264         4.52676         3.57218
| 57>    C        9.49011         3.72401         2.81436
| 58>    N       10.19947         2.85387         2.12471
| 59>    O       11.47616         3.08775         2.42389
| 60>    N       11.63187         4.08703         3.28895
| 61>    C       10.88749         6.39347         5.15511
| 62>    C       12.25300         6.40624         5.08615
| 63>    C       12.85654         7.39341         5.89348
| 64>    C       11.91179         8.15960         6.62761
| 65>    S       10.28746         7.60969         6.26168
| 66>    C       12.30848         9.18458         7.46827
| 67>    O       11.55198         9.99484         8.24398
| 68>    C       10.15400         9.83229         8.29652
| 69>    C       13.70083         9.44118         7.53057
| 70>    C       14.64627         8.68287         6.79093
| 71>    C       14.24802         7.63981         5.96953
| 72>    O       15.00852         6.82035         5.21425
| 73>    C       16.41099         6.96398         5.18962
| 74>    S       16.26492         9.29060         7.08043
| 75>    C       15.66647        10.52234         8.16128
| 76>    C       14.29964        10.45906         8.29341
| 77>    C       16.53767        11.45339         8.77912
| 78>    C       16.10902        12.48556         9.72907
| 79>    N       17.06611        13.24847        10.16482
| 80>    C       18.19956        12.80068         9.55090
| 81>    C       17.89893        11.65623         8.67087
| 82>    C       19.10210        11.20462         8.02707
| 83>    S       19.30832         9.96814         6.96572
| 84>    C       20.13088        12.09662         8.52226
| 85>    C       19.53847        13.07314         9.46799
| 86>    N       20.49254        13.91955         9.93408
| 87>    C       21.60226        13.54027         9.35097
| 88>    C       21.45046        12.40999         8.45472
| 89>    H       -4.68131         3.03244        -0.12920
| 90>    H       -1.20950         6.57216         0.36113
| 91>    H       -4.26428        10.22069        -0.17159
| 92>    H       -3.54255         9.94731         1.44786
| 93>    H       -5.24388         9.51729         1.15442
| 94>    H       -8.31961         3.67499         1.22859
| 95>    H       -8.27554         5.28886         0.45239
| 96>    H       -7.86862         5.13004         2.17248
| 97>    H       -0.04535         0.60962        -1.34459
| 98>    H        2.48353        -0.10347        -1.79198
| 99>    H        5.61681        -1.70353         0.91241
|100>    H        7.14541        -1.78121         0.03467
|101>    H        5.65233        -2.28815        -0.75280
|102>    H        6.28314         1.62671        -2.84587
|103>    H        6.15381        -0.08944        -3.23698
|104>    H        7.63345         0.53785        -2.50883
|105>    H        8.42852         1.76848         1.10783
|106>    H        6.64442         5.17476         3.85507
|107>    H        8.20198         6.49770         5.14197
|108>    H       12.81311         5.73353         4.46391
|109>    H        9.80503        10.57781         9.00969
|110>    H        9.87681         8.83611         8.65032
|111>    H        9.68920        10.01700         7.32479
|112>    H       16.85118         6.81767         6.17880
|113>    H       16.71249         7.93887         4.79933
|114>    H       16.76578         6.18287         4.51897
|115>    H       13.72344        11.12519         8.90768
|116>    H       15.09960        12.63440        10.06933
|117>    H       22.52496        14.05614         9.55276
|118>    H       22.23517        11.95412         7.88401
|119> *
|120>
|121>                          ****END OF INPUT****

CARTESIAN COORDINATES (ANGSTROEM)
---------------------------------
  C     -0.359140    4.004530   -0.736490
  C      0.683950    4.752910   -1.217960
  C      0.759150    6.156520   -1.119100
  N      0.881340    7.295980   -1.053850
  C      1.754740    4.203440   -1.953970
  N      2.613960    3.800490   -2.600260
  C     -1.627390    4.547670   -0.252660
  C     -2.616270    3.552000   -0.368010
  C     -3.928800    3.798090   -0.026660
  C     -4.259590    5.066590    0.450790
  C     -3.275220    6.051170    0.587310
  C     -1.953430    5.801480    0.236070
  C     -3.629860    7.384440    1.190990
  O     -3.612530    7.595880    2.373430
  O     -3.859950    8.289040    0.246720
  C     -4.251510    9.577750    0.704440
  C     -5.654030    5.427660    0.814900
  O     -6.015590    6.556370    1.042760
  O     -6.464910    4.369330    0.855260
  C     -7.817110    4.637980    1.199460
  C     -1.998390    2.298980   -0.866010
  O     -2.548140    1.255910   -1.134360
  C     -0.541990    2.581410   -0.907690
  C      0.358210    1.559490   -1.007360
  C      1.718670    1.557700   -0.639650
  C      2.696040    0.668990   -1.073480
  C      3.951050    0.915990   -0.543510
  C      3.933250    1.982150    0.356900
  S      2.378000    2.689040    0.524760
  C      5.150080    2.351770    0.966830
  C      6.300390    1.655410    0.603240
  Ge     5.810860    0.275550   -0.720730
  C      6.084100   -1.574400   -0.058570
  C      6.551430    0.625480   -2.523280
  C      7.431180    2.146600    1.244520
  C      7.163010    3.203080    2.098920
  S      5.462950    3.600560    2.108600
  C      8.087050    3.952130    2.887190
  C      7.698690    4.962060    3.754150
  C      8.598560    5.727620    4.496260
  C      9.973110    5.565450    4.433210
  C     10.422640    4.526760    3.572180
  C      9.490110    3.724010    2.814360
  N     10.199470    2.853870    2.124710
  O     11.476160    3.087750    2.423890
  N     11.631870    4.087030    3.288950
  C     10.887490    6.393470    5.155110
  C     12.253000    6.406240    5.086150
  C     12.856540    7.393410    5.893480
  C     11.911790    8.159600    6.627610
  S     10.287460    7.609690    6.261680
  C     12.308480    9.184580    7.468270
  O     11.551980    9.994840    8.243980
  C     10.154000    9.832290    8.296520
  C     13.700830    9.441180    7.530570
  C     14.646270    8.682870    6.790930
  C     14.248020    7.639810    5.969530
  O     15.008520    6.820350    5.214250
  C     16.410990    6.963980    5.189620
  S     16.264920    9.290600    7.080430
  C     15.666470   10.522340    8.161280
  C     14.299640   10.459060    8.293410
  C     16.537670   11.453390    8.779120
  C     16.109020   12.485560    9.729070
  N     17.066110   13.248470   10.164820
  C     18.199560   12.800680    9.550900
  C     17.898930   11.656230    8.670870
  C     19.102100   11.204620    8.027070
  S     19.308320    9.968140    6.965720
  C     20.130880   12.096620    8.522260
  C     19.538470   13.073140    9.467990
  N     20.492540   13.919550    9.934080
  C     21.602260   13.540270    9.350970
  C     21.450460   12.409990    8.454720
  H     -4.681310    3.032440   -0.129200
  H     -1.209500    6.572160    0.361130
  H     -4.264280   10.220690   -0.171590
  H     -3.542550    9.947310    1.447860
  H     -5.243880    9.517290    1.154420
  H     -8.319610    3.674990    1.228590
  H     -8.275540    5.288860    0.452390
  H     -7.868620    5.130040    2.172480
  H     -0.045350    0.609620   -1.344590
  H      2.483530   -0.103470   -1.791980
  H      5.616810   -1.703530    0.912410
  H      7.145410   -1.781210    0.034670
  H      5.652330   -2.288150   -0.752800
  H      6.283140    1.626710   -2.845870
  H      6.153810   -0.089440   -3.236980
  H      7.633450    0.537850   -2.508830
  H      8.428520    1.768480    1.107830
  H      6.644420    5.174760    3.855070
  H      8.201980    6.497700    5.141970
  H     12.813110    5.733530    4.463910
  H      9.805030   10.577810    9.009690
  H      9.876810    8.836110    8.650320
  H      9.689200   10.017000    7.324790
  H     16.851180    6.817670    6.178800
  H     16.712490    7.938870    4.799330
  H     16.765780    6.182870    4.518970
  H     13.723440   11.125190    8.907680
  H     15.099600   12.634400   10.069330
  H     22.524960   14.056140    9.552760
  H     22.235170   11.954120    7.884010

 Total Charge           Charge          ....    0
 Multiplicity           Mult            ....    1
 Number of Electrons    NEL             ....  572
 Basis Dimension        Dim             .... 1224

ORBITAL ENERGIES
----------------

  NO   OCC          E(Eh)            E(eV)
   0   2.0000    -398.779920    -10851.3533
   1   2.0000     -88.971969     -2421.0504
   2   2.0000     -88.969421     -2420.9810
   3   2.0000     -88.953186     -2420.5393
   4   2.0000     -88.948954     -2420.4241
   5   2.0000     -88.896996     -2419.0103
   6   2.0000     -49.839400     -1356.1990
   7   2.0000     -44.376681     -1207.5509
   8   2.0000     -44.375938     -1207.5307
   9   2.0000     -44.375452     -1207.5174
  10   2.0000     -19.358145      -526.7619
  11   2.0000     -19.270045      -524.3646
  12   2.0000     -19.254455      -523.9404
  13   2.0000     -19.250870      -523.8428
  14   2.0000     -19.248501      -523.7783
  15   2.0000     -19.213835      -522.8350
  16   2.0000     -19.212791      -522.8066
  17   2.0000     -19.194215      -522.3012
  18   2.0000     -14.484152      -394.1338
  19   2.0000     -14.483547      -394.1173
  20   2.0000     -14.417768      -392.3274
  21   2.0000     -14.413476      -392.2106
  22   2.0000     -14.412033      -392.1714
  23   2.0000     -14.407145      -392.0384
  24   2.0000     -10.409679      -283.2618
  25   2.0000     -10.395580      -282.8781
  26   2.0000     -10.364894      -282.0431
  27   2.0000     -10.342703      -281.4392
  28   2.0000     -10.342394      -281.4309
  29   2.0000     -10.341192      -281.3982
  30   2.0000     -10.340105      -281.3686
  31   2.0000     -10.340098      -281.3684
  32   2.0000     -10.338502      -281.3249
  33   2.0000     -10.332172      -281.1527
  34   2.0000     -10.330468      -281.1063
  35   2.0000     -10.329513      -281.0803
  36   2.0000     -10.328693      -281.0580
  37   2.0000     -10.327799      -281.0337
  38   2.0000     -10.327487      -281.0252
  39   2.0000     -10.324362      -280.9402
  40   2.0000     -10.324222      -280.9364
  41   2.0000     -10.320786      -280.8429
  42   2.0000     -10.319635      -280.8115
  43   2.0000     -10.315876      -280.7093
  44   2.0000     -10.314804      -280.6801
  45   2.0000     -10.314622      -280.6751
  46   2.0000     -10.314338      -280.6674
  47   2.0000     -10.314172      -280.6629
  48   2.0000     -10.312856      -280.6271
  49   2.0000     -10.312773      -280.6248
  50   2.0000     -10.312584      -280.6197
  51   2.0000     -10.312071      -280.6057
  52   2.0000     -10.311802      -280.5984
  53   2.0000     -10.310783      -280.5707
  54   2.0000     -10.309154      -280.5263
  55   2.0000     -10.307913      -280.4926
  56   2.0000     -10.306606      -280.4570
  57   2.0000     -10.306567      -280.4560
  58   2.0000     -10.301839      -280.3273
  59   2.0000     -10.301122      -280.3078
  60   2.0000     -10.300321      -280.2860
  61   2.0000     -10.299870      -280.2737
  62   2.0000     -10.298660      -280.2408
  63   2.0000     -10.297156      -280.1999
  64   2.0000     -10.294378      -280.1243
  65   2.0000     -10.294250      -280.1208
  66   2.0000     -10.293937      -280.1123
  67   2.0000     -10.292142      -280.0634
  68   2.0000     -10.291443      -280.0444
  69   2.0000     -10.284542      -279.8566
  70   2.0000     -10.283985      -279.8415
  71   2.0000     -10.282919      -279.8124
  72   2.0000     -10.281314      -279.7688
  73   2.0000     -10.275062      -279.5987
  74   2.0000     -10.274328      -279.5787
  75   2.0000     -10.273399      -279.5534
  76   2.0000     -10.266860      -279.3755
  77   2.0000     -10.263722      -279.2901
  78   2.0000      -8.067064      -219.5160
  79   2.0000      -8.064863      -219.4561
  80   2.0000      -8.048098      -218.9999
  81   2.0000      -8.043231      -218.8674
  82   2.0000      -7.992939      -217.4989
  83   2.0000      -6.299235      -171.4109
  84   2.0000      -6.036281      -164.2556
  85   2.0000      -6.034026      -164.1942
  86   2.0000      -6.032272      -164.1465
  87   2.0000      -6.030099      -164.0873
  88   2.0000      -6.029189      -164.0626
  89   2.0000      -6.027029      -164.0038
  90   2.0000      -6.018026      -163.7588
  91   2.0000      -6.013713      -163.6415
  92   2.0000      -6.013117      -163.6252
  93   2.0000      -6.009171      -163.5179
  94   2.0000      -6.008614      -163.5027
  95   2.0000      -6.004337      -163.3863
  96   2.0000      -5.961651      -162.2248
  97   2.0000      -5.961575      -162.2227
  98   2.0000      -5.952170      -161.9668
  99   2.0000      -4.475620      -121.7878
 100   2.0000      -4.474477      -121.7567
 101   2.0000      -4.473143      -121.7204
 102   2.0000      -1.311369       -35.6842
 103   2.0000      -1.299664       -35.3656
 104   2.0000      -1.297624       -35.3102
 105   2.0000      -1.296991       -35.2929
 106   2.0000      -1.296234       -35.2723
 107   2.0000      -1.295652       -35.2565
 108   2.0000      -1.203139       -32.7391
 109   2.0000      -1.183992       -32.2180
 110   2.0000      -1.159823       -31.5604
 111   2.0000      -1.154741       -31.4221
 112   2.0000      -1.128046       -30.6957
 113   2.0000      -1.107692       -30.1418
 114   2.0000      -1.089832       -29.6558
 115   2.0000      -1.082345       -29.4521
 116   2.0000      -1.060982       -28.8708
 117   2.0000      -1.019315       -27.7370
 118   2.0000      -1.016994       -27.6738
 119   2.0000      -1.012323       -27.5467
 120   2.0000      -1.004592       -27.3363
 121   2.0000      -0.997562       -27.1450
 122   2.0000      -0.995119       -27.0786
 123   2.0000      -0.990996       -26.9664
 124   2.0000      -0.982062       -26.7233
 125   2.0000      -0.976277       -26.5658
 126   2.0000      -0.959736       -26.1157
 127   2.0000      -0.956709       -26.0334
 128   2.0000      -0.927003       -25.2250
 129   2.0000      -0.919828       -25.0298
 130   2.0000      -0.906583       -24.6694
 131   2.0000      -0.901891       -24.5417
 132   2.0000      -0.890930       -24.2434
 133   2.0000      -0.877547       -23.8793
 134   2.0000      -0.875358       -23.8197
 135   2.0000      -0.872398       -23.7392
 136   2.0000      -0.866319       -23.5738
 137   2.0000      -0.857517       -23.3342
 138   2.0000      -0.851407       -23.1680
 139   2.0000      -0.845485       -23.0068
 140   2.0000      -0.837820       -22.7982
 141   2.0000      -0.832538       -22.6545
 142   2.0000      -0.829098       -22.5609
 143   2.0000      -0.822414       -22.3790
 144   2.0000      -0.813552       -22.1379
 145   2.0000      -0.806923       -21.9575
 146   2.0000      -0.801017       -21.7968
 147   2.0000      -0.796475       -21.6732
 148   2.0000      -0.793819       -21.6009
 149   2.0000      -0.782952       -21.3052
 150   2.0000      -0.774539       -21.0763
 151   2.0000      -0.770896       -20.9771
 152   2.0000      -0.768392       -20.9090
 153   2.0000      -0.758226       -20.6324
 154   2.0000      -0.752887       -20.4871
 155   2.0000      -0.743823       -20.2405
 156   2.0000      -0.741553       -20.1787
 157   2.0000      -0.728759       -19.8305
 158   2.0000      -0.719721       -19.5846
 159   2.0000      -0.709187       -19.2980
 160   2.0000      -0.698419       -19.0049
 161   2.0000      -0.686719       -18.6866
 162   2.0000      -0.685184       -18.6448
 163   2.0000      -0.680364       -18.5136
 164   2.0000      -0.672390       -18.2967
 165   2.0000      -0.670706       -18.2508
 166   2.0000      -0.666797       -18.1445
 167   2.0000      -0.656262       -17.8578
 168   2.0000      -0.646255       -17.5855
 169   2.0000      -0.643721       -17.5165
 170   2.0000      -0.641684       -17.4611
 171   2.0000      -0.638699       -17.3799
 172   2.0000      -0.634009       -17.2523
 173   2.0000      -0.630992       -17.1702
 174   2.0000      -0.629351       -17.1255
 175   2.0000      -0.621952       -16.9242
 176   2.0000      -0.618823       -16.8390
 177   2.0000      -0.614223       -16.7139
 178   2.0000      -0.611273       -16.6336
 179   2.0000      -0.609611       -16.5884
 180   2.0000      -0.607147       -16.5213
 181   2.0000      -0.598265       -16.2796
 182   2.0000      -0.589113       -16.0306
 183   2.0000      -0.587665       -15.9912
 184   2.0000      -0.580681       -15.8011
 185   2.0000      -0.578431       -15.7399
 186   2.0000      -0.575090       -15.6490
 187   2.0000      -0.572522       -15.5791
 188   2.0000      -0.570248       -15.5172
 189   2.0000      -0.568071       -15.4580
 190   2.0000      -0.565185       -15.3795
 191   2.0000      -0.562735       -15.3128
 192   2.0000      -0.560103       -15.2412
 193   2.0000      -0.555389       -15.1129
 194   2.0000      -0.547607       -14.9012
 195   2.0000      -0.544564       -14.8183
 196   2.0000      -0.542366       -14.7585
 197   2.0000      -0.541807       -14.7433
 198   2.0000      -0.541356       -14.7310
 199   2.0000      -0.538176       -14.6445
 200   2.0000      -0.533605       -14.5201
 201   2.0000      -0.532393       -14.4872
 202   2.0000      -0.530163       -14.4265
 203   2.0000      -0.527461       -14.3529
 204   2.0000      -0.524016       -14.2592
 205   2.0000      -0.520958       -14.1760
 206   2.0000      -0.515890       -14.0381
 207   2.0000      -0.514063       -13.9884
 208   2.0000      -0.513584       -13.9753
 209   2.0000      -0.504587       -13.7305
 210   2.0000      -0.503975       -13.7139
 211   2.0000      -0.501668       -13.6511
 212   2.0000      -0.499944       -13.6042
 213   2.0000      -0.498520       -13.5654
 214   2.0000      -0.497000       -13.5241
 215   2.0000      -0.494070       -13.4443
 216   2.0000      -0.493847       -13.4382
 217   2.0000      -0.492495       -13.4015
 218   2.0000      -0.490918       -13.3586
 219   2.0000      -0.490729       -13.3534
 220   2.0000      -0.487420       -13.2634
 221   2.0000      -0.485240       -13.2041
 222   2.0000      -0.482284       -13.1236
 223   2.0000      -0.481353       -13.0983
 224   2.0000      -0.479905       -13.0589
 225   2.0000      -0.478113       -13.0101
 226   2.0000      -0.477673       -12.9981
 227   2.0000      -0.475263       -12.9326
 228   2.0000      -0.474689       -12.9169
 229   2.0000      -0.471532       -12.8310
 230   2.0000      -0.464616       -12.6429
 231   2.0000      -0.464094       -12.6286
 232   2.0000      -0.460710       -12.5365
 233   2.0000      -0.458159       -12.4671
 234   2.0000      -0.454902       -12.3785
 235   2.0000      -0.454720       -12.3736
 236   2.0000      -0.450815       -12.2673
 237   2.0000      -0.446518       -12.1504
 238   2.0000      -0.443615       -12.0714
 239   2.0000      -0.441880       -12.0242
 240   2.0000      -0.440565       -11.9884
 241   2.0000      -0.439700       -11.9648
 242   2.0000      -0.438107       -11.9215
 243   2.0000      -0.437382       -11.9018
 244   2.0000      -0.435847       -11.8600
 245   2.0000      -0.431669       -11.7463
 246   2.0000      -0.425767       -11.5857
 247   2.0000      -0.424633       -11.5549
 248   2.0000      -0.422039       -11.4843
 249   2.0000      -0.420611       -11.4454
 250   2.0000      -0.416510       -11.3338
 251   2.0000      -0.413210       -11.2440
 252   2.0000      -0.410635       -11.1740
 253   2.0000      -0.410467       -11.1694
 254   2.0000      -0.406508       -11.0616
 255   2.0000      -0.403333       -10.9752
 256   2.0000      -0.397648       -10.8206
 257   2.0000      -0.392966       -10.6931
 258   2.0000      -0.388728       -10.5778
 259   2.0000      -0.388179       -10.5629
 260   2.0000      -0.381176       -10.3723
 261   2.0000      -0.378225       -10.2920
 262   2.0000      -0.374465       -10.1897
 263   2.0000      -0.373092       -10.1524
 264   2.0000      -0.369154       -10.0452
 265   2.0000      -0.366527        -9.9737
 266   2.0000      -0.364137        -9.9087
 267   2.0000      -0.358468        -9.7544
 268   2.0000      -0.356207        -9.6929
 269   2.0000      -0.355596        -9.6763
 270   2.0000      -0.350055        -9.5255
 271   2.0000      -0.341578        -9.2948
 272   2.0000      -0.338731        -9.2174
 273   2.0000      -0.335206        -9.1214
 274   2.0000      -0.334359        -9.0984
 275   2.0000      -0.332313        -9.0427
 276   2.0000      -0.331318        -9.0156
 277   2.0000      -0.329266        -8.9598
 278   2.0000      -0.325377        -8.8540
 279   2.0000      -0.314731        -8.5643
 280   2.0000      -0.308627        -8.3982
 281   2.0000      -0.294115        -8.0033
 282   2.0000      -0.280088        -7.6216
 283   2.0000      -0.278379        -7.5751
 284   2.0000      -0.250640        -6.8203
 285   2.0000      -0.226967        -6.1761
 286   0.0000      -0.109684        -2.9846
 287   0.0000      -0.098456        -2.6791
 288   0.0000      -0.079567        -2.1651
 289   0.0000      -0.071952        -1.9579
 290   0.0000      -0.059042        -1.6066

MULLIKEN ATOMIC CHARGES
-----------------------
   0 C :    0.246446
   1 C :   -0.320104
   2 C :   -0.175273
   3 N :    0.157322
   4 C :   -0.203002
   5 N :    0.169515
   6 C :    0.031959
   7 C :    0.021175
   8 C :   -0.061059
   9 C :    0.012210
  10 C :    0.028598
  11 C :   -0.043177
  12 C :    0.183501
  13 O :   -0.212995
  14 O :   -0.290854
  15 C :    0.189340
  16 C :    0.203250
  17 O :   -0.206613
  18 O :   -0.290146
  19 C :    0.189561
  20 C :    0.141805
  21 O :   -0.141767
  22 C :   -0.147288
  23 C :    0.064102
  24 C :   -0.107264
  25 C :    0.027303
  26 C :   -0.087291
  27 C :   -0.069871
  28 S :    0.163312
  29 C :   -0.074603
  30 C :   -0.075137
  31 Ge:    0.462747
  32 C :   -0.193737
  33 C :   -0.193419
  34 C :   -0.053059
  35 C :   -0.109314
  36 S :    0.134009
  37 C :    0.164435
  38 C :   -0.065837
  39 C :   -0.058513
  40 C :    0.147580
  41 C :   -0.049959
  42 C :   -0.052586
  43 N :    0.038182
  44 O :   -0.089168
  45 N :    0.048003
  46 C :   -0.054895
  47 C :   -0.066489
  48 C :    0.066600
  49 C :   -0.098896
  50 S :    0.046038
  51 C :    0.103355
  52 O :   -0.307626
  53 C :    0.171842
  54 C :    0.061923
  55 C :   -0.107807
  56 C :    0.104676
  57 O :   -0.300631
  58 C :    0.168719
  59 S :    0.123793
  60 C :   -0.039158
  61 C :   -0.064315
  62 C :    0.028588
  63 C :    0.061490
  64 N :   -0.022206
  65 C :    0.022283
  66 C :   -0.034298
  67 C :    0.000089
  68 S :   -0.128873
  69 C :    0.063824
  70 C :   -0.015182
  71 N :   -0.056189
  72 C :    0.090503
  73 C :   -0.081230
  74 H :    0.007263
  75 H :    0.009325
  76 H :    0.034258
  77 H :    0.033999
  78 H :    0.036373
  79 H :    0.039105
  80 H :    0.035948
  81 H :    0.038699
  82 H :    0.025744
  83 H :   -0.008221
  84 H :    0.057215
  85 H :    0.050727
  86 H :    0.046668
  87 H :    0.069591
  88 H :    0.047018
  89 H :    0.050814
  90 H :    0.002058
  91 H :   -0.002187
  92 H :   -0.002487
  93 H :    0.006163
  94 H :    0.040122
  95 H :    0.035450
  96 H :    0.035888
  97 H :    0.038710
  98 H :    0.039651
  99 H :    0.041425
 100 H :   -0.016110
 101 H :    0.010834
 102 H :    0.012063
 103 H :   -0.004352
Sum of atomic charges:   -0.0000000

LOEWDIN ATOMIC CHARGES
----------------------
   0 C :    0.057554
   1 C :   -0.139705
   2 C :   -0.021644
   3 N :   -0.049279
   4 C :   -0.032568
   5 N :   -0.049337
   6 C :    0.005724
   7 C :   -0.046828
   8 C :    0.039741
   9 C :   -0.049494
  10 C :    0.005368
  11 C :    0.009252
  12 C :    0.076639
  13 O :   -0.166266
  14 O :   -0.078061
  15 C :    0.084202
  16 C :    0.093984
  17 O :   -0.158920
  18 O :   -0.080735
  19 C :    0.084690
  20 C :    0.082415
  21 O :   -0.143725
  22 C :   -0.112712
  23 C :    0.056170
  24 C :   -0.189422
  25 C :   -0.002625
  26 C :   -0.169066
  27 C :   -0.155956
  28 S :    0.469483
  29 C :   -0.192766
  30 C :   -0.151373
  31 Ge:    0.519861
  32 C :   -0.200085
  33 C :   -0.197012
  34 C :   -0.042657
  35 C :   -0.159826
  36 S :    0.443216
  37 C :   -0.041401
  38 C :   -0.014927
  39 C :   -0.016602
  40 C :   -0.036770
  41 C :   -0.041553
  42 C :   -0.041849
  43 N :   -0.024047
  44 O :    0.075938
  45 N :   -0.017307
  46 C :   -0.158286
  47 C :   -0.021333
  48 C :   -0.057749
  49 C :   -0.183302
  50 S :    0.389560
  51 C :    0.026801
  52 O :   -0.099770
  53 C :    0.067043
  54 C :   -0.060532
  55 C :   -0.188664
  56 C :    0.028631
  57 O :   -0.094348
  58 C :    0.068494
  59 S :    0.435021
  60 C :   -0.165266
  61 C :   -0.026721
  62 C :   -0.045883
  63 C :    0.095497
  64 N :   -0.075844
  65 C :    0.046207
  66 C :   -0.054596
  67 C :   -0.144038
  68 S :    0.048247
  69 C :   -0.023074
  70 C :    0.026813
  71 N :   -0.094533
  72 C :    0.078502
  73 C :   -0.032037
  74 H :    0.044282
  75 H :    0.043648
  76 H :    0.025924
  77 H :    0.022876
  78 H :    0.026583
  79 H :    0.028045
  80 H :    0.025490
  81 H :    0.026818
  82 H :    0.051242
  83 H :    0.035666
  84 H :    0.041544
  85 H :    0.039098
  86 H :    0.037249
  87 H :    0.047277
  88 H :    0.037854
  89 H :    0.038912
  90 H :    0.032580
  91 H :    0.028533
  92 H :    0.028632
  93 H :    0.036225
  94 H :    0.031290
  95 H :    0.013712
  96 H :    0.013023
  97 H :    0.014949
  98 H :    0.014995
  99 H :    0.032049
 100 H :    0.031119
 101 H :    0.026499
 102 H :    0.024691
 103 H :    0.034637

  Mayer bond orders larger than 0.100000
B(  0-C ,  1-C ) :   1.6512 B(  0-C ,  6-C ) :   0.9928 B(  0-C , 22-C ) :   1.0538
B(  1-C ,  2-C ) :   1.1381 B(  1-C ,  4-C ) :   1.1526 B(  2-C ,  3-N ) :   2.9887
B(  4-C ,  5-N ) :   3.0233 B(  6-C ,  7-C ) :   1.3366 B(  6-C , 11-C ) :   1.3579
B(  7-C ,  8-C ) :   1.3444 B(  7-C , 20-C ) :   0.9116 B(  8-C ,  9-C ) :   1.3068
B(  8-C , 74-H ) :   1.0177 B(  9-C , 10-C ) :   1.4607 B(  9-C , 16-C ) :   0.9082
B( 10-C , 11-C ) :   1.4002 B( 10-C , 12-C ) :   0.8442 B( 11-C , 75-H ) :   0.9903
B( 12-C , 13-O ) :   2.1126 B( 12-C , 14-O ) :   1.2280 B( 14-O , 15-C ) :   0.9173
B( 15-C , 76-H ) :   0.9808 B( 15-C , 77-H ) :   0.9719 B( 15-C , 78-H ) :   0.9766
B( 16-C , 17-O ) :   2.0439 B( 16-C , 18-O ) :   1.2625 B( 18-O , 19-C ) :   0.9149
B( 19-C , 79-H ) :   0.9808 B( 19-C , 80-H ) :   0.9766 B( 19-C , 81-H ) :   0.9755
B( 20-C , 21-O ) :   2.2749 B( 20-C , 22-C ) :   0.9518 B( 22-C , 23-C ) :   1.5923
B( 23-C , 24-C ) :   1.1689 B( 23-C , 82-H ) :   0.9521 B( 24-C , 25-C ) :   1.3864
B( 24-C , 28-S ) :   1.0887 B( 25-C , 26-C ) :   1.3051 B( 25-C , 83-H ) :   1.0024
B( 26-C , 27-C ) :   1.4635 B( 26-C , 31-Ge) :   0.8653 B( 27-C , 28-S ) :   1.1364
B( 27-C , 29-C ) :   1.1761 B( 29-C , 30-C ) :   1.4985 B( 29-C , 36-S ) :   1.1010
B( 30-C , 31-Ge) :   0.8711 B( 30-C , 34-C ) :   1.2381 B( 31-Ge, 32-C ) :   1.0169
B( 31-Ge, 33-C ) :   1.0246 B( 32-C , 84-H ) :   0.9577 B( 32-C , 85-H ) :   0.9605
B( 32-C , 86-H ) :   0.9603 B( 33-C , 87-H ) :   0.9567 B( 33-C , 88-H ) :   0.9588
B( 33-C , 89-H ) :   0.9593 B( 34-C , 35-C ) :   1.4891 B( 34-C , 90-H ) :   0.9886
B( 35-C , 36-S ) :   1.1089 B( 35-C , 37-C ) :   1.1277 B( 37-C , 38-C ) :   1.4610
B( 37-C , 40-C ) :   0.1096 B( 37-C , 42-C ) :   1.1449 B( 38-C , 39-C ) :   1.2403
B( 38-C , 91-H ) :   0.9842 B( 39-C , 40-C ) :   1.4652 B( 39-C , 92-H ) :   0.9832
B( 40-C , 41-C ) :   1.1437 B( 40-C , 46-C ) :   1.1286 B( 41-C , 42-C ) :   1.1457
B( 41-C , 45-N ) :   1.6070 B( 42-C , 43-N ) :   1.6041 B( 43-N , 44-O ) :   1.0601
B( 43-N , 45-N ) :   0.1797 B( 44-O , 45-N ) :   1.0617 B( 46-C , 47-C ) :   1.5536
B( 46-C , 50-S ) :   1.0383 B( 47-C , 48-C ) :   1.1488 B( 47-C , 93-H ) :   0.9996
B( 48-C , 49-C ) :   1.3078 B( 48-C , 56-C ) :   1.2903 B( 49-C , 50-S ) :   1.0016
B( 49-C , 51-C ) :   1.3842 B( 51-C , 52-O ) :   1.2235 B( 51-C , 54-C ) :   1.2721
B( 52-O , 53-C ) :   0.9434 B( 53-C , 94-H ) :   0.9763 B( 53-C , 95-H ) :   0.9677
B( 53-C , 96-H ) :   0.9674 B( 54-C , 55-C ) :   1.3041 B( 54-C , 61-C ) :   1.2097
B( 55-C , 56-C ) :   1.3620 B( 55-C , 59-S ) :   0.9934 B( 56-C , 57-O ) :   1.2355
B( 57-O , 58-C ) :   0.9397 B( 58-C , 97-H ) :   0.9677 B( 58-C , 98-H ) :   0.9680
B( 58-C , 99-H ) :   0.9760 B( 59-S , 60-C ) :   1.0736 B( 60-C , 61-C ) :   1.4859
B( 60-C , 62-C ) :   1.1254 B( 61-C ,100-H ) :   1.0031 B( 62-C , 63-C ) :   1.0379
B( 62-C , 66-C ) :   1.5078 B( 63-C , 64-N ) :   1.7310 B( 63-C ,101-H ) :   0.9878
B( 64-N , 65-C ) :   1.2635 B( 65-C , 66-C ) :   1.0680 B( 65-C , 70-C ) :   1.5262
B( 66-C , 67-C ) :   1.0440 B( 67-C , 68-S ) :   1.7111 B( 67-C , 69-C ) :   0.9925
B( 69-C , 70-C ) :   1.0586 B( 69-C , 73-C ) :   1.6025 B( 70-C , 71-N ) :   1.2802
B( 71-N , 72-C ) :   1.6773 B( 72-C , 73-C ) :   1.0517 B( 72-C ,102-H ) :   0.9887
B( 73-C ,103-H ) :   1.0081

-----------------------------------------------------------------------------
         ABSORPTION SPECTRUM VIA TRANSITION ELECTRIC DIPOLE MOMENTS
-----------------------------------------------------------------------------
State   Energy  Wavelength   fosc         T2         TX        TY        TZ
        (cm-1)    (nm)                  (au**2)     (au)      (au)      (au)
-----------------------------------------------------------------------------
   0   11702.4    854.5   0.579022221  16.28908  -3.44412  -1.66449  -1.28710
   1   15060.8    664.0   0.975579393  21.32503   4.06858   0.92427   1.97925
   2   15699.8    637.0   0.000414747   0.00870  -0.05350   0.06078  -0.04627
   3   17122.7    584.0   0.071326248   1.37137   0.77147  -0.61811   0.62781
   4   18115.6    552.0   0.007358244   0.13372  -0.20502   0.30012  -0.04021
   5   18443.5    542.2   0.072746414   1.29851   0.80584  -0.79487   0.13160
   6   19837.2    504.1   0.227663078   3.77822  -1.37324  -1.22492  -0.62611
   7   21026.9    475.6   0.276770773   4.33332  -1.23154  -1.35490  -0.99040
   8   22051.1    453.5   0.005578662   0.08329   0.09319   0.00331   0.27312
   9   23443.2    426.6   0.080939831   1.13664   0.20872   0.93998   0.45772
  10   24055.0    415.7   0.144901470   1.98310   1.15375   0.70266   0.39777
  11   25264.6    395.8   0.101752407   1.32589  -0.44761   1.03290   0.24219
  12   25735.6    388.6   0.001360896   0.01741   0.02272  -0.07259   0.10781
  13   26083.7    383.4   0.201479484   2.54294  -1.30842  -0.79619  -0.44391
  14   26968.3    370.8   0.001086757   0.01327   0.05613  -0.01299   0.09974
  15   27066.1    369.5   0.025725014   0.31290   0.10484   0.54801   0.03985
  16   28784.3    347.4   0.015513889   0.17744   0.17510   0.19063   0.33232
  17   29104.9    343.6   0.258742795   2.92669  -1.64181  -0.48068  -0.01002
  18   29527.8    338.7   0.023671568   0.26392   0.46829   0.20592   0.04711
  19   29956.6    333.8   0.098375105   1.08111  -0.61933  -0.68362  -0.47979
  20   30270.6    330.4   0.248461476   2.70218   1.50163   0.58421   0.32556
  21   30392.9    329.0   0.139239541   1.50822   1.19964   0.24715   0.08948
  22   31145.4    321.1   0.224004723   2.36777   1.50830   0.16383  -0.25680
  23   31318.6    319.3   0.043500873   0.45727   0.60487  -0.27672  -0.12175
  24   31715.0    315.3   0.001216722   0.01263  -0.06430   0.08126   0.04350
  25   32103.5    311.5   0.013183039   0.13519  -0.28218  -0.04865   0.23065
  26   32208.8    310.5   0.037116075   0.37937  -0.03535   0.42279   0.44651
  27   32325.7    309.4   0.118398132   1.20579   1.06783   0.08179  -0.24259
  28   32757.4    305.3   0.065160464   0.65486   0.05571   0.78560   0.18597
  29   33151.2    301.6   0.025676586   0.25498  -0.41934  -0.13716  -0.24561
  30   34178.4    292.6   0.010782326   0.10386  -0.04601   0.31381   0.05712
  31   34235.7    292.1   0.058032127   0.55804  -0.60433   0.33780   0.28055
  32   35126.2    284.7   0.003653948   0.03425  -0.09965   0.15259   0.03214
  33   35379.6    282.6   0.056767348   0.52823  -0.29851   0.58515   0.31100
  34   35831.3    279.1   0.213103515   1.95796  -1.36176  -0.22517   0.22994
  35   36277.3    275.7   0.022834548   0.20722  -0.42517  -0.15807   0.03833
  36   36381.4    274.9   0.030071729   0.27212   0.41676   0.31252  -0.02754
  37   36567.5    273.5   0.018207578   0.16392  -0.37682  -0.12641   0.07714
  38   36819.4    271.6   0.063242780   0.56547   0.51685  -0.41492  -0.35522
  39   37181.6    269.0   0.085385462   0.75602   0.76303  -0.02508  -0.41614
  40   37434.0    267.1   0.182176515   1.60214   1.21200   0.35429   0.08764
  41   37703.2    265.2   0.001823379   0.01592   0.08457   0.00996   0.09311
  42   37756.8    264.9   0.009989775   0.08710  -0.12591  -0.15041   0.22052
  43   37796.9    264.6   0.218784106   1.90562   0.77595   0.95239   0.62966
  44   38139.4    262.2   0.211467671   1.82535  -0.56764   0.95730   0.76597
  45   38548.1    259.4   0.111826961   0.95504  -0.47393   0.63631   0.57055
  46   38708.7    258.3   0.000542744   0.00462   0.05481  -0.00454   0.03989
  47   39084.8    255.9   0.089992001   0.75800   0.04627  -0.76088  -0.42063
  48   39253.0    254.8   0.010483267   0.08792  -0.22684   0.15297   0.11430
  49   39460.1    253.4   0.032593579   0.27193  -0.07317  -0.42111  -0.29872
  50   39761.1    251.5   0.287802384   2.38293  -1.32342  -0.77220  -0.18762
  51   39832.5    251.1   0.028119031   0.23240   0.20207   0.02541  -0.43695
  52   39971.2    250.2   0.172879990   1.42388  -1.07753  -0.11224   0.50020
  53   40100.8    249.4   0.134645353   1.10539   0.31144  -0.76389  -0.65182

FINAL SINGLE POINT ENERGY     -7069.409458915336

DIPOLE MOMENT
-------------
                                X             Y             Z
Electronic contribution:     19.02869     -39.02828     -22.84745
Nuclear contribution   :    -19.58587      37.32519      23.18668
                        -----------------------------------------
Total Dipole Moment    :     -0.55718      -1.70309       0.33924
                        -----------------------------------------
Magnitude (a.u.)       :      1.82375
Magnitude (Debye)      :      4.63560

Rotational constants in cm-1:     0.001298     0.000185     0.000165
Rotational constants in MHz :    38.904384     5.537703     4.955030

                             ****ORCA TERMINATED NORMALLY****
TOTAL RUN TIME: 0 days 0 hours 10 minutes 58 seconds 860 msec
