                         Program Version 4.2.0 -  RELEASE  -
|  1> # ORCA input file
|  2> # SCF done       -179.818696759036          0.000834183485
|  3> ! CAM-B3LYP def2-SVP def2/J RIJCOSX Grid4 TightSCF
|  4> %maxcore 5000
|  5> %tddft
|  6>     Mode sTDDFT
|  7>     Ethresh 5.0
|  8>     maxcore 5000
|  9> end
| 10>
| 11> %pal
| 12>   nprocs 6
| 13>   end
| 14> * xyz 0 1
| 15>    C       -0.23207         4.77625        -0.94690
| 16>    C        0.75664         5.26579        -1.76103
| 17>    C        0.91017         6.62763        -2.08817
| 18>    N        1.10154         7.72544        -2.36315
| 19>    C        1.66906         4.43367        -2.44243
| 20>    N        2.38355         3.77823        -3.05731
| 21>    C       -1.41183         5.52562        -0.51278
| 22>    C       -2.43057         4.60890        -0.18991
| 23>    C       -3.68321         5.02928         0.20303
| 24>    C       -3.91933         6.40034         0.29077
| 25>    C       -2.90611         7.31499        -0.01540
| 26>    C       -1.64811         6.88765        -0.42545
| 27>    C       -3.21287         8.78781         0.02921
| 28>    O       -3.77648         9.37238        -0.85537
| 29>    O       -2.71516         9.34458         1.12821
| 30>    C       -3.00803        10.72536         1.30919
| 31>    C       -5.22556         6.94000         0.75178
| 32>    O       -5.36941         8.05247         1.19630
| 33>    O       -6.21523         6.05585         0.62648
| 34>    C       -7.50147         6.50198         1.03444
| 35>    C       -1.91172         3.22733        -0.32394
| 36>    O       -2.51319         2.18995        -0.16481
| 37>    C       -0.46924         3.38698        -0.63399
| 38>    C        0.36611         2.31541        -0.49242
| 39>    C        1.75945         2.26292        -0.30751
| 40>    C        2.53670         1.11061        -0.38869
| 41>    C        3.87671         1.31708        -0.11786
| 42>    C        4.14165         2.64709         0.21605
| 43>    S        2.73688         3.63294         0.18123
| 44>    C        5.47731         2.99423         0.51882
| 45>    C        6.43730         1.98643         0.46028
| 46>   Ge        5.56514         0.30083        -0.07987
| 47>    C        5.61874        -1.10119         1.32244
| 48>    C        6.12359        -0.32467        -1.87455
| 49>    C        7.70903         2.45776         0.76216
| 50>    C        7.73322         3.81328         1.04495
| 51>    S        6.14276         4.52815         0.94246
| 52>    C        8.84156         4.57856         1.35735
| 53>    C        9.83128         5.23564         1.61414
| 54>    C       10.96641         5.97860         1.88394
| 55>    S       10.92040         7.71942         1.89793
| 56>    C       12.63020         7.78110         2.24675
| 57>    C       13.17067         6.51299         2.34804
| 58>    C       12.23777         5.50140         2.14291
| 59>    C       13.29188         8.98825         2.36655
| 60>    C       13.86731        10.05641         2.44908
| 61>    C       14.56498        11.25094         2.53062
| 62>    C       13.97746        12.46185         2.37488
| 63>    C       14.67456        13.69992         2.43162
| 64>    S       13.79266        15.19354         2.26355
| 65>    C       15.23578        16.14700         2.42276
| 66>    C       16.33819        15.31420         2.57771
| 67>    C       16.02096        13.95061         2.59044
| 68>    N       17.71064        15.74046         2.54486
| 69>    O       17.95610        16.78488         1.98462
| 70>    O       18.52436        14.97902         3.00939
| 71>    C       15.16642        17.56592         2.48766
| 72>    C       15.96470        18.45119         3.17425
| 73>    C       15.46230        19.78135         2.95279
| 74>    C       14.28780        19.67776         2.08623
| 75>    O       13.53931        20.50025         1.62740
| 76>    N       14.16891        18.29645         1.87755
| 77>    C       16.25173        20.61515         3.67062
| 78>    O       17.19822        19.93715         4.34490
| 79>    C       17.06942        18.56099         4.09763
| 80>    O       17.75846        17.74467         4.64131
| 81>    H       -4.45724         4.31709         0.44145
| 82>    H       -0.88378         7.61200        -0.65799
| 83>    H       -2.43624        11.04644         2.17550
| 84>    H       -4.07766        10.84923         1.48492
| 85>    H       -2.72255        11.29286         0.42167
| 86>    H       -8.19143         5.69728         0.79514
| 87>    H       -7.77116         7.41442         0.49931
| 88>    H       -7.50761         6.70832         2.10674
| 89>    H       -0.13941         1.35559        -0.42840
| 90>    H        2.11597         0.16061        -0.66933
| 91>    H        5.29930        -0.69656         2.27770
| 92>    H        6.62794        -1.48758         1.42650
| 93>    H        4.96136        -1.92212         1.05328
| 94>    H        6.02686         0.47985        -2.59684
| 95>    H        5.49868        -1.15409        -2.19093
| 96>    H        7.15696        -0.65727        -1.85495
| 97>    H        8.59871         1.85263         0.77402
| 98>    H       14.21141         6.34568         2.56071
| 99>    H       12.46268         4.45047         2.17664
|100>    H       15.62671        11.17071         2.72248
|101>    H       12.91254        12.51417         2.19438
|102>    H       16.77657        13.19358         2.69247
|103>    H       13.45529        17.89648         1.28680
|104>    H       16.24670        21.68296         3.79053
|105> *
|106>
|107>                          ****END OF INPUT****

CARTESIAN COORDINATES (ANGSTROEM)
---------------------------------
  C     -0.232070    4.776250   -0.946900
  C      0.756640    5.265790   -1.761030
  C      0.910170    6.627630   -2.088170
  N      1.101540    7.725440   -2.363150
  C      1.669060    4.433670   -2.442430
  N      2.383550    3.778230   -3.057310
  C     -1.411830    5.525620   -0.512780
  C     -2.430570    4.608900   -0.189910
  C     -3.683210    5.029280    0.203030
  C     -3.919330    6.400340    0.290770
  C     -2.906110    7.314990   -0.015400
  C     -1.648110    6.887650   -0.425450
  C     -3.212870    8.787810    0.029210
  O     -3.776480    9.372380   -0.855370
  O     -2.715160    9.344580    1.128210
  C     -3.008030   10.725360    1.309190
  C     -5.225560    6.940000    0.751780
  O     -5.369410    8.052470    1.196300
  O     -6.215230    6.055850    0.626480
  C     -7.501470    6.501980    1.034440
  C     -1.911720    3.227330   -0.323940
  O     -2.513190    2.189950   -0.164810
  C     -0.469240    3.386980   -0.633990
  C      0.366110    2.315410   -0.492420
  C      1.759450    2.262920   -0.307510
  C      2.536700    1.110610   -0.388690
  C      3.876710    1.317080   -0.117860
  C      4.141650    2.647090    0.216050
  S      2.736880    3.632940    0.181230
  C      5.477310    2.994230    0.518820
  C      6.437300    1.986430    0.460280
  Ge     5.565140    0.300830   -0.079870
  C      5.618740   -1.101190    1.322440
  C      6.123590   -0.324670   -1.874550
  C      7.709030    2.457760    0.762160
  C      7.733220    3.813280    1.044950
  S      6.142760    4.528150    0.942460
  C      8.841560    4.578560    1.357350
  C      9.831280    5.235640    1.614140
  C     10.966410    5.978600    1.883940
  S     10.920400    7.719420    1.897930
  C     12.630200    7.781100    2.246750
  C     13.170670    6.512990    2.348040
  C     12.237770    5.501400    2.142910
  C     13.291880    8.988250    2.366550
  C     13.867310   10.056410    2.449080
  C     14.564980   11.250940    2.530620
  C     13.977460   12.461850    2.374880
  C     14.674560   13.699920    2.431620
  S     13.792660   15.193540    2.263550
  C     15.235780   16.147000    2.422760
  C     16.338190   15.314200    2.577710
  C     16.020960   13.950610    2.590440
  N     17.710640   15.740460    2.544860
  O     17.956100   16.784880    1.984620
  O     18.524360   14.979020    3.009390
  C     15.166420   17.565920    2.487660
  C     15.964700   18.451190    3.174250
  C     15.462300   19.781350    2.952790
  C     14.287800   19.677760    2.086230
  O     13.539310   20.500250    1.627400
  N     14.168910   18.296450    1.877550
  C     16.251730   20.615150    3.670620
  O     17.198220   19.937150    4.344900
  C     17.069420   18.560990    4.097630
  O     17.758460   17.744670    4.641310
  H     -4.457240    4.317090    0.441450
  H     -0.883780    7.612000   -0.657990
  H     -2.436240   11.046440    2.175500
  H     -4.077660   10.849230    1.484920
  H     -2.722550   11.292860    0.421670
  H     -8.191430    5.697280    0.795140
  H     -7.771160    7.414420    0.499310
  H     -7.507610    6.708320    2.106740
  H     -0.139410    1.355590   -0.428400
  H      2.115970    0.160610   -0.669330
  H      5.299300   -0.696560    2.277700
  H      6.627940   -1.487580    1.426500
  H      4.961360   -1.922120    1.053280
  H      6.026860    0.479850   -2.596840
  H      5.498680   -1.154090   -2.190930
  H      7.156960   -0.657270   -1.854950
  H      8.598710    1.852630    0.774020
  H     14.211410    6.345680    2.560710
  H     12.462680    4.450470    2.176640
  H     15.626710   11.170710    2.722480
  H     12.912540   12.514170    2.194380
  H     16.776570   13.193580    2.692470
  H     13.455290   17.896480    1.286800
  H     16.246700   21.682960    3.790530

 Total Charge           Charge          ....    0
 Multiplicity           Mult            ....    1
 Number of Electrons    NEL             ....  510
 Basis Dimension        Dim             .... 1078

ORBITAL ENERGIES
----------------

  NO   OCC          E(Eh)            E(eV)
   0   2.0000    -398.785683    -10851.5101
   1   2.0000     -88.997660     -2421.7494
   2   2.0000     -88.976502     -2421.1737
   3   2.0000     -88.976103     -2421.1629
   4   2.0000     -88.974036     -2421.1066
   5   2.0000     -49.845195     -1356.3567
   6   2.0000     -44.382487     -1207.7089
   7   2.0000     -44.381705     -1207.6876
   8   2.0000     -44.381265     -1207.6756
   9   2.0000     -19.282567      -524.7053
  10   2.0000     -19.270222      -524.3694
  11   2.0000     -19.253148      -523.9048
  12   2.0000     -19.246446      -523.7224
  13   2.0000     -19.244031      -523.6567
  14   2.0000     -19.213777      -522.8335
  15   2.0000     -19.213621      -522.8292
  16   2.0000     -19.211645      -522.7754
  17   2.0000     -19.201396      -522.4966
  18   2.0000     -19.195679      -522.3410
  19   2.0000     -14.654041      -398.7567
  20   2.0000     -14.469611      -393.7381
  21   2.0000     -14.414547      -392.2398
  22   2.0000     -14.412698      -392.1894
  23   2.0000     -10.409514      -283.2573
  24   2.0000     -10.407264      -283.1960
  25   2.0000     -10.396544      -282.9043
  26   2.0000     -10.394234      -282.8415
  27   2.0000     -10.366055      -282.0747
  28   2.0000     -10.365434      -282.0578
  29   2.0000     -10.364806      -282.0407
  30   2.0000     -10.349268      -281.6179
  31   2.0000     -10.348675      -281.6018
  32   2.0000     -10.343715      -281.4668
  33   2.0000     -10.341560      -281.4082
  34   2.0000     -10.340005      -281.3659
  35   2.0000     -10.330244      -281.1002
  36   2.0000     -10.329349      -281.0759
  37   2.0000     -10.329305      -281.0747
  38   2.0000     -10.327996      -281.0391
  39   2.0000     -10.327640      -281.0294
  40   2.0000     -10.320998      -280.8486
  41   2.0000     -10.320063      -280.8232
  42   2.0000     -10.316862      -280.7361
  43   2.0000     -10.316756      -280.7332
  44   2.0000     -10.316212      -280.7184
  45   2.0000     -10.314765      -280.6790
  46   2.0000     -10.313403      -280.6420
  47   2.0000     -10.312750      -280.6242
  48   2.0000     -10.311724      -280.5963
  49   2.0000     -10.309762      -280.5429
  50   2.0000     -10.309005      -280.5223
  51   2.0000     -10.307292      -280.4757
  52   2.0000     -10.302433      -280.3435
  53   2.0000     -10.301208      -280.3101
  54   2.0000     -10.300482      -280.2904
  55   2.0000     -10.295075      -280.1432
  56   2.0000     -10.294863      -280.1375
  57   2.0000     -10.294422      -280.1255
  58   2.0000     -10.293682      -280.1053
  59   2.0000     -10.293472      -280.0996
  60   2.0000     -10.292913      -280.0844
  61   2.0000     -10.292619      -280.0764
  62   2.0000     -10.292207      -280.0652
  63   2.0000     -10.290393      -280.0158
  64   2.0000     -10.284201      -279.8473
  65   2.0000     -10.282648      -279.8051
  66   2.0000     -10.280646      -279.7506
  67   2.0000     -10.277551      -279.6664
  68   2.0000     -10.272439      -279.5273
  69   2.0000     -10.270204      -279.4665
  70   2.0000      -8.093149      -220.2258
  71   2.0000      -8.071833      -219.6457
  72   2.0000      -8.071132      -219.6267
  73   2.0000      -8.069498      -219.5822
  74   2.0000      -6.305039      -171.5688
  75   2.0000      -6.062373      -164.9656
  76   2.0000      -6.058228      -164.8528
  77   2.0000      -6.055370      -164.7750
  78   2.0000      -6.041071      -164.3859
  79   2.0000      -6.040292      -164.3647
  80   2.0000      -6.038880      -164.3263
  81   2.0000      -6.037003      -164.2752
  82   2.0000      -6.036346      -164.2573
  83   2.0000      -6.034636      -164.2108
  84   2.0000      -6.033949      -164.1921
  85   2.0000      -6.033308      -164.1747
  86   2.0000      -6.031466      -164.1245
  87   2.0000      -4.481433      -121.9460
  88   2.0000      -4.480240      -121.9135
  89   2.0000      -4.478979      -121.8792
  90   2.0000      -1.328599       -36.1530
  91   2.0000      -1.305470       -35.5236
  92   2.0000      -1.303446       -35.4686
  93   2.0000      -1.302813       -35.4514
  94   2.0000      -1.301984       -35.4288
  95   2.0000      -1.301460       -35.4145
  96   2.0000      -1.213012       -33.0077
  97   2.0000      -1.203071       -32.7372
  98   2.0000      -1.185675       -32.2639
  99   2.0000      -1.148808       -31.2606
 100   2.0000      -1.143056       -31.1041
 101   2.0000      -1.128995       -30.7215
 102   2.0000      -1.119814       -30.4717
 103   2.0000      -1.107772       -30.1440
 104   2.0000      -1.091353       -29.6972
 105   2.0000      -1.074072       -29.2270
 106   2.0000      -1.024898       -27.8889
 107   2.0000      -1.020050       -27.7570
 108   2.0000      -1.012162       -27.5423
 109   2.0000      -1.000372       -27.2215
 110   2.0000      -0.998344       -27.1663
 111   2.0000      -0.993021       -27.0215
 112   2.0000      -0.987440       -26.8696
 113   2.0000      -0.957689       -26.0600
 114   2.0000      -0.938618       -25.5411
 115   2.0000      -0.918724       -24.9998
 116   2.0000      -0.913269       -24.8513
 117   2.0000      -0.907809       -24.7027
 118   2.0000      -0.903519       -24.5860
 119   2.0000      -0.897842       -24.4315
 120   2.0000      -0.886453       -24.1216
 121   2.0000      -0.878658       -23.9095
 122   2.0000      -0.874342       -23.7921
 123   2.0000      -0.856519       -23.3071
 124   2.0000      -0.855495       -23.2792
 125   2.0000      -0.844471       -22.9792
 126   2.0000      -0.837688       -22.7946
 127   2.0000      -0.836423       -22.7602
 128   2.0000      -0.828825       -22.5535
 129   2.0000      -0.823931       -22.4203
 130   2.0000      -0.815461       -22.1898
 131   2.0000      -0.803816       -21.8729
 132   2.0000      -0.800003       -21.7692
 133   2.0000      -0.799272       -21.7493
 134   2.0000      -0.783245       -21.3132
 135   2.0000      -0.776816       -21.1382
 136   2.0000      -0.771870       -21.0037
 137   2.0000      -0.765536       -20.8313
 138   2.0000      -0.763069       -20.7642
 139   2.0000      -0.739789       -20.1307
 140   2.0000      -0.730679       -19.8828
 141   2.0000      -0.719477       -19.5780
 142   2.0000      -0.706531       -19.2257
 143   2.0000      -0.704364       -19.1667
 144   2.0000      -0.688799       -18.7432
 145   2.0000      -0.683847       -18.6084
 146   2.0000      -0.682501       -18.5718
 147   2.0000      -0.673693       -18.3321
 148   2.0000      -0.666699       -18.1418
 149   2.0000      -0.664606       -18.0849
 150   2.0000      -0.653734       -17.7890
 151   2.0000      -0.646334       -17.5877
 152   2.0000      -0.641335       -17.4516
 153   2.0000      -0.639594       -17.4043
 154   2.0000      -0.634758       -17.2726
 155   2.0000      -0.631140       -17.1742
 156   2.0000      -0.626473       -17.0472
 157   2.0000      -0.625181       -17.0120
 158   2.0000      -0.619667       -16.8620
 159   2.0000      -0.616333       -16.7713
 160   2.0000      -0.612270       -16.6607
 161   2.0000      -0.606703       -16.5092
 162   2.0000      -0.597796       -16.2669
 163   2.0000      -0.597028       -16.2460
 164   2.0000      -0.590642       -16.0722
 165   2.0000      -0.589782       -16.0488
 166   2.0000      -0.586800       -15.9676
 167   2.0000      -0.580038       -15.7836
 168   2.0000      -0.576475       -15.6867
 169   2.0000      -0.573984       -15.6189
 170   2.0000      -0.572307       -15.5733
 171   2.0000      -0.568140       -15.4599
 172   2.0000      -0.566958       -15.4277
 173   2.0000      -0.551841       -15.0164
 174   2.0000      -0.549230       -14.9453
 175   2.0000      -0.545707       -14.8495
 176   2.0000      -0.542673       -14.7669
 177   2.0000      -0.542407       -14.7596
 178   2.0000      -0.537683       -14.6311
 179   2.0000      -0.536999       -14.6125
 180   2.0000      -0.534589       -14.5469
 181   2.0000      -0.527189       -14.3455
 182   2.0000      -0.523658       -14.2494
 183   2.0000      -0.521351       -14.1867
 184   2.0000      -0.518884       -14.1195
 185   2.0000      -0.518289       -14.1034
 186   2.0000      -0.516460       -14.0536
 187   2.0000      -0.514954       -14.0126
 188   2.0000      -0.511141       -13.9088
 189   2.0000      -0.510224       -13.8839
 190   2.0000      -0.507209       -13.8019
 191   2.0000      -0.502888       -13.6843
 192   2.0000      -0.501380       -13.6432
 193   2.0000      -0.498943       -13.5769
 194   2.0000      -0.498258       -13.5583
 195   2.0000      -0.496495       -13.5103
 196   2.0000      -0.496267       -13.5041
 197   2.0000      -0.491969       -13.3872
 198   2.0000      -0.490395       -13.3443
 199   2.0000      -0.488408       -13.2903
 200   2.0000      -0.485941       -13.2231
 201   2.0000      -0.484251       -13.1772
 202   2.0000      -0.479703       -13.0534
 203   2.0000      -0.478376       -13.0173
 204   2.0000      -0.476985       -12.9794
 205   2.0000      -0.472423       -12.8553
 206   2.0000      -0.468156       -12.7392
 207   2.0000      -0.464903       -12.6507
 208   2.0000      -0.460784       -12.5386
 209   2.0000      -0.457431       -12.4473
 210   2.0000      -0.456184       -12.4134
 211   2.0000      -0.454624       -12.3709
 212   2.0000      -0.452124       -12.3029
 213   2.0000      -0.447134       -12.1671
 214   2.0000      -0.445681       -12.1276
 215   2.0000      -0.442830       -12.0500
 216   2.0000      -0.441918       -12.0252
 217   2.0000      -0.440376       -11.9832
 218   2.0000      -0.438155       -11.9228
 219   2.0000      -0.435257       -11.8439
 220   2.0000      -0.428599       -11.6628
 221   2.0000      -0.425921       -11.5899
 222   2.0000      -0.423636       -11.5277
 223   2.0000      -0.421305       -11.4643
 224   2.0000      -0.410868       -11.1803
 225   2.0000      -0.407308       -11.0834
 226   2.0000      -0.394020       -10.7218
 227   2.0000      -0.388783       -10.5793
 228   2.0000      -0.388426       -10.5696
 229   2.0000      -0.388109       -10.5610
 230   2.0000      -0.387630       -10.5479
 231   2.0000      -0.382613       -10.4114
 232   2.0000      -0.382503       -10.4084
 233   2.0000      -0.380911       -10.3651
 234   2.0000      -0.371841       -10.1183
 235   2.0000      -0.367861       -10.0100
 236   2.0000      -0.366221        -9.9654
 237   2.0000      -0.364606        -9.9214
 238   2.0000      -0.363955        -9.9037
 239   2.0000      -0.362515        -9.8645
 240   2.0000      -0.358109        -9.7446
 241   2.0000      -0.357056        -9.7160
 242   2.0000      -0.355185        -9.6651
 243   2.0000      -0.345645        -9.4055
 244   2.0000      -0.344163        -9.3651
 245   2.0000      -0.339982        -9.2514
 246   2.0000      -0.339091        -9.2271
 247   2.0000      -0.337799        -9.1920
 248   2.0000      -0.335698        -9.1348
 249   2.0000      -0.334333        -9.0977
 250   2.0000      -0.320053        -8.7091
 251   2.0000      -0.309353        -8.4179
 252   2.0000      -0.284995        -7.7551
 253   2.0000      -0.267089        -7.2679
 254   2.0000      -0.245162        -6.6712
 255   0.0000      -0.100220        -2.7271
 256   0.0000      -0.092606        -2.5199
 257   0.0000      -0.068791        -1.8719
 258   0.0000      -0.058074        -1.5803
 259   0.0000      -0.034992        -0.9522

MULLIKEN ATOMIC CHARGES
-----------------------
   0 C :    0.252833
   1 C :   -0.319163
   2 C :   -0.167443
   3 N :    0.155106
   4 C :   -0.215725
   5 N :    0.171872
   6 C :    0.030573
   7 C :    0.014143
   8 C :   -0.054648
   9 C :    0.021267
  10 C :    0.032896
  11 C :   -0.040428
  12 C :    0.181506
  13 O :   -0.208998
  14 O :   -0.293267
  15 C :    0.188770
  16 C :    0.197593
  17 O :   -0.209634
  18 O :   -0.289158
  19 C :    0.186663
  20 C :    0.142153
  21 O :   -0.144419
  22 C :   -0.140407
  23 C :    0.050644
  24 C :   -0.085983
  25 C :    0.010313
  26 C :   -0.083224
  27 C :   -0.068104
  28 S :    0.170522
  29 C :   -0.094237
  30 C :   -0.094010
  31 Ge:    0.459990
  32 C :   -0.190167
  33 C :   -0.192551
  34 C :    0.006801
  35 C :   -0.143623
  36 S :    0.194363
  37 C :    0.014046
  38 C :    0.023295
  39 C :   -0.153451
  40 S :    0.197114
  41 C :   -0.151692
  42 C :    0.055820
  43 C :    0.046618
  44 C :    0.078705
  45 C :   -0.033365
  46 C :   -0.069219
  47 C :    0.064385
  48 C :   -0.053141
  49 S :    0.176453
  50 C :   -0.200581
  51 C :    0.214861
  52 C :   -0.033504
  53 N :    0.262833
  54 O :   -0.227243
  55 O :   -0.221293
  56 C :    0.109203
  57 C :   -0.105301
  58 C :   -0.042599
  59 C :    0.171608
  60 O :   -0.147273
  61 N :   -0.136430
  62 C :    0.104373
  63 O :   -0.235554
  64 C :    0.220230
  65 O :   -0.132404
  66 H :    0.004889
  67 H :    0.006941
  68 H :    0.031588
  69 H :    0.039076
  70 H :    0.034910
  71 H :    0.040202
  72 H :    0.041561
  73 H :    0.034816
  74 H :    0.024027
  75 H :   -0.007090
  76 H :    0.057896
  77 H :    0.047658
  78 H :    0.048048
  79 H :    0.068900
  80 H :    0.048769
  81 H :    0.047151
  82 H :   -0.011441
  83 H :   -0.002281
  84 H :   -0.004369
  85 H :    0.038199
  86 H :    0.003231
  87 H :    0.008946
  88 H :    0.129892
  89 H :    0.039171
Sum of atomic charges:   -0.0000000

LOEWDIN ATOMIC CHARGES
----------------------
   0 C :    0.059842
   1 C :   -0.140560
   2 C :   -0.021669
   3 N :   -0.047347
   4 C :   -0.036847
   5 N :   -0.048222
   6 C :    0.004970
   7 C :   -0.045833
   8 C :    0.038699
   9 C :   -0.045198
  10 C :    0.003583
  11 C :    0.009130
  12 C :    0.077119
  13 O :   -0.162851
  14 O :   -0.079862
  15 C :    0.084287
  16 C :    0.092660
  17 O :   -0.160498
  18 O :   -0.079500
  19 C :    0.084323
  20 C :    0.082906
  21 O :   -0.144917
  22 C :   -0.113529
  23 C :    0.055540
  24 C :   -0.187767
  25 C :   -0.004470
  26 C :   -0.172315
  27 C :   -0.155914
  28 S :    0.477316
  29 C :   -0.195455
  30 C :   -0.154731
  31 Ge:    0.518190
  32 C :   -0.199352
  33 C :   -0.197458
  34 C :   -0.034631
  35 C :   -0.181368
  36 S :    0.464580
  37 C :   -0.043349
  38 C :   -0.045561
  39 C :   -0.181005
  40 S :    0.470510
  41 C :   -0.188515
  42 C :   -0.027916
  43 C :   -0.036881
  44 C :   -0.041711
  45 C :   -0.030390
  46 C :   -0.015480
  47 C :   -0.029386
  48 C :   -0.152566
  49 S :    0.472955
  50 C :   -0.177264
  51 C :   -0.036432
  52 C :   -0.035362
  53 N :    0.287029
  54 O :   -0.186758
  55 O :   -0.183625
  56 C :    0.053385
  57 C :   -0.120026
  58 C :   -0.123814
  59 C :    0.081659
  60 O :   -0.166544
  61 N :    0.019642
  62 C :    0.134878
  63 O :   -0.044120
  64 C :    0.101540
  65 O :   -0.131995
  66 H :    0.044151
  67 H :    0.043389
  68 H :    0.024961
  69 H :    0.027435
  70 H :    0.023530
  71 H :    0.028373
  72 H :    0.027731
  73 H :    0.025078
  74 H :    0.051752
  75 H :    0.035677
  76 H :    0.041964
  77 H :    0.037915
  78 H :    0.038063
  79 H :    0.046461
  80 H :    0.038568
  81 H :    0.037724
  82 H :    0.034533
  83 H :    0.038066
  84 H :    0.037033
  85 H :    0.047810
  86 H :    0.037007
  87 H :    0.042867
  88 H :    0.085755
  89 H :    0.038408

  Mayer bond orders larger than 0.100000
B(  0-C ,  1-C ) :   1.6498 B(  0-C ,  6-C ) :   0.9939 B(  0-C , 22-C ) :   1.0514
B(  1-C ,  2-C ) :   1.1315 B(  1-C ,  4-C ) :   1.1548 B(  2-C ,  3-N ) :   2.9858
B(  4-C ,  5-N ) :   3.0279 B(  6-C ,  7-C ) :   1.3387 B(  6-C , 11-C ) :   1.3568
B(  7-C ,  8-C ) :   1.3515 B(  7-C , 20-C ) :   0.9135 B(  8-C ,  9-C ) :   1.3149
B(  8-C , 66-H ) :   1.0167 B(  9-C , 10-C ) :   1.4606 B(  9-C , 16-C ) :   0.9038
B( 10-C , 11-C ) :   1.3963 B( 10-C , 12-C ) :   0.8477 B( 11-C , 67-H ) :   0.9902
B( 12-C , 13-O ) :   2.1115 B( 12-C , 14-O ) :   1.2267 B( 14-O , 15-C ) :   0.9173
B( 15-C , 68-H ) :   0.9808 B( 15-C , 69-H ) :   0.9766 B( 15-C , 70-H ) :   0.9727
B( 16-C , 17-O ) :   2.0448 B( 16-C , 18-O ) :   1.2574 B( 18-O , 19-C ) :   0.9159
B( 19-C , 71-H ) :   0.9809 B( 19-C , 72-H ) :   0.9745 B( 19-C , 73-H ) :   0.9770
B( 20-C , 21-O ) :   2.2645 B( 20-C , 22-C ) :   0.9539 B( 22-C , 23-C ) :   1.5818
B( 23-C , 24-C ) :   1.1917 B( 23-C , 74-H ) :   0.9477 B( 24-C , 25-C ) :   1.3801
B( 24-C , 28-S ) :   1.0826 B( 25-C , 26-C ) :   1.3068 B( 25-C , 75-H ) :   1.0038
B( 26-C , 27-C ) :   1.4594 B( 26-C , 31-Ge) :   0.8679 B( 27-C , 28-S ) :   1.1496
B( 27-C , 29-C ) :   1.1760 B( 29-C , 30-C ) :   1.4935 B( 29-C , 36-S ) :   1.1045
B( 30-C , 31-Ge) :   0.8712 B( 30-C , 34-C ) :   1.2748 B( 31-Ge, 32-C ) :   1.0175
B( 31-Ge, 33-C ) :   1.0235 B( 32-C , 76-H ) :   0.9584 B( 32-C , 77-H ) :   0.9598
B( 32-C , 78-H ) :   0.9598 B( 33-C , 79-H ) :   0.9567 B( 33-C , 80-H ) :   0.9587
B( 33-C , 81-H ) :   0.9599 B( 34-C , 35-C ) :   1.4649 B( 34-C , 82-H ) :   1.0068
B( 35-C , 36-S ) :   1.1027 B( 35-C , 37-C ) :   0.9914 B( 37-C , 38-C ) :   2.3304
B( 38-C , 39-C ) :   0.9834 B( 39-C , 40-S ) :   1.1159 B( 39-C , 41-C ) :   0.1061
B( 39-C , 43-C ) :   1.4859 B( 40-S , 41-C ) :   1.1033 B( 41-C , 42-C ) :   1.4861
B( 41-C , 44-C ) :   0.9829 B( 42-C , 43-C ) :   1.2800 B( 42-C , 83-H ) :   1.0000
B( 43-C , 84-H ) :   1.0016 B( 44-C , 45-C ) :   2.2647 B( 45-C , 46-C ) :   1.0293
B( 46-C , 47-C ) :   1.7178 B( 46-C , 85-H ) :   0.9509 B( 47-C , 48-C ) :   1.1130
B( 47-C , 86-H ) :   0.9671 B( 48-C , 49-S ) :   1.1120 B( 48-C , 50-C ) :   0.1065
B( 48-C , 52-C ) :   1.4585 B( 49-S , 50-C ) :   1.1435 B( 50-C , 51-C ) :   1.4896
B( 50-C , 56-C ) :   1.0859 B( 51-C , 52-C ) :   1.2924 B( 51-C , 53-N ) :   0.8982
B( 52-C , 87-H ) :   0.9951 B( 53-N , 54-O ) :   1.5398 B( 53-N , 55-O ) :   1.5516
B( 54-O , 55-O ) :   0.2767 B( 56-C , 57-C ) :   1.4973 B( 56-C , 61-N ) :   1.2120
B( 57-C , 58-C ) :   1.1516 B( 57-C , 64-C ) :   0.9808 B( 58-C , 59-C ) :   0.9081
B( 58-C , 62-C ) :   1.5486 B( 59-C , 60-O ) :   2.2614 B( 59-C , 61-N ) :   1.0365
B( 61-N , 88-H ) :   0.9217 B( 62-C , 63-O ) :   1.1520 B( 62-C , 89-H ) :   0.9997
B( 63-O , 64-C ) :   0.9989 B( 64-C , 65-O ) :   2.2319

-----------------------------------------------------------------------------
         ABSORPTION SPECTRUM VIA TRANSITION ELECTRIC DIPOLE MOMENTS
-----------------------------------------------------------------------------
State   Energy  Wavelength   fosc         T2         TX        TY        TZ
        (cm-1)    (nm)                  (au**2)     (au)      (au)      (au)
-----------------------------------------------------------------------------
   0   16911.9    591.3   1.346675561  26.21471   4.68707   1.54822   1.35983
   1   20060.5    498.5   1.139653482  18.70278   0.74012   4.24110   0.40997
   2   23311.5    429.0   0.322332620   4.55207  -1.42071  -1.55469   0.34145
   3   24826.1    402.8   0.268638221   3.56233   1.79961   0.50125   0.26924
   4   25825.1    387.2   0.206151433   2.62797   0.46845  -1.49076   0.43146
   5   27289.8    366.4   0.158036464   1.90648  -0.64769  -1.19562  -0.23974
   6   28885.8    346.2   0.122309460   1.39396   0.63023  -0.97216  -0.22735
   7   29510.9    338.9   0.169417550   1.88995   1.20687   0.61111  -0.24488
   8   30350.4    329.5   0.067210989   0.72904   0.02705  -0.84420  -0.12501
   9   31360.6    318.9   0.032065581   0.33661  -0.48372  -0.29956   0.11354
  10   31421.0    318.3   0.004257127   0.04460   0.20862   0.03165   0.00883
  11   31549.1    317.0   0.021534176   0.22471  -0.18929   0.37639   0.21728
  12   32333.0    309.3   0.149602606   1.52324   1.18735  -0.01885  -0.33630
  13   32456.0    308.1   0.084071880   0.85277   0.70383  -0.27938   0.52852
  14   32983.9    303.2   0.038753284   0.38680   0.59834   0.16946   0.00818
  15   33207.3    301.1   0.064732161   0.64174  -0.04792  -0.52864  -0.59999
  16   33999.7    294.1   0.044896980   0.43473  -0.20110  -0.30653   0.54802
  17   34489.2    289.9   0.047684367   0.45516   0.38777  -0.55207   0.00373
  18   35172.5    284.3   0.035512034   0.33239   0.53334  -0.19557   0.09842
  19   35744.9    279.8   0.086701307   0.79852  -0.79482  -0.12002   0.39036
  20   36145.0    276.7   0.272181369   2.47905   1.25232  -0.93263  -0.20233
  21   36643.5    272.9   0.012658748   0.11373  -0.19999  -0.09544  -0.25421
  22   36688.1    272.6   0.096201552   0.86324  -0.43237  -0.81083  -0.13729
  23   37141.9    269.2   0.159690798   1.41544  -0.94321  -0.26727   0.67407
  24   37410.8    267.3   0.063294472   0.55699   0.67825   0.07399  -0.30248
  25   37862.2    264.1   0.104651549   0.90995   0.76475  -0.54507  -0.16732
  26   38427.2    260.2   0.052282681   0.44791  -0.49811  -0.42131  -0.14931
  27   38719.6    258.3   0.014425210   0.12265  -0.13465  -0.12587  -0.29779
  28   39059.4    256.0   0.128886849   1.08632  -0.83879   0.60316  -0.13769
  29   39626.4    252.4   0.022233346   0.18471  -0.38032   0.16231   0.11715
  30   39936.5    250.4   0.060983624   0.50271   0.37754   0.58705  -0.12468
  31   40011.6    249.9   0.090841127   0.74743   0.60477  -0.38441  -0.48365

FINAL SINGLE POINT ENERGY     -6442.178607594833

DIPOLE MOMENT
-------------
                                X             Y             Z
Electronic contribution:     37.17591     -24.82890      -6.19432
Nuclear contribution   :    -38.21171      20.84956       7.45490
                        -----------------------------------------
Total Dipole Moment    :     -1.03580      -3.97934       1.26058
                        -----------------------------------------
Magnitude (a.u.)       :      4.30082
Magnitude (Debye)      :     10.93182

Rotational constants in cm-1:     0.000969     0.000207     0.000174
Rotational constants in MHz :    29.043649     6.200753     5.204919

                             ****ORCA TERMINATED NORMALLY****
TOTAL RUN TIME: 0 days 0 hours 11 minutes 21 seconds 336 msec
