                         Program Version 4.2.0 -  RELEASE  -
|  1> # ORCA input file
|  2> # SCF done       -136.314402844561          0.000314515489
|  3> ! CAM-B3LYP def2-SVP def2/J RIJCOSX Grid4 TightSCF
|  4> %maxcore 5000
|  5> %tddft
|  6>     Mode sTDDFT
|  7>     Ethresh 5.0
|  8>     maxcore 5000
|  9> end
| 10>
| 11> %pal
| 12>   nprocs 6
| 13>   end
| 14> * xyz 0 1
| 15>    C       -0.04501        -2.09920         2.15049
| 16>    C        1.36164        -1.77665         1.83914
| 17>    N        2.24924        -2.62539         1.50701
| 18>    C        3.45819        -2.04406         1.25707
| 19>    C        4.67974        -2.55863         0.90256
| 20>    C        5.02933        -3.92789         0.60364
| 21>    C        6.17266        -4.55843         1.04010
| 22>    C        7.13485        -4.08027         1.98121
| 23>    C        6.93756        -3.19796         3.02162
| 24>    C        8.09320        -2.92906         3.75896
| 25>    C        9.18613        -3.64317         3.26403
| 26>    S        8.79101        -4.63254         1.91849
| 27>    C       10.41678        -3.42432         3.93958
| 28>    S       11.97403        -4.11029         3.70306
| 29>    C       12.60668        -3.16313         5.02575
| 30>    C       13.99328        -3.25832         5.42330
| 31>    C       14.40731        -3.40679         6.72762
| 32>    C       13.63948        -3.65966         7.90399
| 33>    S       12.00963        -4.30874         7.86522
| 34>    C       11.90713        -4.40813         9.57833
| 35>    C       13.05458        -3.97070        10.16921
| 36>    N       13.44228        -3.84784        11.47168
| 37>    C       14.62057        -3.38396        11.58079
| 38>    C       15.32410        -3.13199        12.85397
| 39>    S       15.46333        -3.01665        10.03533
| 40>    C       14.04165        -3.55712         9.21111
| 41>    S       16.15619        -3.36401         6.88541
| 42>    C       16.34058        -3.17812         5.17116
| 43>    C       17.54047        -3.06595         4.48194
| 44>    C       17.50458        -2.91421         3.11469
| 45>    C       16.27186        -2.86532         2.44195
| 46>    C       16.25784        -2.69638         1.03818
| 47>    N       16.25030        -2.55751        -0.09976
| 48>    C       15.07184        -2.97322         3.13013
| 49>    C       15.09498        -3.14148         4.51255
| 50>    C       11.63779        -2.36546         5.58236
| 51>    C       10.37952        -2.49978         4.98208
| 52>   Si        8.63647        -1.84953         5.18875
| 53>    C        8.45198        -0.02361         4.81444
| 54>    C        7.88753        -2.33510         6.83550
| 55>    S        6.34910        -6.16653         0.36902
| 56>    C        4.85329        -6.01024        -0.49585
| 57>    C        4.27893        -6.96356        -1.32593
| 58>    C        3.08267        -6.67064        -1.94009
| 59>    C        2.46890        -5.42427        -1.72967
| 60>    C        1.23949        -5.13824        -2.36579
| 61>    N        0.24058        -4.90691        -2.87916
| 62>    C        3.04604        -4.46732        -0.90713
| 63>    C        4.24886        -4.75705        -0.26939
| 64>    S        5.84089        -1.26242         0.75351
| 65>    C        4.68747        -0.05350         1.19495
| 66>    C        3.47802        -0.61541         1.43030
| 67>    S        1.90199        -0.06465         1.90755
| 68>    H       -0.18151        -3.17717         2.13460
| 69>    H       -0.70404        -1.64208         1.41271
| 70>    H       -0.31533        -1.70690         3.12981
| 71>    H        5.97285        -2.78316         3.25283
| 72>    H       11.01526        -4.77543        10.04215
| 73>    H       14.68683        -3.42298        13.68448
| 74>    H       15.57551        -2.07552        12.94001
| 75>    H       16.25254        -3.70030        12.88823
| 76>    H       18.47783        -3.09839         5.01447
| 77>    H       18.41927        -2.82739         2.54842
| 78>    H       14.13495        -2.92841         2.59628
| 79>    H       11.84434        -1.68961         6.39359
| 80>    H        8.88270         0.24269         3.85107
| 81>    H        8.93913         0.59462         5.56563
| 82>    H        7.40561         0.27404         4.78906
| 83>    H        8.00649        -3.39711         7.04153
| 84>    H        6.82213        -2.11785         6.87398
| 85>    H        8.35100        -1.79641         7.65956
| 86>    H        4.76643        -7.91319        -1.48137
| 87>    H        2.60791        -7.39138        -2.58828
| 88>    H        2.55997        -3.51759        -0.75449
| 89>    H        4.98378         0.97386         1.24200
| 90> *
| 91>
| 92>                          ****END OF INPUT****

CARTESIAN COORDINATES (ANGSTROEM)
---------------------------------
  C     -0.045010   -2.099200    2.150490
  C      1.361640   -1.776650    1.839140
  N      2.249240   -2.625390    1.507010
  C      3.458190   -2.044060    1.257070
  C      4.679740   -2.558630    0.902560
  C      5.029330   -3.927890    0.603640
  C      6.172660   -4.558430    1.040100
  C      7.134850   -4.080270    1.981210
  C      6.937560   -3.197960    3.021620
  C      8.093200   -2.929060    3.758960
  C      9.186130   -3.643170    3.264030
  S      8.791010   -4.632540    1.918490
  C     10.416780   -3.424320    3.939580
  S     11.974030   -4.110290    3.703060
  C     12.606680   -3.163130    5.025750
  C     13.993280   -3.258320    5.423300
  C     14.407310   -3.406790    6.727620
  C     13.639480   -3.659660    7.903990
  S     12.009630   -4.308740    7.865220
  C     11.907130   -4.408130    9.578330
  C     13.054580   -3.970700   10.169210
  N     13.442280   -3.847840   11.471680
  C     14.620570   -3.383960   11.580790
  C     15.324100   -3.131990   12.853970
  S     15.463330   -3.016650   10.035330
  C     14.041650   -3.557120    9.211110
  S     16.156190   -3.364010    6.885410
  C     16.340580   -3.178120    5.171160
  C     17.540470   -3.065950    4.481940
  C     17.504580   -2.914210    3.114690
  C     16.271860   -2.865320    2.441950
  C     16.257840   -2.696380    1.038180
  N     16.250300   -2.557510   -0.099760
  C     15.071840   -2.973220    3.130130
  C     15.094980   -3.141480    4.512550
  C     11.637790   -2.365460    5.582360
  C     10.379520   -2.499780    4.982080
  Si     8.636470   -1.849530    5.188750
  C      8.451980   -0.023610    4.814440
  C      7.887530   -2.335100    6.835500
  S      6.349100   -6.166530    0.369020
  C      4.853290   -6.010240   -0.495850
  C      4.278930   -6.963560   -1.325930
  C      3.082670   -6.670640   -1.940090
  C      2.468900   -5.424270   -1.729670
  C      1.239490   -5.138240   -2.365790
  N      0.240580   -4.906910   -2.879160
  C      3.046040   -4.467320   -0.907130
  C      4.248860   -4.757050   -0.269390
  S      5.840890   -1.262420    0.753510
  C      4.687470   -0.053500    1.194950
  C      3.478020   -0.615410    1.430300
  S      1.901990   -0.064650    1.907550
  H     -0.181510   -3.177170    2.134600
  H     -0.704040   -1.642080    1.412710
  H     -0.315330   -1.706900    3.129810
  H      5.972850   -2.783160    3.252830
  H     11.015260   -4.775430   10.042150
  H     14.686830   -3.422980   13.684480
  H     15.575510   -2.075520   12.940010
  H     16.252540   -3.700300   12.888230
  H     18.477830   -3.098390    5.014470
  H     18.419270   -2.827390    2.548420
  H     14.134950   -2.928410    2.596280
  H     11.844340   -1.689610    6.393590
  H      8.882700    0.242690    3.851070
  H      8.939130    0.594620    5.565630
  H      7.405610    0.274040    4.789060
  H      8.006490   -3.397110    7.041530
  H      6.822130   -2.117850    6.873980
  H      8.351000   -1.796410    7.659560
  H      4.766430   -7.913190   -1.481370
  H      2.607910   -7.391380   -2.588280
  H      2.559970   -3.517590   -0.754490
  H      4.983780    0.973860    1.242000

 Total Charge           Charge          ....    0
 Multiplicity           Mult            ....    1
 Number of Electrons    NEL             ....  432
 Basis Dimension        Dim             ....  888

ORBITAL ENERGIES
----------------

  NO   OCC          E(Eh)            E(eV)
   0   2.0000     -88.965971     -2420.8872
   1   2.0000     -88.964348     -2420.8430
   2   2.0000     -88.963654     -2420.8241
   3   2.0000     -88.962886     -2420.8032
   4   2.0000     -88.959928     -2420.7227
   5   2.0000     -88.957112     -2420.6461
   6   2.0000     -88.956862     -2420.6393
   7   2.0000     -88.951355     -2420.4894
   8   2.0000     -66.195491     -1801.2709
   9   2.0000     -14.411847      -392.1663
  10   2.0000     -14.410335      -392.1251
  11   2.0000     -14.396356      -391.7448
  12   2.0000     -14.391084      -391.6013
  13   2.0000     -10.346809      -281.5510
  14   2.0000     -10.345852      -281.5249
  15   2.0000     -10.323592      -280.9192
  16   2.0000     -10.316700      -280.7317
  17   2.0000     -10.316285      -280.7204
  18   2.0000     -10.314499      -280.6718
  19   2.0000     -10.309636      -280.5394
  20   2.0000     -10.308387      -280.5055
  21   2.0000     -10.308233      -280.5013
  22   2.0000     -10.308063      -280.4967
  23   2.0000     -10.307861      -280.4912
  24   2.0000     -10.307538      -280.4824
  25   2.0000     -10.305990      -280.4402
  26   2.0000     -10.305402      -280.4243
  27   2.0000     -10.305152      -280.4174
  28   2.0000     -10.303777      -280.3800
  29   2.0000     -10.301982      -280.3312
  30   2.0000     -10.300925      -280.3024
  31   2.0000     -10.300752      -280.2977
  32   2.0000     -10.299766      -280.2709
  33   2.0000     -10.296105      -280.1713
  34   2.0000     -10.295668      -280.1594
  35   2.0000     -10.294780      -280.1352
  36   2.0000     -10.293812      -280.1089
  37   2.0000     -10.292718      -280.0791
  38   2.0000     -10.292190      -280.0647
  39   2.0000     -10.291781      -280.0536
  40   2.0000     -10.291256      -280.0393
  41   2.0000     -10.287494      -279.9370
  42   2.0000     -10.286062      -279.8980
  43   2.0000     -10.285535      -279.8836
  44   2.0000     -10.285110      -279.8721
  45   2.0000     -10.283314      -279.8232
  46   2.0000     -10.279439      -279.7178
  47   2.0000     -10.277507      -279.6652
  48   2.0000     -10.277283      -279.6591
  49   2.0000     -10.254838      -279.0483
  50   2.0000     -10.254603      -279.0419
  51   2.0000     -10.251869      -278.9675
  52   2.0000     -10.251642      -278.9614
  53   2.0000      -8.060232      -219.3301
  54   2.0000      -8.059453      -219.3089
  55   2.0000      -8.059149      -219.3006
  56   2.0000      -8.058641      -219.2868
  57   2.0000      -8.054625      -219.1775
  58   2.0000      -8.053269      -219.1406
  59   2.0000      -8.053023      -219.1339
  60   2.0000      -8.047743      -218.9902
  61   2.0000      -6.029777      -164.0786
  62   2.0000      -6.028603      -164.0466
  63   2.0000      -6.028289      -164.0381
  64   2.0000      -6.028222      -164.0363
  65   2.0000      -6.025254      -163.9555
  66   2.0000      -6.024571      -163.9369
  67   2.0000      -6.024303      -163.9296
  68   2.0000      -6.024155      -163.9256
  69   2.0000      -6.024153      -163.9255
  70   2.0000      -6.022926      -163.8922
  71   2.0000      -6.022509      -163.8808
  72   2.0000      -6.022379      -163.8773
  73   2.0000      -6.021807      -163.8617
  74   2.0000      -6.021416      -163.8511
  75   2.0000      -6.019976      -163.8119
  76   2.0000      -6.019686      -163.8040
  77   2.0000      -6.018864      -163.7816
  78   2.0000      -6.018522      -163.7723
  79   2.0000      -6.017401      -163.7418
  80   2.0000      -6.016713      -163.7231
  81   2.0000      -6.014402      -163.6602
  82   2.0000      -6.014335      -163.6584
  83   2.0000      -6.013475      -163.6350
  84   2.0000      -6.008700      -163.5050
  85   2.0000      -5.361895      -145.9046
  86   2.0000      -3.725331      -101.3714
  87   2.0000      -3.723992      -101.3350
  88   2.0000      -3.722939      -101.3063
  89   2.0000      -1.068852       -29.0849
  90   2.0000      -1.066740       -29.0275
  91   2.0000      -1.012724       -27.5576
  92   2.0000      -1.006977       -27.4012
  93   2.0000      -0.994438       -27.0600
  94   2.0000      -0.985805       -26.8251
  95   2.0000      -0.979716       -26.6594
  96   2.0000      -0.976842       -26.5812
  97   2.0000      -0.971974       -26.4487
  98   2.0000      -0.970418       -26.4064
  99   2.0000      -0.941305       -25.6142
 100   2.0000      -0.935598       -25.4589
 101   2.0000      -0.898665       -24.4539
 102   2.0000      -0.898466       -24.4485
 103   2.0000      -0.893470       -24.3125
 104   2.0000      -0.874085       -23.7851
 105   2.0000      -0.869131       -23.6503
 106   2.0000      -0.864157       -23.5149
 107   2.0000      -0.858384       -23.3578
 108   2.0000      -0.856888       -23.3171
 109   2.0000      -0.843747       -22.9595
 110   2.0000      -0.841907       -22.9095
 111   2.0000      -0.833415       -22.6784
 112   2.0000      -0.823563       -22.4103
 113   2.0000      -0.821489       -22.3539
 114   2.0000      -0.805406       -21.9162
 115   2.0000      -0.794466       -21.6185
 116   2.0000      -0.792703       -21.5705
 117   2.0000      -0.787460       -21.4279
 118   2.0000      -0.779079       -21.1998
 119   2.0000      -0.770334       -20.9619
 120   2.0000      -0.768182       -20.9033
 121   2.0000      -0.730866       -19.8879
 122   2.0000      -0.728239       -19.8164
 123   2.0000      -0.708656       -19.2835
 124   2.0000      -0.704229       -19.1631
 125   2.0000      -0.697930       -18.9916
 126   2.0000      -0.684063       -18.6143
 127   2.0000      -0.673547       -18.3282
 128   2.0000      -0.669168       -18.2090
 129   2.0000      -0.667631       -18.1672
 130   2.0000      -0.658604       -17.9215
 131   2.0000      -0.645375       -17.5616
 132   2.0000      -0.640774       -17.4363
 133   2.0000      -0.631664       -17.1885
 134   2.0000      -0.626021       -17.0349
 135   2.0000      -0.621522       -16.9125
 136   2.0000      -0.610070       -16.6009
 137   2.0000      -0.599045       -16.3008
 138   2.0000      -0.582889       -15.8612
 139   2.0000      -0.581668       -15.8280
 140   2.0000      -0.579294       -15.7634
 141   2.0000      -0.570786       -15.5319
 142   2.0000      -0.566385       -15.4121
 143   2.0000      -0.559906       -15.2358
 144   2.0000      -0.556962       -15.1557
 145   2.0000      -0.546461       -14.8700
 146   2.0000      -0.542285       -14.7563
 147   2.0000      -0.540394       -14.7049
 148   2.0000      -0.539329       -14.6759
 149   2.0000      -0.535669       -14.5763
 150   2.0000      -0.533632       -14.5209
 151   2.0000      -0.524638       -14.2761
 152   2.0000      -0.521919       -14.2021
 153   2.0000      -0.517073       -14.0703
 154   2.0000      -0.514353       -13.9963
 155   2.0000      -0.511830       -13.9276
 156   2.0000      -0.509199       -13.8560
 157   2.0000      -0.508102       -13.8262
 158   2.0000      -0.504507       -13.7283
 159   2.0000      -0.503931       -13.7127
 160   2.0000      -0.499615       -13.5952
 161   2.0000      -0.496470       -13.5096
 162   2.0000      -0.493868       -13.4388
 163   2.0000      -0.490914       -13.3585
 164   2.0000      -0.490100       -13.3363
 165   2.0000      -0.486478       -13.2377
 166   2.0000      -0.478013       -13.0074
 167   2.0000      -0.476711       -12.9720
 168   2.0000      -0.473499       -12.8846
 169   2.0000      -0.472562       -12.8591
 170   2.0000      -0.468685       -12.7536
 171   2.0000      -0.467323       -12.7165
 172   2.0000      -0.462368       -12.5817
 173   2.0000      -0.460643       -12.5347
 174   2.0000      -0.457900       -12.4601
 175   2.0000      -0.456168       -12.4130
 176   2.0000      -0.448816       -12.2129
 177   2.0000      -0.445661       -12.1271
 178   2.0000      -0.443546       -12.0695
 179   2.0000      -0.440403       -11.9840
 180   2.0000      -0.438537       -11.9332
 181   2.0000      -0.433167       -11.7871
 182   2.0000      -0.432810       -11.7774
 183   2.0000      -0.429743       -11.6939
 184   2.0000      -0.425735       -11.5848
 185   2.0000      -0.423976       -11.5370
 186   2.0000      -0.420467       -11.4415
 187   2.0000      -0.419532       -11.4160
 188   2.0000      -0.416983       -11.3467
 189   2.0000      -0.413434       -11.2501
 190   2.0000      -0.412385       -11.2216
 191   2.0000      -0.404223       -10.9995
 192   2.0000      -0.401424       -10.9233
 193   2.0000      -0.399392       -10.8680
 194   2.0000      -0.396275       -10.7832
 195   2.0000      -0.394515       -10.7353
 196   2.0000      -0.386291       -10.5115
 197   2.0000      -0.381353       -10.3771
 198   2.0000      -0.378018       -10.2864
 199   2.0000      -0.376676       -10.2499
 200   2.0000      -0.371864       -10.1189
 201   2.0000      -0.362159        -9.8548
 202   2.0000      -0.351079        -9.5534
 203   2.0000      -0.349428        -9.5084
 204   2.0000      -0.346379        -9.4255
 205   2.0000      -0.328605        -8.9418
 206   2.0000      -0.327792        -8.9197
 207   2.0000      -0.326548        -8.8858
 208   2.0000      -0.311198        -8.4681
 209   2.0000      -0.303122        -8.2484
 210   2.0000      -0.302335        -8.2270
 211   2.0000      -0.298564        -8.1243
 212   2.0000      -0.295800        -8.0491
 213   2.0000      -0.277054        -7.5390
 214   2.0000      -0.261305        -7.1105
 215   2.0000      -0.236733        -6.4418
 216   0.0000      -0.055327        -1.5055
 217   0.0000      -0.037370        -1.0169
 218   0.0000      -0.013004        -0.3539
 219   0.0000      -0.010491        -0.2855
 220   0.0000      -0.002535        -0.0690

MULLIKEN ATOMIC CHARGES
-----------------------
   0 C :    0.120799
   1 C :   -0.196796
   2 N :   -0.027670
   3 C :    0.144235
   4 C :   -0.344187
   5 C :    0.137581
   6 C :   -0.098181
   7 C :   -0.124321
   8 C :   -0.000985
   9 C :   -0.136109
  10 C :   -0.077495
  11 S :    0.157942
  12 C :   -0.082105
  13 S :    0.162736
  14 C :   -0.218851
  15 C :    0.139123
  16 C :   -0.103935
  17 C :   -0.210048
  18 S :    0.155759
  19 C :   -0.165756
  20 C :    0.131033
  21 N :   -0.016912
  22 C :   -0.204032
  23 C :    0.126035
  24 S :    0.081390
  25 C :   -0.016281
  26 S :    0.130979
  27 C :   -0.060540
  28 C :    0.007834
  29 C :    0.035827
  30 C :   -0.095047
  31 C :   -0.143086
  32 N :    0.097143
  33 C :   -0.049054
  34 C :    0.109806
  35 C :    0.017404
  36 C :   -0.141225
  37 Si:    0.528123
  38 C :   -0.198601
  39 C :   -0.200366
  40 S :    0.139972
  41 C :   -0.063159
  42 C :    0.003068
  43 C :    0.034247
  44 C :   -0.104698
  45 C :   -0.141761
  46 N :    0.093736
  47 C :   -0.020176
  48 C :    0.104083
  49 S :    0.165244
  50 C :   -0.195005
  51 C :    0.029125
  52 S :    0.072100
  53 H :    0.045733
  54 H :    0.048724
  55 H :    0.036475
  56 H :   -0.002475
  57 H :    0.020749
  58 H :    0.042269
  59 H :    0.040956
  60 H :    0.039606
  61 H :   -0.014751
  62 H :   -0.002114
  63 H :   -0.005697
  64 H :   -0.012449
  65 H :    0.053195
  66 H :    0.043233
  67 H :    0.042161
  68 H :    0.051141
  69 H :    0.044498
  70 H :    0.042703
  71 H :   -0.017191
  72 H :   -0.003922
  73 H :   -0.007327
  74 H :    0.025543
Sum of atomic charges:    0.0000000

LOEWDIN ATOMIC CHARGES
----------------------
   0 C :   -0.066545
   1 C :   -0.086571
   2 N :   -0.099047
   3 C :   -0.067718
   4 C :   -0.187137
   5 C :   -0.073014
   6 C :   -0.163333
   7 C :   -0.209133
   8 C :   -0.043465
   9 C :   -0.204876
  10 C :   -0.190056
  11 S :    0.440606
  12 C :   -0.191429
  13 S :    0.451267
  14 C :   -0.194135
  15 C :   -0.082275
  16 C :   -0.155947
  17 C :   -0.225960
  18 S :    0.482426
  19 C :   -0.185216
  20 C :   -0.070974
  21 N :   -0.093989
  22 C :   -0.091466
  23 C :   -0.066572
  24 S :    0.339806
  25 C :   -0.204684
  26 S :    0.415580
  27 C :   -0.144323
  28 C :   -0.032027
  29 C :    0.002789
  30 C :   -0.073353
  31 C :   -0.029044
  32 N :   -0.062034
  33 C :    0.010340
  34 C :   -0.038594
  35 C :   -0.053272
  36 C :   -0.206214
  37 Si:    0.666459
  38 C :   -0.242903
  39 C :   -0.243223
  40 S :    0.411498
  41 C :   -0.144054
  42 C :   -0.035000
  43 C :    0.001649
  44 C :   -0.076659
  45 C :   -0.027364
  46 N :   -0.068552
  47 C :    0.027668
  48 C :   -0.031060
  49 S :    0.467860
  50 C :   -0.213068
  51 C :   -0.210075
  52 S :    0.334838
  53 H :    0.048930
  54 H :    0.048050
  55 H :    0.042386
  56 H :    0.030450
  57 H :    0.030515
  58 H :    0.047797
  59 H :    0.044325
  60 H :    0.043817
  61 H :    0.034499
  62 H :    0.039500
  63 H :    0.029216
  64 H :    0.027773
  65 H :    0.041413
  66 H :    0.036340
  67 H :    0.036498
  68 H :    0.040284
  69 H :    0.036731
  70 H :    0.036444
  71 H :    0.033591
  72 H :    0.038512
  73 H :    0.038788
  74 H :    0.025717

  Mayer bond orders larger than 0.100000
B(  0-C ,  1-C ) :   1.0673 B(  0-C , 53-H ) :   0.9498 B(  0-C , 54-H ) :   0.9446
B(  0-C , 55-H ) :   0.9445 B(  1-C ,  2-N ) :   1.8200 B(  1-C , 52-S ) :   1.0400
B(  2-N ,  3-C ) :   1.2674 B(  2-N , 52-S ) :   0.1031 B(  3-C ,  4-C ) :   1.4904
B(  3-C , 51-C ) :   1.1854 B(  4-C ,  5-C ) :   1.0248 B(  4-C , 49-S ) :   1.1745
B(  4-C , 50-C ) :   0.1167 B(  5-C ,  6-C ) :   1.5960 B(  5-C , 48-C ) :   1.1491
B(  6-C ,  7-C ) :   1.0766 B(  6-C , 40-S ) :   1.0831 B(  7-C ,  8-C ) :   1.5122
B(  7-C , 10-C ) :   0.1096 B(  7-C , 11-S ) :   1.1024 B(  8-C ,  9-C ) :   1.2534
B(  8-C , 56-H ) :   0.9998 B(  9-C , 10-C ) :   1.5229 B(  9-C , 37-Si) :   0.8808
B( 10-C , 11-S ) :   1.1212 B( 10-C , 12-C ) :   1.1343 B( 12-C , 13-S ) :   1.1144
B( 12-C , 14-C ) :   0.1085 B( 12-C , 36-C ) :   1.5370 B( 13-S , 14-C ) :   1.1110
B( 14-C , 15-C ) :   0.9794 B( 14-C , 35-C ) :   1.5352 B( 15-C , 16-C ) :   1.5819
B( 15-C , 34-C ) :   1.1490 B( 16-C , 17-C ) :   1.1397 B( 16-C , 26-S ) :   1.0812
B( 17-C , 18-S ) :   1.1481 B( 17-C , 19-C ) :   0.1087 B( 17-C , 25-C ) :   1.5170
B( 18-S , 19-C ) :   1.1596 B( 19-C , 20-C ) :   1.4938 B( 19-C , 57-H ) :   0.9796
B( 20-C , 21-N ) :   1.2450 B( 20-C , 25-C ) :   1.2075 B( 21-N , 22-C ) :   1.8591
B( 22-C , 23-C ) :   1.0653 B( 22-C , 24-S ) :   1.0175 B( 23-C , 58-H ) :   0.9492
B( 23-C , 59-H ) :   0.9451 B( 23-C , 60-H ) :   0.9450 B( 24-S , 25-C ) :   1.0485
B( 26-S , 27-C ) :   1.0671 B( 27-C , 28-C ) :   1.3400 B( 27-C , 34-C ) :   1.3049
B( 28-C , 29-C ) :   1.4255 B( 28-C , 61-H ) :   0.9957 B( 29-C , 30-C ) :   1.3270
B( 29-C , 62-H ) :   0.9928 B( 30-C , 31-C ) :   1.0588 B( 30-C , 33-C ) :   1.4220
B( 31-C , 32-N ) :   3.0518 B( 33-C , 34-C ) :   1.2998 B( 33-C , 63-H ) :   0.9840
B( 35-C , 36-C ) :   1.2390 B( 35-C , 64-H ) :   1.0050 B( 36-C , 37-Si) :   0.8809
B( 37-Si, 38-C ) :   1.0552 B( 37-Si, 39-C ) :   1.0534 B( 38-C , 65-H ) :   0.9508
B( 38-C , 66-H ) :   0.9537 B( 38-C , 67-H ) :   0.9539 B( 39-C , 68-H ) :   0.9509
B( 39-C , 69-H ) :   0.9542 B( 39-C , 70-H ) :   0.9540 B( 40-S , 41-C ) :   1.0619
B( 41-C , 42-C ) :   1.3389 B( 41-C , 48-C ) :   1.3080 B( 42-C , 43-C ) :   1.4297
B( 42-C , 71-H ) :   0.9952 B( 43-C , 44-C ) :   1.3203 B( 43-C , 72-H ) :   0.9927
B( 44-C , 45-C ) :   1.0607 B( 44-C , 47-C ) :   1.4170 B( 45-C , 46-N ) :   3.0520
B( 47-C , 48-C ) :   1.3171 B( 47-C , 73-H ) :   0.9845 B( 49-S , 50-C ) :   1.1539
B( 50-C , 51-C ) :   1.5568 B( 50-C , 74-H ) :   0.9793 B( 51-C , 52-S ) :   1.0192

-----------------------------------------------------------------------------
         ABSORPTION SPECTRUM VIA TRANSITION ELECTRIC DIPOLE MOMENTS
-----------------------------------------------------------------------------
State   Energy  Wavelength   fosc         T2         TX        TY        TZ
        (cm-1)    (nm)                  (au**2)     (au)      (au)      (au)
-----------------------------------------------------------------------------
   0   23093.3    433.0   1.190829395  16.97611  -3.17116   0.11147  -2.62820
   1   27281.2    366.6   0.151371724   1.82666  -1.27034  -0.01436   0.46119
   2   29188.8    342.6   0.098510770   1.11107  -0.42838   0.37269   0.88807
   3   31020.0    322.4   0.004495189   0.04771  -0.04256  -0.14853   0.15438
   4   32135.2    311.2   0.605750265   6.20567   1.85123   1.60496  -0.45021
   5   33555.2    298.0   0.017018250   0.16697   0.37497   0.15469  -0.04932
   6   34518.7    289.7   0.169048543   1.61225  -0.55030  -0.04411   1.14345
   7   34920.4    286.4   0.135155153   1.27418  -0.43738   0.18245   1.02449
   8   35128.7    284.7   0.366965546   3.43905  -0.23949  -0.72895  -1.68829
   9   35986.4    277.9   0.060628804   0.55465   0.03115  -0.47979  -0.56875
  10   36459.8    274.3   0.073668860   0.66519  -0.67991   0.37141   0.25488
  11   36882.1    271.1   0.075052549   0.66992  -0.78803  -0.02987  -0.21917
  12   37828.4    264.4   0.027152991   0.23631   0.20591   0.06119   0.43608
  13   38289.4    261.2   0.151088983   1.29906   0.42882   0.39781   0.97822
  14   38880.1    257.2   0.114305839   0.96787  -0.56528   0.61932   0.51456
  15   39604.2    252.5   0.015366570   0.12774  -0.01174   0.31215  -0.17367

FINAL SINGLE POINT ENERGY     -5228.274635321592

DIPOLE MOMENT
-------------
                                X             Y             Z
Electronic contribution:     16.07845     -12.94811     -19.97542
Nuclear contribution   :    -15.20805      13.73522      23.70472
                        -----------------------------------------
Total Dipole Moment    :      0.87040       0.78711       3.72930
                        -----------------------------------------
Magnitude (a.u.)       :      3.90958
Magnitude (Debye)      :      9.93736

Rotational constants in cm-1:     0.002433     0.000539     0.000490
Rotational constants in MHz :    72.926899    16.146256    14.696004

                             ****ORCA TERMINATED NORMALLY****
TOTAL RUN TIME: 0 days 0 hours 5 minutes 50 seconds 34 msec
