                         Program Version 4.2.0 -  RELEASE  -
|  1> # ORCA input file
|  2> # SCF done       -180.554890430794          0.000776118465
|  3> ! CAM-B3LYP def2-SVP def2/J RIJCOSX Grid4 TightSCF
|  4> %maxcore 5000
|  5> %tddft
|  6>     Mode sTDDFT
|  7>     Ethresh 5.0
|  8>     maxcore 5000
|  9> end
| 10>
| 11> %pal
| 12>   nprocs 6
| 13>   end
| 14> * xyz 0 1
| 15>    C        0.86544         4.48069        -0.72475
| 16>    C        1.62149         3.97379        -1.74669
| 17>    C        1.73200         4.56951        -3.02030
| 18>    N        1.86885         5.01007        -4.07107
| 19>    C        2.31204         2.74702        -1.67199
| 20>    N        2.86476         1.74090        -1.66698
| 21>    C       -0.07038         5.59745        -0.84317
| 22>    C       -0.98469         5.54400         0.22563
| 23>    C       -2.00547         6.46400         0.34780
| 24>    C       -2.11946         7.46107        -0.61815
| 25>    C       -1.19558         7.53842        -1.66621
| 26>    C       -0.16931         6.60336        -1.78834
| 27>    C       -1.24869         8.68076        -2.62869
| 28>    O       -1.47977         9.82203        -2.32261
| 29>    O       -0.96171         8.27584        -3.86521
| 30>    C       -0.94555         9.27676        -4.87373
| 31>    C       -3.24834         8.43592        -0.51260
| 32>    O       -3.58363         8.96911         0.51053
| 33>    O       -3.86678         8.57824        -1.68694
| 34>    C       -4.90797         9.54476        -1.74361
| 35>    C       -0.63993         4.40547         1.10822
| 36>    O       -1.24034         4.00575         2.07680
| 37>    C        0.64463         3.87470         0.56896
| 38>    C        1.38855         3.04058         1.34343
| 39>    C        2.76726         2.69159         1.25003
| 40>    C        3.26457         1.54792         1.86355
| 41>    C        4.59867         1.15101         1.79592
| 42>    C        5.58723         1.88374         1.14834
| 43>    C        5.13948         3.10828         0.56747
| 44>    C        3.74833         3.49620         0.60978
| 45>    N        3.64997         4.67255         0.02427
| 46>    O        4.88258         5.00197        -0.36396
| 47>    N        5.78518         4.07734        -0.04867
| 48>    C        6.95338         1.44619         1.07023
| 49>    C        7.93921         2.16949         0.40149
| 50>    C        9.26691         1.76559         0.29872
| 51>    C        9.74264         0.58391         0.85836
| 52>    C        8.77687        -0.18986         1.55523
| 53>    C        7.39948         0.22966         1.66564
| 54>    N        6.78073        -0.69677         2.37204
| 55>    O        7.69378        -1.62088         2.67769
| 56>    N        8.89920        -1.33209         2.19479
| 57>    C       11.09016         0.16854         0.74921
| 58>    S       11.63611        -1.37634         1.45219
| 59>    C       13.19796        -1.00850         0.85745
| 60>    C       13.19068         0.23307         0.18713
| 61>    N       12.02880         0.85416         0.14043
| 62>    C       14.55342         0.56673        -0.33135
| 63>    C       15.33398        -0.63166         0.12255
| 64>    C       14.50337        -1.52679         0.81079
| 65>    S       15.34910        -2.92229         1.35030
| 66>    C       16.83771        -2.30530         0.65219
| 67>    C       16.64409        -1.07218         0.03736
| 68>    C       18.05589        -3.01636         0.74206
| 69>    C       18.18800        -4.23145         1.33631
| 70>    C       19.37173        -5.00435         1.47020
| 71>    C       20.64351        -4.58566         1.15566
| 72>    C       21.69728        -5.57310         1.37849
| 73>    O       22.98927        -5.31240         1.04060
| 74>    C       23.15725        -4.17769         0.21692
| 75>    C       22.31981        -3.01796         0.74019
| 76>    O       20.94378        -3.34535         0.69431
| 77>    C       21.30837        -6.74230         1.93643
| 78>   Si       19.47033        -6.74065         2.18700
| 79>    C       18.91438        -6.79120         3.97668
| 80>    C       18.56331        -8.01658         1.15568
| 81>    H       -2.70442         6.41480         1.16862
| 82>    H        0.53507         6.69206        -2.59942
| 83>    H       -0.38698        10.15033        -4.53176
| 84>    H       -1.96590         9.58126        -5.11621
| 85>    H       -0.46798         8.82629        -5.74022
| 86>    H       -4.47131        10.53369        -1.90036
| 87>    H       -5.47505         9.54358        -0.81018
| 88>    H       -5.54201         9.27053        -2.58402
| 89>    H        0.86242         2.62989         2.20059
| 90>    H        2.56967         0.90791         2.38739
| 91>    H        4.88262         0.22331         2.26690
| 92>    H        7.65140         3.09815        -0.06522
| 93>    H        9.96876         2.38339        -0.23849
| 94>    H       14.93246         1.49590         0.09816
| 95>    H       14.55726         0.67746        -1.41721
| 96>    H       17.44425        -0.54054        -0.44534
| 97>    H       18.91480        -2.53817         0.29658
| 98>    H       17.29470        -4.68680         1.74878
| 99>    H       24.22141        -3.93753         0.23546
|100>    H       22.85245        -4.41501        -0.81225
|101>    H       22.44414        -2.12709         0.12242
|102>    H       22.61035        -2.79137         1.77511
|103>    H       22.03875        -7.51051         2.12045
|104>    H       19.41935        -6.04481         4.58651
|105>    H       19.11080        -7.76068         4.42963
|106>    H       17.84542        -6.61008         4.07041
|107>    H       18.86343        -7.98997         0.11010
|108>    H       17.48627        -7.86339         1.18257
|109>    H       18.74730        -9.02671         1.51528
|110> *
|111>
|112>                          ****END OF INPUT****

CARTESIAN COORDINATES (ANGSTROEM)
---------------------------------
  C      0.865440    4.480690   -0.724750
  C      1.621490    3.973790   -1.746690
  C      1.732000    4.569510   -3.020300
  N      1.868850    5.010070   -4.071070
  C      2.312040    2.747020   -1.671990
  N      2.864760    1.740900   -1.666980
  C     -0.070380    5.597450   -0.843170
  C     -0.984690    5.544000    0.225630
  C     -2.005470    6.464000    0.347800
  C     -2.119460    7.461070   -0.618150
  C     -1.195580    7.538420   -1.666210
  C     -0.169310    6.603360   -1.788340
  C     -1.248690    8.680760   -2.628690
  O     -1.479770    9.822030   -2.322610
  O     -0.961710    8.275840   -3.865210
  C     -0.945550    9.276760   -4.873730
  C     -3.248340    8.435920   -0.512600
  O     -3.583630    8.969110    0.510530
  O     -3.866780    8.578240   -1.686940
  C     -4.907970    9.544760   -1.743610
  C     -0.639930    4.405470    1.108220
  O     -1.240340    4.005750    2.076800
  C      0.644630    3.874700    0.568960
  C      1.388550    3.040580    1.343430
  C      2.767260    2.691590    1.250030
  C      3.264570    1.547920    1.863550
  C      4.598670    1.151010    1.795920
  C      5.587230    1.883740    1.148340
  C      5.139480    3.108280    0.567470
  C      3.748330    3.496200    0.609780
  N      3.649970    4.672550    0.024270
  O      4.882580    5.001970   -0.363960
  N      5.785180    4.077340   -0.048670
  C      6.953380    1.446190    1.070230
  C      7.939210    2.169490    0.401490
  C      9.266910    1.765590    0.298720
  C      9.742640    0.583910    0.858360
  C      8.776870   -0.189860    1.555230
  C      7.399480    0.229660    1.665640
  N      6.780730   -0.696770    2.372040
  O      7.693780   -1.620880    2.677690
  N      8.899200   -1.332090    2.194790
  C     11.090160    0.168540    0.749210
  S     11.636110   -1.376340    1.452190
  C     13.197960   -1.008500    0.857450
  C     13.190680    0.233070    0.187130
  N     12.028800    0.854160    0.140430
  C     14.553420    0.566730   -0.331350
  C     15.333980   -0.631660    0.122550
  C     14.503370   -1.526790    0.810790
  S     15.349100   -2.922290    1.350300
  C     16.837710   -2.305300    0.652190
  C     16.644090   -1.072180    0.037360
  C     18.055890   -3.016360    0.742060
  C     18.188000   -4.231450    1.336310
  C     19.371730   -5.004350    1.470200
  C     20.643510   -4.585660    1.155660
  C     21.697280   -5.573100    1.378490
  O     22.989270   -5.312400    1.040600
  C     23.157250   -4.177690    0.216920
  C     22.319810   -3.017960    0.740190
  O     20.943780   -3.345350    0.694310
  C     21.308370   -6.742300    1.936430
  Si    19.470330   -6.740650    2.187000
  C     18.914380   -6.791200    3.976680
  C     18.563310   -8.016580    1.155680
  H     -2.704420    6.414800    1.168620
  H      0.535070    6.692060   -2.599420
  H     -0.386980   10.150330   -4.531760
  H     -1.965900    9.581260   -5.116210
  H     -0.467980    8.826290   -5.740220
  H     -4.471310   10.533690   -1.900360
  H     -5.475050    9.543580   -0.810180
  H     -5.542010    9.270530   -2.584020
  H      0.862420    2.629890    2.200590
  H      2.569670    0.907910    2.387390
  H      4.882620    0.223310    2.266900
  H      7.651400    3.098150   -0.065220
  H      9.968760    2.383390   -0.238490
  H     14.932460    1.495900    0.098160
  H     14.557260    0.677460   -1.417210
  H     17.444250   -0.540540   -0.445340
  H     18.914800   -2.538170    0.296580
  H     17.294700   -4.686800    1.748780
  H     24.221410   -3.937530    0.235460
  H     22.852450   -4.415010   -0.812250
  H     22.444140   -2.127090    0.122420
  H     22.610350   -2.791370    1.775110
  H     22.038750   -7.510510    2.120450
  H     19.419350   -6.044810    4.586510
  H     19.110800   -7.760680    4.429630
  H     17.845420   -6.610080    4.070410
  H     18.863430   -7.989970    0.110100
  H     17.486270   -7.863390    1.182570
  H     18.747300   -9.026710    1.515280

 Total Charge           Charge          ....    0
 Multiplicity           Mult            ....    1
 Number of Electrons    NEL             ....  478
 Basis Dimension        Dim             .... 1081

ORBITAL ENERGIES
----------------

  NO   OCC          E(Eh)            E(eV)
   0   2.0000     -88.969304     -2420.9778
   1   2.0000     -88.957265     -2420.6502
   2   2.0000     -66.180358     -1800.8591
   3   2.0000     -19.358925      -526.7831
   4   2.0000     -19.358629      -526.7751
   5   2.0000     -19.265484      -524.2405
   6   2.0000     -19.264707      -524.2193
   7   2.0000     -19.258518      -524.0509
   8   2.0000     -19.253576      -523.9165
   9   2.0000     -19.218333      -522.9574
  10   2.0000     -19.207782      -522.6703
  11   2.0000     -19.203458      -522.5527
  12   2.0000     -14.487422      -394.2228
  13   2.0000     -14.486891      -394.2083
  14   2.0000     -14.483669      -394.1207
  15   2.0000     -14.481866      -394.0716
  16   2.0000     -14.417393      -392.3172
  17   2.0000     -14.414309      -392.2333
  18   2.0000     -14.413114      -392.2008
  19   2.0000     -10.405460      -283.1469
  20   2.0000     -10.401354      -283.0352
  21   2.0000     -10.368475      -282.1406
  22   2.0000     -10.343145      -281.4513
  23   2.0000     -10.342134      -281.4238
  24   2.0000     -10.340132      -281.3693
  25   2.0000     -10.339187      -281.3436
  26   2.0000     -10.337792      -281.3056
  27   2.0000     -10.336765      -281.2777
  28   2.0000     -10.334931      -281.2278
  29   2.0000     -10.332007      -281.1482
  30   2.0000     -10.331420      -281.1322
  31   2.0000     -10.330283      -281.1013
  32   2.0000     -10.329807      -281.0883
  33   2.0000     -10.322472      -280.8887
  34   2.0000     -10.320781      -280.8427
  35   2.0000     -10.317364      -280.7497
  36   2.0000     -10.316856      -280.7359
  37   2.0000     -10.315876      -280.7093
  38   2.0000     -10.315105      -280.6883
  39   2.0000     -10.314474      -280.6711
  40   2.0000     -10.310949      -280.5752
  41   2.0000     -10.310162      -280.5538
  42   2.0000     -10.309181      -280.5271
  43   2.0000     -10.308636      -280.5123
  44   2.0000     -10.308625      -280.5120
  45   2.0000     -10.308055      -280.4964
  46   2.0000     -10.307593      -280.4839
  47   2.0000     -10.305674      -280.4317
  48   2.0000     -10.301419      -280.3159
  49   2.0000     -10.301144      -280.3084
  50   2.0000     -10.300771      -280.2982
  51   2.0000     -10.300307      -280.2856
  52   2.0000     -10.299023      -280.2507
  53   2.0000     -10.296704      -280.1876
  54   2.0000     -10.295307      -280.1495
  55   2.0000     -10.291896      -280.0567
  56   2.0000     -10.290774      -280.0262
  57   2.0000     -10.288101      -279.9535
  58   2.0000     -10.281514      -279.7742
  59   2.0000     -10.273014      -279.5429
  60   2.0000     -10.271069      -279.4900
  61   2.0000     -10.265345      -279.3342
  62   2.0000     -10.244630      -278.7706
  63   2.0000     -10.243744      -278.7465
  64   2.0000     -10.243239      -278.7327
  65   2.0000     -10.234807      -278.5033
  66   2.0000      -8.063464      -219.4180
  67   2.0000      -8.052172      -219.1107
  68   2.0000      -6.032662      -164.1571
  69   2.0000      -6.028531      -164.0447
  70   2.0000      -6.025829      -163.9712
  71   2.0000      -6.021508      -163.8536
  72   2.0000      -6.017526      -163.7452
  73   2.0000      -6.014168      -163.6538
  74   2.0000      -5.347876      -145.5231
  75   2.0000      -3.711312      -100.9899
  76   2.0000      -3.709553      -100.9421
  77   2.0000      -3.709147      -100.9310
  78   2.0000      -1.312116       -35.7045
  79   2.0000      -1.311697       -35.6931
  80   2.0000      -1.198094       -32.6018
  81   2.0000      -1.189877       -32.3782
  82   2.0000      -1.186234       -32.2791
  83   2.0000      -1.146865       -31.2078
  84   2.0000      -1.133442       -30.8425
  85   2.0000      -1.102281       -29.9946
  86   2.0000      -1.097280       -29.8585
  87   2.0000      -1.070538       -29.1308
  88   2.0000      -1.022907       -27.8347
  89   2.0000      -1.019239       -27.7349
  90   2.0000      -1.015091       -27.6220
  91   2.0000      -1.008941       -27.4547
  92   2.0000      -0.999129       -27.1877
  93   2.0000      -0.998171       -27.1616
  94   2.0000      -0.992385       -27.0042
  95   2.0000      -0.990673       -26.9576
  96   2.0000      -0.957304       -26.0496
  97   2.0000      -0.931951       -25.3597
  98   2.0000      -0.927678       -25.2434
  99   2.0000      -0.924386       -25.1538
 100   2.0000      -0.922265       -25.0961
 101   2.0000      -0.911264       -24.7968
 102   2.0000      -0.903367       -24.5819
 103   2.0000      -0.898140       -24.4396
 104   2.0000      -0.882469       -24.0132
 105   2.0000      -0.875398       -23.8208
 106   2.0000      -0.870654       -23.6917
 107   2.0000      -0.853890       -23.2355
 108   2.0000      -0.841620       -22.9016
 109   2.0000      -0.835498       -22.7351
 110   2.0000      -0.824514       -22.4362
 111   2.0000      -0.822174       -22.3725
 112   2.0000      -0.813575       -22.1385
 113   2.0000      -0.795661       -21.6510
 114   2.0000      -0.788354       -21.4522
 115   2.0000      -0.780838       -21.2477
 116   2.0000      -0.777796       -21.1649
 117   2.0000      -0.771861       -21.0034
 118   2.0000      -0.767703       -20.8903
 119   2.0000      -0.765407       -20.8278
 120   2.0000      -0.761743       -20.7281
 121   2.0000      -0.758168       -20.6308
 122   2.0000      -0.748165       -20.3586
 123   2.0000      -0.740395       -20.1472
 124   2.0000      -0.719986       -19.5918
 125   2.0000      -0.717093       -19.5131
 126   2.0000      -0.712825       -19.3969
 127   2.0000      -0.696185       -18.9442
 128   2.0000      -0.685155       -18.6440
 129   2.0000      -0.678642       -18.4668
 130   2.0000      -0.669533       -18.2189
 131   2.0000      -0.659604       -17.9487
 132   2.0000      -0.654978       -17.8229
 133   2.0000      -0.652436       -17.7537
 134   2.0000      -0.649534       -17.6747
 135   2.0000      -0.644078       -17.5262
 136   2.0000      -0.643462       -17.5095
 137   2.0000      -0.636692       -17.3253
 138   2.0000      -0.631511       -17.1843
 139   2.0000      -0.626345       -17.0437
 140   2.0000      -0.619946       -16.8696
 141   2.0000      -0.616233       -16.7686
 142   2.0000      -0.613215       -16.6864
 143   2.0000      -0.611865       -16.6497
 144   2.0000      -0.610107       -16.6019
 145   2.0000      -0.604026       -16.4364
 146   2.0000      -0.598472       -16.2852
 147   2.0000      -0.593177       -16.1412
 148   2.0000      -0.586101       -15.9486
 149   2.0000      -0.580030       -15.7834
 150   2.0000      -0.579018       -15.7559
 151   2.0000      -0.570843       -15.5334
 152   2.0000      -0.568274       -15.4635
 153   2.0000      -0.566726       -15.4214
 154   2.0000      -0.565228       -15.3806
 155   2.0000      -0.561305       -15.2739
 156   2.0000      -0.551896       -15.0179
 157   2.0000      -0.551740       -15.0136
 158   2.0000      -0.549203       -14.9446
 159   2.0000      -0.547594       -14.9008
 160   2.0000      -0.543726       -14.7955
 161   2.0000      -0.541320       -14.7301
 162   2.0000      -0.538266       -14.6470
 163   2.0000      -0.537031       -14.6134
 164   2.0000      -0.533807       -14.5256
 165   2.0000      -0.532074       -14.4785
 166   2.0000      -0.531265       -14.4565
 167   2.0000      -0.521907       -14.2018
 168   2.0000      -0.519628       -14.1398
 169   2.0000      -0.516202       -14.0466
 170   2.0000      -0.512408       -13.9433
 171   2.0000      -0.507237       -13.8026
 172   2.0000      -0.503887       -13.7114
 173   2.0000      -0.499425       -13.5900
 174   2.0000      -0.496419       -13.5083
 175   2.0000      -0.495722       -13.4893
 176   2.0000      -0.492804       -13.4099
 177   2.0000      -0.492213       -13.3938
 178   2.0000      -0.488038       -13.2802
 179   2.0000      -0.486891       -13.2490
 180   2.0000      -0.483129       -13.1466
 181   2.0000      -0.482829       -13.1384
 182   2.0000      -0.480358       -13.0712
 183   2.0000      -0.478223       -13.0131
 184   2.0000      -0.477675       -12.9982
 185   2.0000      -0.474926       -12.9234
 186   2.0000      -0.474193       -12.9034
 187   2.0000      -0.470929       -12.8146
 188   2.0000      -0.467787       -12.7291
 189   2.0000      -0.466173       -12.6852
 190   2.0000      -0.465058       -12.6549
 191   2.0000      -0.464484       -12.6393
 192   2.0000      -0.461235       -12.5509
 193   2.0000      -0.457723       -12.4553
 194   2.0000      -0.456265       -12.4156
 195   2.0000      -0.454875       -12.3778
 196   2.0000      -0.452646       -12.3171
 197   2.0000      -0.448560       -12.2059
 198   2.0000      -0.445797       -12.1308
 199   2.0000      -0.441965       -12.0265
 200   2.0000      -0.440182       -11.9780
 201   2.0000      -0.433287       -11.7903
 202   2.0000      -0.431730       -11.7480
 203   2.0000      -0.428024       -11.6471
 204   2.0000      -0.425865       -11.5884
 205   2.0000      -0.421567       -11.4714
 206   2.0000      -0.420994       -11.4558
 207   2.0000      -0.418206       -11.3800
 208   2.0000      -0.414718       -11.2850
 209   2.0000      -0.410616       -11.1734
 210   2.0000      -0.409717       -11.1490
 211   2.0000      -0.404701       -11.0125
 212   2.0000      -0.401219       -10.9177
 213   2.0000      -0.400149       -10.8886
 214   2.0000      -0.391518       -10.6538
 215   2.0000      -0.390117       -10.6156
 216   2.0000      -0.389434       -10.5970
 217   2.0000      -0.386749       -10.5240
 218   2.0000      -0.384388       -10.4597
 219   2.0000      -0.380090       -10.3428
 220   2.0000      -0.370353       -10.0778
 221   2.0000      -0.370035       -10.0692
 222   2.0000      -0.368556       -10.0289
 223   2.0000      -0.366516        -9.9734
 224   2.0000      -0.364579        -9.9207
 225   2.0000      -0.361406        -9.8343
 226   2.0000      -0.360098        -9.7988
 227   2.0000      -0.355019        -9.6606
 228   2.0000      -0.352422        -9.5899
 229   2.0000      -0.343853        -9.3567
 230   2.0000      -0.343525        -9.3478
 231   2.0000      -0.339151        -9.2288
 232   2.0000      -0.332293        -9.0422
 233   2.0000      -0.321380        -8.7452
 234   2.0000      -0.315579        -8.5873
 235   2.0000      -0.308002        -8.3812
 236   2.0000      -0.289963        -7.8903
 237   2.0000      -0.261680        -7.1207
 238   2.0000      -0.218680        -5.9506
 239   0.0000      -0.111303        -3.0287
 240   0.0000      -0.076106        -2.0709
 241   0.0000      -0.063218        -1.7202
 242   0.0000      -0.043465        -1.1827
 243   0.0000      -0.037430        -1.0185

MULLIKEN ATOMIC CHARGES
-----------------------
   0 C :    0.315250
   1 C :   -0.311016
   2 C :   -0.186878
   3 N :    0.161478
   4 C :   -0.213563
   5 N :    0.168496
   6 C :    0.028949
   7 C :    0.021100
   8 C :   -0.058280
   9 C :    0.038532
  10 C :    0.047549
  11 C :   -0.046538
  12 C :    0.175174
  13 O :   -0.208015
  14 O :   -0.285934
  15 C :    0.183425
  16 C :    0.169406
  17 O :   -0.194650
  18 O :   -0.302997
  19 C :    0.176345
  20 C :    0.136985
  21 O :   -0.131190
  22 C :   -0.119564
  23 C :   -0.006130
  24 C :    0.105398
  25 C :    0.002857
  26 C :   -0.053831
  27 C :    0.100157
  28 C :   -0.023659
  29 C :   -0.061906
  30 N :    0.040545
  31 O :   -0.087760
  32 N :    0.044684
  33 C :    0.061606
  34 C :   -0.021288
  35 C :   -0.050327
  36 C :    0.165456
  37 C :   -0.059127
  38 C :   -0.031378
  39 N :    0.032190
  40 O :   -0.088609
  41 N :    0.033927
  42 C :   -0.185347
  43 S :    0.166158
  44 C :   -0.026461
  45 C :   -0.237096
  46 N :    0.007656
  47 C :    0.395379
  48 C :   -0.140185
  49 C :   -0.109256
  50 S :    0.129629
  51 C :   -0.028518
  52 C :   -0.038009
  53 C :    0.010818
  54 C :   -0.016071
  55 C :   -0.193624
  56 C :    0.099893
  57 C :    0.161880
  58 O :   -0.286658
  59 C :    0.179500
  60 C :    0.183547
  61 O :   -0.298808
  62 C :   -0.227218
  63 Si:    0.486136
  64 C :   -0.193402
  65 C :   -0.189073
  66 H :    0.009403
  67 H :    0.010885
  68 H :    0.039364
  69 H :    0.031558
  70 H :    0.045660
  71 H :    0.041581
  72 H :    0.043333
  73 H :    0.033965
  74 H :    0.022406
  75 H :   -0.000017
  76 H :    0.005767
  77 H :    0.008137
  78 H :    0.001604
  79 H :    0.034914
  80 H :    0.036230
  81 H :   -0.028645
  82 H :   -0.008908
  83 H :   -0.021112
  84 H :    0.033451
  85 H :    0.028780
  86 H :    0.031604
  87 H :    0.033143
  88 H :   -0.008622
  89 H :    0.049615
  90 H :    0.040649
  91 H :    0.038611
  92 H :    0.048834
  93 H :    0.039970
  94 H :    0.040103
Sum of atomic charges:   -0.0000000

LOEWDIN ATOMIC CHARGES
----------------------
   0 C :    0.071350
   1 C :   -0.123624
   2 C :   -0.018018
   3 N :   -0.045864
   4 C :   -0.018901
   5 N :   -0.050302
   6 C :    0.000111
   7 C :   -0.038961
   8 C :    0.039001
   9 C :   -0.019616
  10 C :   -0.022389
  11 C :    0.019387
  12 C :    0.084296
  13 O :   -0.167189
  14 O :   -0.074954
  15 C :    0.083999
  16 C :    0.085271
  17 O :   -0.157849
  18 O :   -0.084609
  19 C :    0.082487
  20 C :    0.086830
  21 O :   -0.131205
  22 C :   -0.081508
  23 C :    0.068058
  24 C :   -0.049242
  25 C :    0.041956
  26 C :   -0.010291
  27 C :    0.009574
  28 C :   -0.037108
  29 C :   -0.044256
  30 N :   -0.023391
  31 O :    0.077308
  32 N :   -0.015341
  33 C :   -0.045893
  34 C :    0.022434
  35 C :   -0.000418
  36 C :   -0.033552
  37 C :   -0.054841
  38 C :   -0.035833
  39 N :   -0.028317
  40 O :    0.075817
  41 N :   -0.031156
  42 C :   -0.145018
  43 S :    0.456265
  44 C :   -0.200325
  45 C :   -0.042567
  46 N :   -0.071067
  47 C :   -0.013145
  48 C :   -0.039253
  49 C :   -0.209149
  50 S :    0.428706
  51 C :   -0.144472
  52 C :   -0.064732
  53 C :   -0.054527
  54 C :   -0.032097
  55 C :   -0.218680
  56 C :    0.033700
  57 C :    0.026357
  58 O :   -0.099040
  59 C :    0.069126
  60 C :    0.070831
  61 O :   -0.083537
  62 C :   -0.234979
  63 Si:    0.661220
  64 C :   -0.243629
  65 C :   -0.243716
  66 H :    0.047705
  67 H :    0.042587
  68 H :    0.025213
  69 H :    0.024372
  70 H :    0.030649
  71 H :    0.027611
  72 H :    0.024626
  73 H :    0.025356
  74 H :    0.048784
  75 H :    0.041892
  76 H :    0.036015
  77 H :    0.036952
  78 H :    0.041354
  79 H :    0.055559
  80 H :    0.056069
  81 H :    0.029581
  82 H :    0.029898
  83 H :    0.013540
  84 H :    0.033439
  85 H :    0.021312
  86 H :    0.032460
  87 H :    0.023878
  88 H :    0.022429
  89 H :    0.039321
  90 H :    0.035695
  91 H :    0.034563
  92 H :    0.039179
  93 H :    0.035169
  94 H :    0.035270

  Mayer bond orders larger than 0.100000
B(  0-C ,  1-C ) :   1.6599 B(  0-C ,  6-C ) :   0.9987 B(  0-C , 22-C ) :   1.0356
B(  1-C ,  2-C ) :   1.1418 B(  1-C ,  4-C ) :   1.1640 B(  2-C ,  3-N ) :   2.9874
B(  4-C ,  5-N ) :   3.0045 B(  6-C ,  7-C ) :   1.3343 B(  6-C , 11-C ) :   1.3529
B(  7-C ,  8-C ) :   1.3419 B(  7-C , 20-C ) :   0.9150 B(  8-C ,  9-C ) :   1.3651
B(  8-C , 66-H ) :   1.0181 B(  9-C , 10-C ) :   1.4335 B(  9-C , 16-C ) :   0.8754
B( 10-C , 11-C ) :   1.3585 B( 10-C , 12-C ) :   0.8867 B( 11-C , 67-H ) :   0.9883
B( 12-C , 13-O ) :   2.0809 B( 12-C , 14-O ) :   1.2373 B( 14-O , 15-C ) :   0.9169
B( 15-C , 68-H ) :   0.9708 B( 15-C , 69-H ) :   0.9795 B( 15-C , 70-H ) :   0.9810
B( 16-C , 17-O ) :   2.1397 B( 16-C , 18-O ) :   1.1867 B( 18-O , 19-C ) :   0.9162
B( 19-C , 71-H ) :   0.9778 B( 19-C , 72-H ) :   0.9674 B( 19-C , 73-H ) :   0.9818
B( 20-C , 21-O ) :   2.2761 B( 20-C , 22-C ) :   0.9356 B( 22-C , 23-C ) :   1.6702
B( 23-C , 24-C ) :   1.0894 B( 23-C , 74-H ) :   0.9447 B( 24-C , 25-C ) :   1.4179
B( 24-C , 27-C ) :   0.1030 B( 24-C , 29-C ) :   1.1236 B( 25-C , 26-C ) :   1.2108
B( 25-C , 75-H ) :   0.9959 B( 26-C , 27-C ) :   1.4782 B( 26-C , 76-H ) :   0.9671
B( 27-C , 28-C ) :   1.1170 B( 27-C , 33-C ) :   1.1162 B( 28-C , 29-C ) :   1.1477
B( 28-C , 32-N ) :   1.5982 B( 29-C , 30-N ) :   1.5994 B( 30-N , 31-O ) :   1.0569
B( 30-N , 32-N ) :   0.1716 B( 31-O , 32-N ) :   1.0693 B( 33-C , 34-C ) :   1.4478
B( 33-C , 36-C ) :   0.1072 B( 33-C , 38-C ) :   1.1286 B( 34-C , 35-C ) :   1.1960
B( 34-C , 77-H ) :   0.9707 B( 35-C , 36-C ) :   1.4530 B( 35-C , 78-H ) :   1.0017
B( 36-C , 37-C ) :   1.1194 B( 36-C , 42-C ) :   1.1173 B( 37-C , 38-C ) :   1.1530
B( 37-C , 41-N ) :   1.5967 B( 38-C , 39-N ) :   1.5920 B( 39-N , 40-O ) :   1.0555
B( 39-N , 41-N ) :   0.1765 B( 40-O , 41-N ) :   1.0721 B( 42-C , 43-S ) :   1.0750
B( 42-C , 46-N ) :   1.6507 B( 43-S , 44-C ) :   1.0941 B( 43-S , 46-N ) :   0.1011
B( 44-C , 45-C ) :   1.4157 B( 44-C , 49-C ) :   1.2189 B( 45-C , 46-N ) :   1.4958
B( 45-C , 47-C ) :   1.0403 B( 47-C , 48-C ) :   0.9824 B( 47-C , 79-H ) :   0.8600
B( 47-C , 80-H ) :   0.8592 B( 48-C , 49-C ) :   1.5008 B( 48-C , 52-C ) :   1.3007
B( 49-C , 50-S ) :   1.0659 B( 50-S , 51-C ) :   1.1014 B( 51-C , 52-C ) :   1.4244
B( 51-C , 53-C ) :   1.1641 B( 52-C , 81-H ) :   1.0089 B( 53-C , 54-C ) :   1.6204
B( 53-C , 82-H ) :   0.9696 B( 54-C , 55-C ) :   1.1511 B( 54-C , 83-H ) :   0.9606
B( 55-C , 56-C ) :   1.6378 B( 55-C , 63-Si) :   0.8907 B( 56-C , 57-C ) :   1.0055
B( 56-C , 61-O ) :   1.1260 B( 57-C , 58-O ) :   1.1337 B( 57-C , 62-C ) :   1.7897
B( 58-O , 59-C ) :   0.9599 B( 59-C , 60-C ) :   1.0787 B( 59-C , 84-H ) :   0.9523
B( 59-C , 85-H ) :   0.9420 B( 60-C , 61-O ) :   0.9422 B( 60-C , 86-H ) :   0.9520
B( 60-C , 87-H ) :   0.9433 B( 62-C , 63-Si) :   0.9234 B( 62-C , 88-H ) :   0.9303
B( 63-Si, 64-C ) :   1.0400 B( 63-Si, 65-C ) :   1.0445 B( 64-C , 89-H ) :   0.9532
B( 64-C , 90-H ) :   0.9560 B( 64-C , 91-H ) :   0.9522 B( 65-C , 92-H ) :   0.9528
B( 65-C , 93-H ) :   0.9515 B( 65-C , 94-H ) :   0.9554

-----------------------------------------------------------------------------
         ABSORPTION SPECTRUM VIA TRANSITION ELECTRIC DIPOLE MOMENTS
-----------------------------------------------------------------------------
State   Energy  Wavelength   fosc         T2         TX        TY        TZ
        (cm-1)    (nm)                  (au**2)     (au)      (au)      (au)
-----------------------------------------------------------------------------
   0   11942.7    837.3   1.572877749  43.35782   6.05260  -2.58047   0.25496
   1   19660.1    508.6   0.033757545   0.56528   0.41913  -0.23709  -0.57740
   2   20560.9    486.4   0.377917614   6.05106  -2.25234   0.95196  -0.26792
   3   24272.2    412.0   0.397645566   5.39341   1.74543  -1.40815   0.60330
   4   24979.1    400.3   0.062682331   0.82612  -0.51353   0.41633  -0.62377
   5   25100.5    398.4   0.202186159   2.65183   1.33703  -0.87907  -0.30231
   6   26571.0    376.3   0.076363068   0.94613   0.73218  -0.56034   0.30995
   7   27861.2    358.9   0.086279418   1.01949  -0.91063   0.42850   0.08140
   8   28700.5    348.4   0.020649025   0.23686   0.23131  -0.21105  -0.37257
   9   29882.8    334.6   0.025163106   0.27722  -0.36514   0.37559   0.05312
  10   30402.7    328.9   0.048834462   0.52880  -0.53388   0.20273   0.45019
  11   31528.3    317.2   0.007246134   0.07566   0.21289  -0.17356   0.01473
  12   32038.5    312.1   0.042264292   0.43429   0.34625  -0.30196  -0.47246
  13   32433.4    308.3   0.115946135   1.17690  -0.97438   0.20246   0.43185
  14   33165.1    301.5   0.019635507   0.19491   0.21139   0.36592  -0.12778
  15   33447.8    299.0   0.051710676   0.50897  -0.38950   0.50263  -0.32344
  16   33932.8    294.7   0.025779072   0.25011   0.42436  -0.22147   0.14482
  17   34078.8    293.4   0.001699908   0.01642   0.06996  -0.09308  -0.05352
  18   34560.0    289.4   0.075092295   0.71531   0.44598  -0.57084  -0.43652
  19   34659.3    288.5   0.006077220   0.05772  -0.12570   0.16885   0.11582
  20   35524.2    281.5   0.128009966   1.18630   0.71441  -0.77251  -0.28135
  21   35998.5    277.8   0.257305183   2.35310   1.08057  -1.00256  -0.42467
  22   36099.0    277.0   0.115212156   1.05070   0.67413  -0.06727  -0.76923
  23   36761.1    272.0   0.072421546   0.64857  -0.46549   0.65520   0.05102
  24   37360.4    267.7   0.057934192   0.51050   0.24136   0.46215  -0.48854
  25   38023.7    263.0   0.010917037   0.09452  -0.17874  -0.04184   0.24662
  26   38220.0    261.6   0.006416032   0.05527   0.10009  -0.01278   0.21233
  27   38495.3    259.8   0.011872035   0.10153   0.19806  -0.12214   0.21768
  28   38503.0    259.7   0.012074434   0.10324  -0.08707  -0.15991   0.26474
  29   39037.5    256.2   0.014882053   0.12550   0.03332  -0.10115   0.33788
  30   40097.4    249.4   0.088186010   0.72403   0.61732  -0.58332   0.05187
  31   40252.7    248.4   0.054222816   0.44347  -0.08727  -0.30491   0.58556

FINAL SINGLE POINT ENERGY     -3950.541291290743

DIPOLE MOMENT
-------------
                                X             Y             Z
Electronic contribution:    -65.13850      25.87218       3.82385
Nuclear contribution   :     69.04386     -26.61969      -4.22071
                        -----------------------------------------
Total Dipole Moment    :      3.90536      -0.74752      -0.39686
                        -----------------------------------------
Magnitude (a.u.)       :      3.99601
Magnitude (Debye)      :     10.15706

Rotational constants in cm-1:     0.004316     0.000198     0.000192
Rotational constants in MHz :   129.398311     5.927921     5.759207

                             ****ORCA TERMINATED NORMALLY****
TOTAL RUN TIME: 0 days 0 hours 8 minutes 36 seconds 895 msec
