                         Program Version 4.2.0 -  RELEASE  -
|  1> # ORCA input file
|  2> # SCF done       -233.416213090577          0.000552483101
|  3> ! CAM-B3LYP def2-SVP def2/J RIJCOSX Grid4 TightSCF
|  4> %maxcore 5000
|  5> %tddft
|  6>     Mode sTDDFT
|  7>     Ethresh 5.0
|  8>     maxcore 5000
|  9> end
| 10>
| 11> %pal
| 12>   nprocs 6
| 13>   end
| 14> * xyz 0 1
| 15>    C        0.12617         1.87686        -0.58753
| 16>    C        0.74064         0.65374        -0.58960
| 17>    C        0.28661        -0.46096        -1.32631
| 18>    N       -0.02805        -1.39843        -1.90771
| 19>    C        1.86710         0.35842         0.20198
| 20>    N        2.78520         0.10834         0.84388
| 21>    C       -1.17301         2.16472        -1.19762
| 22>    C       -1.70565         3.32780        -0.61093
| 23>    C       -2.94603         3.81963        -0.96739
| 24>    C       -3.66174         3.14607        -1.95051
| 25>    C       -3.12766         2.00313        -2.55449
| 26>    C       -1.88356         1.49754        -2.17877
| 27>    C       -3.91967         1.36421        -3.64286
| 28>    O       -4.83237         1.91317        -4.21001
| 29>    O       -3.49971         0.13361        -3.92199
| 30>    C       -4.20422        -0.55171        -4.94880
| 31>    C       -5.04546         3.60645        -2.32410
| 32>    O       -6.04587         3.13926        -1.85186
| 33>    O       -4.99381         4.63752        -3.16037
| 34>    C       -6.24783         5.11666        -3.63216
| 35>    C       -0.73434         3.87626         0.36019
| 36>    O       -0.86412         4.82890         1.08998
| 37>    C        0.48543         3.02747         0.21163
| 38>    C        1.65099         3.49014         0.74194
| 39>    C        2.99297         3.13409         0.47879
| 40>    C        3.56152         2.49523        -0.61548
| 41>    F        2.85190         2.11267        -1.68100
| 42>    C        4.94840         2.37329        -0.53939
| 43>    C        5.46688         2.93257         0.63679
| 44>    S        4.23544         3.62124         1.61922
| 45>    C        6.85665         2.80059         0.70656
| 46>    C        7.37666         2.13755        -0.41227
| 47>    S        6.16329         1.66998        -1.56676
| 48>    C        8.77020         2.02017        -0.35775
| 49>    F        9.51018         1.43562        -1.30500
| 50>    C        9.32209         2.58856         0.77541
| 51>    S        8.08924         3.27628         1.81728
| 52>    C       10.66448         2.67758         1.09589
| 53>    C       11.84911         2.77289         1.34735
| 54>    C       13.19489         2.93470         1.62111
| 55>    S       13.72163         4.07091         2.83289
| 56>    C       15.38884         3.70184         2.47927
| 57>    C       15.49658         2.74290         1.49018
| 58>    C       14.26396         2.31282         1.00628
| 59>    C       16.41483         4.36962         3.12378
| 60>    C       17.29238         5.00472         3.67498
| 61>    C       18.30358         5.75435         4.25878
| 62>    C       19.60974         5.57513         3.94867
| 63>    C       20.69073         6.35045         4.45252
| 64>    C       20.69501         7.43586         5.31280
| 65>    F       19.58577         7.93804         5.87103
| 66>    C       21.96707         7.97351         5.53564
| 67>    C       22.96616         7.28473         4.83672
| 68>    S       22.31764         5.97913         3.91678
| 69>    C       24.23022         7.84197         5.04406
| 70>    C       24.17634         8.95193         5.89923
| 71>    S       22.57100         9.31606         6.46185
| 72>    C       25.43349         9.51444         6.11417
| 73>    F       25.62381        10.62768         6.82799
| 74>    C       26.46190         8.86533         5.44275
| 75>    S       25.82997         7.52733         4.49832
| 76>    C       27.83871         9.17029         5.35546
| 77>    C       28.63398         9.93864         6.15017
| 78>    C       28.49451        10.50076         7.47506
| 79>    C       27.75858         9.98762         8.50935
| 80>    C       27.72775        10.53135         9.81107
| 81>    N       27.65166        10.93166        10.88329
| 82>    C       26.99294         8.81129         8.39638
| 83>    N       26.36639         7.85288         8.31574
| 84>    C       29.48582        11.57048         7.59695
| 85>    C       30.35467        11.51529         6.49072
| 86>    C       29.92000        10.43735         5.57762
| 87>    O       30.45033        10.05899         4.56115
| 88>    C       31.40577        12.39738         6.34992
| 89>    C       31.58651        13.36562         7.33527
| 90>    C       30.72450        13.42684         8.43536
| 91>    C       29.67096        12.53081         8.57815
| 92>    C       30.99500        14.43345         9.52131
| 93>    O       31.87013        14.30569        10.33374
| 94>    O       30.10382        15.41670         9.49360
| 95>    C       30.29518        16.45410        10.44885
| 96>    C       32.65029        14.40122         7.22636
| 97>    O       32.59117        15.47504         7.77208
| 98>    O       33.65894        14.01062         6.44905
| 99>    C       34.72502        14.93857         6.29569
|100>    H       -3.34120         4.70379        -0.49163
|101>    H       -1.49946         0.61836        -2.66971
|102>    H       -4.08807        -0.02910        -5.90050
|103>    H       -5.26691        -0.60707        -4.70514
|104>    H       -3.76829        -1.54571        -5.00074
|105>    H       -6.91789         5.31560        -2.79348
|106>    H       -6.70137         4.36704        -4.28260
|107>    H       -6.03680         6.02831        -4.18483
|108>    H        1.52763         4.31639         1.43698
|109>    H       16.44619         2.38286         1.13695
|110>    H       14.13602         1.57823         0.23168
|111>    H       17.98826         6.51027         4.96427
|112>    H       19.88373         4.79849         3.24712
|113>    H       28.33452         8.78384         4.46899
|114>    H       32.06268        12.34505         5.49610
|115>    H       29.01691        12.60415         9.43216
|116>    H       31.22252        16.98589        10.22964
|117>    H       30.35176        16.03610        11.45577
|118>    H       29.43951        17.11698        10.35222
|119>    H       35.05412        15.29937         7.27208
|120>    H       34.39943        15.79112         5.69587
|121>    H       35.52512        14.40168         5.79280
|122> *
|123>
|124>                          ****END OF INPUT****

CARTESIAN COORDINATES (ANGSTROEM)
---------------------------------
  C      0.126170    1.876860   -0.587530
  C      0.740640    0.653740   -0.589600
  C      0.286610   -0.460960   -1.326310
  N     -0.028050   -1.398430   -1.907710
  C      1.867100    0.358420    0.201980
  N      2.785200    0.108340    0.843880
  C     -1.173010    2.164720   -1.197620
  C     -1.705650    3.327800   -0.610930
  C     -2.946030    3.819630   -0.967390
  C     -3.661740    3.146070   -1.950510
  C     -3.127660    2.003130   -2.554490
  C     -1.883560    1.497540   -2.178770
  C     -3.919670    1.364210   -3.642860
  O     -4.832370    1.913170   -4.210010
  O     -3.499710    0.133610   -3.921990
  C     -4.204220   -0.551710   -4.948800
  C     -5.045460    3.606450   -2.324100
  O     -6.045870    3.139260   -1.851860
  O     -4.993810    4.637520   -3.160370
  C     -6.247830    5.116660   -3.632160
  C     -0.734340    3.876260    0.360190
  O     -0.864120    4.828900    1.089980
  C      0.485430    3.027470    0.211630
  C      1.650990    3.490140    0.741940
  C      2.992970    3.134090    0.478790
  C      3.561520    2.495230   -0.615480
  F      2.851900    2.112670   -1.681000
  C      4.948400    2.373290   -0.539390
  C      5.466880    2.932570    0.636790
  S      4.235440    3.621240    1.619220
  C      6.856650    2.800590    0.706560
  C      7.376660    2.137550   -0.412270
  S      6.163290    1.669980   -1.566760
  C      8.770200    2.020170   -0.357750
  F      9.510180    1.435620   -1.305000
  C      9.322090    2.588560    0.775410
  S      8.089240    3.276280    1.817280
  C     10.664480    2.677580    1.095890
  C     11.849110    2.772890    1.347350
  C     13.194890    2.934700    1.621110
  S     13.721630    4.070910    2.832890
  C     15.388840    3.701840    2.479270
  C     15.496580    2.742900    1.490180
  C     14.263960    2.312820    1.006280
  C     16.414830    4.369620    3.123780
  C     17.292380    5.004720    3.674980
  C     18.303580    5.754350    4.258780
  C     19.609740    5.575130    3.948670
  C     20.690730    6.350450    4.452520
  C     20.695010    7.435860    5.312800
  F     19.585770    7.938040    5.871030
  C     21.967070    7.973510    5.535640
  C     22.966160    7.284730    4.836720
  S     22.317640    5.979130    3.916780
  C     24.230220    7.841970    5.044060
  C     24.176340    8.951930    5.899230
  S     22.571000    9.316060    6.461850
  C     25.433490    9.514440    6.114170
  F     25.623810   10.627680    6.827990
  C     26.461900    8.865330    5.442750
  S     25.829970    7.527330    4.498320
  C     27.838710    9.170290    5.355460
  C     28.633980    9.938640    6.150170
  C     28.494510   10.500760    7.475060
  C     27.758580    9.987620    8.509350
  C     27.727750   10.531350    9.811070
  N     27.651660   10.931660   10.883290
  C     26.992940    8.811290    8.396380
  N     26.366390    7.852880    8.315740
  C     29.485820   11.570480    7.596950
  C     30.354670   11.515290    6.490720
  C     29.920000   10.437350    5.577620
  O     30.450330   10.058990    4.561150
  C     31.405770   12.397380    6.349920
  C     31.586510   13.365620    7.335270
  C     30.724500   13.426840    8.435360
  C     29.670960   12.530810    8.578150
  C     30.995000   14.433450    9.521310
  O     31.870130   14.305690   10.333740
  O     30.103820   15.416700    9.493600
  C     30.295180   16.454100   10.448850
  C     32.650290   14.401220    7.226360
  O     32.591170   15.475040    7.772080
  O     33.658940   14.010620    6.449050
  C     34.725020   14.938570    6.295690
  H     -3.341200    4.703790   -0.491630
  H     -1.499460    0.618360   -2.669710
  H     -4.088070   -0.029100   -5.900500
  H     -5.266910   -0.607070   -4.705140
  H     -3.768290   -1.545710   -5.000740
  H     -6.917890    5.315600   -2.793480
  H     -6.701370    4.367040   -4.282600
  H     -6.036800    6.028310   -4.184830
  H      1.527630    4.316390    1.436980
  H     16.446190    2.382860    1.136950
  H     14.136020    1.578230    0.231680
  H     17.988260    6.510270    4.964270
  H     19.883730    4.798490    3.247120
  H     28.334520    8.783840    4.468990
  H     32.062680   12.345050    5.496100
  H     29.016910   12.604150    9.432160
  H     31.222520   16.985890   10.229640
  H     30.351760   16.036100   11.455770
  H     29.439510   17.116980   10.352220
  H     35.054120   15.299370    7.272080
  H     34.399430   15.791120    5.695870
  H     35.525120   14.401680    5.792800

 Total Charge           Charge          ....    0
 Multiplicity           Mult            ....    1
 Number of Electrons    NEL             ....  638
 Basis Dimension        Dim             .... 1328

ORBITAL ENERGIES
----------------

  NO   OCC          E(Eh)            E(eV)
   0   2.0000     -88.987234     -2421.4657
   1   2.0000     -88.986898     -2421.4566
   2   2.0000     -88.986374     -2421.4423
   3   2.0000     -88.986082     -2421.4344
   4   2.0000     -88.985918     -2421.4299
   5   2.0000     -88.985355     -2421.4146
   6   2.0000     -88.971593     -2421.0401
   7   2.0000     -24.824871      -675.5191
   8   2.0000     -24.824718      -675.5149
   9   2.0000     -24.812390      -675.1795
  10   2.0000     -24.807309      -675.0412
  11   2.0000     -19.272480      -524.4308
  12   2.0000     -19.271676      -524.4090
  13   2.0000     -19.257183      -524.0146
  14   2.0000     -19.256099      -523.9851
  15   2.0000     -19.224383      -523.1220
  16   2.0000     -19.222704      -523.0764
  17   2.0000     -19.216067      -522.8958
  18   2.0000     -19.215684      -522.8853
  19   2.0000     -19.199015      -522.4318
  20   2.0000     -19.198691      -522.4229
  21   2.0000     -14.421741      -392.4355
  22   2.0000     -14.420857      -392.4115
  23   2.0000     -14.419525      -392.3752
  24   2.0000     -14.418939      -392.3593
  25   2.0000     -10.411978      -283.3243
  26   2.0000     -10.411931      -283.3230
  27   2.0000     -10.399987      -282.9980
  28   2.0000     -10.399731      -282.9911
  29   2.0000     -10.399115      -282.9743
  30   2.0000     -10.399046      -282.9724
  31   2.0000     -10.387776      -282.6657
  32   2.0000     -10.385265      -282.5974
  33   2.0000     -10.374207      -282.2965
  34   2.0000     -10.373007      -282.2639
  35   2.0000     -10.350165      -281.6423
  36   2.0000     -10.348846      -281.6064
  37   2.0000     -10.345474      -281.5147
  38   2.0000     -10.345118      -281.5050
  39   2.0000     -10.340835      -281.3884
  40   2.0000     -10.340451      -281.3780
  41   2.0000     -10.339584      -281.3544
  42   2.0000     -10.334546      -281.2173
  43   2.0000     -10.334150      -281.2065
  44   2.0000     -10.332342      -281.1573
  45   2.0000     -10.332309      -281.1564
  46   2.0000     -10.332301      -281.1562
  47   2.0000     -10.331897      -281.1452
  48   2.0000     -10.330359      -281.1034
  49   2.0000     -10.330234      -281.0999
  50   2.0000     -10.330228      -281.0998
  51   2.0000     -10.330110      -281.0966
  52   2.0000     -10.330094      -281.0961
  53   2.0000     -10.329431      -281.0781
  54   2.0000     -10.327460      -281.0245
  55   2.0000     -10.327022      -281.0125
  56   2.0000     -10.326177      -280.9896
  57   2.0000     -10.322059      -280.8775
  58   2.0000     -10.321438      -280.8606
  59   2.0000     -10.321367      -280.8587
  60   2.0000     -10.320997      -280.8486
  61   2.0000     -10.317643      -280.7573
  62   2.0000     -10.315722      -280.7051
  63   2.0000     -10.315653      -280.7032
  64   2.0000     -10.314249      -280.6650
  65   2.0000     -10.313474      -280.6439
  66   2.0000     -10.312791      -280.6253
  67   2.0000     -10.312045      -280.6050
  68   2.0000     -10.310919      -280.5744
  69   2.0000     -10.307249      -280.4745
  70   2.0000     -10.307018      -280.4682
  71   2.0000     -10.306148      -280.4445
  72   2.0000     -10.305782      -280.4346
  73   2.0000     -10.305508      -280.4271
  74   2.0000     -10.305127      -280.4168
  75   2.0000     -10.305072      -280.4153
  76   2.0000     -10.304986      -280.4129
  77   2.0000     -10.303498      -280.3724
  78   2.0000     -10.299767      -280.2709
  79   2.0000     -10.297952      -280.2215
  80   2.0000     -10.295379      -280.1515
  81   2.0000     -10.290909      -280.0299
  82   2.0000     -10.289915      -280.0028
  83   2.0000     -10.287098      -279.9262
  84   2.0000     -10.284765      -279.8627
  85   2.0000      -8.082346      -219.9318
  86   2.0000      -8.082090      -219.9248
  87   2.0000      -8.080941      -219.8936
  88   2.0000      -8.080791      -219.8895
  89   2.0000      -8.080561      -219.8832
  90   2.0000      -8.080457      -219.8804
  91   2.0000      -8.067099      -219.5169
  92   2.0000      -6.051994      -164.6831
  93   2.0000      -6.051729      -164.6759
  94   2.0000      -6.050729      -164.6487
  95   2.0000      -6.050669      -164.6471
  96   2.0000      -6.050523      -164.6431
  97   2.0000      -6.050068      -164.6307
  98   2.0000      -6.048028      -164.5752
  99   2.0000      -6.047767      -164.5681
 100   2.0000      -6.046691      -164.5388
 101   2.0000      -6.046610      -164.5366
 102   2.0000      -6.046458      -164.5325
 103   2.0000      -6.046128      -164.5235
 104   2.0000      -6.043540      -164.4531
 105   2.0000      -6.043258      -164.4454
 106   2.0000      -6.042037      -164.4122
 107   2.0000      -6.041733      -164.4039
 108   2.0000      -6.041548      -164.3989
 109   2.0000      -6.041272      -164.3914
 110   2.0000      -6.036473      -164.2608
 111   2.0000      -6.032258      -164.1461
 112   2.0000      -6.029043      -164.0586
 113   2.0000      -1.338570       -36.4243
 114   2.0000      -1.338427       -36.4205
 115   2.0000      -1.325402       -36.0660
 116   2.0000      -1.321215       -35.9521
 117   2.0000      -1.205413       -32.8010
 118   2.0000      -1.205208       -32.7954
 119   2.0000      -1.189554       -32.3694
 120   2.0000      -1.188654       -32.3449
 121   2.0000      -1.140087       -31.0234
 122   2.0000      -1.138580       -30.9823
 123   2.0000      -1.110326       -30.2135
 124   2.0000      -1.110147       -30.2086
 125   2.0000      -1.094776       -29.7904
 126   2.0000      -1.094446       -29.7814
 127   2.0000      -1.046786       -28.4845
 128   2.0000      -1.046572       -28.4787
 129   2.0000      -1.024340       -27.8737
 130   2.0000      -1.023872       -27.8610
 131   2.0000      -1.006781       -27.3959
 132   2.0000      -1.006474       -27.3875
 133   2.0000      -1.004339       -27.3295
 134   2.0000      -1.004147       -27.3242
 135   2.0000      -0.998407       -27.1680
 136   2.0000      -0.998181       -27.1619
 137   2.0000      -0.997724       -27.1494
 138   2.0000      -0.965167       -26.2635
 139   2.0000      -0.964720       -26.2514
 140   2.0000      -0.955780       -26.0081
 141   2.0000      -0.954189       -25.9648
 142   2.0000      -0.918837       -25.0028
 143   2.0000      -0.910962       -24.7885
 144   2.0000      -0.910905       -24.7870
 145   2.0000      -0.902422       -24.5562
 146   2.0000      -0.902240       -24.5512
 147   2.0000      -0.899775       -24.4841
 148   2.0000      -0.883994       -24.0547
 149   2.0000      -0.881981       -23.9999
 150   2.0000      -0.881263       -23.9804
 151   2.0000      -0.874477       -23.7957
 152   2.0000      -0.861969       -23.4554
 153   2.0000      -0.858681       -23.3659
 154   2.0000      -0.855142       -23.2696
 155   2.0000      -0.844507       -22.9802
 156   2.0000      -0.840103       -22.8604
 157   2.0000      -0.835863       -22.7450
 158   2.0000      -0.829964       -22.5845
 159   2.0000      -0.827544       -22.5186
 160   2.0000      -0.826587       -22.4926
 161   2.0000      -0.814552       -22.1651
 162   2.0000      -0.812301       -22.1038
 163   2.0000      -0.808514       -22.0008
 164   2.0000      -0.799923       -21.7670
 165   2.0000      -0.789496       -21.4833
 166   2.0000      -0.781821       -21.2744
 167   2.0000      -0.772888       -21.0313
 168   2.0000      -0.770221       -20.9588
 169   2.0000      -0.754151       -20.5215
 170   2.0000      -0.745249       -20.2792
 171   2.0000      -0.728830       -19.8325
 172   2.0000      -0.723214       -19.6797
 173   2.0000      -0.718976       -19.5643
 174   2.0000      -0.711544       -19.3621
 175   2.0000      -0.700627       -19.0650
 176   2.0000      -0.696344       -18.9485
 177   2.0000      -0.692756       -18.8508
 178   2.0000      -0.691983       -18.8298
 179   2.0000      -0.690299       -18.7840
 180   2.0000      -0.686874       -18.6908
 181   2.0000      -0.682997       -18.5853
 182   2.0000      -0.682603       -18.5746
 183   2.0000      -0.673642       -18.3307
 184   2.0000      -0.670439       -18.2436
 185   2.0000      -0.669383       -18.2148
 186   2.0000      -0.660579       -17.9753
 187   2.0000      -0.655721       -17.8431
 188   2.0000      -0.654457       -17.8087
 189   2.0000      -0.647103       -17.6086
 190   2.0000      -0.641182       -17.4474
 191   2.0000      -0.640900       -17.4398
 192   2.0000      -0.632454       -17.2100
 193   2.0000      -0.630516       -17.1572
 194   2.0000      -0.626077       -17.0364
 195   2.0000      -0.623847       -16.9757
 196   2.0000      -0.621998       -16.9254
 197   2.0000      -0.620237       -16.8775
 198   2.0000      -0.609722       -16.5914
 199   2.0000      -0.604292       -16.4436
 200   2.0000      -0.600761       -16.3475
 201   2.0000      -0.597885       -16.2693
 202   2.0000      -0.597758       -16.2658
 203   2.0000      -0.596487       -16.2312
 204   2.0000      -0.596215       -16.2238
 205   2.0000      -0.588931       -16.0256
 206   2.0000      -0.583905       -15.8889
 207   2.0000      -0.582886       -15.8611
 208   2.0000      -0.582734       -15.8570
 209   2.0000      -0.579828       -15.7779
 210   2.0000      -0.577761       -15.7217
 211   2.0000      -0.576080       -15.6759
 212   2.0000      -0.571161       -15.5421
 213   2.0000      -0.569811       -15.5054
 214   2.0000      -0.567907       -15.4535
 215   2.0000      -0.563816       -15.3422
 216   2.0000      -0.558925       -15.2091
 217   2.0000      -0.556922       -15.1546
 218   2.0000      -0.554590       -15.0912
 219   2.0000      -0.553210       -15.0536
 220   2.0000      -0.550090       -14.9687
 221   2.0000      -0.548020       -14.9124
 222   2.0000      -0.545724       -14.8499
 223   2.0000      -0.544752       -14.8234
 224   2.0000      -0.544016       -14.8034
 225   2.0000      -0.538017       -14.6402
 226   2.0000      -0.537451       -14.6248
 227   2.0000      -0.535746       -14.5784
 228   2.0000      -0.535379       -14.5684
 229   2.0000      -0.535033       -14.5590
 230   2.0000      -0.527307       -14.3488
 231   2.0000      -0.525348       -14.2955
 232   2.0000      -0.525143       -14.2899
 233   2.0000      -0.522535       -14.2189
 234   2.0000      -0.521626       -14.1942
 235   2.0000      -0.517649       -14.0859
 236   2.0000      -0.515497       -14.0274
 237   2.0000      -0.513498       -13.9730
 238   2.0000      -0.511982       -13.9317
 239   2.0000      -0.511296       -13.9131
 240   2.0000      -0.508912       -13.8482
 241   2.0000      -0.506526       -13.7833
 242   2.0000      -0.503593       -13.7035
 243   2.0000      -0.500618       -13.6225
 244   2.0000      -0.499929       -13.6038
 245   2.0000      -0.498309       -13.5597
 246   2.0000      -0.495496       -13.4831
 247   2.0000      -0.495315       -13.4782
 248   2.0000      -0.493519       -13.4293
 249   2.0000      -0.492830       -13.4106
 250   2.0000      -0.491111       -13.3638
 251   2.0000      -0.486331       -13.2337
 252   2.0000      -0.483643       -13.1606
 253   2.0000      -0.482054       -13.1174
 254   2.0000      -0.481387       -13.0992
 255   2.0000      -0.480864       -13.0850
 256   2.0000      -0.472321       -12.8525
 257   2.0000      -0.470474       -12.8022
 258   2.0000      -0.470185       -12.7944
 259   2.0000      -0.469524       -12.7764
 260   2.0000      -0.461795       -12.5661
 261   2.0000      -0.460029       -12.5180
 262   2.0000      -0.459346       -12.4994
 263   2.0000      -0.456930       -12.4337
 264   2.0000      -0.456007       -12.4086
 265   2.0000      -0.453951       -12.3526
 266   2.0000      -0.453148       -12.3308
 267   2.0000      -0.452767       -12.3204
 268   2.0000      -0.448916       -12.2156
 269   2.0000      -0.446288       -12.1441
 270   2.0000      -0.444955       -12.1078
 271   2.0000      -0.442314       -12.0360
 272   2.0000      -0.442190       -12.0326
 273   2.0000      -0.440689       -11.9918
 274   2.0000      -0.440556       -11.9881
 275   2.0000      -0.439755       -11.9663
 276   2.0000      -0.436702       -11.8833
 277   2.0000      -0.435680       -11.8555
 278   2.0000      -0.433266       -11.7898
 279   2.0000      -0.431214       -11.7339
 280   2.0000      -0.430781       -11.7221
 281   2.0000      -0.429621       -11.6906
 282   2.0000      -0.427361       -11.6291
 283   2.0000      -0.426900       -11.6166
 284   2.0000      -0.425601       -11.5812
 285   2.0000      -0.416630       -11.3371
 286   2.0000      -0.415539       -11.3074
 287   2.0000      -0.413080       -11.2405
 288   2.0000      -0.412416       -11.2224
 289   2.0000      -0.407680       -11.0935
 290   2.0000      -0.390363       -10.6223
 291   2.0000      -0.390024       -10.6131
 292   2.0000      -0.388257       -10.5650
 293   2.0000      -0.382525       -10.4090
 294   2.0000      -0.374088       -10.1794
 295   2.0000      -0.371297       -10.1035
 296   2.0000      -0.370826       -10.0907
 297   2.0000      -0.367332        -9.9956
 298   2.0000      -0.366563        -9.9747
 299   2.0000      -0.365597        -9.9484
 300   2.0000      -0.361483        -9.8365
 301   2.0000      -0.357984        -9.7412
 302   2.0000      -0.353120        -9.6089
 303   2.0000      -0.350900        -9.5485
 304   2.0000      -0.350345        -9.5334
 305   2.0000      -0.349266        -9.5040
 306   2.0000      -0.347146        -9.4463
 307   2.0000      -0.345850        -9.4110
 308   2.0000      -0.341160        -9.2834
 309   2.0000      -0.338482        -9.2106
 310   2.0000      -0.337458        -9.1827
 311   2.0000      -0.325001        -8.8437
 312   2.0000      -0.319183        -8.6854
 313   2.0000      -0.315180        -8.5765
 314   2.0000      -0.303711        -8.2644
 315   2.0000      -0.303231        -8.2513
 316   2.0000      -0.295893        -8.0516
 317   2.0000      -0.271900        -7.3988
 318   2.0000      -0.246601        -6.7104
 319   0.0000      -0.100061        -2.7228
 320   0.0000      -0.095273        -2.5925
 321   0.0000      -0.075738        -2.0609
 322   0.0000      -0.073157        -1.9907
 323   0.0000      -0.060283        -1.6404

MULLIKEN ATOMIC CHARGES
-----------------------
   0 C :    0.273763
   1 C :   -0.315887
   2 C :   -0.177198
   3 N :    0.163915
   4 C :   -0.206162
   5 N :    0.163765
   6 C :    0.038750
   7 C :    0.011120
   8 C :   -0.039425
   9 C :    0.025209
  10 C :    0.021419
  11 C :   -0.051472
  12 C :    0.202130
  13 O :   -0.208140
  14 O :   -0.284742
  15 C :    0.188309
  16 C :    0.181993
  17 O :   -0.208781
  18 O :   -0.292829
  19 C :    0.187545
  20 C :    0.136835
  21 O :   -0.132536
  22 C :   -0.133178
  23 C :    0.077783
  24 C :   -0.178327
  25 C :    0.223605
  26 F :   -0.155972
  27 C :   -0.086093
  28 C :   -0.049336
  29 S :    0.198013
  30 C :   -0.090803
  31 C :   -0.074852
  32 S :    0.223936
  33 C :    0.232631
  34 F :   -0.160142
  35 C :   -0.229926
  36 S :    0.214031
  37 C :    0.008444
  38 C :    0.037404
  39 C :   -0.163085
  40 S :    0.194437
  41 C :   -0.143663
  42 C :    0.049900
  43 C :    0.048939
  44 C :    0.074649
  45 C :   -0.032158
  46 C :   -0.076892
  47 C :    0.045337
  48 C :   -0.156970
  49 C :    0.205991
  50 F :   -0.172993
  51 C :   -0.068649
  52 C :   -0.090694
  53 S :    0.187483
  54 C :   -0.054526
  55 C :   -0.086117
  56 S :    0.221697
  57 C :    0.228486
  58 F :   -0.154911
  59 C :   -0.181675
  60 S :    0.196027
  61 C :    0.075357
  62 C :   -0.132365
  63 C :    0.276774
  64 C :   -0.316980
  65 C :   -0.170942
  66 N :    0.161643
  67 C :   -0.204523
  68 N :    0.164139
  69 C :    0.030006
  70 C :    0.015368
  71 C :    0.134759
  72 O :   -0.135065
  73 C :   -0.052745
  74 C :    0.026824
  75 C :    0.033687
  76 C :   -0.038964
  77 C :    0.180034
  78 O :   -0.209195
  79 O :   -0.290169
  80 C :    0.186967
  81 C :    0.196479
  82 O :   -0.209376
  83 O :   -0.290332
  84 C :    0.184175
  85 H :    0.001734
  86 H :    0.012220
  87 H :    0.034454
  88 H :    0.040347
  89 H :    0.045811
  90 H :    0.033410
  91 H :    0.040880
  92 H :    0.032762
  93 H :    0.027721
  94 H :   -0.005174
  95 H :    0.000401
  96 H :    0.041873
  97 H :    0.000899
  98 H :    0.026860
  99 H :    0.005584
 100 H :    0.008787
 101 H :    0.040095
 102 H :    0.036107
 103 H :    0.034476
 104 H :    0.043829
 105 H :    0.035347
 106 H :    0.040608
Sum of atomic charges:   -0.0000000

LOEWDIN ATOMIC CHARGES
----------------------
   0 C :    0.063081
   1 C :   -0.130299
   2 C :   -0.021089
   3 N :   -0.043700
   4 C :   -0.018914
   5 N :   -0.045569
   6 C :   -0.010089
   7 C :   -0.032938
   8 C :    0.028486
   9 C :   -0.000960
  10 C :   -0.038162
  11 C :    0.023565
  12 C :    0.093100
  13 O :   -0.159524
  14 O :   -0.073655
  15 C :    0.086407
  16 C :    0.075586
  17 O :   -0.163585
  18 O :   -0.079903
  19 C :    0.083922
  20 C :    0.085571
  21 O :   -0.131405
  22 C :   -0.090232
  23 C :    0.043158
  24 C :   -0.209701
  25 C :    0.065680
  26 F :   -0.028278
  27 C :   -0.212293
  28 C :   -0.189627
  29 S :    0.462644
  30 C :   -0.211949
  31 C :   -0.206288
  32 S :    0.449162
  33 C :    0.050931
  34 F :   -0.044778
  35 C :   -0.210161
  36 S :    0.461417
  37 C :   -0.053388
  38 C :   -0.026819
  39 C :   -0.187768
  40 S :    0.470574
  41 C :   -0.181949
  42 C :   -0.033579
  43 C :   -0.031804
  44 C :   -0.054835
  45 C :   -0.022138
  46 C :   -0.030711
  47 C :   -0.023790
  48 C :   -0.191391
  49 C :    0.038123
  50 F :   -0.047227
  51 C :   -0.202563
  52 C :   -0.215271
  53 S :    0.451061
  54 C :   -0.188940
  55 C :   -0.213505
  56 S :    0.447551
  57 C :    0.065744
  58 F :   -0.027942
  59 C :   -0.210300
  60 S :    0.461800
  61 C :    0.042555
  62 C :   -0.090428
  63 C :    0.061364
  64 C :   -0.127293
  65 C :   -0.020782
  66 N :   -0.041784
  67 C :   -0.018480
  68 N :   -0.044229
  69 C :    0.005146
  70 C :   -0.048457
  71 C :    0.085245
  72 O :   -0.135200
  73 C :    0.040165
  74 C :   -0.042230
  75 C :    0.004450
  76 C :    0.010370
  77 C :    0.076989
  78 O :   -0.162932
  79 O :   -0.077540
  80 C :    0.084747
  81 C :    0.091847
  82 O :   -0.160203
  83 O :   -0.079351
  84 C :    0.084962
  85 H :    0.044963
  86 H :    0.042706
  87 H :    0.025139
  88 H :    0.027498
  89 H :    0.031056
  90 H :    0.022673
  91 H :    0.028134
  92 H :    0.025357
  93 H :    0.048391
  94 H :    0.036967
  95 H :    0.038764
  96 H :    0.045205
  97 H :    0.036746
  98 H :    0.048071
  99 H :    0.044499
 100 H :    0.043760
 101 H :    0.028059
 102 H :    0.024251
 103 H :    0.026128
 104 H :    0.028069
 105 H :    0.025404
 106 H :    0.028681

  Mayer bond orders larger than 0.100000
B(  0-C ,  1-C ) :   1.6595 B(  0-C ,  6-C ) :   0.9882 B(  0-C , 22-C ) :   1.0465
B(  1-C ,  2-C ) :   1.1298 B(  1-C ,  4-C ) :   1.1678 B(  2-C ,  3-N ) :   2.9906
B(  4-C ,  5-N ) :   2.9972 B(  6-C ,  7-C ) :   1.3379 B(  6-C , 11-C ) :   1.3436
B(  7-C ,  8-C ) :   1.3626 B(  7-C , 20-C ) :   0.9161 B(  8-C ,  9-C ) :   1.3763
B(  8-C , 85-H ) :   1.0147 B(  9-C , 10-C ) :   1.4660 B(  9-C , 16-C ) :   0.8450
B( 10-C , 11-C ) :   1.3318 B( 10-C , 12-C ) :   0.8987 B( 11-C , 86-H ) :   0.9901
B( 12-C , 13-O ) :   2.0423 B( 12-C , 14-O ) :   1.2613 B( 14-O , 15-C ) :   0.9113
B( 15-C , 87-H ) :   0.9769 B( 15-C , 88-H ) :   0.9752 B( 15-C , 89-H ) :   0.9806
B( 16-C , 17-O ) :   2.1143 B( 16-C , 18-O ) :   1.2278 B( 18-O , 19-C ) :   0.9169
B( 19-C , 90-H ) :   0.9719 B( 19-C , 91-H ) :   0.9768 B( 19-C , 92-H ) :   0.9809
B( 20-C , 21-O ) :   2.2700 B( 20-C , 22-C ) :   0.9387 B( 22-C , 23-C ) :   1.6685
B( 23-C , 24-C ) :   1.1476 B( 23-C , 93-H ) :   0.9223 B( 24-C , 25-C ) :   1.4215
B( 24-C , 29-S ) :   1.0656 B( 25-C , 26-F ) :   1.1691 B( 25-C , 27-C ) :   1.3092
B( 27-C , 28-C ) :   1.4716 B( 27-C , 32-S ) :   1.0299 B( 28-C , 29-S ) :   1.0900
B( 28-C , 30-C ) :   1.3294 B( 30-C , 31-C ) :   1.4814 B( 30-C , 36-S ) :   1.0706
B( 31-C , 32-S ) :   1.0356 B( 31-C , 33-C ) :   1.2610 B( 33-C , 34-F ) :   1.2207
B( 33-C , 35-C ) :   1.4791 B( 35-C , 36-S ) :   1.0637 B( 35-C , 37-C ) :   0.9964
B( 37-C , 38-C ) :   2.3504 B( 38-C , 39-C ) :   0.9886 B( 39-C , 40-S ) :   1.1103
B( 39-C , 41-C ) :   0.1077 B( 39-C , 43-C ) :   1.4873 B( 40-S , 41-C ) :   1.1129
B( 41-C , 42-C ) :   1.4894 B( 41-C , 44-C ) :   0.9737 B( 42-C , 43-C ) :   1.2748
B( 42-C , 94-H ) :   1.0015 B( 43-C , 95-H ) :   1.0027 B( 44-C , 45-C ) :   2.2860
B( 45-C , 46-C ) :   1.0234 B( 46-C , 47-C ) :   1.7186 B( 46-C , 96-H ) :   0.9489
B( 47-C , 48-C ) :   1.1279 B( 47-C , 97-H ) :   0.9611 B( 48-C , 49-C ) :   1.4641
B( 48-C , 53-S ) :   1.0829 B( 49-C , 50-F ) :   1.1500 B( 49-C , 51-C ) :   1.2811
B( 51-C , 52-C ) :   1.4777 B( 51-C , 56-S ) :   1.0371 B( 52-C , 53-S ) :   1.0729
B( 52-C , 54-C ) :   1.3328 B( 54-C , 55-C ) :   1.4720 B( 54-C , 60-S ) :   1.0893
B( 55-C , 56-S ) :   1.0264 B( 55-C , 57-C ) :   1.3105 B( 57-C , 58-F ) :   1.1712
B( 57-C , 59-C ) :   1.4175 B( 59-C , 60-S ) :   1.0662 B( 59-C , 61-C ) :   1.1494
B( 61-C , 62-C ) :   1.6682 B( 61-C , 98-H ) :   0.9211 B( 62-C , 63-C ) :   1.0483
B( 62-C , 71-C ) :   0.9391 B( 63-C , 64-C ) :   1.6559 B( 63-C , 69-C ) :   0.9895
B( 64-C , 65-C ) :   1.1305 B( 64-C , 67-C ) :   1.1688 B( 65-C , 66-N ) :   2.9849
B( 67-C , 68-N ) :   2.9964 B( 69-C , 70-C ) :   1.3352 B( 69-C , 76-C ) :   1.3590
B( 70-C , 71-C ) :   0.9183 B( 70-C , 73-C ) :   1.3474 B( 71-C , 72-O ) :   2.2691
B( 73-C , 74-C ) :   1.3235 B( 73-C , 99-H ) :   1.0174 B( 74-C , 75-C ) :   1.4541
B( 74-C , 81-C ) :   0.9008 B( 75-C , 76-C ) :   1.3963 B( 75-C , 77-C ) :   0.8511
B( 76-C ,100-H ) :   0.9885 B( 77-C , 78-O ) :   2.1090 B( 77-C , 79-O ) :   1.2317
B( 79-O , 80-C ) :   0.9151 B( 80-C ,101-H ) :   0.9769 B( 80-C ,102-H ) :   0.9730
B( 80-C ,103-H ) :   0.9809 B( 81-C , 82-O ) :   2.0503 B( 81-C , 83-O ) :   1.2532
B( 83-O , 84-C ) :   0.9142 B( 84-C ,104-H ) :   0.9728 B( 84-C ,105-H ) :   0.9787
B( 84-C ,106-H ) :   0.9811

-----------------------------------------------------------------------------
         ABSORPTION SPECTRUM VIA TRANSITION ELECTRIC DIPOLE MOMENTS
-----------------------------------------------------------------------------
State   Energy  Wavelength   fosc         T2         TX        TY        TZ
        (cm-1)    (nm)                  (au**2)     (au)      (au)      (au)
-----------------------------------------------------------------------------
   0   18737.1    533.7   3.551991630  62.40854  -7.25357  -2.30320  -2.11887
   1   20781.7    481.2   0.165204429   2.61707   1.46248  -0.56961  -0.39213
   2   24650.6    405.7   0.206999507   2.76451  -1.58991  -0.45795  -0.16420
   3   26152.6    382.4   0.041163515   0.51817   0.12818  -0.67963   0.19961
   4   26832.2    372.7   0.035238762   0.43235  -0.07823   0.57509   0.30905
   5   27528.8    363.3   0.105450401   1.26106   0.97876   0.41756   0.35881
   6   27956.4    357.7   0.197149438   2.32161   1.48104  -0.07417  -0.35020
   7   28125.4    355.6   0.092374954   1.08126   0.78486  -0.44749  -0.51479
   8   28610.5    349.5   0.366362699   4.21562  -1.36307  -0.98773  -1.17560
   9   30217.3    330.9   0.077948669   0.84924   0.50166  -0.47500   0.60988
  10   30471.2    328.2   0.087814052   0.94875  -0.71121  -0.63092   0.21181
  11   31702.9    315.4   0.058185278   0.60421  -0.14390  -0.68569   0.33665
  12   32240.0    310.2   0.050046596   0.51104   0.58652  -0.40856   0.01024
  13   32635.6    306.4   0.005700062   0.05750   0.00257   0.21063  -0.11459
  14   32777.4    305.1   0.035656797   0.35813   0.13788   0.57185  -0.11006
  15   32994.8    303.1   0.030710826   0.30642   0.07430  -0.17645   0.51939
  16   33357.5    299.8   0.174272503   1.71993  -1.29111   0.21517   0.08161
  17   33766.8    296.1   0.007691436   0.07499   0.17882   0.20609   0.02326
  18   34117.7    293.1   0.031963006   0.30842   0.52703  -0.15689   0.07777
  19   34347.5    291.1   0.187136075   1.79365  -0.79439  -1.07737   0.04332
  20   35014.4    285.6   0.167739665   1.57712  -1.14419   0.30855  -0.41562
  21   35391.9    282.6   0.089528318   0.83278   0.37307   0.65215  -0.51798
  22   35558.4    281.2   0.239523723   2.21759   1.13443   0.57021  -0.77816
  23   36026.4    277.6   0.150345422   1.37387   0.96901  -0.21815  -0.62233
  24   36431.5    274.5   0.372930376   3.36997  -1.08336   1.48128  -0.04577
  25   36794.5    271.8   0.156274520   1.39824   1.10211  -0.42244  -0.07159
  26   37461.9    266.9   0.050928627   0.44756   0.51631   0.36210   0.22331
  27   37816.9    264.4   0.047440828   0.41299  -0.44962  -0.21932  -0.40340
  28   38161.8    262.0   0.029422190   0.25382   0.12243   0.45993  -0.16521
  29   38271.2    261.3   0.049659399   0.42717   0.49117  -0.27590  -0.33137
  30   38628.5    258.9   0.063190952   0.53855  -0.61677  -0.38550  -0.09764
  31   38785.2    257.8   0.042077617   0.35716   0.43034   0.37972  -0.16668
  32   38897.0    257.1   0.033338708   0.28217  -0.01294   0.52738  -0.06218
  33   39074.0    255.9   0.091772756   0.77322  -0.24117  -0.37107   0.75984
  34   39348.3    254.1   0.077833264   0.65120  -0.66826   0.37964   0.24598
  35   39448.8    253.5   0.084934709   0.70881   0.43812  -0.13054  -0.70698
  36   39773.9    251.4   0.022125664   0.18314  -0.24549  -0.34740  -0.04677
  37   39872.1    250.8   0.016634048   0.13734  -0.19368  -0.29967  -0.10012

FINAL SINGLE POINT ENERGY     -6452.097465545586

DIPOLE MOMENT
-------------
                                X             Y             Z
Electronic contribution:      0.39521     -32.38647       6.60178
Nuclear contribution   :      0.54301      33.88971      -9.47275
                        -----------------------------------------
Total Dipole Moment    :      0.93822       1.50324      -2.87097
                        -----------------------------------------
Magnitude (a.u.)       :      3.37379
Magnitude (Debye)      :      8.57549

Rotational constants in cm-1:     0.002195     0.000068     0.000067
Rotational constants in MHz :    65.798298     2.032067     2.001130

                             ****ORCA TERMINATED NORMALLY****
TOTAL RUN TIME: 0 days 0 hours 10 minutes 31 seconds 643 msec
