                         Program Version 4.2.0 -  RELEASE  -
|  1> # ORCA input file
|  2> # SCF done       -182.278018221177          0.000502679557
|  3> ! CAM-B3LYP def2-SVP def2/J RIJCOSX Grid4 TightSCF
|  4> %maxcore 5000
|  5> %tddft
|  6>     Mode sTDDFT
|  7>     Ethresh 5.0
|  8>     maxcore 5000
|  9> end
| 10>
| 11> %pal
| 12>   nprocs 6
| 13>   end
| 14> * xyz 0 1
| 15>    C       -0.95617         3.14692        -2.61753
| 16>    C       -0.21510         2.76917        -3.70255
| 17>    C       -0.31629         3.37270        -4.97302
| 18>    N       -0.36789         3.82030        -6.02809
| 19>    C        0.67825         1.67836        -3.67554
| 20>    N        1.40380         0.78932        -3.68514
| 21>    C       -2.01969         4.14682        -2.61455
| 22>    C       -2.86011         3.91546        -1.50889
| 23>    C       -3.93910         4.73259        -1.24526
| 24>    C       -4.17807         5.81449        -2.09275
| 25>    C       -3.35598         6.03611        -3.20266
| 26>    C       -2.26876         5.20748        -3.46783
| 27>    C       -3.61982         7.16144        -4.15461
| 28>    O       -2.80678         7.98276        -4.47946
| 29>    O       -4.86302         7.09485        -4.63942
| 30>    C       -5.21859         8.10978        -5.56920
| 31>    C       -5.28345         6.74859        -1.73567
| 32>    O       -6.30399         6.42009        -1.19045
| 33>    O       -4.97200         8.01286        -2.04285
| 34>    C       -5.94888         8.99469        -1.72677
| 35>    C       -2.33641         2.77067        -0.72578
| 36>    O       -2.82953         2.23701         0.23768
| 37>    C       -1.01200         2.46634        -1.34289
| 38>    C       -0.09152         1.76470        -0.63098
| 39>    C        1.32936         1.74387        -0.75980
| 40>    C        2.10030         0.77670        -0.12541
| 41>    C        3.49479         0.78598        -0.10106
| 42>    C        4.26257         1.78306        -0.68973
| 43>    C        3.51815         2.78582        -1.37915
| 44>    C        2.07441         2.76809        -1.40617
| 45>    N        1.68305         3.85382        -2.04318
| 46>    O        2.79133         4.49898        -2.40354
| 47>    N        3.89828         3.87656        -2.01392
| 48>    C        5.68698         1.88156        -0.52178
| 49>    C        6.45434         2.83498        -1.18347
| 50>    C        7.78405         3.10381        -0.87436
| 51>    C        8.47598         2.45240         0.13970
| 52>    C        7.77970         1.37074         0.75104
| 53>    C        6.40118         1.08352         0.41871
| 54>    N        6.04216         0.04900         1.15256
| 55>    O        7.11216        -0.28831         1.87916
| 56>    N        8.15849         0.49533         1.65482
| 57>    C        9.72803         2.89553         0.62946
| 58>    S       10.50956         4.35200        -0.08102
| 59>    C       11.65748         4.25988         1.17843
| 60>    C       11.39458         3.15015         2.00653
| 61>    N       10.34076         2.42671         1.68088
| 62>    C       12.36000         3.10439         3.14796
| 63>    C       13.14949         4.35860         2.90928
| 64>    C       12.72565         4.98714         1.72973
| 65>    S       13.55968         6.45734         1.43586
| 66>    C       14.45679         6.26129         2.93017
| 67>    C       14.12518         5.07765         3.58078
| 68>    C       15.30788         7.31540         3.33898
| 69>    C       15.92153         7.40796         4.54574
| 70>    C       16.66372         8.53193         4.97872
| 71>    C       17.21116         8.73504         6.23515
| 72>    C       17.81955         9.97623         6.38740
| 73>    C       17.74606        10.73722         5.22622
| 74>    S       16.92920         9.92390         3.95004
| 75>    C       18.31589        12.03750         5.25184
| 76>    C       18.89510        12.46816         6.43345
| 77>   Ge       18.72627        11.03998         7.77824
| 78>    C       20.45826        10.27918         8.37602
| 79>    C       17.52484        11.51365         9.28522
| 80>    C       19.40689        13.77051         6.31739
| 81>    C       19.21632        14.30213         5.07760
| 82>    S       18.40253        13.22878         4.00614
| 83>    H       -4.57980         4.55928        -0.39400
| 84>    H       -1.63462         5.41949        -4.31421
| 85>    H       -6.24882         7.91335        -5.85409
| 86>    H       -4.56371         8.06815        -6.44173
| 87>    H       -5.12466         9.09384        -5.10576
| 88>    H       -5.48522         9.95784        -1.92434
| 89>    H       -6.23898         8.91450        -0.67721
| 90>    H       -6.83601         8.85807        -2.34868
| 91>    H       -0.48719         1.22806         0.22629
| 92>    H        1.58945        -0.02952         0.38040
| 93>    H        4.00742        -0.00127         0.42908
| 94>    H        5.97711         3.43505        -1.94122
| 95>    H        8.28089         3.90034        -1.40872
| 96>    H       12.98447         2.20960         3.11047
| 97>    H       11.84655         3.10913         4.11061
| 98>    H       14.57504         4.77610         4.50866
| 99>    H       15.41620         8.13494         2.63993
|100>    H       15.82097         6.60974         5.26840
|101>    H       17.15236         7.99475         7.01459
|102>    H       20.28970         9.37819         8.95752
|103>    H       20.98840        10.99572         8.99565
|104>    H       21.07837        10.03172         7.52045
|105>    H       16.58932        11.91688         8.91043
|106>    H       17.99458        12.25745         9.92115
|107>    H       17.31008        10.63391         9.88385
|108>    H       19.89707        14.29629         7.11814
|109>    H       19.50540        15.27059         4.71861
|110> *
|111>
|112>                          ****END OF INPUT****

CARTESIAN COORDINATES (ANGSTROEM)
---------------------------------
  C     -0.956170    3.146920   -2.617530
  C     -0.215100    2.769170   -3.702550
  C     -0.316290    3.372700   -4.973020
  N     -0.367890    3.820300   -6.028090
  C      0.678250    1.678360   -3.675540
  N      1.403800    0.789320   -3.685140
  C     -2.019690    4.146820   -2.614550
  C     -2.860110    3.915460   -1.508890
  C     -3.939100    4.732590   -1.245260
  C     -4.178070    5.814490   -2.092750
  C     -3.355980    6.036110   -3.202660
  C     -2.268760    5.207480   -3.467830
  C     -3.619820    7.161440   -4.154610
  O     -2.806780    7.982760   -4.479460
  O     -4.863020    7.094850   -4.639420
  C     -5.218590    8.109780   -5.569200
  C     -5.283450    6.748590   -1.735670
  O     -6.303990    6.420090   -1.190450
  O     -4.972000    8.012860   -2.042850
  C     -5.948880    8.994690   -1.726770
  C     -2.336410    2.770670   -0.725780
  O     -2.829530    2.237010    0.237680
  C     -1.012000    2.466340   -1.342890
  C     -0.091520    1.764700   -0.630980
  C      1.329360    1.743870   -0.759800
  C      2.100300    0.776700   -0.125410
  C      3.494790    0.785980   -0.101060
  C      4.262570    1.783060   -0.689730
  C      3.518150    2.785820   -1.379150
  C      2.074410    2.768090   -1.406170
  N      1.683050    3.853820   -2.043180
  O      2.791330    4.498980   -2.403540
  N      3.898280    3.876560   -2.013920
  C      5.686980    1.881560   -0.521780
  C      6.454340    2.834980   -1.183470
  C      7.784050    3.103810   -0.874360
  C      8.475980    2.452400    0.139700
  C      7.779700    1.370740    0.751040
  C      6.401180    1.083520    0.418710
  N      6.042160    0.049000    1.152560
  O      7.112160   -0.288310    1.879160
  N      8.158490    0.495330    1.654820
  C      9.728030    2.895530    0.629460
  S     10.509560    4.352000   -0.081020
  C     11.657480    4.259880    1.178430
  C     11.394580    3.150150    2.006530
  N     10.340760    2.426710    1.680880
  C     12.360000    3.104390    3.147960
  C     13.149490    4.358600    2.909280
  C     12.725650    4.987140    1.729730
  S     13.559680    6.457340    1.435860
  C     14.456790    6.261290    2.930170
  C     14.125180    5.077650    3.580780
  C     15.307880    7.315400    3.338980
  C     15.921530    7.407960    4.545740
  C     16.663720    8.531930    4.978720
  C     17.211160    8.735040    6.235150
  C     17.819550    9.976230    6.387400
  C     17.746060   10.737220    5.226220
  S     16.929200    9.923900    3.950040
  C     18.315890   12.037500    5.251840
  C     18.895100   12.468160    6.433450
  Ge    18.726270   11.039980    7.778240
  C     20.458260   10.279180    8.376020
  C     17.524840   11.513650    9.285220
  C     19.406890   13.770510    6.317390
  C     19.216320   14.302130    5.077600
  S     18.402530   13.228780    4.006140
  H     -4.579800    4.559280   -0.394000
  H     -1.634620    5.419490   -4.314210
  H     -6.248820    7.913350   -5.854090
  H     -4.563710    8.068150   -6.441730
  H     -5.124660    9.093840   -5.105760
  H     -5.485220    9.957840   -1.924340
  H     -6.238980    8.914500   -0.677210
  H     -6.836010    8.858070   -2.348680
  H     -0.487190    1.228060    0.226290
  H      1.589450   -0.029520    0.380400
  H      4.007420   -0.001270    0.429080
  H      5.977110    3.435050   -1.941220
  H      8.280890    3.900340   -1.408720
  H     12.984470    2.209600    3.110470
  H     11.846550    3.109130    4.110610
  H     14.575040    4.776100    4.508660
  H     15.416200    8.134940    2.639930
  H     15.820970    6.609740    5.268400
  H     17.152360    7.994750    7.014590
  H     20.289700    9.378190    8.957520
  H     20.988400   10.995720    8.995650
  H     21.078370   10.031720    7.520450
  H     16.589320   11.916880    8.910430
  H     17.994580   12.257450    9.921150
  H     17.310080   10.633910    9.883850
  H     19.897070   14.296290    7.118140
  H     19.505400   15.270590    4.718610

 Total Charge           Charge          ....    0
 Multiplicity           Mult            ....    1
 Number of Electrons    NEL             ....  522
 Basis Dimension        Dim             .... 1121

ORBITAL ENERGIES
----------------

  NO   OCC          E(Eh)            E(eV)
   0   2.0000    -398.770557    -10851.0985
   1   2.0000     -88.974210     -2421.1114
   2   2.0000     -88.966176     -2420.8927
   3   2.0000     -88.956116     -2420.6190
   4   2.0000     -88.955050     -2420.5900
   5   2.0000     -49.830079     -1355.9454
   6   2.0000     -44.367292     -1207.2954
   7   2.0000     -44.366566     -1207.2756
   8   2.0000     -44.366242     -1207.2668
   9   2.0000     -19.360825      -526.8348
  10   2.0000     -19.352713      -526.6141
  11   2.0000     -19.267859      -524.3051
  12   2.0000     -19.262304      -524.1539
  13   2.0000     -19.218973      -522.9749
  14   2.0000     -19.210664      -522.7487
  15   2.0000     -19.206209      -522.6275
  16   2.0000     -14.488675      -394.2569
  17   2.0000     -14.483054      -394.1039
  18   2.0000     -14.479182      -393.9986
  19   2.0000     -14.477510      -393.9531
  20   2.0000     -14.420478      -392.4011
  21   2.0000     -14.413498      -392.2112
  22   2.0000     -14.412146      -392.1744
  23   2.0000     -10.407439      -283.2008
  24   2.0000     -10.403914      -283.1049
  25   2.0000     -10.369887      -282.1790
  26   2.0000     -10.341565      -281.4083
  27   2.0000     -10.340752      -281.3862
  28   2.0000     -10.337049      -281.2854
  29   2.0000     -10.333277      -281.1828
  30   2.0000     -10.331154      -281.1250
  31   2.0000     -10.328371      -281.0493
  32   2.0000     -10.327450      -281.0242
  33   2.0000     -10.326565      -281.0001
  34   2.0000     -10.323513      -280.9171
  35   2.0000     -10.321699      -280.8677
  36   2.0000     -10.319414      -280.8055
  37   2.0000     -10.317314      -280.7484
  38   2.0000     -10.316866      -280.7362
  39   2.0000     -10.314607      -280.6747
  40   2.0000     -10.313912      -280.6558
  41   2.0000     -10.312650      -280.6215
  42   2.0000     -10.311660      -280.5945
  43   2.0000     -10.311120      -280.5798
  44   2.0000     -10.310857      -280.5727
  45   2.0000     -10.309932      -280.5475
  46   2.0000     -10.309762      -280.5429
  47   2.0000     -10.309072      -280.5241
  48   2.0000     -10.308805      -280.5169
  49   2.0000     -10.307394      -280.4785
  50   2.0000     -10.303388      -280.3694
  51   2.0000     -10.302197      -280.3370
  52   2.0000     -10.300996      -280.3043
  53   2.0000     -10.299965      -280.2763
  54   2.0000     -10.298225      -280.2289
  55   2.0000     -10.298155      -280.2270
  56   2.0000     -10.297872      -280.2193
  57   2.0000     -10.297789      -280.2171
  58   2.0000     -10.296962      -280.1946
  59   2.0000     -10.294088      -280.1164
  60   2.0000     -10.292008      -280.0598
  61   2.0000     -10.288841      -279.9736
  62   2.0000     -10.288606      -279.9672
  63   2.0000     -10.287631      -279.9407
  64   2.0000     -10.283210      -279.8204
  65   2.0000     -10.280191      -279.7382
  66   2.0000     -10.275604      -279.6134
  67   2.0000     -10.270368      -279.4709
  68   2.0000     -10.260760      -279.2095
  69   2.0000     -10.260103      -279.1916
  70   2.0000     -10.258795      -279.1560
  71   2.0000     -10.258080      -279.1365
  72   2.0000      -8.069125      -219.5721
  73   2.0000      -8.061399      -219.3618
  74   2.0000      -8.051614      -219.0956
  75   2.0000      -8.050730      -219.0715
  76   2.0000      -6.289967      -171.1587
  77   2.0000      -6.038301      -164.3105
  78   2.0000      -6.034389      -164.2041
  79   2.0000      -6.031343      -164.1212
  80   2.0000      -6.030719      -164.1042
  81   2.0000      -6.026670      -163.9940
  82   2.0000      -6.023443      -163.9062
  83   2.0000      -6.020735      -163.8325
  84   2.0000      -6.019956      -163.8113
  85   2.0000      -6.016909      -163.7284
  86   2.0000      -6.015717      -163.6960
  87   2.0000      -6.013775      -163.6431
  88   2.0000      -6.013148      -163.6261
  89   2.0000      -4.466164      -121.5305
  90   2.0000      -4.465108      -121.5018
  91   2.0000      -4.464168      -121.4762
  92   2.0000      -1.314840       -35.7786
  93   2.0000      -1.306500       -35.5517
  94   2.0000      -1.290201       -35.1081
  95   2.0000      -1.288284       -35.0560
  96   2.0000      -1.287939       -35.0466
  97   2.0000      -1.286957       -35.0199
  98   2.0000      -1.286440       -35.0058
  99   2.0000      -1.202029       -32.7089
 100   2.0000      -1.192444       -32.4481
 101   2.0000      -1.134395       -30.8685
 102   2.0000      -1.104679       -30.0598
 103   2.0000      -1.100534       -29.9471
 104   2.0000      -1.076009       -29.2797
 105   2.0000      -1.023918       -27.8622
 106   2.0000      -1.018412       -27.7124
 107   2.0000      -1.011744       -27.5309
 108   2.0000      -1.008285       -27.4368
 109   2.0000      -1.001792       -27.2601
 110   2.0000      -0.998445       -27.1691
 111   2.0000      -0.995139       -27.0791
 112   2.0000      -0.991452       -26.9788
 113   2.0000      -0.990305       -26.9476
 114   2.0000      -0.966545       -26.3010
 115   2.0000      -0.958488       -26.0818
 116   2.0000      -0.935705       -25.4618
 117   2.0000      -0.929067       -25.2812
 118   2.0000      -0.924891       -25.1676
 119   2.0000      -0.918466       -24.9927
 120   2.0000      -0.903792       -24.5934
 121   2.0000      -0.900096       -24.4929
 122   2.0000      -0.894316       -24.3356
 123   2.0000      -0.883091       -24.0301
 124   2.0000      -0.873746       -23.7758
 125   2.0000      -0.857631       -23.3373
 126   2.0000      -0.853774       -23.2324
 127   2.0000      -0.837800       -22.7977
 128   2.0000      -0.834853       -22.7175
 129   2.0000      -0.827494       -22.5173
 130   2.0000      -0.823502       -22.4086
 131   2.0000      -0.815177       -22.1821
 132   2.0000      -0.804331       -21.8870
 133   2.0000      -0.794164       -21.6103
 134   2.0000      -0.788216       -21.4484
 135   2.0000      -0.781323       -21.2609
 136   2.0000      -0.777168       -21.1478
 137   2.0000      -0.772496       -21.0207
 138   2.0000      -0.766281       -20.8516
 139   2.0000      -0.765970       -20.8431
 140   2.0000      -0.760331       -20.6896
 141   2.0000      -0.757232       -20.6053
 142   2.0000      -0.741612       -20.1803
 143   2.0000      -0.731149       -19.8956
 144   2.0000      -0.720551       -19.6072
 145   2.0000      -0.717596       -19.5268
 146   2.0000      -0.694587       -18.9007
 147   2.0000      -0.685795       -18.6614
 148   2.0000      -0.679696       -18.4955
 149   2.0000      -0.669158       -18.2087
 150   2.0000      -0.662903       -18.0385
 151   2.0000      -0.659241       -17.9389
 152   2.0000      -0.655350       -17.8330
 153   2.0000      -0.651164       -17.7191
 154   2.0000      -0.649426       -17.6718
 155   2.0000      -0.644855       -17.5474
 156   2.0000      -0.638862       -17.3843
 157   2.0000      -0.634458       -17.2645
 158   2.0000      -0.628809       -17.1108
 159   2.0000      -0.623822       -16.9751
 160   2.0000      -0.620523       -16.8853
 161   2.0000      -0.614425       -16.7194
 162   2.0000      -0.613571       -16.6961
 163   2.0000      -0.609866       -16.5953
 164   2.0000      -0.605151       -16.4670
 165   2.0000      -0.604806       -16.4576
 166   2.0000      -0.596133       -16.2216
 167   2.0000      -0.591619       -16.0988
 168   2.0000      -0.590520       -16.0689
 169   2.0000      -0.583993       -15.8912
 170   2.0000      -0.583006       -15.8644
 171   2.0000      -0.573784       -15.6134
 172   2.0000      -0.572175       -15.5697
 173   2.0000      -0.565205       -15.3800
 174   2.0000      -0.564323       -15.3560
 175   2.0000      -0.560481       -15.2515
 176   2.0000      -0.556248       -15.1363
 177   2.0000      -0.553109       -15.0509
 178   2.0000      -0.550229       -14.9725
 179   2.0000      -0.545755       -14.8507
 180   2.0000      -0.540776       -14.7153
 181   2.0000      -0.539432       -14.6787
 182   2.0000      -0.538493       -14.6531
 183   2.0000      -0.536722       -14.6050
 184   2.0000      -0.532827       -14.4990
 185   2.0000      -0.528440       -14.3796
 186   2.0000      -0.524255       -14.2657
 187   2.0000      -0.518597       -14.1117
 188   2.0000      -0.515892       -14.0381
 189   2.0000      -0.510000       -13.8778
 190   2.0000      -0.506404       -13.7799
 191   2.0000      -0.505142       -13.7456
 192   2.0000      -0.500095       -13.6083
 193   2.0000      -0.498564       -13.5666
 194   2.0000      -0.496609       -13.5134
 195   2.0000      -0.495926       -13.4948
 196   2.0000      -0.493721       -13.4348
 197   2.0000      -0.491040       -13.3619
 198   2.0000      -0.488273       -13.2866
 199   2.0000      -0.486395       -13.2355
 200   2.0000      -0.485876       -13.2214
 201   2.0000      -0.481630       -13.1058
 202   2.0000      -0.477918       -13.0048
 203   2.0000      -0.477169       -12.9844
 204   2.0000      -0.476600       -12.9689
 205   2.0000      -0.475445       -12.9375
 206   2.0000      -0.474013       -12.8986
 207   2.0000      -0.472922       -12.8689
 208   2.0000      -0.472653       -12.8615
 209   2.0000      -0.469387       -12.7727
 210   2.0000      -0.465998       -12.6804
 211   2.0000      -0.461796       -12.5661
 212   2.0000      -0.461033       -12.5454
 213   2.0000      -0.458388       -12.4734
 214   2.0000      -0.455885       -12.4053
 215   2.0000      -0.454948       -12.3798
 216   2.0000      -0.451829       -12.2949
 217   2.0000      -0.447200       -12.1689
 218   2.0000      -0.442923       -12.0525
 219   2.0000      -0.441630       -12.0174
 220   2.0000      -0.439340       -11.9550
 221   2.0000      -0.435492       -11.8503
 222   2.0000      -0.433119       -11.7858
 223   2.0000      -0.430902       -11.7254
 224   2.0000      -0.429831       -11.6963
 225   2.0000      -0.425243       -11.5715
 226   2.0000      -0.424355       -11.5473
 227   2.0000      -0.421972       -11.4825
 228   2.0000      -0.419080       -11.4037
 229   2.0000      -0.416372       -11.3301
 230   2.0000      -0.414499       -11.2791
 231   2.0000      -0.409351       -11.1390
 232   2.0000      -0.405313       -11.0291
 233   2.0000      -0.404384       -11.0039
 234   2.0000      -0.400596       -10.9008
 235   2.0000      -0.391408       -10.6507
 236   2.0000      -0.390356       -10.6221
 237   2.0000      -0.389131       -10.5888
 238   2.0000      -0.383137       -10.4257
 239   2.0000      -0.375617       -10.2211
 240   2.0000      -0.372441       -10.1346
 241   2.0000      -0.371887       -10.1196
 242   2.0000      -0.371108       -10.0984
 243   2.0000      -0.368516       -10.0278
 244   2.0000      -0.367468        -9.9993
 245   2.0000      -0.363735        -9.8977
 246   2.0000      -0.362608        -9.8671
 247   2.0000      -0.357057        -9.7160
 248   2.0000      -0.351255        -9.5581
 249   2.0000      -0.350335        -9.5331
 250   2.0000      -0.341598        -9.2954
 251   2.0000      -0.340335        -9.2610
 252   2.0000      -0.335801        -9.1376
 253   2.0000      -0.328180        -8.9302
 254   2.0000      -0.321392        -8.7455
 255   2.0000      -0.317241        -8.6326
 256   2.0000      -0.316549        -8.6137
 257   2.0000      -0.307547        -8.3688
 258   2.0000      -0.287664        -7.8277
 259   2.0000      -0.259456        -7.0602
 260   2.0000      -0.223014        -6.0685
 261   0.0000      -0.111974        -3.0470
 262   0.0000      -0.076956        -2.0941
 263   0.0000      -0.063889        -1.7385
 264   0.0000      -0.048048        -1.3075
 265   0.0000      -0.038026        -1.0347

MULLIKEN ATOMIC CHARGES
-----------------------
   0 C :    0.306195
   1 C :   -0.297940
   2 C :   -0.196302
   3 N :    0.169224
   4 C :   -0.211578
   5 N :    0.168057
   6 C :    0.034717
   7 C :    0.023208
   8 C :   -0.070277
   9 C :    0.046715
  10 C :    0.049429
  11 C :   -0.053027
  12 C :    0.174195
  13 O :   -0.197444
  14 O :   -0.302787
  15 C :    0.188629
  16 C :    0.169953
  17 O :   -0.194676
  18 O :   -0.305510
  19 C :    0.189477
  20 C :    0.140005
  21 O :   -0.130083
  22 C :   -0.123347
  23 C :   -0.003930
  24 C :    0.104438
  25 C :   -0.001044
  26 C :   -0.046179
  27 C :    0.091040
  28 C :   -0.034658
  29 C :   -0.036307
  30 N :    0.029197
  31 O :   -0.082939
  32 N :    0.038802
  33 C :    0.053927
  34 C :   -0.030943
  35 C :   -0.045857
  36 C :    0.152881
  37 C :   -0.054279
  38 C :   -0.036315
  39 N :    0.029549
  40 O :   -0.094964
  41 N :    0.088199
  42 C :   -0.179079
  43 S :    0.110120
  44 C :   -0.031019
  45 C :   -0.238636
  46 N :    0.032930
  47 C :    0.389337
  48 C :   -0.153721
  49 C :   -0.107570
  50 S :    0.154401
  51 C :   -0.069459
  52 C :   -0.021990
  53 C :    0.024045
  54 C :    0.024864
  55 C :   -0.049996
  56 C :   -0.036730
  57 C :   -0.086007
  58 C :   -0.077939
  59 S :    0.122774
  60 C :   -0.125363
  61 C :   -0.103981
  62 Ge:    0.443517
  63 C :   -0.191957
  64 C :   -0.192138
  65 C :    0.020453
  66 C :   -0.078259
  67 S :    0.135386
  68 H :    0.011318
  69 H :    0.016887
  70 H :    0.036590
  71 H :    0.039318
  72 H :    0.028927
  73 H :    0.040792
  74 H :    0.038104
  75 H :    0.032718
  76 H :    0.020659
  77 H :    0.002224
  78 H :    0.009334
  79 H :    0.013850
  80 H :    0.001402
  81 H :    0.042691
  82 H :    0.038478
  83 H :   -0.025102
  84 H :   -0.011001
  85 H :   -0.014405
  86 H :   -0.025330
  87 H :    0.043236
  88 H :    0.044622
  89 H :    0.056015
  90 H :    0.055933
  91 H :    0.043220
  92 H :    0.041960
  93 H :   -0.016937
  94 H :    0.023069
Sum of atomic charges:   -0.0000000

LOEWDIN ATOMIC CHARGES
----------------------
   0 C :    0.069702
   1 C :   -0.121163
   2 C :   -0.019834
   3 N :   -0.043483
   4 C :   -0.019693
   5 N :   -0.048778
   6 C :    0.005527
   7 C :   -0.042667
   8 C :    0.043270
   9 C :   -0.034646
  10 C :   -0.011673
  11 C :    0.021093
  12 C :    0.079954
  13 O :   -0.156258
  14 O :   -0.088356
  15 C :    0.082538
  16 C :    0.085794
  17 O :   -0.160741
  18 O :   -0.081137
  19 C :    0.083562
  20 C :    0.087555
  21 O :   -0.130312
  22 C :   -0.078105
  23 C :    0.063826
  24 C :   -0.046552
  25 C :    0.042005
  26 C :   -0.007335
  27 C :    0.006684
  28 C :   -0.038255
  29 C :   -0.042146
  30 N :   -0.022149
  31 O :    0.080006
  32 N :   -0.016697
  33 C :   -0.043505
  34 C :    0.021106
  35 C :   -0.025925
  36 C :   -0.028225
  37 C :   -0.049326
  38 C :   -0.039038
  39 N :   -0.036706
  40 O :    0.074523
  41 N :    0.007346
  42 C :   -0.134321
  43 S :    0.414544
  44 C :   -0.194877
  45 C :   -0.043280
  46 N :   -0.052096
  47 C :   -0.011232
  48 C :   -0.033589
  49 C :   -0.213121
  50 S :    0.440237
  51 C :   -0.149888
  52 C :   -0.061717
  53 C :   -0.067192
  54 C :   -0.024486
  55 C :   -0.175268
  56 C :   -0.050065
  57 C :   -0.174897
  58 C :   -0.181960
  59 S :    0.429073
  60 C :   -0.199934
  61 C :   -0.171668
  62 Ge:    0.512802
  63 C :   -0.201991
  64 C :   -0.201683
  65 C :   -0.064509
  66 C :   -0.187468
  67 S :    0.432611
  68 H :    0.047879
  69 H :    0.046825
  70 H :    0.027133
  71 H :    0.026823
  72 H :    0.021814
  73 H :    0.028459
  74 H :    0.026307
  75 H :    0.023792
  76 H :    0.048398
  77 H :    0.042452
  78 H :    0.037869
  79 H :    0.037712
  80 H :    0.029027
  81 H :    0.059588
  82 H :    0.056385
  83 H :    0.029525
  84 H :    0.020535
  85 H :    0.033170
  86 H :    0.026914
  87 H :    0.035617
  88 H :    0.036036
  89 H :    0.040921
  90 H :    0.040962
  91 H :    0.035592
  92 H :    0.035193
  93 H :    0.027948
  94 H :    0.021310

  Mayer bond orders larger than 0.100000
B(  0-C ,  1-C ) :   1.6709 B(  0-C ,  6-C ) :   0.9925 B(  0-C , 22-C ) :   1.0369
B(  1-C ,  2-C ) :   1.1470 B(  1-C ,  4-C ) :   1.1557 B(  2-C ,  3-N ) :   2.9972
B(  4-C ,  5-N ) :   3.0129 B(  6-C ,  7-C ) :   1.3316 B(  6-C , 11-C ) :   1.3514
B(  7-C ,  8-C ) :   1.3419 B(  7-C , 20-C ) :   0.9121 B(  8-C ,  9-C ) :   1.3576
B(  8-C , 68-H ) :   1.0182 B(  9-C , 10-C ) :   1.4112 B(  9-C , 16-C ) :   0.8902
B( 10-C , 11-C ) :   1.3885 B( 10-C , 12-C ) :   0.8720 B( 11-C , 69-H ) :   0.9940
B( 12-C , 13-O ) :   2.1331 B( 12-C , 14-O ) :   1.1909 B( 14-O , 15-C ) :   0.9211
B( 15-C , 70-H ) :   0.9803 B( 15-C , 71-H ) :   0.9760 B( 15-C , 72-H ) :   0.9732
B( 16-C , 17-O ) :   2.1359 B( 16-C , 18-O ) :   1.1883 B( 18-O , 19-C ) :   0.9170
B( 19-C , 73-H ) :   0.9803 B( 19-C , 74-H ) :   0.9731 B( 19-C , 75-H ) :   0.9766
B( 20-C , 21-O ) :   2.2788 B( 20-C , 22-C ) :   0.9329 B( 22-C , 23-C ) :   1.6704
B( 23-C , 24-C ) :   1.0976 B( 23-C , 76-H ) :   0.9480 B( 24-C , 25-C ) :   1.4174
B( 24-C , 27-C ) :   0.1007 B( 24-C , 29-C ) :   1.1296 B( 25-C , 26-C ) :   1.2078
B( 25-C , 77-H ) :   0.9961 B( 26-C , 27-C ) :   1.4815 B( 26-C , 78-H ) :   0.9717
B( 27-C , 28-C ) :   1.1290 B( 27-C , 33-C ) :   1.1062 B( 28-C , 29-C ) :   1.1573
B( 28-C , 32-N ) :   1.5924 B( 29-C , 30-N ) :   1.5855 B( 30-N , 31-O ) :   1.0587
B( 30-N , 32-N ) :   0.1730 B( 31-O , 32-N ) :   1.0733 B( 33-C , 34-C ) :   1.4625
B( 33-C , 36-C ) :   0.1082 B( 33-C , 38-C ) :   1.1344 B( 34-C , 35-C ) :   1.2469
B( 34-C , 79-H ) :   0.9682 B( 35-C , 36-C ) :   1.4480 B( 35-C , 80-H ) :   0.9807
B( 36-C , 37-C ) :   1.1177 B( 36-C , 42-C ) :   1.1158 B( 37-C , 38-C ) :   1.1463
B( 37-C , 41-N ) :   1.6230 B( 38-C , 39-N ) :   1.6008 B( 39-N , 40-O ) :   1.0479
B( 39-N , 41-N ) :   0.1773 B( 40-O , 41-N ) :   1.0644 B( 42-C , 43-S ) :   1.0509
B( 42-C , 46-N ) :   1.6752 B( 43-S , 44-C ) :   1.1173 B( 43-S , 46-N ) :   0.1011
B( 44-C , 45-C ) :   1.4270 B( 44-C , 49-C ) :   1.2132 B( 45-C , 46-N ) :   1.4721
B( 45-C , 47-C ) :   1.0389 B( 47-C , 48-C ) :   0.9831 B( 47-C , 81-H ) :   0.8546
B( 47-C , 82-H ) :   0.8708 B( 48-C , 49-C ) :   1.4915 B( 48-C , 52-C ) :   1.3299
B( 49-C , 50-S ) :   1.0753 B( 50-S , 51-C ) :   1.1155 B( 51-C , 52-C ) :   1.4490
B( 51-C , 53-C ) :   1.1398 B( 52-C , 83-H ) :   0.9976 B( 53-C , 54-C ) :   1.6539
B( 53-C , 84-H ) :   0.9545 B( 54-C , 55-C ) :   1.1798 B( 54-C , 85-H ) :   0.9755
B( 55-C , 56-C ) :   1.4476 B( 55-C , 59-S ) :   1.0922 B( 56-C , 57-C ) :   1.2509
B( 56-C , 86-H ) :   1.0045 B( 57-C , 58-C ) :   1.5225 B( 57-C , 62-Ge) :   0.8824
B( 58-C , 59-S ) :   1.1129 B( 58-C , 60-C ) :   1.1557 B( 60-C , 61-C ) :   1.5390
B( 60-C , 67-S ) :   1.1173 B( 61-C , 62-Ge) :   0.8882 B( 61-C , 65-C ) :   1.2524
B( 62-Ge, 63-C ) :   1.0121 B( 62-Ge, 64-C ) :   1.0120 B( 63-C , 87-H ) :   0.9604
B( 63-C , 88-H ) :   0.9605 B( 63-C , 89-H ) :   0.9595 B( 64-C , 90-H ) :   0.9588
B( 64-C , 91-H ) :   0.9612 B( 64-C , 92-H ) :   0.9609 B( 65-C , 66-C ) :   1.5560
B( 65-C , 93-H ) :   0.9975 B( 66-C , 67-S ) :   1.1559 B( 66-C , 94-H ) :   0.9718

-----------------------------------------------------------------------------
         ABSORPTION SPECTRUM VIA TRANSITION ELECTRIC DIPOLE MOMENTS
-----------------------------------------------------------------------------
State   Energy  Wavelength   fosc         T2         TX        TY        TZ
        (cm-1)    (nm)                  (au**2)     (au)      (au)      (au)
-----------------------------------------------------------------------------
   0   12710.7    786.7   1.618459481  41.91858   5.72576   2.05678   2.21448
   1   20006.0    499.8   0.307160507   5.05452   0.48497  -2.17272  -0.31402
   2   20921.6    478.0   0.541025269   8.51331  -2.38962  -1.38416  -0.94187
   3   24143.5    414.2   0.470260270   6.41229   1.20863   1.88661   1.17992
   4   24727.0    404.4   0.021711666   0.28907  -0.32100  -0.26186   0.34272
   5   25720.1    388.8   0.071920929   0.92057  -0.35955  -0.88947   0.01127
   6   26575.2    376.3   0.108342644   1.34214   1.01252  -0.55992  -0.05858
   7   27906.2    358.3   0.091261370   1.07662  -0.99581   0.10384   0.27240
   8   29525.2    338.7   0.031666535   0.35309   0.35167  -0.31677   0.35927
   9   29725.0    336.4   0.015256529   0.16897  -0.16338   0.13646   0.35165
  10   30116.9    332.0   0.027307528   0.29850  -0.49108   0.17737   0.16087
  11   31137.8    321.2   0.046714752   0.49390  -0.02552   0.33971  -0.61470
  12   31618.7    316.3   0.024790475   0.25812  -0.40159   0.19516  -0.24239
  13   32303.1    309.6   0.051826448   0.52818   0.47866  -0.01946  -0.54653
  14   32452.2    308.1   0.136581683   1.38556   0.89847  -0.74671  -0.14399
  15   32538.5    307.3   0.015677059   0.15861   0.34861  -0.19203   0.01457
  16   33661.2    297.1   0.003133781   0.03065  -0.13365   0.01309  -0.11232
  17   34074.8    293.5   0.012914689   0.12477   0.04975   0.23741   0.25678
  18   34787.6    287.5   0.012092620   0.11444   0.17167   0.28793   0.04546
  19   34990.0    285.8   0.076485228   0.71963   0.27566  -0.33112  -0.73075
  20   35571.3    281.1   0.068003277   0.62937   0.35396  -0.70422   0.09030
  21   35750.1    279.7   0.413631474   3.80900   1.55197  -0.82778  -0.84567
  22   36706.4    272.4   0.091655672   0.82204  -0.68370   0.59008  -0.08002
  23   36871.6    271.2   0.024146204   0.21559  -0.13647   0.41038  -0.16899
  24   37205.3    268.8   0.049751493   0.44023  -0.33206  -0.06100   0.57117
  25   37587.2    266.0   0.008237134   0.07215  -0.04095  -0.17496   0.19965
  26   37609.3    265.9   0.014008594   0.12262   0.21685   0.22602  -0.15657
  27   37975.7    263.3   0.008562587   0.07423   0.09344   0.23466  -0.10214
  28   38236.5    261.5   0.002001318   0.01723  -0.06919  -0.08529  -0.07189
  29   38525.9    259.6   0.098831349   0.84454  -0.02378  -0.50165   0.76962
  30   38998.6    256.4   0.095163265   0.80333  -0.29351  -0.42610   0.73186
  31   39383.3    253.9   0.039632117   0.33129   0.32515  -0.34015   0.33147
  32   39786.7    251.3   0.054678135   0.45243  -0.25095   0.22036  -0.58386
  33   40085.9    249.5   0.064276064   0.52788  -0.00618   0.71556  -0.12577

FINAL SINGLE POINT ENERGY     -6458.766399894243

DIPOLE MOMENT
-------------
                                X             Y             Z
Electronic contribution:     78.63155       7.05726      24.36547
Nuclear contribution   :    -75.85131      -4.51292     -21.64784
                        -----------------------------------------
Total Dipole Moment    :      2.78024       2.54434       2.71764
                        -----------------------------------------
Magnitude (a.u.)       :      4.64639
Magnitude (Debye)      :     11.81018

Rotational constants in cm-1:     0.001387     0.000176     0.000163
Rotational constants in MHz :    41.583634     5.268284     4.886233

                             ****ORCA TERMINATED NORMALLY****
TOTAL RUN TIME: 0 days 0 hours 13 minutes 8 seconds 758 msec
