                         Program Version 4.2.0 -  RELEASE  -
|  1> # ORCA input file
|  2> # SCF done       -204.215878352905          0.000945753855
|  3> ! CAM-B3LYP def2-SVP def2/J RIJCOSX Grid4 TightSCF
|  4> %maxcore 5000
|  5> %tddft
|  6>     Mode sTDDFT
|  7>     Ethresh 5.0
|  8>     maxcore 5000
|  9> end
| 10>
| 11> %pal
| 12>   nprocs 6
| 13>   end
| 14> * xyz 0 1
| 15>    C       -3.42336         2.33990         1.02560
| 16>    C       -2.60656         2.87563         0.09716
| 17>    C       -1.28352         2.34365         0.14236
| 18>    C       -0.18487         2.66537        -0.67493
| 19>    C       -0.27507         3.60064        -1.77956
| 20>    C        0.64920         4.52601        -2.16977
| 21>    C        0.25731         5.23715        -3.32509
| 22>    C       -0.94915         4.86259        -3.83894
| 23>    S       -1.63635         3.60279        -2.87015
| 24>    C       -1.65778         5.38722        -5.03369
| 25>   Cl        1.23477         6.47492        -4.01559
| 26>    C        1.01892         2.02717        -0.38198
| 27>    C        1.15176         1.07640         0.65817
| 28>    C        0.04201         0.72279         1.44999
| 29>    C       -1.14661         1.39192         1.18191
| 30>    S       -2.65377         1.15824         2.02588
| 31>    C        0.16936        -0.29443         2.47348
| 32>    C        0.87878        -1.45967         2.40594
| 33>    C        0.83442        -2.19170         3.61099
| 34>    C        0.09772        -1.61303         4.60170
| 35>    S       -0.57120        -0.11654         4.04071
| 36>    C       -0.15891        -2.09989         5.98113
| 37>   Cl        1.66486        -3.69166         3.79866
| 38>    C        2.47548         0.58975         0.75960
| 39>    C        3.32199         1.09495        -0.18240
| 40>    S        2.52146         2.24241        -1.23399
| 41>    C        4.70835         0.73991        -0.32538
| 42>    C        5.59189         1.34769        -1.20118
| 43>    F        5.15955         2.33476        -2.00607
| 44>    C        6.94773         0.98742        -1.31068
| 45>    F        7.67449         1.64509        -2.23428
| 46>    C        7.53587        -0.01410        -0.56267
| 47>    C        6.65324        -0.67655         0.31593
| 48>    C        5.28047        -0.30631         0.43963
| 49>    N        4.73565        -1.11919         1.35719
| 50>    N        5.71615        -1.89221         1.73474
| 51>    N        6.87295        -1.68940         1.16946
| 52>    C        5.51850        -2.90567         2.72542
| 53>    C        8.94441        -0.35494        -0.65889
| 54>    C        9.47347        -1.61418        -0.81523
| 55>    C        8.81057        -2.93852        -0.92931
| 56>    N       10.82835        -1.47706        -0.88616
| 57>    C       11.19699        -0.17265        -0.77438
| 58>    C       12.63168         0.21378        -0.77810
| 59>    C       10.03838         0.57754        -0.63012
| 60>    C        9.87531         1.97731        -0.38061
| 61>    C       10.81006         2.93212        -0.55968
| 62>    C       10.66029         4.33319        -0.29023
| 63>    C        9.54375         5.00137         0.19952
| 64>    F        8.41407         4.32951         0.50295
| 65>    C        9.50082         6.38513         0.41902
| 66>    F        8.34310         6.88752         0.89846
| 67>    C       10.56179         7.24899         0.18223
| 68>    C       11.72176         6.59982        -0.30896
| 69>    C       11.76028         5.19434        -0.53520
| 70>    N       12.98734         4.89713        -0.98921
| 71>    N       13.60745         6.04360        -1.02348
| 72>    N       12.92586         7.08702        -0.63778
| 73>    C       14.96587         6.17120        -1.45343
| 74>    C       10.53080         8.66180         0.40443
| 75>    C       11.58662         9.53018         0.19722
| 76>    C       11.24616        10.84610         0.50488
| 77>    C        9.92313        10.97927         0.94713
| 78>    S        9.09715         9.48852         0.98816
| 79>    C        9.68679        12.35654         1.23006
| 80>    C       10.85699        13.07842         0.96637
| 81>    C       11.87800        12.15835         0.50305
| 82>    C       13.16291        12.44660         0.14176
| 83>    C       14.06523        11.45276        -0.29008
| 84>    N       14.81175        10.65620        -0.64359
| 85>    C       13.67754        13.75868         0.17564
| 86>    N       14.11056        14.82046         0.20910
| 87>    C       10.70938        14.45585         1.22207
| 88>    C        9.45601        14.74617         1.66559
| 89>    S        8.42155        13.35822         1.78425
| 90>    H       -4.45626         2.56655         1.20362
| 91>    H       -2.92076         3.63280        -0.59649
| 92>    H        1.56416         4.72561        -1.64417
| 93>    H       -1.08349         6.20132        -5.46873
| 94>    H       -2.64734         5.75440        -4.76375
| 95>    H       -1.78300         4.60415        -5.78124
| 96>    H        1.38465        -1.80811         1.52523
| 97>    H        0.34537        -3.05055         6.13742
| 98>    H       -1.22732        -2.23455         6.14641
| 99>    H        0.20517        -1.38175         6.71511
|100>    H        2.81156        -0.09303         1.51454
|101>    H        6.10893        -2.67886         3.61380
|102>    H        5.83289        -3.87247         2.33279
|103>    H        4.46083        -2.92921         2.97891
|104>    H        7.92170        -2.86393        -1.55196
|105>    H        8.49810        -3.28748         0.05463
|106>    H        9.48762        -3.66912        -1.36724
|107>    H       11.47210        -2.24326        -1.00492
|108>    H       12.84352         0.90168         0.03842
|109>    H       12.90187         0.70610        -1.71268
|110>    H       13.25837        -0.66916        -0.66335
|111>    H        8.89693         2.25033        -0.01492
|112>    H       11.77855         2.68120        -0.96188
|113>    H       15.23336         7.22425        -1.39894
|114>    H       15.06704         5.80809        -2.47629
|115>    H       15.61728         5.58376        -0.80577
|116>    H       12.54056         9.19113        -0.16013
|117>    H       11.48128        15.19150         1.08772
|118>    H        9.05878        15.70359         1.93709
|119> *
|120>
|121>                          ****END OF INPUT****

CARTESIAN COORDINATES (ANGSTROEM)
---------------------------------
  C     -3.423360    2.339900    1.025600
  C     -2.606560    2.875630    0.097160
  C     -1.283520    2.343650    0.142360
  C     -0.184870    2.665370   -0.674930
  C     -0.275070    3.600640   -1.779560
  C      0.649200    4.526010   -2.169770
  C      0.257310    5.237150   -3.325090
  C     -0.949150    4.862590   -3.838940
  S     -1.636350    3.602790   -2.870150
  C     -1.657780    5.387220   -5.033690
  Cl     1.234770    6.474920   -4.015590
  C      1.018920    2.027170   -0.381980
  C      1.151760    1.076400    0.658170
  C      0.042010    0.722790    1.449990
  C     -1.146610    1.391920    1.181910
  S     -2.653770    1.158240    2.025880
  C      0.169360   -0.294430    2.473480
  C      0.878780   -1.459670    2.405940
  C      0.834420   -2.191700    3.610990
  C      0.097720   -1.613030    4.601700
  S     -0.571200   -0.116540    4.040710
  C     -0.158910   -2.099890    5.981130
  Cl     1.664860   -3.691660    3.798660
  C      2.475480    0.589750    0.759600
  C      3.321990    1.094950   -0.182400
  S      2.521460    2.242410   -1.233990
  C      4.708350    0.739910   -0.325380
  C      5.591890    1.347690   -1.201180
  F      5.159550    2.334760   -2.006070
  C      6.947730    0.987420   -1.310680
  F      7.674490    1.645090   -2.234280
  C      7.535870   -0.014100   -0.562670
  C      6.653240   -0.676550    0.315930
  C      5.280470   -0.306310    0.439630
  N      4.735650   -1.119190    1.357190
  N      5.716150   -1.892210    1.734740
  N      6.872950   -1.689400    1.169460
  C      5.518500   -2.905670    2.725420
  C      8.944410   -0.354940   -0.658890
  C      9.473470   -1.614180   -0.815230
  C      8.810570   -2.938520   -0.929310
  N     10.828350   -1.477060   -0.886160
  C     11.196990   -0.172650   -0.774380
  C     12.631680    0.213780   -0.778100
  C     10.038380    0.577540   -0.630120
  C      9.875310    1.977310   -0.380610
  C     10.810060    2.932120   -0.559680
  C     10.660290    4.333190   -0.290230
  C      9.543750    5.001370    0.199520
  F      8.414070    4.329510    0.502950
  C      9.500820    6.385130    0.419020
  F      8.343100    6.887520    0.898460
  C     10.561790    7.248990    0.182230
  C     11.721760    6.599820   -0.308960
  C     11.760280    5.194340   -0.535200
  N     12.987340    4.897130   -0.989210
  N     13.607450    6.043600   -1.023480
  N     12.925860    7.087020   -0.637780
  C     14.965870    6.171200   -1.453430
  C     10.530800    8.661800    0.404430
  C     11.586620    9.530180    0.197220
  C     11.246160   10.846100    0.504880
  C      9.923130   10.979270    0.947130
  S      9.097150    9.488520    0.988160
  C      9.686790   12.356540    1.230060
  C     10.856990   13.078420    0.966370
  C     11.878000   12.158350    0.503050
  C     13.162910   12.446600    0.141760
  C     14.065230   11.452760   -0.290080
  N     14.811750   10.656200   -0.643590
  C     13.677540   13.758680    0.175640
  N     14.110560   14.820460    0.209100
  C     10.709380   14.455850    1.222070
  C      9.456010   14.746170    1.665590
  S      8.421550   13.358220    1.784250
  H     -4.456260    2.566550    1.203620
  H     -2.920760    3.632800   -0.596490
  H      1.564160    4.725610   -1.644170
  H     -1.083490    6.201320   -5.468730
  H     -2.647340    5.754400   -4.763750
  H     -1.783000    4.604150   -5.781240
  H      1.384650   -1.808110    1.525230
  H      0.345370   -3.050550    6.137420
  H     -1.227320   -2.234550    6.146410
  H      0.205170   -1.381750    6.715110
  H      2.811560   -0.093030    1.514540
  H      6.108930   -2.678860    3.613800
  H      5.832890   -3.872470    2.332790
  H      4.460830   -2.929210    2.978910
  H      7.921700   -2.863930   -1.551960
  H      8.498100   -3.287480    0.054630
  H      9.487620   -3.669120   -1.367240
  H     11.472100   -2.243260   -1.004920
  H     12.843520    0.901680    0.038420
  H     12.901870    0.706100   -1.712680
  H     13.258370   -0.669160   -0.663350
  H      8.896930    2.250330   -0.014920
  H     11.778550    2.681200   -0.961880
  H     15.233360    7.224250   -1.398940
  H     15.067040    5.808090   -2.476290
  H     15.617280    5.583760   -0.805770
  H     12.540560    9.191130   -0.160130
  H     11.481280   15.191500    1.087720
  H      9.058780   15.703590    1.937090

 Total Charge           Charge          ....    0
 Multiplicity           Mult            ....    1
 Number of Electrons    NEL             ....  582
 Basis Dimension        Dim             .... 1227

ORBITAL ENERGIES
----------------

  NO   OCC          E(Eh)            E(eV)
   0   2.0000    -101.588879     -2764.3739
   1   2.0000    -101.574391     -2763.9797
   2   2.0000     -88.974032     -2421.1065
   3   2.0000     -88.970533     -2421.0113
   4   2.0000     -88.952031     -2420.5078
   5   2.0000     -88.948707     -2420.4174
   6   2.0000     -88.941613     -2420.2243
   7   2.0000     -88.938833     -2420.1487
   8   2.0000     -24.790096      -674.5728
   9   2.0000     -24.787241      -674.4951
  10   2.0000     -24.780764      -674.3189
  11   2.0000     -24.778073      -674.2457
  12   2.0000     -14.540364      -395.6634
  13   2.0000     -14.536791      -395.5662
  14   2.0000     -14.455180      -393.3454
  15   2.0000     -14.442075      -392.9888
  16   2.0000     -14.441271      -392.9670
  17   2.0000     -14.438502      -392.8916
  18   2.0000     -14.438423      -392.8895
  19   2.0000     -14.416929      -392.3046
  20   2.0000     -14.416222      -392.2854
  21   2.0000     -10.364594      -282.0349
  22   2.0000     -10.363359      -282.0013
  23   2.0000     -10.359421      -281.8942
  24   2.0000     -10.357306      -281.8366
  25   2.0000     -10.347494      -281.5696
  26   2.0000     -10.336150      -281.2609
  27   2.0000     -10.319240      -280.8008
  28   2.0000     -10.317837      -280.7626
  29   2.0000     -10.317218      -280.7458
  30   2.0000     -10.315909      -280.7101
  31   2.0000     -10.315520      -280.6996
  32   2.0000     -10.315367      -280.6954
  33   2.0000     -10.309891      -280.5464
  34   2.0000     -10.308988      -280.5218
  35   2.0000     -10.307608      -280.4843
  36   2.0000     -10.305137      -280.4170
  37   2.0000     -10.303749      -280.3793
  38   2.0000     -10.302563      -280.3470
  39   2.0000     -10.300277      -280.2848
  40   2.0000     -10.300082      -280.2795
  41   2.0000     -10.300051      -280.2786
  42   2.0000     -10.299200      -280.2555
  43   2.0000     -10.298701      -280.2419
  44   2.0000     -10.298532      -280.2373
  45   2.0000     -10.298433      -280.2346
  46   2.0000     -10.297105      -280.1985
  47   2.0000     -10.294940      -280.1396
  48   2.0000     -10.294678      -280.1324
  49   2.0000     -10.293487      -280.1000
  50   2.0000     -10.292919      -280.0846
  51   2.0000     -10.292266      -280.0668
  52   2.0000     -10.291895      -280.0567
  53   2.0000     -10.290503      -280.0188
  54   2.0000     -10.289071      -279.9799
  55   2.0000     -10.288298      -279.9588
  56   2.0000     -10.288116      -279.9539
  57   2.0000     -10.284846      -279.8649
  58   2.0000     -10.284267      -279.8491
  59   2.0000     -10.281559      -279.7754
  60   2.0000     -10.278243      -279.6852
  61   2.0000     -10.275165      -279.6015
  62   2.0000     -10.274898      -279.5942
  63   2.0000     -10.274637      -279.5871
  64   2.0000     -10.272302      -279.5236
  65   2.0000     -10.271846      -279.5111
  66   2.0000     -10.269593      -279.4498
  67   2.0000     -10.268556      -279.4216
  68   2.0000     -10.265606      -279.3414
  69   2.0000     -10.265328      -279.3338
  70   2.0000     -10.265166      -279.3294
  71   2.0000     -10.258143      -279.1383
  72   2.0000     -10.257634      -279.1244
  73   2.0000     -10.253710      -279.0176
  74   2.0000     -10.249779      -278.9107
  75   2.0000      -9.543151      -259.6823
  76   2.0000      -9.529158      -259.3016
  77   2.0000      -8.069131      -219.5722
  78   2.0000      -8.064652      -219.4503
  79   2.0000      -8.047782      -218.9913
  80   2.0000      -8.044373      -218.8985
  81   2.0000      -8.037595      -218.7141
  82   2.0000      -8.033776      -218.6102
  83   2.0000      -7.313286      -199.0046
  84   2.0000      -7.303362      -198.7346
  85   2.0000      -7.303222      -198.7308
  86   2.0000      -7.299387      -198.6264
  87   2.0000      -7.289237      -198.3502
  88   2.0000      -7.289164      -198.3482
  89   2.0000      -6.038347      -164.3118
  90   2.0000      -6.033967      -164.1926
  91   2.0000      -6.033903      -164.1908
  92   2.0000      -6.031736      -164.1319
  93   2.0000      -6.029583      -164.0733
  94   2.0000      -6.027135      -164.0067
  95   2.0000      -6.017076      -163.7330
  96   2.0000      -6.013705      -163.6412
  97   2.0000      -6.012895      -163.6192
  98   2.0000      -6.009861      -163.5366
  99   2.0000      -6.009515      -163.5272
 100   2.0000      -6.007287      -163.4666
 101   2.0000      -6.006423      -163.4431
 102   2.0000      -6.003539      -163.3646
 103   2.0000      -6.002846      -163.3458
 104   2.0000      -5.999151      -163.2452
 105   2.0000      -5.999074      -163.2431
 106   2.0000      -5.995075      -163.1343
 107   2.0000      -1.308249       -35.5993
 108   2.0000      -1.306464       -35.5507
 109   2.0000      -1.287920       -35.0461
 110   2.0000      -1.286336       -35.0030
 111   2.0000      -1.218433       -33.1553
 112   2.0000      -1.215132       -33.0654
 113   2.0000      -1.072284       -29.1783
 114   2.0000      -1.026612       -27.9355
 115   2.0000      -1.007261       -27.4090
 116   2.0000      -1.003977       -27.3196
 117   2.0000      -0.995793       -27.0969
 118   2.0000      -0.993903       -27.0455
 119   2.0000      -0.992328       -27.0026
 120   2.0000      -0.990145       -26.9432
 121   2.0000      -0.987330       -26.8666
 122   2.0000      -0.984859       -26.7994
 123   2.0000      -0.982866       -26.7452
 124   2.0000      -0.972183       -26.4545
 125   2.0000      -0.963800       -26.2263
 126   2.0000      -0.941465       -25.6186
 127   2.0000      -0.940926       -25.6039
 128   2.0000      -0.932592       -25.3771
 129   2.0000      -0.923144       -25.1200
 130   2.0000      -0.919910       -25.0320
 131   2.0000      -0.908095       -24.7105
 132   2.0000      -0.901481       -24.5305
 133   2.0000      -0.891590       -24.2614
 134   2.0000      -0.890275       -24.2256
 135   2.0000      -0.881686       -23.9919
 136   2.0000      -0.869440       -23.6587
 137   2.0000      -0.855530       -23.2802
 138   2.0000      -0.850819       -23.1520
 139   2.0000      -0.846692       -23.0397
 140   2.0000      -0.842228       -22.9182
 141   2.0000      -0.835161       -22.7259
 142   2.0000      -0.827044       -22.5050
 143   2.0000      -0.824190       -22.4274
 144   2.0000      -0.813119       -22.1261
 145   2.0000      -0.810283       -22.0489
 146   2.0000      -0.805807       -21.9271
 147   2.0000      -0.804251       -21.8848
 148   2.0000      -0.797786       -21.7089
 149   2.0000      -0.793284       -21.5864
 150   2.0000      -0.783269       -21.3138
 151   2.0000      -0.778430       -21.1822
 152   2.0000      -0.774455       -21.0740
 153   2.0000      -0.762039       -20.7361
 154   2.0000      -0.747418       -20.3383
 155   2.0000      -0.741643       -20.1811
 156   2.0000      -0.738511       -20.0959
 157   2.0000      -0.729538       -19.8517
 158   2.0000      -0.727724       -19.8024
 159   2.0000      -0.719365       -19.5749
 160   2.0000      -0.706305       -19.2195
 161   2.0000      -0.704039       -19.1579
 162   2.0000      -0.695100       -18.9146
 163   2.0000      -0.687887       -18.7184
 164   2.0000      -0.686301       -18.6752
 165   2.0000      -0.673200       -18.3187
 166   2.0000      -0.663853       -18.0643
 167   2.0000      -0.658572       -17.9206
 168   2.0000      -0.652859       -17.7652
 169   2.0000      -0.645565       -17.5667
 170   2.0000      -0.643444       -17.5090
 171   2.0000      -0.642473       -17.4826
 172   2.0000      -0.636460       -17.3190
 173   2.0000      -0.633698       -17.2438
 174   2.0000      -0.630171       -17.1478
 175   2.0000      -0.623524       -16.9669
 176   2.0000      -0.622189       -16.9306
 177   2.0000      -0.619748       -16.8642
 178   2.0000      -0.613193       -16.6858
 179   2.0000      -0.612256       -16.6603
 180   2.0000      -0.607799       -16.5390
 181   2.0000      -0.604037       -16.4367
 182   2.0000      -0.602630       -16.3984
 183   2.0000      -0.600470       -16.3396
 184   2.0000      -0.599650       -16.3173
 185   2.0000      -0.598979       -16.2990
 186   2.0000      -0.596815       -16.2402
 187   2.0000      -0.583567       -15.8797
 188   2.0000      -0.581650       -15.8275
 189   2.0000      -0.575297       -15.6546
 190   2.0000      -0.571095       -15.5403
 191   2.0000      -0.568462       -15.4686
 192   2.0000      -0.566093       -15.4042
 193   2.0000      -0.565876       -15.3983
 194   2.0000      -0.561132       -15.2692
 195   2.0000      -0.551674       -15.0118
 196   2.0000      -0.549460       -14.9516
 197   2.0000      -0.542480       -14.7616
 198   2.0000      -0.537129       -14.6160
 199   2.0000      -0.533108       -14.5066
 200   2.0000      -0.530841       -14.4449
 201   2.0000      -0.529152       -14.3990
 202   2.0000      -0.528334       -14.3767
 203   2.0000      -0.527233       -14.3467
 204   2.0000      -0.525631       -14.3031
 205   2.0000      -0.521227       -14.1833
 206   2.0000      -0.518524       -14.1097
 207   2.0000      -0.517260       -14.0754
 208   2.0000      -0.512936       -13.9577
 209   2.0000      -0.511947       -13.9308
 210   2.0000      -0.509020       -13.8511
 211   2.0000      -0.505102       -13.7445
 212   2.0000      -0.504325       -13.7234
 213   2.0000      -0.503059       -13.6889
 214   2.0000      -0.500973       -13.6322
 215   2.0000      -0.500910       -13.6305
 216   2.0000      -0.499404       -13.5895
 217   2.0000      -0.498647       -13.5689
 218   2.0000      -0.496748       -13.5172
 219   2.0000      -0.494401       -13.4533
 220   2.0000      -0.491724       -13.3805
 221   2.0000      -0.489869       -13.3300
 222   2.0000      -0.488473       -13.2920
 223   2.0000      -0.486732       -13.2447
 224   2.0000      -0.483306       -13.1514
 225   2.0000      -0.483133       -13.1467
 226   2.0000      -0.478216       -13.0129
 227   2.0000      -0.475694       -12.9443
 228   2.0000      -0.473729       -12.8908
 229   2.0000      -0.471399       -12.8274
 230   2.0000      -0.470117       -12.7925
 231   2.0000      -0.465601       -12.6696
 232   2.0000      -0.464931       -12.6514
 233   2.0000      -0.461858       -12.5678
 234   2.0000      -0.460790       -12.5387
 235   2.0000      -0.459807       -12.5120
 236   2.0000      -0.457759       -12.4563
 237   2.0000      -0.455633       -12.3984
 238   2.0000      -0.455279       -12.3888
 239   2.0000      -0.453895       -12.3511
 240   2.0000      -0.451533       -12.2868
 241   2.0000      -0.450859       -12.2685
 242   2.0000      -0.449397       -12.2287
 243   2.0000      -0.448042       -12.1918
 244   2.0000      -0.444260       -12.0889
 245   2.0000      -0.440233       -11.9794
 246   2.0000      -0.439214       -11.9516
 247   2.0000      -0.433329       -11.7915
 248   2.0000      -0.431091       -11.7306
 249   2.0000      -0.430484       -11.7141
 250   2.0000      -0.427020       -11.6198
 251   2.0000      -0.424508       -11.5514
 252   2.0000      -0.422710       -11.5025
 253   2.0000      -0.420395       -11.4395
 254   2.0000      -0.419461       -11.4141
 255   2.0000      -0.415212       -11.2985
 256   2.0000      -0.413854       -11.2615
 257   2.0000      -0.413513       -11.2523
 258   2.0000      -0.411395       -11.1946
 259   2.0000      -0.409565       -11.1448
 260   2.0000      -0.406435       -11.0597
 261   2.0000      -0.402952       -10.9649
 262   2.0000      -0.396955       -10.8017
 263   2.0000      -0.391114       -10.6428
 264   2.0000      -0.390261       -10.6195
 265   2.0000      -0.387530       -10.5452
 266   2.0000      -0.387200       -10.5362
 267   2.0000      -0.382196       -10.4001
 268   2.0000      -0.371584       -10.1113
 269   2.0000      -0.370361       -10.0780
 270   2.0000      -0.368419       -10.0252
 271   2.0000      -0.368258       -10.0208
 272   2.0000      -0.366310        -9.9678
 273   2.0000      -0.364417        -9.9163
 274   2.0000      -0.352803        -9.6003
 275   2.0000      -0.329547        -8.9674
 276   2.0000      -0.324576        -8.8321
 277   2.0000      -0.315239        -8.5781
 278   2.0000      -0.313072        -8.5191
 279   2.0000      -0.312706        -8.5092
 280   2.0000      -0.310181        -8.4404
 281   2.0000      -0.307952        -8.3798
 282   2.0000      -0.305478        -8.3125
 283   2.0000      -0.304055        -8.2738
 284   2.0000      -0.293240        -7.9795
 285   2.0000      -0.287154        -7.8139
 286   2.0000      -0.285848        -7.7783
 287   2.0000      -0.266049        -7.2396
 288   2.0000      -0.254502        -6.9253
 289   2.0000      -0.234251        -6.3743
 290   2.0000      -0.229009        -6.2316
 291   0.0000      -0.087069        -2.3693
 292   0.0000      -0.048487        -1.3194
 293   0.0000      -0.041566        -1.1311
 294   0.0000      -0.015980        -0.4348
 295   0.0000       0.015508         0.4220

MULLIKEN ATOMIC CHARGES
-----------------------
   0 C :   -0.047853
   1 C :    0.004211
   2 C :    0.048963
   3 C :    0.130806
   4 C :   -0.212951
   5 C :    0.040913
   6 C :    0.084019
   7 C :   -0.268323
   8 S :    0.131245
   9 C :    0.125287
  10 Cl:   -0.091156
  11 C :   -0.126732
  12 C :    0.102135
  13 C :    0.132830
  14 C :   -0.160392
  15 S :    0.103907
  16 C :   -0.206769
  17 C :    0.043995
  18 C :    0.072576
  19 C :   -0.262770
  20 S :    0.143623
  21 C :    0.123529
  22 Cl:   -0.089827
  23 C :   -0.099487
  24 C :   -0.089731
  25 S :    0.131223
  26 C :    0.089490
  27 C :    0.119826
  28 F :   -0.174848
  29 C :    0.137563
  30 F :   -0.170765
  31 C :   -0.077510
  32 C :   -0.011434
  33 C :   -0.037070
  34 N :   -0.067321
  35 N :   -0.068545
  36 N :   -0.046473
  37 C :    0.150140
  38 C :    0.019990
  39 C :   -0.168110
  40 C :    0.145247
  41 N :   -0.030821
  42 C :   -0.180686
  43 C :    0.131931
  44 C :    0.068484
  45 C :   -0.005257
  46 C :   -0.073146
  47 C :    0.033154
  48 C :    0.138141
  49 F :   -0.181300
  50 C :    0.124328
  51 F :   -0.186137
  52 C :    0.084587
  53 C :   -0.026214
  54 C :   -0.035933
  55 N :   -0.072060
  56 N :   -0.062558
  57 N :   -0.065291
  58 C :    0.141082
  59 C :   -0.134983
  60 C :   -0.072411
  61 C :    0.026626
  62 C :   -0.094977
  63 S :    0.200464
  64 C :   -0.120286
  65 C :   -0.036108
  66 C :    0.309621
  67 C :   -0.312533
  68 C :   -0.184638
  69 N :    0.165055
  70 C :   -0.193377
  71 N :    0.166786
  72 C :    0.035882
  73 C :   -0.085944
  74 S :    0.175306
  75 H :    0.024060
  76 H :   -0.011688
  77 H :   -0.006332
  78 H :    0.023483
  79 H :    0.029362
  80 H :    0.035567
  81 H :   -0.007676
  82 H :    0.019751
  83 H :    0.035450
  84 H :    0.034154
  85 H :   -0.000701
  86 H :    0.051732
  87 H :    0.047137
  88 H :    0.038239
  89 H :    0.026051
  90 H :    0.038278
  91 H :   -0.011004
  92 H :    0.112868
  93 H :    0.040472
  94 H :    0.046560
  95 H :   -0.008540
  96 H :    0.001411
  97 H :   -0.033168
  98 H :    0.068777
  99 H :    0.050158
 100 H :    0.049902
 101 H :    0.014555
 102 H :    0.009469
 103 H :    0.031435
Sum of atomic charges:   -0.0000000

LOEWDIN ATOMIC CHARGES
----------------------
   0 C :   -0.163088
   1 C :   -0.070522
   2 C :   -0.044157
   3 C :   -0.054868
   4 C :   -0.170450
   5 C :   -0.074021
   6 C :   -0.177125
   7 C :   -0.201045
   8 S :    0.442365
   9 C :   -0.061702
  10 Cl:    0.127361
  11 C :   -0.146424
  12 C :   -0.037680
  13 C :   -0.055338
  14 C :   -0.155256
  15 S :    0.392876
  16 C :   -0.168733
  17 C :   -0.065185
  18 C :   -0.180142
  19 C :   -0.199901
  20 S :    0.436389
  21 C :   -0.061675
  22 Cl:    0.127476
  23 C :   -0.049504
  24 C :   -0.155126
  25 S :    0.424940
  26 C :   -0.068374
  27 C :    0.063010
  28 F :   -0.051373
  29 C :    0.059491
  30 F :   -0.049682
  31 C :   -0.044711
  32 C :   -0.047318
  33 C :   -0.042902
  34 N :   -0.087655
  35 N :    0.154760
  36 N :   -0.084997
  37 C :    0.031449
  38 C :   -0.075577
  39 C :   -0.006116
  40 C :   -0.057126
  41 N :    0.095852
  42 C :   -0.005927
  43 C :   -0.054829
  44 C :   -0.076977
  45 C :    0.014933
  46 C :   -0.053857
  47 C :   -0.041806
  48 C :    0.057203
  49 F :   -0.053488
  50 C :    0.059882
  51 F :   -0.060369
  52 C :   -0.077212
  53 C :   -0.046383
  54 C :   -0.048000
  55 N :   -0.093640
  56 N :    0.155518
  57 N :   -0.084809
  58 C :    0.033251
  59 C :   -0.165556
  60 C :   -0.025149
  61 C :   -0.075174
  62 C :   -0.190377
  63 S :    0.487770
  64 C :   -0.178993
  65 C :   -0.081620
  66 C :    0.087917
  67 C :   -0.111999
  68 C :   -0.012411
  69 N :   -0.044628
  70 C :   -0.016939
  71 N :   -0.041947
  72 C :   -0.035490
  73 C :   -0.183322
  74 S :    0.472991
  75 H :    0.024394
  76 H :    0.019125
  77 H :    0.027617
  78 H :    0.033394
  79 H :    0.036918
  80 H :    0.038966
  81 H :    0.035524
  82 H :    0.032166
  83 H :    0.039291
  84 H :    0.038698
  85 H :    0.027276
  86 H :    0.040487
  87 H :    0.038605
  88 H :    0.031620
  89 H :    0.039874
  90 H :    0.034822
  91 H :    0.025183
  92 H :    0.085621
  93 H :    0.042904
  94 H :    0.040001
  95 H :    0.027544
  96 H :    0.025709
  97 H :    0.027645
  98 H :    0.048225
  99 H :    0.039922
 100 H :    0.039559
 101 H :    0.035392
 102 H :    0.041343
 103 H :    0.025419

  Mayer bond orders larger than 0.100000
B(  0-C ,  1-C ) :   1.6507 B(  0-C , 15-S ) :   1.1041 B(  0-C , 75-H ) :   0.9664
B(  1-C ,  2-C ) :   1.1799 B(  1-C , 76-H ) :   0.9776 B(  2-C ,  3-C ) :   1.3190
B(  2-C , 14-C ) :   1.2809 B(  3-C ,  4-C ) :   0.9819 B(  3-C , 11-C ) :   1.4116
B(  4-C ,  5-C ) :   1.5595 B(  4-C ,  8-S ) :   1.1296 B(  5-C ,  6-C ) :   1.2190
B(  5-C , 77-H ) :   0.9955 B(  6-C ,  7-C ) :   1.6077 B(  6-C , 10-Cl) :   1.0034
B(  7-C ,  8-S ) :   1.1258 B(  7-C ,  9-C ) :   1.0834 B(  9-C , 78-H ) :   0.9434
B(  9-C , 79-H ) :   0.9480 B(  9-C , 80-H ) :   0.9488 B( 11-C , 12-C ) :   1.2791
B( 11-C , 25-S ) :   1.0413 B( 12-C , 13-C ) :   1.3251 B( 12-C , 23-C ) :   1.1363
B( 13-C , 14-C ) :   1.3994 B( 13-C , 16-C ) :   0.9896 B( 14-C , 15-S ) :   1.0691
B( 16-C , 17-C ) :   1.5537 B( 16-C , 20-S ) :   1.1333 B( 17-C , 18-C ) :   1.2153
B( 17-C , 81-H ) :   1.0074 B( 18-C , 19-C ) :   1.6014 B( 18-C , 22-Cl) :   0.9895
B( 19-C , 20-S ) :   1.1302 B( 19-C , 21-C ) :   1.0845 B( 21-C , 82-H ) :   0.9449
B( 21-C , 83-H ) :   0.9477 B( 21-C , 84-H ) :   0.9487 B( 23-C , 24-C ) :   1.5959
B( 23-C , 85-H ) :   0.9795 B( 24-C , 25-S ) :   1.0560 B( 24-C , 26-C ) :   1.1067
B( 26-C , 27-C ) :   1.3770 B( 26-C , 31-C ) :   0.1371 B( 26-C , 33-C ) :   1.1784
B( 27-C , 28-F ) :   1.1465 B( 27-C , 29-C ) :   1.1442 B( 29-C , 30-F ) :   1.1590
B( 29-C , 31-C ) :   1.4462 B( 31-C , 32-C ) :   1.2236 B( 31-C , 38-C ) :   0.9349
B( 32-C , 33-C ) :   1.2123 B( 32-C , 36-N ) :   1.4814 B( 33-C , 34-N ) :   1.4701
B( 34-N , 35-N ) :   1.2302 B( 34-N , 36-N ) :   0.1639 B( 35-N , 36-N ) :   1.2177
B( 35-N , 37-C ) :   0.9520 B( 37-C , 86-H ) :   0.9688 B( 37-C , 87-H ) :   0.9696
B( 37-C , 88-H ) :   0.9567 B( 38-C , 39-C ) :   1.5264 B( 38-C , 44-C ) :   1.2635
B( 39-C , 40-C ) :   1.1205 B( 39-C , 41-N ) :   1.2160 B( 40-C , 89-H ) :   0.9399
B( 40-C , 90-H ) :   0.9308 B( 40-C , 91-H ) :   0.9308 B( 41-N , 42-C ) :   1.2379
B( 41-N , 92-H ) :   0.9326 B( 42-C , 43-C ) :   1.1146 B( 42-C , 44-C ) :   1.4279
B( 43-C , 93-H ) :   0.9377 B( 43-C , 94-H ) :   0.9364 B( 43-C , 95-H ) :   0.9323
B( 44-C , 45-C ) :   1.1037 B( 45-C , 46-C ) :   1.6425 B( 45-C , 96-H ) :   0.9532
B( 46-C , 47-C ) :   1.1462 B( 46-C , 97-H ) :   0.9752 B( 47-C , 48-C ) :   1.3489
B( 47-C , 52-C ) :   0.1295 B( 47-C , 54-C ) :   1.1474 B( 48-C , 49-F ) :   1.1095
B( 48-C , 50-C ) :   1.2004 B( 50-C , 51-F ) :   1.1236 B( 50-C , 52-C ) :   1.3712
B( 52-C , 53-C ) :   1.1795 B( 52-C , 59-C ) :   1.1308 B( 53-C , 54-C ) :   1.2217
B( 53-C , 57-N ) :   1.4734 B( 54-C , 55-N ) :   1.4790 B( 55-N , 56-N ) :   1.2175
B( 55-N , 57-N ) :   0.1628 B( 56-N , 57-N ) :   1.2291 B( 56-N , 58-C ) :   0.9523
B( 58-C , 98-H ) :   0.9645 B( 58-C , 99-H ) :   0.9699 B( 58-C ,100-H ) :   0.9697
B( 59-C , 60-C ) :   1.4890 B( 59-C , 63-S ) :   1.0978 B( 60-C , 61-C ) :   1.2397
B( 60-C ,101-H ) :   0.9796 B( 61-C , 62-C ) :   1.4522 B( 61-C , 66-C ) :   0.9999
B( 62-C , 63-S ) :   1.1085 B( 62-C , 64-C ) :   1.1775 B( 64-C , 65-C ) :   1.4616
B( 64-C , 74-S ) :   1.1395 B( 65-C , 66-C ) :   1.0135 B( 65-C , 72-C ) :   1.2722
B( 66-C , 67-C ) :   1.6997 B( 67-C , 68-C ) :   1.1387 B( 67-C , 70-C ) :   1.1301
B( 68-C , 69-N ) :   2.9920 B( 70-C , 71-N ) :   3.0035 B( 72-C , 73-C ) :   1.5516
B( 72-C ,102-H ) :   0.9964 B( 73-C , 74-S ) :   1.1449 B( 73-C ,103-H ) :   0.9648

-----------------------------------------------------------------------------
         ABSORPTION SPECTRUM VIA TRANSITION ELECTRIC DIPOLE MOMENTS
-----------------------------------------------------------------------------
State   Energy  Wavelength   fosc         T2         TX        TY        TZ
        (cm-1)    (nm)                  (au**2)     (au)      (au)      (au)
-----------------------------------------------------------------------------
   0   13561.8    737.4   0.091167453   2.21309   0.00071   1.47086   0.22281
   1   23177.5    431.5   0.638830259   9.07389  -0.75611  -2.90988  -0.18658
   2   24425.0    409.4   0.310084463   4.17946  -1.47568  -1.30796   0.53950
   3   24733.5    404.3   0.456896427   6.08146   0.96592   2.26709  -0.09354
   4   25138.5    397.8   0.419452902   5.49312   1.64094  -0.95142  -1.37668
   5   25947.8    385.4   0.120852500   1.53331   0.20350  -0.98671  -0.71993
   6   28042.4    356.6   0.278921668   3.27449   1.56452  -0.86224   0.28862
   7   28626.1    349.3   0.518354191   5.96129   1.85428  -1.57589   0.19881
   8   29917.7    334.3   0.322522906   3.54902  -0.48223   1.25423  -1.32037
   9   30798.4    324.7   0.082088701   0.87747  -0.31179   0.85249  -0.23132
  10   31554.2    316.9   0.261746838   2.73086   1.34949   0.91352  -0.27423
  11   32066.0    311.9   0.142486382   1.46287   1.18624   0.06416  -0.22714
  12   32352.2    309.1   0.356486705   3.62756   1.79339  -0.26551  -0.58380
  13   32879.9    304.1   0.093196356   0.93314   0.58399  -0.64622   0.41772
  14   33384.7    299.5   0.099219573   0.97842   0.52743  -0.72574  -0.41658
  15   33629.5    297.4   0.079285568   0.77616  -0.43215  -0.76770   0.00570
  16   34522.6    289.7   0.080125495   0.76409   0.84448   0.01639  -0.22510
  17   35534.7    281.4   0.113907113   1.05530   1.00257  -0.21336  -0.06796
  18   35908.4    278.5   0.015244466   0.13976   0.35940   0.03944  -0.09506
  19   36046.4    277.4   0.021569646   0.19700  -0.43262   0.09055   0.04044
  20   36431.2    274.5   0.057184001   0.51675   0.24158   0.26376  -0.62355
  21   36523.0    273.8   0.035147536   0.31681   0.00152  -0.37699   0.41795
  22   36693.2    272.5   0.079449437   0.71282   0.79505   0.04537  -0.28047
  23   36814.4    271.6   0.238712737   2.13468   1.25180  -0.65805   0.36696
  24   37717.4    265.1   0.007889611   0.06886  -0.23505   0.11285   0.02965
  25   37968.2    263.4   0.166190718   1.44099  -0.93713   0.70624   0.25301
  26   38152.7    262.1   0.089195277   0.76965   0.22129   0.83515   0.15234
  27   38316.6    261.0   0.000922093   0.00792   0.01026   0.02727  -0.08411
  28   38889.7    257.1   0.374481253   3.17009  -0.82060  -1.46651   0.58826
  29   39039.4    256.2   0.062162107   0.52420  -0.07444   0.40116   0.59811
  30   39475.2    253.3   0.071416330   0.59559   0.58341  -0.47848  -0.16212
  31   39690.3    252.0   0.016211264   0.13446   0.13319   0.28901   0.18220
  32   40006.3    250.0   0.141845613   1.16725   0.93264  -0.52700   0.14039
  33   40179.3    248.9   0.056707361   0.46464  -0.55413   0.27159   0.28950

FINAL SINGLE POINT ENERGY     -6272.171145541024

DIPOLE MOMENT
-------------
                                X             Y             Z
Electronic contribution:    -20.11492      39.46634      -3.07259
Nuclear contribution   :     19.67060     -42.67491       3.98300
                        -----------------------------------------
Total Dipole Moment    :     -0.44431      -3.20857       0.91042
                        -----------------------------------------
Magnitude (a.u.)       :      3.36470
Magnitude (Debye)      :      8.55238

Rotational constants in cm-1:     0.000855     0.000334     0.000276
Rotational constants in MHz :    25.622235    10.005802     8.283349

                             ****ORCA TERMINATED NORMALLY****
TOTAL RUN TIME: 0 days 0 hours 10 minutes 1 seconds 590 msec
