                         Program Version 4.2.0 -  RELEASE  -
|  1> # ORCA input file
|  2> # SCF done       -205.757478184245          0.000847903437
|  3> ! CAM-B3LYP def2-SVP def2/J RIJCOSX Grid4 TightSCF
|  4> %maxcore 5000
|  5> %tddft
|  6>     Mode sTDDFT
|  7>     Ethresh 5.0
|  8>     maxcore 5000
|  9> end
| 10>
| 11> %pal
| 12>   nprocs 6
| 13>   end
| 14> * xyz 0 1
| 15>    C        3.41777         1.23852       -10.43138
| 16>    C        2.60398         1.30306        -9.35879
| 17>    C        3.29628         1.62076        -8.15328
| 18>    C        2.77143         1.75029        -6.85513
| 19>    C        1.37346         1.52078        -6.54362
| 20>    C        0.58153         2.23437        -5.69155
| 21>    C       -0.71943         1.69784        -5.57611
| 22>    C       -0.93656         0.57478        -6.31864
| 23>    S        0.49679         0.16433        -7.19959
| 24>    C       -2.16878        -0.24605        -6.42925
| 25>   Cl       -1.92147         2.41707        -4.57405
| 26>    C        3.67138         2.10263        -5.85468
| 27>    C        5.05518         2.30103        -6.08222
| 28>    C        5.58642         2.13795        -7.37567
| 29>    C        4.67788         1.81987        -8.38332
| 30>    S        5.07391         1.56667       -10.06170
| 31>    C        7.00304         2.25330        -7.65584
| 32>    C        7.60387         2.79221        -8.75695
| 33>    C        9.01002         2.66984        -8.72745
| 34>    C        9.50093         2.03258        -7.62590
| 35>    S        8.19903         1.57710        -6.58004
| 36>    C       10.91046         1.72675        -7.27407
| 37>   Cl       10.00963         3.27960        -9.99045
| 38>    C        5.73547         2.66911        -4.89481
| 39>    C        4.93308         2.71278        -3.79302
| 40>    S        3.26998         2.31138        -4.17190
| 41>    C        5.29448         3.05706        -2.46096
| 42>    C        4.51489         2.99991        -1.32774
| 43>    C        5.17540         3.42580        -0.17555
| 44>    C        6.47493         3.82617        -0.40923
| 45>    S        6.88560         3.65352        -2.09185
| 46>    C        7.40681         4.34467         0.53054
| 47>    C        7.24853         4.44145         1.90022
| 48>    C        8.35243         5.03723         2.51317
| 49>    C        9.35637         5.39979         1.60204
| 50>    S        8.94781         4.99583        -0.00574
| 51>    C       10.41501         6.01828         2.31773
| 52>    C       10.08231         6.03751         3.68113
| 53>    C        8.77729         5.41861         3.85095
| 54>    C        8.09193         5.23954         5.01702
| 55>    C        6.81959         4.63210         5.05206
| 56>    N        5.78489         4.13870         5.08711
| 57>    C        8.61011         5.65006         6.26263
| 58>    N        9.02356         5.98759         7.27779
| 59>    C       11.05572         6.65181         4.47161
| 60>    C       12.12193         7.10680         3.71887
| 61>    S       11.92208         6.75806         2.00854
| 62>    C       13.26981         7.80614         4.18093
| 63>    C       13.62266         8.08994         5.48496
| 64>    C       14.80243         8.82514         5.58977
| 65>    C       15.37495         9.12177         4.37072
| 66>    S       14.43322         8.46367         3.06862
| 67>    C       16.55934         9.87093         4.11514
| 68>    C       17.37911        10.47066         5.02751
| 69>    C       18.47199        11.15998         4.44652
| 70>    C       19.50091        11.86633         5.09849
| 71>    C       19.60889        11.93440         6.54181
| 72>    C       19.98779        13.00074         7.30543
| 73>    C       20.03737        12.69779         8.68354
| 74>    C       19.71477        11.40915         8.99266
| 75>    S       19.32665        10.53725         7.54809
| 76>    C       19.66781        10.75104        10.32268
| 77>   Cl       20.47174        13.87285         9.86517
| 78>    C       20.43959        12.49062         4.27965
| 79>    C       20.41716        12.41351         2.86714
| 80>    C       19.40163        11.69032         2.21641
| 81>    C       18.44436        11.09465         3.03170
| 82>    S       17.09763        10.14364         2.47139
| 83>    C       19.34096        11.54052         0.77497
| 84>    C       18.23329        11.56787        -0.02187
| 85>    C       18.53147        11.32636        -1.38083
| 86>    C       19.85121        11.10023        -1.63950
| 87>    S       20.76420        11.19634        -0.17135
| 88>    C       20.51168        10.81003        -2.93717
| 89>   Cl       17.31406        11.32059        -2.59898
| 90>    C       21.49797        13.13970         2.28552
| 91>    C       22.30533        13.70734         3.20345
| 92>    S       21.80922        13.41588         4.83318
| 93>    H        3.15271         1.02333       -11.44791
| 94>    H        1.54384         1.13968        -9.41092
| 95>    H        0.89173         3.12975        -5.18616
| 96>    H       -1.99041        -1.25753        -6.06489
| 97>    H       -2.49300        -0.31594        -7.46690
| 98>    H       -2.96233         0.20588        -5.83937
| 99>    H        7.07775         3.29100        -9.54911
|100>    H       11.05647         0.65148        -7.17494
|101>    H       11.17895         2.19012        -6.32523
|102>    H       11.57093         2.10272        -8.05134
|103>    H        6.78278         2.90536        -4.84836
|104>    H        3.49555         2.65718        -1.34695
|105>    H        4.71870         3.45333         0.79651
|106>    H        6.37428         4.09278         2.41726
|107>    H       10.99188         6.77584         5.53645
|108>    H       13.04320         7.77138         6.33191
|109>    H       15.22828         9.13450         6.52643
|110>    H       17.19782        10.43073         6.08444
|111>    H       20.19221        13.98008         6.91529
|112>    H       19.89392        11.47846        11.09820
|113>    H       20.39431         9.94048        10.37605
|114>    H       18.68089        10.32873        10.50834
|115>    H       17.24167        11.78503         0.32877
|116>    H       21.00062         9.83659        -2.91000
|117>    H       21.27034        11.55987        -3.15909
|118>    H       19.77018        10.81063        -3.73216
|119>    H       21.65120        13.23329         1.22678
|120>    H       23.17981        14.30412         3.03315
|121> *
|122>
|123>                          ****END OF INPUT****

CARTESIAN COORDINATES (ANGSTROEM)
---------------------------------
  C      3.417770    1.238520  -10.431380
  C      2.603980    1.303060   -9.358790
  C      3.296280    1.620760   -8.153280
  C      2.771430    1.750290   -6.855130
  C      1.373460    1.520780   -6.543620
  C      0.581530    2.234370   -5.691550
  C     -0.719430    1.697840   -5.576110
  C     -0.936560    0.574780   -6.318640
  S      0.496790    0.164330   -7.199590
  C     -2.168780   -0.246050   -6.429250
  Cl    -1.921470    2.417070   -4.574050
  C      3.671380    2.102630   -5.854680
  C      5.055180    2.301030   -6.082220
  C      5.586420    2.137950   -7.375670
  C      4.677880    1.819870   -8.383320
  S      5.073910    1.566670  -10.061700
  C      7.003040    2.253300   -7.655840
  C      7.603870    2.792210   -8.756950
  C      9.010020    2.669840   -8.727450
  C      9.500930    2.032580   -7.625900
  S      8.199030    1.577100   -6.580040
  C     10.910460    1.726750   -7.274070
  Cl    10.009630    3.279600   -9.990450
  C      5.735470    2.669110   -4.894810
  C      4.933080    2.712780   -3.793020
  S      3.269980    2.311380   -4.171900
  C      5.294480    3.057060   -2.460960
  C      4.514890    2.999910   -1.327740
  C      5.175400    3.425800   -0.175550
  C      6.474930    3.826170   -0.409230
  S      6.885600    3.653520   -2.091850
  C      7.406810    4.344670    0.530540
  C      7.248530    4.441450    1.900220
  C      8.352430    5.037230    2.513170
  C      9.356370    5.399790    1.602040
  S      8.947810    4.995830   -0.005740
  C     10.415010    6.018280    2.317730
  C     10.082310    6.037510    3.681130
  C      8.777290    5.418610    3.850950
  C      8.091930    5.239540    5.017020
  C      6.819590    4.632100    5.052060
  N      5.784890    4.138700    5.087110
  C      8.610110    5.650060    6.262630
  N      9.023560    5.987590    7.277790
  C     11.055720    6.651810    4.471610
  C     12.121930    7.106800    3.718870
  S     11.922080    6.758060    2.008540
  C     13.269810    7.806140    4.180930
  C     13.622660    8.089940    5.484960
  C     14.802430    8.825140    5.589770
  C     15.374950    9.121770    4.370720
  S     14.433220    8.463670    3.068620
  C     16.559340    9.870930    4.115140
  C     17.379110   10.470660    5.027510
  C     18.471990   11.159980    4.446520
  C     19.500910   11.866330    5.098490
  C     19.608890   11.934400    6.541810
  C     19.987790   13.000740    7.305430
  C     20.037370   12.697790    8.683540
  C     19.714770   11.409150    8.992660
  S     19.326650   10.537250    7.548090
  C     19.667810   10.751040   10.322680
  Cl    20.471740   13.872850    9.865170
  C     20.439590   12.490620    4.279650
  C     20.417160   12.413510    2.867140
  C     19.401630   11.690320    2.216410
  C     18.444360   11.094650    3.031700
  S     17.097630   10.143640    2.471390
  C     19.340960   11.540520    0.774970
  C     18.233290   11.567870   -0.021870
  C     18.531470   11.326360   -1.380830
  C     19.851210   11.100230   -1.639500
  S     20.764200   11.196340   -0.171350
  C     20.511680   10.810030   -2.937170
  Cl    17.314060   11.320590   -2.598980
  C     21.497970   13.139700    2.285520
  C     22.305330   13.707340    3.203450
  S     21.809220   13.415880    4.833180
  H      3.152710    1.023330  -11.447910
  H      1.543840    1.139680   -9.410920
  H      0.891730    3.129750   -5.186160
  H     -1.990410   -1.257530   -6.064890
  H     -2.493000   -0.315940   -7.466900
  H     -2.962330    0.205880   -5.839370
  H      7.077750    3.291000   -9.549110
  H     11.056470    0.651480   -7.174940
  H     11.178950    2.190120   -6.325230
  H     11.570930    2.102720   -8.051340
  H      6.782780    2.905360   -4.848360
  H      3.495550    2.657180   -1.346950
  H      4.718700    3.453330    0.796510
  H      6.374280    4.092780    2.417260
  H     10.991880    6.775840    5.536450
  H     13.043200    7.771380    6.331910
  H     15.228280    9.134500    6.526430
  H     17.197820   10.430730    6.084440
  H     20.192210   13.980080    6.915290
  H     19.893920   11.478460   11.098200
  H     20.394310    9.940480   10.376050
  H     18.680890   10.328730   10.508340
  H     17.241670   11.785030    0.328770
  H     21.000620    9.836590   -2.910000
  H     21.270340   11.559870   -3.159090
  H     19.770180   10.810630   -3.732160
  H     21.651200   13.233290    1.226780
  H     23.179810   14.304120    3.033150

 Total Charge           Charge          ....    0
 Multiplicity           Mult            ....    1
 Number of Electrons    NEL             ....  662
 Basis Dimension        Dim             .... 1296

ORBITAL ENERGIES
----------------

  NO   OCC          E(Eh)            E(eV)
   0   2.0000    -101.581933     -2764.1849
   1   2.0000    -101.581812     -2764.1816
   2   2.0000    -101.581429     -2764.1712
   3   2.0000    -101.581253     -2764.1664
   4   2.0000     -88.986020     -2421.4327
   5   2.0000     -88.985626     -2421.4220
   6   2.0000     -88.965114     -2420.8638
   7   2.0000     -88.964219     -2420.8395
   8   2.0000     -88.956528     -2420.6302
   9   2.0000     -88.956232     -2420.6221
  10   2.0000     -88.955612     -2420.6053
  11   2.0000     -88.955396     -2420.5994
  12   2.0000     -88.952059     -2420.5086
  13   2.0000     -88.950955     -2420.4785
  14   2.0000     -88.947961     -2420.3971
  15   2.0000     -88.947613     -2420.3876
  16   2.0000     -14.427614      -392.5953
  17   2.0000     -14.427522      -392.5928
  18   2.0000     -10.360749      -281.9303
  19   2.0000     -10.348432      -281.5952
  20   2.0000     -10.328191      -281.0444
  21   2.0000     -10.328128      -281.0427
  22   2.0000     -10.326756      -281.0053
  23   2.0000     -10.326461      -280.9973
  24   2.0000     -10.323243      -280.9097
  25   2.0000     -10.322949      -280.9017
  26   2.0000     -10.316705      -280.7318
  27   2.0000     -10.316550      -280.7276
  28   2.0000     -10.316040      -280.7137
  29   2.0000     -10.315980      -280.7121
  30   2.0000     -10.314990      -280.6851
  31   2.0000     -10.314889      -280.6824
  32   2.0000     -10.312122      -280.6071
  33   2.0000     -10.311441      -280.5886
  34   2.0000     -10.311066      -280.5784
  35   2.0000     -10.310447      -280.5615
  36   2.0000     -10.305159      -280.4176
  37   2.0000     -10.305116      -280.4165
  38   2.0000     -10.304430      -280.3978
  39   2.0000     -10.304363      -280.3960
  40   2.0000     -10.304353      -280.3957
  41   2.0000     -10.303640      -280.3763
  42   2.0000     -10.302229      -280.3379
  43   2.0000     -10.302140      -280.3355
  44   2.0000     -10.301891      -280.3287
  45   2.0000     -10.301613      -280.3211
  46   2.0000     -10.301404      -280.3155
  47   2.0000     -10.301328      -280.3134
  48   2.0000     -10.297900      -280.2201
  49   2.0000     -10.297784      -280.2170
  50   2.0000     -10.296434      -280.1802
  51   2.0000     -10.296247      -280.1751
  52   2.0000     -10.295792      -280.1627
  53   2.0000     -10.295588      -280.1572
  54   2.0000     -10.295580      -280.1570
  55   2.0000     -10.295519      -280.1553
  56   2.0000     -10.294769      -280.1349
  57   2.0000     -10.294340      -280.1232
  58   2.0000     -10.287330      -279.9325
  59   2.0000     -10.286782      -279.9176
  60   2.0000     -10.285010      -279.8693
  61   2.0000     -10.284372      -279.8520
  62   2.0000     -10.281799      -279.7820
  63   2.0000     -10.281241      -279.7668
  64   2.0000     -10.281128      -279.7637
  65   2.0000     -10.280768      -279.7539
  66   2.0000     -10.277015      -279.6518
  67   2.0000     -10.276792      -279.6457
  68   2.0000     -10.276294      -279.6322
  69   2.0000     -10.276116      -279.6273
  70   2.0000     -10.275792      -279.6185
  71   2.0000     -10.275702      -279.6161
  72   2.0000     -10.275113      -279.6000
  73   2.0000     -10.275087      -279.5993
  74   2.0000     -10.274652      -279.5875
  75   2.0000     -10.274649      -279.5874
  76   2.0000     -10.271378      -279.4984
  77   2.0000     -10.270842      -279.4838
  78   2.0000      -9.536729      -259.5076
  79   2.0000      -9.536533      -259.5022
  80   2.0000      -9.536186      -259.4928
  81   2.0000      -9.536009      -259.4880
  82   2.0000      -8.080633      -219.8852
  83   2.0000      -8.080351      -219.8775
  84   2.0000      -8.061035      -219.3519
  85   2.0000      -8.059843      -219.3195
  86   2.0000      -8.052113      -219.1091
  87   2.0000      -8.051941      -219.1045
  88   2.0000      -8.051347      -219.0883
  89   2.0000      -8.051076      -219.0809
  90   2.0000      -8.047500      -218.9836
  91   2.0000      -8.046157      -218.9471
  92   2.0000      -8.043671      -218.8794
  93   2.0000      -8.043283      -218.8689
  94   2.0000      -7.306905      -198.8310
  95   2.0000      -7.306777      -198.8275
  96   2.0000      -7.306411      -198.8176
  97   2.0000      -7.306251      -198.8132
  98   2.0000      -7.296832      -198.5569
  99   2.0000      -7.296760      -198.5549
 100   2.0000      -7.296608      -198.5508
 101   2.0000      -7.296541      -198.5490
 102   2.0000      -7.296273      -198.5417
 103   2.0000      -7.296188      -198.5394
 104   2.0000      -7.296082      -198.5365
 105   2.0000      -7.296013      -198.5346
 106   2.0000      -6.049936      -164.6271
 107   2.0000      -6.049629      -164.6188
 108   2.0000      -6.045680      -164.5113
 109   2.0000      -6.045435      -164.5047
 110   2.0000      -6.042998      -164.4383
 111   2.0000      -6.042678      -164.4296
 112   2.0000      -6.030391      -164.0953
 113   2.0000      -6.029246      -164.0641
 114   2.0000      -6.026192      -163.9810
 115   2.0000      -6.025098      -163.9512
 116   2.0000      -6.023015      -163.8946
 117   2.0000      -6.021752      -163.8602
 118   2.0000      -6.021457      -163.8522
 119   2.0000      -6.021251      -163.8466
 120   2.0000      -6.020675      -163.8309
 121   2.0000      -6.020398      -163.8234
 122   2.0000      -6.017241      -163.7375
 123   2.0000      -6.017220      -163.7369
 124   2.0000      -6.017083      -163.7332
 125   2.0000      -6.016483      -163.7168
 126   2.0000      -6.016207      -163.7093
 127   2.0000      -6.015908      -163.7012
 128   2.0000      -6.014176      -163.6540
 129   2.0000      -6.013990      -163.6490
 130   2.0000      -6.013374      -163.6322
 131   2.0000      -6.013370      -163.6321
 132   2.0000      -6.013125      -163.6255
 133   2.0000      -6.013013      -163.6224
 134   2.0000      -6.012979      -163.6215
 135   2.0000      -6.011709      -163.5869
 136   2.0000      -6.008911      -163.5108
 137   2.0000      -6.008746      -163.5063
 138   2.0000      -6.008526      -163.5003
 139   2.0000      -6.007359      -163.4686
 140   2.0000      -6.005204      -163.4099
 141   2.0000      -6.004832      -163.3998
 142   2.0000      -1.040347       -28.3093
 143   2.0000      -1.019273       -27.7358
 144   2.0000      -1.011769       -27.5316
 145   2.0000      -1.010921       -27.5086
 146   2.0000      -1.005680       -27.3659
 147   2.0000      -1.004109       -27.3232
 148   2.0000      -1.000180       -27.2163
 149   2.0000      -0.999522       -27.1984
 150   2.0000      -0.997788       -27.1512
 151   2.0000      -0.992924       -27.0188
 152   2.0000      -0.990064       -26.9410
 153   2.0000      -0.983149       -26.7529
 154   2.0000      -0.972400       -26.4603
 155   2.0000      -0.968725       -26.3603
 156   2.0000      -0.952467       -25.9179
 157   2.0000      -0.942665       -25.6512
 158   2.0000      -0.942072       -25.6351
 159   2.0000      -0.938256       -25.5313
 160   2.0000      -0.937663       -25.5151
 161   2.0000      -0.915076       -24.9005
 162   2.0000      -0.909592       -24.7513
 163   2.0000      -0.903388       -24.5824
 164   2.0000      -0.897373       -24.4188
 165   2.0000      -0.896749       -24.4018
 166   2.0000      -0.868989       -23.6464
 167   2.0000      -0.865959       -23.5639
 168   2.0000      -0.859995       -23.4016
 169   2.0000      -0.857979       -23.3468
 170   2.0000      -0.854388       -23.2491
 171   2.0000      -0.848023       -23.0759
 172   2.0000      -0.847331       -23.0570
 173   2.0000      -0.844736       -22.9864
 174   2.0000      -0.841523       -22.8990
 175   2.0000      -0.838111       -22.8062
 176   2.0000      -0.831819       -22.6350
 177   2.0000      -0.829247       -22.5649
 178   2.0000      -0.812544       -22.1104
 179   2.0000      -0.807390       -21.9702
 180   2.0000      -0.805552       -21.9202
 181   2.0000      -0.805311       -21.9136
 182   2.0000      -0.804721       -21.8976
 183   2.0000      -0.796804       -21.6821
 184   2.0000      -0.792497       -21.5649
 185   2.0000      -0.788568       -21.4580
 186   2.0000      -0.780457       -21.2373
 187   2.0000      -0.778912       -21.1953
 188   2.0000      -0.772592       -21.0233
 189   2.0000      -0.764603       -20.8059
 190   2.0000      -0.743995       -20.2451
 191   2.0000      -0.743240       -20.2246
 192   2.0000      -0.735711       -20.0197
 193   2.0000      -0.714490       -19.4423
 194   2.0000      -0.704570       -19.1723
 195   2.0000      -0.702395       -19.1131
 196   2.0000      -0.689295       -18.7567
 197   2.0000      -0.689198       -18.7540
 198   2.0000      -0.676371       -18.4050
 199   2.0000      -0.672492       -18.2994
 200   2.0000      -0.664432       -18.0801
 201   2.0000      -0.655821       -17.8458
 202   2.0000      -0.651121       -17.7179
 203   2.0000      -0.649491       -17.6735
 204   2.0000      -0.648920       -17.6580
 205   2.0000      -0.647087       -17.6081
 206   2.0000      -0.636383       -17.3169
 207   2.0000      -0.635146       -17.2832
 208   2.0000      -0.627285       -17.0693
 209   2.0000      -0.626930       -17.0596
 210   2.0000      -0.624913       -17.0048
 211   2.0000      -0.623796       -16.9743
 212   2.0000      -0.619681       -16.8624
 213   2.0000      -0.615383       -16.7454
 214   2.0000      -0.606048       -16.4914
 215   2.0000      -0.605180       -16.4678
 216   2.0000      -0.603645       -16.4260
 217   2.0000      -0.595625       -16.2078
 218   2.0000      -0.592618       -16.1260
 219   2.0000      -0.591798       -16.1036
 220   2.0000      -0.581866       -15.8334
 221   2.0000      -0.580914       -15.8075
 222   2.0000      -0.575539       -15.6612
 223   2.0000      -0.575136       -15.6502
 224   2.0000      -0.569941       -15.5089
 225   2.0000      -0.557678       -15.1752
 226   2.0000      -0.545601       -14.8466
 227   2.0000      -0.544677       -14.8214
 228   2.0000      -0.543246       -14.7825
 229   2.0000      -0.540300       -14.7023
 230   2.0000      -0.538681       -14.6582
 231   2.0000      -0.534130       -14.5344
 232   2.0000      -0.523011       -14.2318
 233   2.0000      -0.520654       -14.1677
 234   2.0000      -0.520012       -14.1502
 235   2.0000      -0.519676       -14.1411
 236   2.0000      -0.518372       -14.1056
 237   2.0000      -0.517447       -14.0804
 238   2.0000      -0.516926       -14.0663
 239   2.0000      -0.511639       -13.9224
 240   2.0000      -0.510968       -13.9041
 241   2.0000      -0.508918       -13.8484
 242   2.0000      -0.508255       -13.8303
 243   2.0000      -0.504540       -13.7292
 244   2.0000      -0.503754       -13.7079
 245   2.0000      -0.502702       -13.6792
 246   2.0000      -0.501128       -13.6364
 247   2.0000      -0.500234       -13.6121
 248   2.0000      -0.498478       -13.5643
 249   2.0000      -0.497758       -13.5447
 250   2.0000      -0.493999       -13.4424
 251   2.0000      -0.492378       -13.3983
 252   2.0000      -0.490960       -13.3597
 253   2.0000      -0.489273       -13.3138
 254   2.0000      -0.485997       -13.2247
 255   2.0000      -0.481008       -13.0889
 256   2.0000      -0.478823       -13.0294
 257   2.0000      -0.477510       -12.9937
 258   2.0000      -0.476535       -12.9672
 259   2.0000      -0.475421       -12.9369
 260   2.0000      -0.474567       -12.9136
 261   2.0000      -0.472878       -12.8677
 262   2.0000      -0.466514       -12.6945
 263   2.0000      -0.465852       -12.6765
 264   2.0000      -0.463398       -12.6097
 265   2.0000      -0.463134       -12.6025
 266   2.0000      -0.462503       -12.5853
 267   2.0000      -0.461486       -12.5577
 268   2.0000      -0.460370       -12.5273
 269   2.0000      -0.459264       -12.4972
 270   2.0000      -0.459206       -12.4956
 271   2.0000      -0.456988       -12.4353
 272   2.0000      -0.455128       -12.3847
 273   2.0000      -0.454300       -12.3621
 274   2.0000      -0.451089       -12.2748
 275   2.0000      -0.450267       -12.2524
 276   2.0000      -0.448721       -12.2103
 277   2.0000      -0.447710       -12.1828
 278   2.0000      -0.445135       -12.1127
 279   2.0000      -0.444156       -12.0861
 280   2.0000      -0.443962       -12.0808
 281   2.0000      -0.437927       -11.9166
 282   2.0000      -0.435649       -11.8546
 283   2.0000      -0.434929       -11.8350
 284   2.0000      -0.434385       -11.8202
 285   2.0000      -0.430064       -11.7026
 286   2.0000      -0.426164       -11.5965
 287   2.0000      -0.422071       -11.4851
 288   2.0000      -0.420476       -11.4417
 289   2.0000      -0.419880       -11.4255
 290   2.0000      -0.418904       -11.3990
 291   2.0000      -0.418729       -11.3942
 292   2.0000      -0.416375       -11.3301
 293   2.0000      -0.415743       -11.3129
 294   2.0000      -0.414248       -11.2723
 295   2.0000      -0.411388       -11.1944
 296   2.0000      -0.410567       -11.1721
 297   2.0000      -0.409630       -11.1466
 298   2.0000      -0.408465       -11.1149
 299   2.0000      -0.400831       -10.9072
 300   2.0000      -0.399739       -10.8774
 301   2.0000      -0.392044       -10.6681
 302   2.0000      -0.388803       -10.5799
 303   2.0000      -0.379273       -10.3206
 304   2.0000      -0.378702       -10.3050
 305   2.0000      -0.377413       -10.2699
 306   2.0000      -0.376621       -10.2484
 307   2.0000      -0.372853       -10.1458
 308   2.0000      -0.372185       -10.1277
 309   2.0000      -0.370585       -10.0841
 310   2.0000      -0.348585        -9.4855
 311   2.0000      -0.344570        -9.3762
 312   2.0000      -0.333787        -9.0828
 313   2.0000      -0.332132        -9.0378
 314   2.0000      -0.326620        -8.8878
 315   2.0000      -0.320897        -8.7321
 316   2.0000      -0.318174        -8.6580
 317   2.0000      -0.315719        -8.5912
 318   2.0000      -0.314863        -8.5679
 319   2.0000      -0.312757        -8.5106
 320   2.0000      -0.311986        -8.4896
 321   2.0000      -0.311038        -8.4638
 322   2.0000      -0.298663        -8.1270
 323   2.0000      -0.298112        -8.1120
 324   2.0000      -0.291584        -7.9344
 325   2.0000      -0.291019        -7.9190
 326   2.0000      -0.290748        -7.9117
 327   2.0000      -0.267398        -7.2763
 328   2.0000      -0.250847        -6.8259
 329   2.0000      -0.242273        -6.5926
 330   2.0000      -0.228903        -6.2288
 331   0.0000      -0.101083        -2.7506
 332   0.0000      -0.057765        -1.5719
 333   0.0000      -0.047654        -1.2967
 334   0.0000      -0.025698        -0.6993
 335   0.0000      -0.016955        -0.4614

MULLIKEN ATOMIC CHARGES
-----------------------
   0 C :   -0.044755
   1 C :    0.002997
   2 C :    0.054448
   3 C :    0.137872
   4 C :   -0.212404
   5 C :    0.034966
   6 C :    0.083277
   7 C :   -0.265044
   8 S :    0.137950
   9 C :    0.121852
  10 Cl:   -0.090688
  11 C :   -0.136967
  12 C :    0.084507
  13 C :    0.139585
  14 C :   -0.157656
  15 S :    0.105689
  16 C :   -0.212475
  17 C :    0.033190
  18 C :    0.083869
  19 C :   -0.266875
  20 S :    0.134719
  21 C :    0.124732
  22 Cl:   -0.091549
  23 C :   -0.093854
  24 C :    0.006925
  25 S :    0.110396
  26 C :   -0.049537
  27 C :   -0.000511
  28 C :   -0.002306
  29 C :   -0.055275
  30 S :    0.121700
  31 C :   -0.028567
  32 C :   -0.053750
  33 C :    0.008551
  34 C :   -0.102745
  35 S :    0.187716
  36 C :   -0.103217
  37 C :    0.005835
  38 C :    0.302920
  39 C :   -0.302324
  40 C :   -0.187718
  41 N :    0.170343
  42 C :   -0.186095
  43 N :    0.171330
  44 C :   -0.053511
  45 C :   -0.030148
  46 S :    0.187080
  47 C :   -0.057560
  48 C :    0.001857
  49 C :    0.006373
  50 C :   -0.050427
  51 S :    0.126067
  52 C :    0.011858
  53 C :   -0.088612
  54 C :    0.085701
  55 C :    0.136952
  56 C :   -0.211289
  57 C :    0.034833
  58 C :    0.087287
  59 C :   -0.269933
  60 S :    0.132268
  61 C :    0.126247
  62 Cl:   -0.090894
  63 C :   -0.158219
  64 C :    0.052751
  65 C :    0.138617
  66 C :   -0.135459
  67 S :    0.109948
  68 C :   -0.212336
  69 C :    0.032900
  70 C :    0.083366
  71 C :   -0.266856
  72 S :    0.137415
  73 C :    0.123406
  74 Cl:   -0.090010
  75 C :    0.002673
  76 C :   -0.044670
  77 S :    0.106747
  78 H :    0.026441
  79 H :   -0.011126
  80 H :   -0.008321
  81 H :    0.036162
  82 H :    0.032311
  83 H :    0.024120
  84 H :   -0.005897
  85 H :    0.036072
  86 H :    0.032238
  87 H :    0.023627
  88 H :   -0.010755
  89 H :   -0.003122
  90 H :   -0.008302
  91 H :    0.002885
  92 H :    0.003599
  93 H :   -0.009777
  94 H :   -0.014923
  95 H :   -0.017526
  96 H :   -0.006555
  97 H :    0.023814
  98 H :    0.037091
  99 H :    0.030295
 100 H :   -0.006039
 101 H :    0.034744
 102 H :    0.033141
 103 H :    0.024420
 104 H :   -0.010889
 105 H :    0.026795
Sum of atomic charges:   -0.0000000

LOEWDIN ATOMIC CHARGES
----------------------
   0 C :   -0.161421
   1 C :   -0.070427
   2 C :   -0.043937
   3 C :   -0.055446
   4 C :   -0.171922
   5 C :   -0.076313
   6 C :   -0.177855
   7 C :   -0.199130
   8 S :    0.445475
   9 C :   -0.061443
  10 Cl:    0.127072
  11 C :   -0.141809
  12 C :   -0.041149
  13 C :   -0.054301
  14 C :   -0.146780
  15 S :    0.415332
  16 C :   -0.170270
  17 C :   -0.076112
  18 C :   -0.177280
  19 C :   -0.199702
  20 S :    0.445876
  21 C :   -0.061378
  22 Cl:    0.126831
  23 C :   -0.072639
  24 C :   -0.164645
  25 S :    0.416821
  26 C :   -0.181832
  27 C :   -0.052439
  28 C :   -0.048921
  29 C :   -0.185824
  30 S :    0.429409
  31 C :   -0.178200
  32 C :   -0.028718
  33 C :   -0.071179
  34 C :   -0.183133
  35 S :    0.468774
  36 C :   -0.183331
  37 C :   -0.071039
  38 C :    0.085465
  39 C :   -0.104795
  40 C :   -0.015716
  41 N :   -0.035747
  42 C :   -0.015519
  43 N :   -0.036411
  44 C :   -0.029832
  45 C :   -0.177667
  46 S :    0.469202
  47 C :   -0.188782
  48 C :   -0.048660
  49 C :   -0.044584
  50 C :   -0.184175
  51 S :    0.426426
  52 C :   -0.167091
  53 C :   -0.063432
  54 C :   -0.040737
  55 C :   -0.054643
  56 C :   -0.170419
  57 C :   -0.075300
  58 C :   -0.177052
  59 C :   -0.199657
  60 S :    0.443951
  61 C :   -0.061126
  62 Cl:    0.127477
  63 C :   -0.146423
  64 C :   -0.044325
  65 C :   -0.054858
  66 C :   -0.142618
  67 S :    0.407712
  68 C :   -0.171526
  69 C :   -0.076589
  70 C :   -0.177881
  71 C :   -0.199255
  72 S :    0.445887
  73 C :   -0.061418
  74 Cl:    0.127116
  75 C :   -0.070632
  76 C :   -0.161378
  77 S :    0.415483
  78 H :    0.025452
  79 H :    0.019872
  80 H :    0.026926
  81 H :    0.039475
  82 H :    0.038046
  83 H :    0.033868
  84 H :    0.026650
  85 H :    0.039355
  86 H :    0.038071
  87 H :    0.033738
  88 H :    0.013306
  89 H :    0.030889
  90 H :    0.033996
  91 H :    0.039277
  92 H :    0.039239
  93 H :    0.033827
  94 H :    0.032838
  95 H :    0.016040
  96 H :    0.026708
  97 H :    0.033995
  98 H :    0.039743
  99 H :    0.037507
 100 H :    0.027098
 101 H :    0.039117
 102 H :    0.038355
 103 H :    0.033864
 104 H :    0.019679
 105 H :    0.025582

  Mayer bond orders larger than 0.100000
B(  0-C ,  1-C ) :   1.6467 B(  0-C , 15-S ) :   1.1079 B(  0-C , 78-H ) :   0.9670
B(  1-C ,  2-C ) :   1.1821 B(  1-C , 79-H ) :   0.9776 B(  2-C ,  3-C ) :   1.3121
B(  2-C , 14-C ) :   1.2803 B(  3-C ,  4-C ) :   0.9785 B(  3-C , 11-C ) :   1.4246
B(  4-C ,  5-C ) :   1.5557 B(  4-C ,  8-S ) :   1.1327 B(  5-C ,  6-C ) :   1.2197
B(  5-C , 80-H ) :   0.9967 B(  6-C ,  7-C ) :   1.6065 B(  6-C , 10-Cl) :   1.0037
B(  7-C ,  8-S ) :   1.1279 B(  7-C ,  9-C ) :   1.0834 B(  9-C , 81-H ) :   0.9492
B(  9-C , 82-H ) :   0.9482 B(  9-C , 83-H ) :   0.9440 B( 11-C , 12-C ) :   1.2733
B( 11-C , 25-S ) :   1.0543 B( 12-C , 13-C ) :   1.3078 B( 12-C , 23-C ) :   1.1751
B( 13-C , 14-C ) :   1.4179 B( 13-C , 16-C ) :   0.9887 B( 14-C , 15-S ) :   1.0726
B( 16-C , 17-C ) :   1.5528 B( 16-C , 20-S ) :   1.1297 B( 17-C , 18-C ) :   1.2193
B( 17-C , 84-H ) :   0.9952 B( 18-C , 19-C ) :   1.6070 B( 18-C , 22-Cl) :   1.0032
B( 19-C , 20-S ) :   1.1280 B( 19-C , 21-C ) :   1.0827 B( 21-C , 85-H ) :   0.9487
B( 21-C , 86-H ) :   0.9482 B( 21-C , 87-H ) :   0.9438 B( 23-C , 24-C ) :   1.5822
B( 23-C , 88-H ) :   0.9703 B( 24-C , 25-S ) :   1.0644 B( 24-C , 26-C ) :   1.1418
B( 26-C , 27-C ) :   1.5077 B( 26-C , 29-C ) :   0.1085 B( 26-C , 30-S ) :   1.1215
B( 27-C , 28-C ) :   1.2601 B( 27-C , 89-H ) :   0.9922 B( 28-C , 29-C ) :   1.5246
B( 28-C , 90-H ) :   0.9964 B( 29-C , 30-S ) :   1.1134 B( 29-C , 31-C ) :   1.1111
B( 31-C , 32-C ) :   1.4942 B( 31-C , 35-S ) :   1.0994 B( 32-C , 33-C ) :   1.2866
B( 32-C , 91-H ) :   0.9940 B( 33-C , 34-C ) :   1.4476 B( 33-C , 38-C ) :   0.9949
B( 34-C , 35-S ) :   1.1212 B( 34-C , 36-C ) :   1.1871 B( 36-C , 37-C ) :   1.4492
B( 36-C , 46-S ) :   1.1200 B( 37-C , 38-C ) :   0.9946 B( 37-C , 44-C ) :   1.2862
B( 38-C , 39-C ) :   1.7120 B( 39-C , 40-C ) :   1.1336 B( 39-C , 42-C ) :   1.1341
B( 40-C , 41-N ) :   2.9904 B( 42-C , 43-N ) :   2.9917 B( 44-C , 45-C ) :   1.4933
B( 44-C , 92-H ) :   0.9947 B( 45-C , 46-S ) :   1.1004 B( 45-C , 47-C ) :   1.1136
B( 47-C , 48-C ) :   1.5147 B( 47-C , 50-C ) :   0.1168 B( 47-C , 51-S ) :   1.1172
B( 48-C , 49-C ) :   1.2662 B( 48-C , 93-H ) :   0.9958 B( 49-C , 50-C ) :   1.5242
B( 49-C , 94-H ) :   0.9951 B( 50-C , 51-S ) :   1.1175 B( 50-C , 52-C ) :   1.0990
B( 52-C , 53-C ) :   1.6081 B( 52-C , 67-S ) :   1.0581 B( 53-C , 54-C ) :   1.1697
B( 53-C , 95-H ) :   0.9764 B( 54-C , 55-C ) :   1.3054 B( 54-C , 66-C ) :   1.2720
B( 55-C , 56-C ) :   0.9861 B( 55-C , 63-C ) :   1.4205 B( 56-C , 57-C ) :   1.5538
B( 56-C , 60-S ) :   1.1289 B( 57-C , 58-C ) :   1.2206 B( 57-C , 96-H ) :   0.9954
B( 58-C , 59-C ) :   1.6059 B( 58-C , 62-Cl) :   1.0033 B( 59-C , 60-S ) :   1.1270
B( 59-C , 61-C ) :   1.0825 B( 61-C , 97-H ) :   0.9437 B( 61-C , 98-H ) :   0.9489
B( 61-C , 99-H ) :   0.9481 B( 63-C , 64-C ) :   1.2784 B( 63-C , 77-S ) :   1.0731
B( 64-C , 65-C ) :   1.3115 B( 64-C , 75-C ) :   1.1825 B( 65-C , 66-C ) :   1.4230
B( 65-C , 68-C ) :   0.9806 B( 66-C , 67-S ) :   1.0584 B( 68-C , 69-C ) :   1.5548
B( 68-C , 72-S ) :   1.1322 B( 69-C , 70-C ) :   1.2198 B( 69-C ,100-H ) :   0.9961
B( 70-C , 71-C ) :   1.6065 B( 70-C , 74-Cl) :   1.0041 B( 71-C , 72-S ) :   1.1285
B( 71-C , 73-C ) :   1.0822 B( 73-C ,101-H ) :   0.9488 B( 73-C ,102-H ) :   0.9484
B( 73-C ,103-H ) :   0.9442 B( 75-C , 76-C ) :   1.6475 B( 75-C ,104-H ) :   0.9775
B( 76-C , 77-S ) :   1.1077 B( 76-C ,105-H ) :   0.9664

-----------------------------------------------------------------------------
         ABSORPTION SPECTRUM VIA TRANSITION ELECTRIC DIPOLE MOMENTS
-----------------------------------------------------------------------------
State   Energy  Wavelength   fosc         T2         TX        TY        TZ
        (cm-1)    (nm)                  (au**2)     (au)      (au)      (au)
-----------------------------------------------------------------------------
   0   10714.9    933.3   0.172733193   5.30715  -1.66487  -1.03919  -1.20642
   1   19489.5    513.1   0.030702151   0.51861  -0.47952  -0.20833   0.49525
   2   21572.1    463.6   0.989191933  15.09604  -2.42127  -1.79880  -2.44903
   3   22999.1    434.8   1.483253127  21.23144  -3.27726  -2.13686  -2.43410
   4   23947.4    417.6   0.033389448   0.45901  -0.65105  -0.13375   0.13139
   5   25877.9    386.4   0.724633697   9.21861  -2.29964  -0.81231   1.80843
   6   27130.7    368.6   0.347697946   4.21908   1.65713   0.29924  -1.17621
   7   27863.0    358.9   0.226432557   2.67538   0.54275   0.02517   1.54278
   8   28455.7    351.4   0.122813969   1.42087   0.50417  -0.09605  -1.07585
   9   29846.2    335.1   0.241618570   2.66512   1.04654   0.22504  -1.23257
  10   30615.4    326.6   0.493548363   5.30720   0.66534  -0.07115   2.20442
  11   31230.1    320.2   0.100043848   1.05461  -0.23922  -0.14479   0.98814
  12   31940.8    313.1   0.362811643   3.73948  -1.06850  -0.22032   1.59663
  13   32325.4    309.4   0.008898799   0.09063  -0.29791  -0.00752   0.04271
  14   32805.1    304.8   0.157369255   1.57926  -1.10307  -0.59738  -0.07513
  15   32886.3    304.1   0.297409651   2.97725   1.59207   0.65866   0.09351
  16   33620.2    297.4   0.072075949   0.70577  -0.63067  -0.32294   0.45138
  17   33794.3    295.9   0.057534255   0.56048  -0.64032  -0.35741  -0.15073
  18   33927.7    294.7   0.060406149   0.58614  -0.49785  -0.02988   0.58086
  19   34111.2    293.2   0.120826440   1.16611  -0.21513  -0.30028  -1.01472
  20   34240.4    292.1   0.044906745   0.43177   0.57725   0.22803  -0.21575
  21   34887.7    286.6   0.008558280   0.08076   0.00122  -0.02583   0.28300
  22   34923.2    286.3   0.088052112   0.83004   0.59944   0.11091  -0.67706
  23   35201.0    284.1   0.004852591   0.04538   0.19129   0.04829   0.08037
  24   35279.9    283.4   0.002018405   0.01883   0.09576   0.06717   0.07179
  25   35731.7    279.9   0.017380847   0.16014  -0.33119  -0.15961  -0.15803
  26   36431.9    274.5   0.045600893   0.41207  -0.22266  -0.06648   0.59839
  27   36507.8    273.9   0.023859562   0.21516   0.05555   0.03847   0.45890
  28   36846.4    271.4   0.029940504   0.26751   0.50489  -0.02931   0.10832
  29   36970.4    270.5   0.017998995   0.16028  -0.23257  -0.15143  -0.28854
  30   37000.3    270.3   0.009578417   0.08522   0.15080   0.17704  -0.17647
  31   37256.6    268.4   0.045014598   0.39776  -0.43643  -0.20675  -0.40565
  32   37645.9    265.6   0.144191530   1.26095   0.21515   0.19649  -1.08446
  33   37754.5    264.9   0.025676987   0.22390  -0.15335  -0.26578   0.36020
  34   37864.5    264.1   0.005969873   0.05190  -0.15896  -0.14057   0.08292
  35   37883.8    264.0   0.016595820   0.14422   0.37579   0.00772  -0.05423
  36   37983.2    263.3   0.021994209   0.19063  -0.35299  -0.22640  -0.12154
  37   38140.4    262.2   0.041741505   0.36030  -0.48345  -0.13377   0.32967
  38   38308.2    261.0   0.023342899   0.20060   0.10706   0.29123   0.32300
  39   38540.4    259.5   0.025760001   0.22004  -0.01906  -0.15934  -0.44078
  40   39020.0    256.3   0.032076647   0.27063  -0.10333  -0.49102  -0.13731
  41   39180.2    255.2   0.072933847   0.61283  -0.67090  -0.26317  -0.30572
  42   39584.8    252.6   0.010098516   0.08399  -0.06085  -0.18907   0.21104
  43   39692.7    251.9   0.276871353   2.29637  -0.25840  -0.37855   1.44440
  44   40206.5    248.7   0.004214065   0.03450  -0.03237  -0.08829  -0.16020

FINAL SINGLE POINT ENERGY     -9026.752660794464

DIPOLE MOMENT
-------------
                                X             Y             Z
Electronic contribution:     -4.58070      10.40535      -0.78491
Nuclear contribution   :      5.71952     -10.78303      -0.57675
                        -----------------------------------------
Total Dipole Moment    :      1.13883      -0.37768      -1.36166
                        -----------------------------------------
Magnitude (a.u.)       :      1.81485
Magnitude (Debye)      :      4.61298

Rotational constants in cm-1:     0.000909     0.000146     0.000128
Rotational constants in MHz :    27.253077     4.379990     3.845149

                             ****ORCA TERMINATED NORMALLY****
TOTAL RUN TIME: 0 days 0 hours 10 minutes 30 seconds 659 msec
