                         Program Version 4.2.0 -  RELEASE  -
|  1> # ORCA input file
|  2> # SCF done       -204.690504799004          0.000345480067
|  3> ! CAM-B3LYP def2-SVP def2/J RIJCOSX Grid4 TightSCF
|  4> %maxcore 5000
|  5> %tddft
|  6>     Mode sTDDFT
|  7>     Ethresh 5.0
|  8>     maxcore 5000
|  9> end
| 10>
| 11> %pal
| 12>   nprocs 6
| 13>   end
| 14> * xyz 0 1
| 15>    C        9.66822        12.96523        -2.66574
| 16>    C        8.82652        12.17640        -1.96727
| 17>    C        9.24463        10.81410        -1.92559
| 18>    C        8.60339         9.72376        -1.31062
| 19>    C        7.33273         9.84717        -0.62188
| 20>    C        6.95453         9.24610         0.54359
| 21>    C        5.62329         9.54588         0.90626
| 22>    C        4.96635        10.35769         0.02896
| 23>    S        6.01589        10.77993        -1.28173
| 24>    C        3.57150        10.86263         0.09081
| 25>   Cl        4.90377         8.92932         2.34366
| 26>    C        9.24333         8.48997        -1.40157
| 27>    C       10.47013         8.30367        -2.09157
| 28>    C       11.10228         9.39238        -2.72805
| 29>    C       10.47040        10.62695        -2.60973
| 30>    S       11.03117        12.12235        -3.30954
| 31>    C       12.32597         9.24576        -3.48743
| 32>    C       13.37753        10.11558        -3.56058
| 33>    C       14.38815         9.67684        -4.44148
| 34>    C       14.12396         8.48863        -5.05975
| 35>    S       12.59196         7.87921        -4.53800
| 36>    C       14.95485         7.74056        -6.03605
| 37>   Cl       15.82953        10.58025        -4.70603
| 38>    C       10.90989         6.96238        -2.02199
| 39>    C       10.04177         6.14733        -1.35028
| 40>    S        8.64344         6.99130        -0.74373
| 41>    C       10.18397         4.74709        -1.11490
| 42>    N        9.21675         4.10294        -0.49130
| 43>    N        9.25167         2.83342        -0.20914
| 44>    C       10.25031         2.04134        -0.54374
| 45>    C       11.34976         2.59812        -1.26685
| 46>    C       11.32535         4.00726        -1.55126
| 47>    N       12.40484         4.28697        -2.25210
| 48>    O       13.04923         3.12931        -2.40564
| 49>    N       12.43333         2.10362        -1.82946
| 50>    C       10.20380         0.64875        -0.17493
| 51>    C       11.35846        -0.04686         0.23513
| 52>    C       11.32981        -1.45099         0.56564
| 53>    N       12.47198        -2.09236         0.81987
| 54>    C       13.59743        -1.42258         0.86096
| 55>    C       13.59645         0.00531         0.72212
| 56>    N       12.50148         0.64134         0.39856
| 57>    C       14.78337         0.74746         0.94513
| 58>    N       15.76002         1.31665         1.13071
| 59>    C       14.81191        -2.11933         1.06916
| 60>    N       15.81589        -2.64556         1.23763
| 61>    C       10.10752        -2.17757         0.59299
| 62>    C        8.95238        -1.46343         0.20855
| 63>    C        8.99785        -0.07242        -0.17548
| 64>    N        7.79617         0.37618        -0.53879
| 65>    S        6.72506        -0.80167        -0.38435
| 66>    N        7.71900        -1.95969         0.13101
| 67>    C       10.04107        -3.53565         0.96131
| 68>    S        8.49595        -4.43566         0.81496
| 69>    C        9.33001        -5.81268         1.39295
| 70>    C       10.68296        -5.49235         1.66241
| 71>    N       11.03827        -4.25283         1.41736
| 72>    C       11.42257        -6.68351         2.17913
| 73>    C       10.34047        -7.72089         2.16353
| 74>    C        9.13594        -7.16851         1.69809
| 75>    S        7.86432        -8.32411         1.64830
| 76>    C        8.94956        -9.56273         2.25601
| 77>    C       10.22987        -9.06299         2.47878
| 78>    C        8.52890       -10.89352         2.46633
| 79>    C        7.28688       -11.37375         2.19955
| 80>    C        6.88110       -12.71158         2.40186
| 81>    C        5.64269       -13.26446         2.11303
| 82>    C        5.54858       -14.61748         2.41651
| 83>    C        6.73289       -15.11475         2.95144
| 84>    S        7.95980       -13.91665         3.07542
| 85>    C        6.77063       -16.48721         3.31027
| 86>    C        5.62943       -17.24375         3.10133
| 87>   Ge        4.23966       -16.09038         2.31533
| 88>    C        2.65687       -15.83074         3.48291
| 89>    C        3.76000       -16.58463         0.45462
| 90>    C        5.80898       -18.57683         3.50306
| 91>    C        7.05501       -18.81312         4.00148
| 92>    S        8.05542       -17.41305         3.99715
| 93>    H        9.58555        14.01930        -2.84513
| 94>    H        7.93779        12.54167        -1.48798
| 95>    H        7.60213         8.63735         1.14600
| 96>    H        3.10106        10.52126         1.00947
| 97>    H        2.99347        10.49896        -0.75842
| 98>    H        3.55470        11.95162         0.06603
| 99>    H       13.45741        11.01770        -2.98352
|100>    H       15.88332         8.27716        -6.21425
|101>    H       14.42582         7.62413        -6.98155
|102>    H       15.18654         6.74571        -5.65722
|103>    H       11.82953         6.59377        -2.43698
|104>    H       11.81818        -6.50846         3.18126
|105>    H       12.26370        -6.94674         1.53549
|106>    H       11.02881        -9.67836         2.85123
|107>    H        9.27868       -11.56623         2.86382
|108>    H        6.53648       -10.70610         1.79441
|109>    H        4.84032       -12.68455         1.69035
|110>    H        2.96635       -15.55070         4.48476
|111>    H        2.08026       -16.74877         3.53995
|112>    H        2.02039       -15.04782         3.08242
|113>    H        4.65534       -16.70824        -0.14634
|114>    H        3.14380       -15.81073         0.00758
|115>    H        3.20348       -17.51668         0.44646
|116>    H        5.04833       -19.33422         3.42790
|117>    H        7.45607       -19.73435         4.37692
|118> *
|119>
|120>                          ****END OF INPUT****

CARTESIAN COORDINATES (ANGSTROEM)
---------------------------------
  C      9.668220   12.965230   -2.665740
  C      8.826520   12.176400   -1.967270
  C      9.244630   10.814100   -1.925590
  C      8.603390    9.723760   -1.310620
  C      7.332730    9.847170   -0.621880
  C      6.954530    9.246100    0.543590
  C      5.623290    9.545880    0.906260
  C      4.966350   10.357690    0.028960
  S      6.015890   10.779930   -1.281730
  C      3.571500   10.862630    0.090810
  Cl     4.903770    8.929320    2.343660
  C      9.243330    8.489970   -1.401570
  C     10.470130    8.303670   -2.091570
  C     11.102280    9.392380   -2.728050
  C     10.470400   10.626950   -2.609730
  S     11.031170   12.122350   -3.309540
  C     12.325970    9.245760   -3.487430
  C     13.377530   10.115580   -3.560580
  C     14.388150    9.676840   -4.441480
  C     14.123960    8.488630   -5.059750
  S     12.591960    7.879210   -4.538000
  C     14.954850    7.740560   -6.036050
  Cl    15.829530   10.580250   -4.706030
  C     10.909890    6.962380   -2.021990
  C     10.041770    6.147330   -1.350280
  S      8.643440    6.991300   -0.743730
  C     10.183970    4.747090   -1.114900
  N      9.216750    4.102940   -0.491300
  N      9.251670    2.833420   -0.209140
  C     10.250310    2.041340   -0.543740
  C     11.349760    2.598120   -1.266850
  C     11.325350    4.007260   -1.551260
  N     12.404840    4.286970   -2.252100
  O     13.049230    3.129310   -2.405640
  N     12.433330    2.103620   -1.829460
  C     10.203800    0.648750   -0.174930
  C     11.358460   -0.046860    0.235130
  C     11.329810   -1.450990    0.565640
  N     12.471980   -2.092360    0.819870
  C     13.597430   -1.422580    0.860960
  C     13.596450    0.005310    0.722120
  N     12.501480    0.641340    0.398560
  C     14.783370    0.747460    0.945130
  N     15.760020    1.316650    1.130710
  C     14.811910   -2.119330    1.069160
  N     15.815890   -2.645560    1.237630
  C     10.107520   -2.177570    0.592990
  C      8.952380   -1.463430    0.208550
  C      8.997850   -0.072420   -0.175480
  N      7.796170    0.376180   -0.538790
  S      6.725060   -0.801670   -0.384350
  N      7.719000   -1.959690    0.131010
  C     10.041070   -3.535650    0.961310
  S      8.495950   -4.435660    0.814960
  C      9.330010   -5.812680    1.392950
  C     10.682960   -5.492350    1.662410
  N     11.038270   -4.252830    1.417360
  C     11.422570   -6.683510    2.179130
  C     10.340470   -7.720890    2.163530
  C      9.135940   -7.168510    1.698090
  S      7.864320   -8.324110    1.648300
  C      8.949560   -9.562730    2.256010
  C     10.229870   -9.062990    2.478780
  C      8.528900  -10.893520    2.466330
  C      7.286880  -11.373750    2.199550
  C      6.881100  -12.711580    2.401860
  C      5.642690  -13.264460    2.113030
  C      5.548580  -14.617480    2.416510
  C      6.732890  -15.114750    2.951440
  S      7.959800  -13.916650    3.075420
  C      6.770630  -16.487210    3.310270
  C      5.629430  -17.243750    3.101330
  Ge     4.239660  -16.090380    2.315330
  C      2.656870  -15.830740    3.482910
  C      3.760000  -16.584630    0.454620
  C      5.808980  -18.576830    3.503060
  C      7.055010  -18.813120    4.001480
  S      8.055420  -17.413050    3.997150
  H      9.585550   14.019300   -2.845130
  H      7.937790   12.541670   -1.487980
  H      7.602130    8.637350    1.146000
  H      3.101060   10.521260    1.009470
  H      2.993470   10.498960   -0.758420
  H      3.554700   11.951620    0.066030
  H     13.457410   11.017700   -2.983520
  H     15.883320    8.277160   -6.214250
  H     14.425820    7.624130   -6.981550
  H     15.186540    6.745710   -5.657220
  H     11.829530    6.593770   -2.436980
  H     11.818180   -6.508460    3.181260
  H     12.263700   -6.946740    1.535490
  H     11.028810   -9.678360    2.851230
  H      9.278680  -11.566230    2.863820
  H      6.536480  -10.706100    1.794410
  H      4.840320  -12.684550    1.690350
  H      2.966350  -15.550700    4.484760
  H      2.080260  -16.748770    3.539950
  H      2.020390  -15.047820    3.082420
  H      4.655340  -16.708240   -0.146340
  H      3.143800  -15.810730    0.007580
  H      3.203480  -17.516680    0.446460
  H      5.048330  -19.334220    3.427900
  H      7.456070  -19.734350    4.376920

 Total Charge           Charge          ....    0
 Multiplicity           Mult            ....    1
 Number of Electrons    NEL             ....  644
 Basis Dimension        Dim             .... 1279

ORBITAL ENERGIES
----------------

  NO   OCC          E(Eh)            E(eV)
   0   2.0000    -398.772952    -10851.1637
   1   2.0000    -101.577603     -2764.0671
   2   2.0000    -101.577361     -2764.0605
   3   2.0000     -89.041328     -2422.9377
   4   2.0000     -88.971701     -2421.0431
   5   2.0000     -88.968440     -2420.9543
   6   2.0000     -88.959511     -2420.7114
   7   2.0000     -88.957408     -2420.6541
   8   2.0000     -88.952507     -2420.5208
   9   2.0000     -88.952486     -2420.5202
  10   2.0000     -88.947356     -2420.3806
  11   2.0000     -88.946612     -2420.3604
  12   2.0000     -49.832473     -1356.0105
  13   2.0000     -44.369695     -1207.3608
  14   2.0000     -44.368959     -1207.3407
  15   2.0000     -44.368624     -1207.3316
  16   2.0000     -19.368350      -527.0396
  17   2.0000     -14.493645      -394.3921
  18   2.0000     -14.492655      -394.3652
  19   2.0000     -14.452510      -393.2728
  20   2.0000     -14.449594      -393.1934
  21   2.0000     -14.446324      -393.1045
  22   2.0000     -14.445875      -393.0922
  23   2.0000     -14.442815      -393.0090
  24   2.0000     -14.442327      -392.9957
  25   2.0000     -14.421517      -392.4294
  26   2.0000     -14.417283      -392.3142
  27   2.0000     -14.417181      -392.3115
  28   2.0000     -10.372858      -282.2598
  29   2.0000     -10.366659      -282.0911
  30   2.0000     -10.344611      -281.4912
  31   2.0000     -10.344299      -281.4827
  32   2.0000     -10.341868      -281.4165
  33   2.0000     -10.340505      -281.3795
  34   2.0000     -10.340278      -281.3733
  35   2.0000     -10.339591      -281.3546
  36   2.0000     -10.339329      -281.3474
  37   2.0000     -10.336431      -281.2686
  38   2.0000     -10.334480      -281.2155
  39   2.0000     -10.323150      -280.9072
  40   2.0000     -10.315461      -280.6980
  41   2.0000     -10.315432      -280.6972
  42   2.0000     -10.314549      -280.6732
  43   2.0000     -10.312429      -280.6155
  44   2.0000     -10.312347      -280.6132
  45   2.0000     -10.311883      -280.6006
  46   2.0000     -10.311621      -280.5935
  47   2.0000     -10.311349      -280.5861
  48   2.0000     -10.307182      -280.4727
  49   2.0000     -10.305382      -280.4237
  50   2.0000     -10.303791      -280.3804
  51   2.0000     -10.302049      -280.3330
  52   2.0000     -10.301450      -280.3167
  53   2.0000     -10.301004      -280.3046
  54   2.0000     -10.300979      -280.3039
  55   2.0000     -10.300863      -280.3007
  56   2.0000     -10.300752      -280.2977
  57   2.0000     -10.298311      -280.2313
  58   2.0000     -10.298242      -280.2294
  59   2.0000     -10.297431      -280.2073
  60   2.0000     -10.295235      -280.1476
  61   2.0000     -10.293475      -280.0997
  62   2.0000     -10.292408      -280.0707
  63   2.0000     -10.292256      -280.0665
  64   2.0000     -10.291810      -280.0544
  65   2.0000     -10.291363      -280.0422
  66   2.0000     -10.285834      -279.8918
  67   2.0000     -10.285735      -279.8891
  68   2.0000     -10.285207      -279.8747
  69   2.0000     -10.283634      -279.8319
  70   2.0000     -10.279839      -279.7286
  71   2.0000     -10.279123      -279.7091
  72   2.0000     -10.273681      -279.5611
  73   2.0000     -10.272754      -279.5358
  74   2.0000     -10.272608      -279.5319
  75   2.0000     -10.272376      -279.5256
  76   2.0000     -10.270522      -279.4751
  77   2.0000     -10.270196      -279.4663
  78   2.0000     -10.262439      -279.2552
  79   2.0000     -10.262131      -279.2468
  80   2.0000     -10.261817      -279.2382
  81   2.0000     -10.261023      -279.2166
  82   2.0000      -9.532348      -259.3884
  83   2.0000      -9.532165      -259.3834
  84   2.0000      -8.132507      -221.2968
  85   2.0000      -8.065424      -219.4713
  86   2.0000      -8.063406      -219.4164
  87   2.0000      -8.054960      -219.1866
  88   2.0000      -8.053225      -219.1394
  89   2.0000      -8.048174      -219.0019
  90   2.0000      -8.047999      -218.9972
  91   2.0000      -8.043067      -218.8630
  92   2.0000      -8.041227      -218.8129
  93   2.0000      -7.302592      -198.7136
  94   2.0000      -7.302387      -198.7081
  95   2.0000      -7.292425      -198.4370
  96   2.0000      -7.292343      -198.4347
  97   2.0000      -7.292245      -198.4321
  98   2.0000      -7.292165      -198.4299
  99   2.0000      -6.292362      -171.2239
 100   2.0000      -6.103537      -166.0857
 101   2.0000      -6.095777      -165.8745
 102   2.0000      -6.095383      -165.8638
 103   2.0000      -6.034787      -164.2149
 104   2.0000      -6.032780      -164.1603
 105   2.0000      -6.030444      -164.0967
 106   2.0000      -6.028757      -164.0508
 107   2.0000      -6.027670      -164.0212
 108   2.0000      -6.025365      -163.9585
 109   2.0000      -6.024074      -163.9234
 110   2.0000      -6.022420      -163.8784
 111   2.0000      -6.020249      -163.8193
 112   2.0000      -6.018216      -163.7640
 113   2.0000      -6.017502      -163.7445
 114   2.0000      -6.017326      -163.7398
 115   2.0000      -6.017162      -163.7353
 116   2.0000      -6.015604      -163.6929
 117   2.0000      -6.013309      -163.6305
 118   2.0000      -6.013135      -163.6257
 119   2.0000      -6.012767      -163.6157
 120   2.0000      -6.010951      -163.5663
 121   2.0000      -6.010222      -163.5465
 122   2.0000      -6.010083      -163.5427
 123   2.0000      -6.008303      -163.4942
 124   2.0000      -6.006657      -163.4495
 125   2.0000      -6.004596      -163.3934
 126   2.0000      -6.002588      -163.3387
 127   2.0000      -4.468587      -121.5964
 128   2.0000      -4.467508      -121.5671
 129   2.0000      -4.466525      -121.5403
 130   2.0000      -1.320743       -35.9392
 131   2.0000      -1.292582       -35.1730
 132   2.0000      -1.290687       -35.1214
 133   2.0000      -1.290324       -35.1115
 134   2.0000      -1.289337       -35.0846
 135   2.0000      -1.288827       -35.0708
 136   2.0000      -1.138946       -30.9923
 137   2.0000      -1.125529       -30.6272
 138   2.0000      -1.111117       -30.2350
 139   2.0000      -1.074887       -29.2491
 140   2.0000      -1.037131       -28.2218
 141   2.0000      -1.023858       -27.8606
 142   2.0000      -1.008333       -27.4381
 143   2.0000      -1.005344       -27.3568
 144   2.0000      -1.003286       -27.3008
 145   2.0000      -0.996292       -27.1105
 146   2.0000      -0.995402       -27.0863
 147   2.0000      -0.994351       -27.0577
 148   2.0000      -0.992359       -27.0035
 149   2.0000      -0.990191       -26.9445
 150   2.0000      -0.983686       -26.7675
 151   2.0000      -0.978835       -26.6355
 152   2.0000      -0.970795       -26.4167
 153   2.0000      -0.969249       -26.3746
 154   2.0000      -0.944455       -25.6999
 155   2.0000      -0.938933       -25.5497
 156   2.0000      -0.936098       -25.4725
 157   2.0000      -0.932381       -25.3714
 158   2.0000      -0.906513       -24.6675
 159   2.0000      -0.903800       -24.5937
 160   2.0000      -0.897141       -24.4125
 161   2.0000      -0.894842       -24.3499
 162   2.0000      -0.894525       -24.3413
 163   2.0000      -0.880577       -23.9617
 164   2.0000      -0.856513       -23.3069
 165   2.0000      -0.855889       -23.2899
 166   2.0000      -0.846986       -23.0477
 167   2.0000      -0.844150       -22.9705
 168   2.0000      -0.839010       -22.8306
 169   2.0000      -0.837769       -22.7969
 170   2.0000      -0.832954       -22.6658
 171   2.0000      -0.823209       -22.4007
 172   2.0000      -0.818025       -22.2596
 173   2.0000      -0.806826       -21.9549
 174   2.0000      -0.804409       -21.8891
 175   2.0000      -0.802031       -21.8244
 176   2.0000      -0.797223       -21.6935
 177   2.0000      -0.795890       -21.6573
 178   2.0000      -0.792473       -21.5643
 179   2.0000      -0.790177       -21.5018
 180   2.0000      -0.779423       -21.2092
 181   2.0000      -0.777189       -21.1484
 182   2.0000      -0.774107       -21.0645
 183   2.0000      -0.769516       -20.9396
 184   2.0000      -0.768103       -20.9011
 185   2.0000      -0.744166       -20.2498
 186   2.0000      -0.740070       -20.1383
 187   2.0000      -0.728724       -19.8296
 188   2.0000      -0.728012       -19.8102
 189   2.0000      -0.709164       -19.2973
 190   2.0000      -0.697485       -18.9795
 191   2.0000      -0.692460       -18.8428
 192   2.0000      -0.683847       -18.6084
 193   2.0000      -0.680038       -18.5048
 194   2.0000      -0.671167       -18.2634
 195   2.0000      -0.663378       -18.0514
 196   2.0000      -0.660232       -17.9658
 197   2.0000      -0.653972       -17.7955
 198   2.0000      -0.653736       -17.7891
 199   2.0000      -0.647976       -17.6323
 200   2.0000      -0.645998       -17.5785
 201   2.0000      -0.641585       -17.4584
 202   2.0000      -0.638420       -17.3723
 203   2.0000      -0.635491       -17.2926
 204   2.0000      -0.627297       -17.0696
 205   2.0000      -0.623961       -16.9788
 206   2.0000      -0.622779       -16.9467
 207   2.0000      -0.618227       -16.8228
 208   2.0000      -0.615680       -16.7535
 209   2.0000      -0.614617       -16.7246
 210   2.0000      -0.611177       -16.6310
 211   2.0000      -0.602885       -16.4053
 212   2.0000      -0.601520       -16.3682
 213   2.0000      -0.595066       -16.1926
 214   2.0000      -0.588421       -16.0118
 215   2.0000      -0.583571       -15.8798
 216   2.0000      -0.577734       -15.7209
 217   2.0000      -0.572917       -15.5899
 218   2.0000      -0.571971       -15.5641
 219   2.0000      -0.568112       -15.4591
 220   2.0000      -0.562311       -15.3013
 221   2.0000      -0.556980       -15.1562
 222   2.0000      -0.556064       -15.1313
 223   2.0000      -0.551236       -14.9999
 224   2.0000      -0.542201       -14.7540
 225   2.0000      -0.542021       -14.7491
 226   2.0000      -0.539505       -14.6807
 227   2.0000      -0.538974       -14.6662
 228   2.0000      -0.532828       -14.4990
 229   2.0000      -0.528893       -14.3919
 230   2.0000      -0.524876       -14.2826
 231   2.0000      -0.519839       -14.1455
 232   2.0000      -0.517181       -14.0732
 233   2.0000      -0.515954       -14.0398
 234   2.0000      -0.514912       -14.0115
 235   2.0000      -0.513249       -13.9662
 236   2.0000      -0.507448       -13.8083
 237   2.0000      -0.505541       -13.7565
 238   2.0000      -0.505333       -13.7508
 239   2.0000      -0.501009       -13.6332
 240   2.0000      -0.499643       -13.5960
 241   2.0000      -0.498625       -13.5683
 242   2.0000      -0.496302       -13.5051
 243   2.0000      -0.490002       -13.3336
 244   2.0000      -0.488414       -13.2904
 245   2.0000      -0.487839       -13.2748
 246   2.0000      -0.483173       -13.1478
 247   2.0000      -0.480880       -13.0854
 248   2.0000      -0.479673       -13.0526
 249   2.0000      -0.477262       -12.9870
 250   2.0000      -0.475236       -12.9318
 251   2.0000      -0.474921       -12.9232
 252   2.0000      -0.474657       -12.9161
 253   2.0000      -0.473159       -12.8753
 254   2.0000      -0.472088       -12.8462
 255   2.0000      -0.468536       -12.7495
 256   2.0000      -0.465707       -12.6725
 257   2.0000      -0.465686       -12.6720
 258   2.0000      -0.462411       -12.5828
 259   2.0000      -0.461431       -12.5562
 260   2.0000      -0.459418       -12.5014
 261   2.0000      -0.458516       -12.4768
 262   2.0000      -0.458242       -12.4694
 263   2.0000      -0.458175       -12.4676
 264   2.0000      -0.448337       -12.1999
 265   2.0000      -0.447375       -12.1737
 266   2.0000      -0.445554       -12.1241
 267   2.0000      -0.444615       -12.0986
 268   2.0000      -0.443659       -12.0726
 269   2.0000      -0.441580       -12.0160
 270   2.0000      -0.440776       -11.9941
 271   2.0000      -0.435644       -11.8545
 272   2.0000      -0.434334       -11.8188
 273   2.0000      -0.433185       -11.7876
 274   2.0000      -0.431355       -11.7378
 275   2.0000      -0.428217       -11.6524
 276   2.0000      -0.425582       -11.5807
 277   2.0000      -0.423893       -11.5347
 278   2.0000      -0.421943       -11.4817
 279   2.0000      -0.416582       -11.3358
 280   2.0000      -0.415966       -11.3190
 281   2.0000      -0.414727       -11.2853
 282   2.0000      -0.414344       -11.2749
 283   2.0000      -0.412398       -11.2219
 284   2.0000      -0.410110       -11.1597
 285   2.0000      -0.408350       -11.1118
 286   2.0000      -0.407818       -11.0973
 287   2.0000      -0.407501       -11.0887
 288   2.0000      -0.405110       -11.0236
 289   2.0000      -0.401410       -10.9229
 290   2.0000      -0.399271       -10.8647
 291   2.0000      -0.393689       -10.7128
 292   2.0000      -0.392714       -10.6863
 293   2.0000      -0.384689       -10.4679
 294   2.0000      -0.382391       -10.4054
 295   2.0000      -0.375446       -10.2164
 296   2.0000      -0.374335       -10.1862
 297   2.0000      -0.373694       -10.1687
 298   2.0000      -0.372691       -10.1414
 299   2.0000      -0.370585       -10.0841
 300   2.0000      -0.369435       -10.0528
 301   2.0000      -0.365256        -9.9391
 302   2.0000      -0.362775        -9.8716
 303   2.0000      -0.349230        -9.5030
 304   2.0000      -0.345973        -9.4144
 305   2.0000      -0.341173        -9.2838
 306   2.0000      -0.332829        -9.0567
 307   2.0000      -0.329442        -8.9646
 308   2.0000      -0.325225        -8.8498
 309   2.0000      -0.324174        -8.8212
 310   2.0000      -0.319762        -8.7012
 311   2.0000      -0.319679        -8.6989
 312   2.0000      -0.311580        -8.4785
 313   2.0000      -0.308914        -8.4060
 314   2.0000      -0.304135        -8.2759
 315   2.0000      -0.298939        -8.1345
 316   2.0000      -0.294953        -8.0261
 317   2.0000      -0.287588        -7.8257
 318   2.0000      -0.282690        -7.6924
 319   2.0000      -0.260394        -7.0857
 320   2.0000      -0.242574        -6.6008
 321   2.0000      -0.223667        -6.0863
 322   0.0000      -0.123483        -3.3602
 323   0.0000      -0.082309        -2.2397
 324   0.0000      -0.059329        -1.6144
 325   0.0000      -0.040840        -1.1113
 326   0.0000      -0.031912        -0.8684

MULLIKEN ATOMIC CHARGES
-----------------------
   0 C :   -0.041758
   1 C :   -0.000199
   2 C :    0.064679
   3 C :    0.128037
   4 C :   -0.213477
   5 C :    0.036868
   6 C :    0.086027
   7 C :   -0.267176
   8 S :    0.133668
   9 C :    0.123267
  10 Cl:   -0.089585
  11 C :   -0.125108
  12 C :    0.077727
  13 C :    0.154523
  14 C :   -0.167776
  15 S :    0.109803
  16 C :   -0.212832
  17 C :    0.031296
  18 C :    0.086484
  19 C :   -0.264745
  20 S :    0.144637
  21 C :    0.121959
  22 Cl:   -0.090074
  23 C :   -0.091455
  24 C :   -0.086248
  25 S :    0.170914
  26 C :    0.033975
  27 N :   -0.055711
  28 N :   -0.013876
  29 C :   -0.151347
  30 C :    0.032452
  31 C :   -0.046272
  32 N :    0.062623
  33 O :   -0.082291
  34 N :    0.087329
  35 C :    0.065902
  36 C :   -0.047580
  37 C :   -0.105422
  38 N :    0.109140
  39 C :   -0.159554
  40 C :   -0.116207
  41 N :    0.041732
  42 C :   -0.206875
  43 N :    0.232517
  44 C :   -0.191074
  45 N :    0.220335
  46 C :    0.228536
  47 C :   -0.013293
  48 C :    0.015895
  49 N :   -0.227605
  50 S :    0.548649
  51 N :   -0.318326
  52 C :   -0.284461
  53 S :    0.160929
  54 C :   -0.008881
  55 C :   -0.241917
  56 N :    0.056341
  57 C :    0.396728
  58 C :   -0.136982
  59 C :   -0.112585
  60 S :    0.139630
  61 C :   -0.030449
  62 C :   -0.034430
  63 C :   -0.013946
  64 C :    0.023449
  65 C :   -0.051991
  66 C :   -0.030710
  67 C :   -0.086384
  68 C :   -0.077340
  69 S :    0.123677
  70 C :   -0.123440
  71 C :   -0.106766
  72 Ge:    0.445435
  73 C :   -0.191164
  74 C :   -0.190642
  75 C :    0.018976
  76 C :   -0.077788
  77 S :    0.136393
  78 H :    0.028994
  79 H :   -0.009471
  80 H :   -0.003526
  81 H :    0.023173
  82 H :    0.035841
  83 H :    0.031351
  84 H :   -0.007079
  85 H :    0.024038
  86 H :    0.034419
  87 H :    0.038432
  88 H :    0.008970
  89 H :    0.042486
  90 H :    0.044707
  91 H :   -0.019357
  92 H :   -0.004975
  93 H :   -0.006473
  94 H :   -0.023670
  95 H :    0.055898
  96 H :    0.044535
  97 H :    0.043301
  98 H :    0.056838
  99 H :    0.043545
 100 H :    0.043660
 101 H :   -0.015187
 102 H :    0.024761
Sum of atomic charges:    0.0000000

LOEWDIN ATOMIC CHARGES
----------------------
   0 C :   -0.157309
   1 C :   -0.071208
   2 C :   -0.036687
   3 C :   -0.057955
   4 C :   -0.172647
   5 C :   -0.073387
   6 C :   -0.176777
   7 C :   -0.199820
   8 S :    0.443584
   9 C :   -0.061468
  10 Cl:    0.128401
  11 C :   -0.138176
  12 C :   -0.048590
  13 C :   -0.043883
  14 C :   -0.149243
  15 S :    0.417863
  16 C :   -0.173825
  17 C :   -0.074064
  18 C :   -0.177965
  19 C :   -0.196140
  20 S :    0.455217
  21 C :   -0.061242
  22 Cl:    0.127873
  23 C :   -0.033132
  24 C :   -0.176388
  25 S :    0.451974
  26 C :   -0.011189
  27 N :   -0.058133
  28 N :   -0.024172
  29 C :   -0.001373
  30 C :   -0.059618
  31 C :   -0.060183
  32 N :   -0.011170
  33 O :    0.089634
  34 N :    0.000085
  35 C :   -0.054615
  36 C :    0.007210
  37 C :   -0.011828
  38 N :    0.025531
  39 C :   -0.038476
  40 C :   -0.017189
  41 N :   -0.003088
  42 C :   -0.033327
  43 N :   -0.006066
  44 C :   -0.033835
  45 N :   -0.016304
  46 C :   -0.027117
  47 C :   -0.053473
  48 C :   -0.030416
  49 N :   -0.260144
  50 S :    0.680592
  51 N :   -0.305013
  52 C :   -0.138673
  53 S :    0.455338
  54 C :   -0.194731
  55 C :   -0.036116
  56 N :   -0.043323
  57 C :   -0.012064
  58 C :   -0.029773
  59 C :   -0.206440
  60 S :    0.431857
  61 C :   -0.141968
  62 C :   -0.059801
  63 C :   -0.063060
  64 C :   -0.029867
  65 C :   -0.176199
  66 C :   -0.046198
  67 C :   -0.174682
  68 C :   -0.179512
  69 S :    0.429998
  70 C :   -0.200746
  71 C :   -0.170294
  72 Ge:    0.513413
  73 C :   -0.201507
  74 C :   -0.201204
  75 C :   -0.064309
  76 C :   -0.185926
  77 S :    0.433719
  78 H :    0.026403
  79 H :    0.019872
  80 H :    0.028522
  81 H :    0.033567
  82 H :    0.039254
  83 H :    0.037565
  84 H :    0.026216
  85 H :    0.033801
  86 H :    0.039037
  87 H :    0.040784
  88 H :    0.020966
  89 H :    0.059251
  90 H :    0.059974
  91 H :    0.033264
  92 H :    0.028692
  93 H :    0.029236
  94 H :    0.028068
  95 H :    0.041002
  96 H :    0.036239
  97 H :    0.035784
  98 H :    0.041209
  99 H :    0.035664
 100 H :    0.035991
 101 H :    0.028463
 102 H :    0.021915

  Mayer bond orders larger than 0.100000
B(  0-C ,  1-C ) :   1.6454 B(  0-C , 15-S ) :   1.1107 B(  0-C , 78-H ) :   0.9660
B(  1-C ,  2-C ) :   1.1842 B(  1-C , 79-H ) :   0.9768 B(  2-C ,  3-C ) :   1.3189
B(  2-C , 14-C ) :   1.2685 B(  3-C ,  4-C ) :   0.9800 B(  3-C , 11-C ) :   1.4102
B(  4-C ,  5-C ) :   1.5591 B(  4-C ,  8-S ) :   1.1299 B(  5-C ,  6-C ) :   1.2209
B(  5-C , 80-H ) :   0.9963 B(  6-C ,  7-C ) :   1.6045 B(  6-C , 10-Cl) :   1.0053
B(  7-C ,  8-S ) :   1.1276 B(  7-C ,  9-C ) :   1.0830 B(  9-C , 81-H ) :   0.9440
B(  9-C , 82-H ) :   0.9492 B(  9-C , 83-H ) :   0.9484 B( 11-C , 12-C ) :   1.2768
B( 11-C , 25-S ) :   1.0537 B( 12-C , 13-C ) :   1.2939 B( 12-C , 23-C ) :   1.1593
B( 13-C , 14-C ) :   1.4309 B( 13-C , 16-C ) :   0.9933 B( 14-C , 15-S ) :   1.0709
B( 16-C , 17-C ) :   1.5450 B( 16-C , 20-S ) :   1.1327 B( 17-C , 18-C ) :   1.2258
B( 17-C , 84-H ) :   0.9943 B( 18-C , 19-C ) :   1.5993 B( 18-C , 22-Cl) :   1.0049
B( 19-C , 20-S ) :   1.1369 B( 19-C , 21-C ) :   1.0838 B( 21-C , 85-H ) :   0.9437
B( 21-C , 86-H ) :   0.9483 B( 21-C , 87-H ) :   0.9481 B( 23-C , 24-C ) :   1.5972
B( 23-C , 88-H ) :   0.9606 B( 24-C , 25-S ) :   1.0497 B( 24-C , 26-C ) :   1.1579
B( 26-C , 27-N ) :   1.7418 B( 26-C , 29-C ) :   0.1125 B( 26-C , 31-C ) :   1.0785
B( 27-N , 28-N ) :   1.1854 B( 28-N , 29-C ) :   1.7680 B( 29-C , 30-C ) :   1.0774
B( 29-C , 35-C ) :   1.0164 B( 30-C , 31-C ) :   1.1773 B( 30-C , 34-N ) :   1.6010
B( 31-C , 32-N ) :   1.6053 B( 32-N , 33-O ) :   1.0639 B( 32-N , 34-N ) :   0.1858
B( 33-O , 34-N ) :   1.0855 B( 35-C , 36-C ) :   1.3349 B( 35-C , 46-C ) :   0.1304
B( 35-C , 48-C ) :   1.2551 B( 36-C , 37-C ) :   1.1035 B( 36-C , 41-N ) :   1.4220
B( 37-C , 38-N ) :   1.5127 B( 37-C , 46-C ) :   1.1944 B( 38-N , 39-C ) :   1.7340
B( 39-C , 40-C ) :   1.1947 B( 39-C , 44-C ) :   1.1409 B( 40-C , 41-N ) :   1.7295
B( 40-C , 42-C ) :   1.1475 B( 42-C , 43-N ) :   3.0530 B( 44-C , 45-N ) :   3.0491
B( 46-C , 47-C ) :   1.1934 B( 46-C , 52-C ) :   1.1894 B( 47-C , 48-C ) :   1.1176
B( 47-C , 51-N ) :   1.4921 B( 48-C , 49-N ) :   1.5317 B( 49-N , 50-S ) :   1.2968
B( 49-N , 51-N ) :   0.1532 B( 50-S , 51-N ) :   1.2642 B( 52-C , 53-S ) :   1.0577
B( 52-C , 56-N ) :   1.6216 B( 53-S , 54-C ) :   1.0955 B( 53-S , 56-N ) :   0.1032
B( 54-C , 55-C ) :   1.3604 B( 54-C , 59-C ) :   1.2371 B( 55-C , 56-N ) :   1.5343
B( 55-C , 57-C ) :   1.0354 B( 57-C , 58-C ) :   0.9788 B( 57-C , 89-H ) :   0.8601
B( 57-C , 90-H ) :   0.8613 B( 58-C , 59-C ) :   1.4795 B( 58-C , 62-C ) :   1.3163
B( 59-C , 60-S ) :   1.0642 B( 60-S , 61-C ) :   1.1045 B( 61-C , 62-C ) :   1.4146
B( 61-C , 63-C ) :   1.1945 B( 62-C , 91-H ) :   1.0085 B( 63-C , 64-C ) :   1.6004
B( 63-C , 92-H ) :   0.9711 B( 64-C , 65-C ) :   1.1934 B( 64-C , 93-H ) :   0.9721
B( 65-C , 66-C ) :   1.4413 B( 65-C , 69-S ) :   1.0904 B( 66-C , 67-C ) :   1.2565
B( 66-C , 94-H ) :   1.0046 B( 67-C , 68-C ) :   1.5184 B( 67-C , 72-Ge) :   0.8802
B( 68-C , 69-S ) :   1.1155 B( 68-C , 70-C ) :   1.1570 B( 70-C , 71-C ) :   1.5369
B( 70-C , 77-S ) :   1.1164 B( 71-C , 72-Ge) :   0.8871 B( 71-C , 75-C ) :   1.2515
B( 72-Ge, 73-C ) :   1.0120 B( 72-Ge, 74-C ) :   1.0141 B( 73-C , 95-H ) :   0.9596
B( 73-C , 96-H ) :   0.9605 B( 73-C , 97-H ) :   0.9606 B( 74-C , 98-H ) :   0.9587
B( 74-C , 99-H ) :   0.9602 B( 74-C ,100-H ) :   0.9610 B( 75-C , 76-C ) :   1.5544
B( 75-C ,101-H ) :   0.9986 B( 76-C , 77-S ) :   1.1577 B( 76-C ,102-H ) :   0.9718

-----------------------------------------------------------------------------
         ABSORPTION SPECTRUM VIA TRANSITION ELECTRIC DIPOLE MOMENTS
-----------------------------------------------------------------------------
State   Energy  Wavelength   fosc         T2         TX        TY        TZ
        (cm-1)    (nm)                  (au**2)     (au)      (au)      (au)
-----------------------------------------------------------------------------
   0    9087.0   1100.5   1.184961050  42.92962   1.16067   6.29836  -1.38317
   1   15214.1    657.3   0.028786548   0.62290  -0.04923   0.67645  -0.40360
   2   17534.4    570.3   0.051243303   0.96210  -0.61229  -0.75015   0.15647
   3   17827.7    560.9   0.105180315   1.94229  -0.06152  -1.32841   0.41694
   4   18694.7    534.9   0.216277779   3.80863   0.15229  -1.86422   0.55687
   5   20694.4    483.2   0.031487572   0.50091   0.56823  -0.33248  -0.25979
   6   21232.4    471.0   0.001375453   0.02133  -0.02258  -0.13652  -0.04669
   7   21820.9    458.3   1.085414409  16.37564  -1.32476  -3.78188   0.56398
   8   22334.0    447.7   0.073034017   1.07655  -0.49157   0.88929  -0.20992
   9   22950.0    435.7   0.008883076   0.12743  -0.33711   0.08324  -0.08278
  10   25679.6    389.4   0.121431390   1.55675   0.20585   1.22015  -0.16000
  11   25994.6    384.7   0.053569195   0.67843  -0.25813   0.77867  -0.07401
  12   26235.5    381.2   0.129055875   1.61944  -0.51671   1.16096   0.06794
  13   26769.7    373.6   0.025905572   0.31858  -0.05022   0.55874   0.06219
  14   27140.7    368.5   0.009452757   0.11466  -0.26005   0.08320   0.20028
  15   27503.1    363.6   0.009300256   0.11132   0.17506   0.28228  -0.03156
  16   28642.6    349.1   0.008966708   0.10306   0.07044  -0.29518  -0.10472
  17   29157.3    343.0   0.432767130   4.88632   1.77272   0.24528  -1.29755
  18   29256.7    341.8   0.143075284   1.60996   1.22775   0.01711  -0.31982
  19   29770.5    335.9   0.047559457   0.52593  -0.40279   0.49066  -0.35063
  20   30000.1    333.3   0.005371852   0.05895   0.18501   0.04817  -0.14967
  21   30043.5    332.9   0.035705413   0.39125  -0.51911  -0.34597  -0.04563
  22   30328.3    329.7   0.048650590   0.52810  -0.69627   0.01825  -0.20730
  23   30533.8    327.5   0.006680519   0.07203  -0.20140  -0.16803   0.05686
  24   31010.8    322.5   0.141144415   1.49839   1.17213  -0.02944   0.35161
  25   31116.3    321.4   0.251440718   2.66026  -1.60189   0.18453  -0.24523
  26   31279.0    319.7   0.010640698   0.11199  -0.16984   0.26720   0.10840
  27   31416.3    318.3   0.008424358   0.08828  -0.02886   0.28968  -0.05942
  28   32042.0    312.1   0.019166845   0.19693   0.39284   0.05438  -0.19912
  29   32345.7    309.2   0.021677836   0.22064   0.36354  -0.29549   0.03402
  30   32624.1    306.5   0.023742565   0.23959   0.48338   0.06934  -0.03349
  31   33220.7    301.0   0.022761717   0.22556   0.40302  -0.23272  -0.09479
  32   33708.7    296.7   0.137882173   1.34661  -0.41456   1.07852  -0.10742
  33   34169.0    292.7   0.009164109   0.08829   0.12678  -0.26761   0.02466
  34   34266.5    291.8   0.003574040   0.03434  -0.14673  -0.09601  -0.05991
  35   34327.7    291.3   0.188032004   1.80328  -0.43460   1.27009   0.03566
  36   34714.4    288.1   0.007735407   0.07336   0.10245  -0.23428   0.08931
  37   35034.3    285.4   0.019584007   0.18403  -0.32351  -0.27422  -0.06460
  38   35101.5    284.9   0.105345314   0.98802  -0.97529  -0.06112  -0.18193
  39   35391.9    282.6   0.002069382   0.01925  -0.11881  -0.03185  -0.06418
  40   35737.3    279.8   0.125974201   1.16047   1.07111   0.11419   0.01247
  41   35994.3    277.8   0.046592516   0.42615  -0.35411  -0.54733  -0.03431
  42   36179.7    276.4   0.052320245   0.47608  -0.58090  -0.37089  -0.03285
  43   36341.5    275.2   0.144577904   1.30971  -0.88407   0.61057  -0.39414
  44   36506.1    273.9   0.001683300   0.01518   0.07831  -0.00196   0.09510
  45   37030.1    270.1   0.010971689   0.09754   0.20777  -0.15847  -0.17105
  46   37134.5    269.3   0.033471175   0.29673   0.45802   0.28352  -0.08105
  47   37488.4    266.7   0.025129403   0.22068   0.36588  -0.21134   0.20530
  48   37736.4    265.0   0.008146966   0.07107  -0.16454  -0.20976  -0.00171
  49   37869.0    264.1   0.076607799   0.66598   0.68269  -0.41158   0.17470
  50   38257.9    261.4   0.284376802   2.44708  -0.46929   1.48326  -0.16365
  51   38370.6    260.6   0.033362050   0.28624  -0.26710   0.41712  -0.20225
  52   38524.6    259.6   0.001552614   0.01327  -0.01217  -0.09199  -0.06825
  53   38943.6    256.8   0.108290152   0.91544   0.89877  -0.16872   0.28141
  54   39393.4    253.8   0.023133147   0.19332   0.39675   0.18713   0.02993
  55   39588.5    252.6   0.068350679   0.56839   0.11828  -0.74141  -0.06861
  56   39691.8    251.9   0.059001061   0.48937   0.58345  -0.32462  -0.20876
  57   39833.8    251.0   0.043078602   0.35603   0.50651  -0.31518  -0.01181
  58   40009.7    249.9   0.075665435   0.62260   0.64189  -0.10230  -0.44734
  59   40180.5    248.9   0.010514264   0.08615   0.10136   0.23943   0.13619
  60   40250.6    248.4   0.029033693   0.23747   0.45762  -0.10578  -0.12984

FINAL SINGLE POINT ENERGY     -9326.264609220267

DIPOLE MOMENT
-------------
                                X             Y             Z
Electronic contribution:     -4.71166     -37.67853      10.42669
Nuclear contribution   :      0.66025      34.21280     -10.81704
                        -----------------------------------------
Total Dipole Moment    :     -4.05141      -3.46572      -0.39036
                        -----------------------------------------
Magnitude (a.u.)       :      5.34580
Magnitude (Debye)      :     13.58794

Rotational constants in cm-1:     0.001283     0.000127     0.000119
Rotational constants in MHz :    38.470042     3.813948     3.563680

                             ****ORCA TERMINATED NORMALLY****
TOTAL RUN TIME: 0 days 0 hours 11 minutes 24 seconds 81 msec
