                         Program Version 4.2.0 -  RELEASE  -
|  1> # ORCA input file
|  2> # SCF done       -211.745684339968          0.000582626449
|  3> ! CAM-B3LYP def2-SVP def2/J RIJCOSX Grid4 TightSCF
|  4> %maxcore 5000
|  5> %tddft
|  6>     Mode sTDDFT
|  7>     Ethresh 5.0
|  8>     maxcore 5000
|  9> end
| 10>
| 11> %pal
| 12>   nprocs 6
| 13>   end
| 14> * xyz 0 1
| 15>    C       -0.66164         5.92038        -4.83173
| 16>    C        0.63376         6.11109        -5.15035
| 17>    C        1.52822         5.42157        -4.27871
| 18>    C        2.93351         5.41330        -4.30522
| 19>    C        3.67173         6.22040        -5.25826
| 20>    C        3.44531         7.51878        -5.61042
| 21>    C        4.36130         7.98724        -6.57824
| 22>    C        5.28272         7.06441        -6.97711
| 23>    S        5.03049         5.57230        -6.13454
| 24>    C        6.37459         7.20736        -7.97332
| 25>   Cl        4.30435         9.59684        -7.19211
| 26>    C        3.56810         4.60846        -3.36592
| 27>    C        2.87437         3.86020        -2.38534
| 28>    C        1.46846         3.89701        -2.33423
| 29>    C        0.83237         4.67082        -3.30332
| 30>    S       -0.89070         4.88550        -3.46520
| 31>    C        0.70171         3.19294        -1.32566
| 32>    C       -0.48843         2.54208        -1.47884
| 33>    C       -0.98671         2.01951        -0.26560
| 34>    C       -0.20486         2.27053         0.82332
| 35>    S        1.19837         3.16532         0.34651
| 36>    C       -0.41876         1.87158         2.23743
| 37>   Cl       -2.46627         1.14187        -0.18331
| 38>    C        3.76593         3.12528        -1.56080
| 39>    C        5.08213         3.31068        -1.85592
| 40>    S        5.28776         4.41868        -3.19973
| 41>    C        6.24598         2.72195        -1.22721
| 42>    C        6.09869         1.76131        -0.20622
| 43>    C        7.17489         1.16820         0.41156
| 44>    C        8.44702         1.54896        -0.00141
| 45>    C        8.59494         2.51760        -1.01903
| 46>    C        7.52056         3.11002        -1.64264
| 47>    O        9.92231         2.70044        -1.21622
| 48>    C       10.52024         1.85026        -0.33247
| 49>    N        9.69645         1.15925         0.39509
| 50>    C       11.96179         1.78430        -0.27662
| 51>    C       12.56491         0.84560         0.58066
| 52>    C       13.93132         0.72409         0.67551
| 53>    C       14.70693         1.57304        -0.10938
| 54>    C       14.09020         2.51908        -0.96109
| 55>    C       12.72311         2.64358        -1.06785
| 56>    O       15.07551         3.20368        -1.58885
| 57>    C       16.23026         2.65878        -1.11116
| 58>    N       16.06096         1.70428        -0.24718
| 59>    C       17.49887         3.15955        -1.58566
| 60>    C       18.68098         2.52612        -1.15947
| 61>    C       19.92018         2.94255        -1.58564
| 62>    C       19.96821         4.02687        -2.45808
| 63>    C       18.77330         4.66378        -2.87016
| 64>    C       17.52811         4.24980        -2.45465
| 65>    O       19.11808         5.67748        -3.69892
| 66>    C       20.47635         5.61605        -3.76273
| 67>    N       21.01723         4.66859        -3.05529
| 68>    C       21.17361         6.55856        -4.57453
| 69>    C       22.51253         6.59341        -4.82715
| 70>    C       22.88740         7.65785        -5.68421
| 71>    C       24.17050         7.97367        -6.17283
| 72>    C       25.33528         7.15997        -5.89049
| 73>    C       26.61083         7.57907        -5.63921
| 74>    C       27.51307         6.50750        -5.46971
| 75>    C       26.95290         5.26977        -5.60007
| 76>    S       25.26144         5.41851        -5.93130
| 77>    C       27.60437         3.93922        -5.50328
| 78>   Cl       29.18179         6.75608        -5.12703
| 79>    C       24.26528         9.10473        -6.97988
| 80>    C       23.15207         9.90012        -7.34375
| 81>    C       21.86808         9.57214        -6.87594
| 82>    C       21.77456         8.45983        -6.04308
| 83>    S       20.29596         7.84434        -5.35851
| 84>    C       20.68050        10.32016        -7.24260
| 85>    C       19.62729        10.65768        -6.44287
| 86>    C       18.60431        11.33372        -7.14297
| 87>    C       18.84922        11.50874        -8.47330
| 88>    S       20.39158        10.83653        -8.88219
| 89>    C       17.99947        12.16408        -9.49932
| 90>   Cl       17.16939        11.88215        -6.36507
| 91>    C       23.53673        10.98614        -8.18400
| 92>    C       24.85594        10.99474        -8.46138
| 93>    S       25.72727         9.70137        -7.71766
| 94>    H       -1.52806         6.31797        -5.32294
| 95>    H        0.96095         6.70244        -5.98530
| 96>    H        2.68394         8.13701        -5.17182
| 97>    H        6.21178         6.54029        -8.81967
| 98>    H        7.33538         6.95415        -7.52720
| 99>    H        6.40949         8.23210        -8.33488
|100>    H       -0.98429         2.40425        -2.42131
|101>    H       -1.42779         1.48669         2.35999
|102>    H       -0.27655         2.72166         2.90205
|103>    H        0.28863         1.09513         2.52921
|104>    H        3.42346         2.47558        -0.77830
|105>    H        5.10455         1.47756         0.09921
|106>    H        7.04751         0.43259         1.18849
|107>    H        7.65754         3.84451        -2.42057
|108>    H       11.91123         0.21717         1.16395
|109>    H       14.39674         0.00406         1.32774
|110>    H       12.26104         3.36374        -1.72287
|111>    H       18.57919         1.69232        -0.48358
|112>    H       20.82727         2.45753        -1.26589
|113>    H       16.62399         4.73802        -2.77888
|114>    H       23.18664         5.87646        -4.39907
|115>    H       26.90057         8.60834        -5.53990
|116>    H       27.73828         3.50516        -6.49502
|117>    H       26.99412         3.25526        -4.91641
|118>    H       28.58109         4.04195        -5.03626
|119>    H       19.58604        10.46758        -5.38678
|120>    H       17.05101        12.45616        -9.05501
|121>    H       17.80929        11.48584       -10.33045
|122>    H       18.49114        13.05213        -9.89678
|123>    H       22.85062        11.72510        -8.55327
|124>    H       25.39731        11.69835        -9.06291
|125> *
|126>
|127>                          ****END OF INPUT****

CARTESIAN COORDINATES (ANGSTROEM)
---------------------------------
  C     -0.661640    5.920380   -4.831730
  C      0.633760    6.111090   -5.150350
  C      1.528220    5.421570   -4.278710
  C      2.933510    5.413300   -4.305220
  C      3.671730    6.220400   -5.258260
  C      3.445310    7.518780   -5.610420
  C      4.361300    7.987240   -6.578240
  C      5.282720    7.064410   -6.977110
  S      5.030490    5.572300   -6.134540
  C      6.374590    7.207360   -7.973320
  Cl     4.304350    9.596840   -7.192110
  C      3.568100    4.608460   -3.365920
  C      2.874370    3.860200   -2.385340
  C      1.468460    3.897010   -2.334230
  C      0.832370    4.670820   -3.303320
  S     -0.890700    4.885500   -3.465200
  C      0.701710    3.192940   -1.325660
  C     -0.488430    2.542080   -1.478840
  C     -0.986710    2.019510   -0.265600
  C     -0.204860    2.270530    0.823320
  S      1.198370    3.165320    0.346510
  C     -0.418760    1.871580    2.237430
  Cl    -2.466270    1.141870   -0.183310
  C      3.765930    3.125280   -1.560800
  C      5.082130    3.310680   -1.855920
  S      5.287760    4.418680   -3.199730
  C      6.245980    2.721950   -1.227210
  C      6.098690    1.761310   -0.206220
  C      7.174890    1.168200    0.411560
  C      8.447020    1.548960   -0.001410
  C      8.594940    2.517600   -1.019030
  C      7.520560    3.110020   -1.642640
  O      9.922310    2.700440   -1.216220
  C     10.520240    1.850260   -0.332470
  N      9.696450    1.159250    0.395090
  C     11.961790    1.784300   -0.276620
  C     12.564910    0.845600    0.580660
  C     13.931320    0.724090    0.675510
  C     14.706930    1.573040   -0.109380
  C     14.090200    2.519080   -0.961090
  C     12.723110    2.643580   -1.067850
  O     15.075510    3.203680   -1.588850
  C     16.230260    2.658780   -1.111160
  N     16.060960    1.704280   -0.247180
  C     17.498870    3.159550   -1.585660
  C     18.680980    2.526120   -1.159470
  C     19.920180    2.942550   -1.585640
  C     19.968210    4.026870   -2.458080
  C     18.773300    4.663780   -2.870160
  C     17.528110    4.249800   -2.454650
  O     19.118080    5.677480   -3.698920
  C     20.476350    5.616050   -3.762730
  N     21.017230    4.668590   -3.055290
  C     21.173610    6.558560   -4.574530
  C     22.512530    6.593410   -4.827150
  C     22.887400    7.657850   -5.684210
  C     24.170500    7.973670   -6.172830
  C     25.335280    7.159970   -5.890490
  C     26.610830    7.579070   -5.639210
  C     27.513070    6.507500   -5.469710
  C     26.952900    5.269770   -5.600070
  S     25.261440    5.418510   -5.931300
  C     27.604370    3.939220   -5.503280
  Cl    29.181790    6.756080   -5.127030
  C     24.265280    9.104730   -6.979880
  C     23.152070    9.900120   -7.343750
  C     21.868080    9.572140   -6.875940
  C     21.774560    8.459830   -6.043080
  S     20.295960    7.844340   -5.358510
  C     20.680500   10.320160   -7.242600
  C     19.627290   10.657680   -6.442870
  C     18.604310   11.333720   -7.142970
  C     18.849220   11.508740   -8.473300
  S     20.391580   10.836530   -8.882190
  C     17.999470   12.164080   -9.499320
  Cl    17.169390   11.882150   -6.365070
  C     23.536730   10.986140   -8.184000
  C     24.855940   10.994740   -8.461380
  S     25.727270    9.701370   -7.717660
  H     -1.528060    6.317970   -5.322940
  H      0.960950    6.702440   -5.985300
  H      2.683940    8.137010   -5.171820
  H      6.211780    6.540290   -8.819670
  H      7.335380    6.954150   -7.527200
  H      6.409490    8.232100   -8.334880
  H     -0.984290    2.404250   -2.421310
  H     -1.427790    1.486690    2.359990
  H     -0.276550    2.721660    2.902050
  H      0.288630    1.095130    2.529210
  H      3.423460    2.475580   -0.778300
  H      5.104550    1.477560    0.099210
  H      7.047510    0.432590    1.188490
  H      7.657540    3.844510   -2.420570
  H     11.911230    0.217170    1.163950
  H     14.396740    0.004060    1.327740
  H     12.261040    3.363740   -1.722870
  H     18.579190    1.692320   -0.483580
  H     20.827270    2.457530   -1.265890
  H     16.623990    4.738020   -2.778880
  H     23.186640    5.876460   -4.399070
  H     26.900570    8.608340   -5.539900
  H     27.738280    3.505160   -6.495020
  H     26.994120    3.255260   -4.916410
  H     28.581090    4.041950   -5.036260
  H     19.586040   10.467580   -5.386780
  H     17.051010   12.456160   -9.055010
  H     17.809290   11.485840  -10.330450
  H     18.491140   13.052130   -9.896780
  H     22.850620   11.725100   -8.553270
  H     25.397310   11.698350   -9.062910

 Total Charge           Charge          ....    0
 Multiplicity           Mult            ....    1
 Number of Electrons    NEL             ....  638
 Basis Dimension        Dim             .... 1309

ORBITAL ENERGIES
----------------

  NO   OCC          E(Eh)            E(eV)
   0   2.0000    -101.583318     -2764.2226
   1   2.0000    -101.582471     -2764.1996
   2   2.0000    -101.580106     -2764.1352
   3   2.0000    -101.579352     -2764.1147
   4   2.0000     -88.958672     -2420.6885
   5   2.0000     -88.957933     -2420.6684
   6   2.0000     -88.957354     -2420.6527
   7   2.0000     -88.953517     -2420.5482
   8   2.0000     -88.952536     -2420.5216
   9   2.0000     -88.952011     -2420.5073
  10   2.0000     -88.944717     -2420.3088
  11   2.0000     -88.944606     -2420.3058
  12   2.0000     -19.303962      -525.2875
  13   2.0000     -19.299088      -525.1549
  14   2.0000     -19.295184      -525.0487
  15   2.0000     -14.410347      -392.1255
  16   2.0000     -14.405581      -391.9958
  17   2.0000     -14.402041      -391.8994
  18   2.0000     -10.380069      -282.4560
  19   2.0000     -10.372070      -282.2384
  20   2.0000     -10.367269      -282.1077
  21   2.0000     -10.338041      -281.3124
  22   2.0000     -10.334327      -281.2113
  23   2.0000     -10.330375      -281.1038
  24   2.0000     -10.318522      -280.7812
  25   2.0000     -10.317315      -280.7484
  26   2.0000     -10.314095      -280.6608
  27   2.0000     -10.313727      -280.6508
  28   2.0000     -10.312629      -280.6209
  29   2.0000     -10.309518      -280.5363
  30   2.0000     -10.308486      -280.5082
  31   2.0000     -10.307483      -280.4809
  32   2.0000     -10.306454      -280.4529
  33   2.0000     -10.306147      -280.4445
  34   2.0000     -10.304323      -280.3949
  35   2.0000     -10.304235      -280.3925
  36   2.0000     -10.303465      -280.3715
  37   2.0000     -10.302135      -280.3354
  38   2.0000     -10.301935      -280.3299
  39   2.0000     -10.301393      -280.3152
  40   2.0000     -10.301080      -280.3066
  41   2.0000     -10.299872      -280.2738
  42   2.0000     -10.299656      -280.2679
  43   2.0000     -10.299296      -280.2581
  44   2.0000     -10.299065      -280.2518
  45   2.0000     -10.298695      -280.2417
  46   2.0000     -10.298203      -280.2283
  47   2.0000     -10.297964      -280.2218
  48   2.0000     -10.294981      -280.1407
  49   2.0000     -10.292375      -280.0698
  50   2.0000     -10.291780      -280.0536
  51   2.0000     -10.291744      -280.0526
  52   2.0000     -10.291613      -280.0490
  53   2.0000     -10.291500      -280.0460
  54   2.0000     -10.291468      -280.0451
  55   2.0000     -10.290536      -280.0197
  56   2.0000     -10.289447      -279.9901
  57   2.0000     -10.288066      -279.9525
  58   2.0000     -10.285529      -279.8835
  59   2.0000     -10.282080      -279.7896
  60   2.0000     -10.281369      -279.7703
  61   2.0000     -10.280857      -279.7563
  62   2.0000     -10.280010      -279.7333
  63   2.0000     -10.279318      -279.7145
  64   2.0000     -10.279284      -279.7135
  65   2.0000     -10.278844      -279.7016
  66   2.0000     -10.277246      -279.6581
  67   2.0000     -10.276814      -279.6463
  68   2.0000     -10.275797      -279.6187
  69   2.0000     -10.275753      -279.6174
  70   2.0000     -10.275269      -279.6043
  71   2.0000     -10.274632      -279.5869
  72   2.0000     -10.274294      -279.5778
  73   2.0000     -10.273681      -279.5611
  74   2.0000     -10.273646      -279.5601
  75   2.0000     -10.273351      -279.5521
  76   2.0000     -10.272990      -279.5423
  77   2.0000     -10.268375      -279.4167
  78   2.0000     -10.267835      -279.4020
  79   2.0000      -9.538106      -259.5451
  80   2.0000      -9.537259      -259.5220
  81   2.0000      -9.534855      -259.4566
  82   2.0000      -9.534114      -259.4364
  83   2.0000      -8.054257      -219.1675
  84   2.0000      -8.053501      -219.1469
  85   2.0000      -8.052433      -219.1178
  86   2.0000      -8.049095      -219.0270
  87   2.0000      -8.048366      -219.0072
  88   2.0000      -8.047713      -218.9894
  89   2.0000      -8.040233      -218.7859
  90   2.0000      -8.040030      -218.7803
  91   2.0000      -7.308336      -198.8699
  92   2.0000      -7.307501      -198.8472
  93   2.0000      -7.305090      -198.7816
  94   2.0000      -7.304353      -198.7616
  95   2.0000      -7.298189      -198.5938
  96   2.0000      -7.298097      -198.5913
  97   2.0000      -7.297359      -198.5712
  98   2.0000      -7.297218      -198.5674
  99   2.0000      -7.294934      -198.5052
 100   2.0000      -7.294870      -198.5035
 101   2.0000      -7.294218      -198.4858
 102   2.0000      -7.294091      -198.4823
 103   2.0000      -6.023585      -163.9101
 104   2.0000      -6.022813      -163.8891
 105   2.0000      -6.022058      -163.8685
 106   2.0000      -6.019389      -163.7959
 107   2.0000      -6.018636      -163.7754
 108   2.0000      -6.018416      -163.7694
 109   2.0000      -6.017903      -163.7555
 110   2.0000      -6.017656      -163.7488
 111   2.0000      -6.017399      -163.7418
 112   2.0000      -6.016346      -163.7131
 113   2.0000      -6.015586      -163.6924
 114   2.0000      -6.014244      -163.6559
 115   2.0000      -6.013815      -163.6442
 116   2.0000      -6.013467      -163.6348
 117   2.0000      -6.012973      -163.6213
 118   2.0000      -6.011151      -163.5717
 119   2.0000      -6.010431      -163.5521
 120   2.0000      -6.009942      -163.5388
 121   2.0000      -6.009605      -163.5297
 122   2.0000      -6.009233      -163.5195
 123   2.0000      -6.005528      -163.4187
 124   2.0000      -6.005495      -163.4178
 125   2.0000      -6.001763      -163.3163
 126   2.0000      -6.001467      -163.3082
 127   2.0000      -1.233635       -33.5689
 128   2.0000      -1.228013       -33.4159
 129   2.0000      -1.223653       -33.2973
 130   2.0000      -1.024557       -27.8796
 131   2.0000      -1.019792       -27.7499
 132   2.0000      -1.015571       -27.6351
 133   2.0000      -1.014182       -27.5973
 134   2.0000      -1.006771       -27.3956
 135   2.0000      -1.001982       -27.2653
 136   2.0000      -0.997237       -27.1362
 137   2.0000      -0.995678       -27.0938
 138   2.0000      -0.989741       -26.9322
 139   2.0000      -0.981498       -26.7079
 140   2.0000      -0.974223       -26.5100
 141   2.0000      -0.967484       -26.3266
 142   2.0000      -0.956891       -26.0383
 143   2.0000      -0.945945       -25.7405
 144   2.0000      -0.944495       -25.7010
 145   2.0000      -0.940118       -25.5819
 146   2.0000      -0.939798       -25.5732
 147   2.0000      -0.934533       -25.4299
 148   2.0000      -0.915385       -24.9089
 149   2.0000      -0.903656       -24.5897
 150   2.0000      -0.900519       -24.5044
 151   2.0000      -0.893485       -24.3130
 152   2.0000      -0.883817       -24.0499
 153   2.0000      -0.865523       -23.5521
 154   2.0000      -0.861085       -23.4313
 155   2.0000      -0.856344       -23.3023
 156   2.0000      -0.856152       -23.2971
 157   2.0000      -0.849630       -23.1196
 158   2.0000      -0.846795       -23.0425
 159   2.0000      -0.845606       -23.0101
 160   2.0000      -0.842314       -22.9205
 161   2.0000      -0.838701       -22.8222
 162   2.0000      -0.832922       -22.6650
 163   2.0000      -0.826685       -22.4952
 164   2.0000      -0.813080       -22.1250
 165   2.0000      -0.808183       -21.9918
 166   2.0000      -0.807759       -21.9802
 167   2.0000      -0.806297       -21.9405
 168   2.0000      -0.801256       -21.8033
 169   2.0000      -0.796607       -21.6768
 170   2.0000      -0.789967       -21.4961
 171   2.0000      -0.785627       -21.3780
 172   2.0000      -0.781996       -21.2792
 173   2.0000      -0.776213       -21.1218
 174   2.0000      -0.762717       -20.7546
 175   2.0000      -0.746622       -20.3166
 176   2.0000      -0.743960       -20.2442
 177   2.0000      -0.742469       -20.2036
 178   2.0000      -0.737007       -20.0550
 179   2.0000      -0.721955       -19.6454
 180   2.0000      -0.711214       -19.3531
 181   2.0000      -0.708739       -19.2858
 182   2.0000      -0.699946       -19.0465
 183   2.0000      -0.692452       -18.8426
 184   2.0000      -0.691206       -18.8087
 185   2.0000      -0.688530       -18.7358
 186   2.0000      -0.681259       -18.5380
 187   2.0000      -0.671479       -18.2719
 188   2.0000      -0.661980       -18.0134
 189   2.0000      -0.658184       -17.9101
 190   2.0000      -0.652349       -17.7513
 191   2.0000      -0.651543       -17.7294
 192   2.0000      -0.645810       -17.5734
 193   2.0000      -0.642277       -17.4773
 194   2.0000      -0.635851       -17.3024
 195   2.0000      -0.632335       -17.2067
 196   2.0000      -0.629406       -17.1270
 197   2.0000      -0.623816       -16.9749
 198   2.0000      -0.620430       -16.8828
 199   2.0000      -0.612663       -16.6714
 200   2.0000      -0.609763       -16.5925
 201   2.0000      -0.607399       -16.5282
 202   2.0000      -0.603287       -16.4163
 203   2.0000      -0.602585       -16.3972
 204   2.0000      -0.600609       -16.3434
 205   2.0000      -0.596407       -16.2291
 206   2.0000      -0.590948       -16.0805
 207   2.0000      -0.588043       -16.0015
 208   2.0000      -0.583516       -15.8783
 209   2.0000      -0.582779       -15.8582
 210   2.0000      -0.579103       -15.7582
 211   2.0000      -0.577385       -15.7114
 212   2.0000      -0.577109       -15.7039
 213   2.0000      -0.571776       -15.5588
 214   2.0000      -0.571639       -15.5551
 215   2.0000      -0.570489       -15.5238
 216   2.0000      -0.556566       -15.1449
 217   2.0000      -0.546542       -14.8722
 218   2.0000      -0.543802       -14.7976
 219   2.0000      -0.542322       -14.7573
 220   2.0000      -0.536732       -14.6052
 221   2.0000      -0.535026       -14.5588
 222   2.0000      -0.532715       -14.4959
 223   2.0000      -0.527580       -14.3562
 224   2.0000      -0.524900       -14.2833
 225   2.0000      -0.522151       -14.2085
 226   2.0000      -0.521415       -14.1884
 227   2.0000      -0.519215       -14.1286
 228   2.0000      -0.518590       -14.1115
 229   2.0000      -0.517368       -14.0783
 230   2.0000      -0.514816       -14.0088
 231   2.0000      -0.514675       -14.0050
 232   2.0000      -0.512054       -13.9337
 233   2.0000      -0.511809       -13.9270
 234   2.0000      -0.511010       -13.9053
 235   2.0000      -0.506503       -13.7826
 236   2.0000      -0.503692       -13.7062
 237   2.0000      -0.502544       -13.6749
 238   2.0000      -0.501549       -13.6478
 239   2.0000      -0.500974       -13.6322
 240   2.0000      -0.497085       -13.5264
 241   2.0000      -0.493922       -13.4403
 242   2.0000      -0.491411       -13.3720
 243   2.0000      -0.490206       -13.3392
 244   2.0000      -0.480999       -13.0886
 245   2.0000      -0.478905       -13.0317
 246   2.0000      -0.475577       -12.9411
 247   2.0000      -0.474994       -12.9252
 248   2.0000      -0.473805       -12.8929
 249   2.0000      -0.472998       -12.8709
 250   2.0000      -0.470738       -12.8094
 251   2.0000      -0.469949       -12.7879
 252   2.0000      -0.465603       -12.6697
 253   2.0000      -0.464537       -12.6407
 254   2.0000      -0.463894       -12.6232
 255   2.0000      -0.462616       -12.5884
 256   2.0000      -0.461186       -12.5495
 257   2.0000      -0.460711       -12.5366
 258   2.0000      -0.460123       -12.5206
 259   2.0000      -0.459064       -12.4918
 260   2.0000      -0.457554       -12.4507
 261   2.0000      -0.454544       -12.3688
 262   2.0000      -0.453277       -12.3343
 263   2.0000      -0.450999       -12.2723
 264   2.0000      -0.450027       -12.2458
 265   2.0000      -0.448583       -12.2066
 266   2.0000      -0.444667       -12.1000
 267   2.0000      -0.443402       -12.0656
 268   2.0000      -0.439955       -11.9718
 269   2.0000      -0.437496       -11.9049
 270   2.0000      -0.436145       -11.8681
 271   2.0000      -0.434155       -11.8140
 272   2.0000      -0.429551       -11.6887
 273   2.0000      -0.426947       -11.6178
 274   2.0000      -0.425156       -11.5691
 275   2.0000      -0.422695       -11.5021
 276   2.0000      -0.421996       -11.4831
 277   2.0000      -0.420572       -11.4443
 278   2.0000      -0.419966       -11.4279
 279   2.0000      -0.416825       -11.3424
 280   2.0000      -0.414160       -11.2699
 281   2.0000      -0.413435       -11.2501
 282   2.0000      -0.411949       -11.2097
 283   2.0000      -0.409978       -11.1561
 284   2.0000      -0.407448       -11.0872
 285   2.0000      -0.406511       -11.0617
 286   2.0000      -0.402010       -10.9393
 287   2.0000      -0.391746       -10.6600
 288   2.0000      -0.385640       -10.4938
 289   2.0000      -0.380885       -10.3644
 290   2.0000      -0.378437       -10.2978
 291   2.0000      -0.377162       -10.2631
 292   2.0000      -0.376433       -10.2433
 293   2.0000      -0.375317       -10.2129
 294   2.0000      -0.372803       -10.1445
 295   2.0000      -0.369419       -10.0524
 296   2.0000      -0.369174       -10.0457
 297   2.0000      -0.364372        -9.9151
 298   2.0000      -0.360152        -9.8002
 299   2.0000      -0.345299        -9.3961
 300   2.0000      -0.329337        -8.9617
 301   2.0000      -0.324017        -8.8169
 302   2.0000      -0.322473        -8.7749
 303   2.0000      -0.318983        -8.6800
 304   2.0000      -0.317486        -8.6392
 305   2.0000      -0.316578        -8.6145
 306   2.0000      -0.314571        -8.5599
 307   2.0000      -0.313950        -8.5430
 308   2.0000      -0.311148        -8.4668
 309   2.0000      -0.308887        -8.4052
 310   2.0000      -0.301285        -8.1984
 311   2.0000      -0.295614        -8.0441
 312   2.0000      -0.294852        -8.0233
 313   2.0000      -0.292964        -7.9720
 314   2.0000      -0.288499        -7.8505
 315   2.0000      -0.275589        -7.4992
 316   2.0000      -0.259099        -7.0504
 317   2.0000      -0.247252        -6.7281
 318   2.0000      -0.238774        -6.4974
 319   0.0000      -0.060503        -1.6464
 320   0.0000      -0.043921        -1.1951
 321   0.0000      -0.029132        -0.7927
 322   0.0000      -0.015152        -0.4123
 323   0.0000      -0.002698        -0.0734

MULLIKEN ATOMIC CHARGES
-----------------------
   0 C :   -0.043070
   1 C :   -0.000606
   2 C :    0.059099
   3 C :    0.131361
   4 C :   -0.211584
   5 C :    0.035136
   6 C :    0.078965
   7 C :   -0.264990
   8 S :    0.143781
   9 C :    0.124815
  10 Cl:   -0.093741
  11 C :   -0.128856
  12 C :    0.085821
  13 C :    0.134512
  14 C :   -0.158452
  15 S :    0.104264
  16 C :   -0.210942
  17 C :    0.035646
  18 C :    0.086557
  19 C :   -0.267933
  20 S :    0.133483
  21 C :    0.122739
  22 Cl:   -0.092244
  23 C :   -0.074016
  24 C :   -0.027543
  25 S :    0.088346
  26 C :    0.149681
  27 C :   -0.029348
  28 C :   -0.045940
  29 C :    0.028295
  30 C :    0.240548
  31 C :   -0.170896
  32 O :   -0.204838
  33 C :    0.113808
  34 N :   -0.039226
  35 C :    0.018420
  36 C :    0.006435
  37 C :   -0.037480
  38 C :    0.035428
  39 C :    0.245072
  40 C :   -0.123786
  41 O :   -0.202577
  42 C :    0.115798
  43 N :   -0.042729
  44 C :    0.014452
  45 C :    0.006010
  46 C :   -0.037686
  47 C :    0.037292
  48 C :    0.249981
  49 C :   -0.122657
  50 O :   -0.197909
  51 C :    0.143100
  52 N :   -0.042123
  53 C :   -0.098108
  54 C :   -0.052138
  55 C :    0.069742
  56 C :    0.144473
  57 C :   -0.213475
  58 C :    0.034783
  59 C :    0.086975
  60 C :   -0.267871
  61 S :    0.142344
  62 C :    0.123265
  63 Cl:   -0.089271
  64 C :   -0.158790
  65 C :    0.058147
  66 C :    0.139707
  67 C :   -0.130873
  68 S :    0.153730
  69 C :   -0.214592
  70 C :    0.035287
  71 C :    0.081383
  72 C :   -0.264816
  73 S :    0.138069
  74 C :    0.123127
  75 Cl:   -0.088882
  76 C :    0.000514
  77 C :   -0.040516
  78 S :    0.111059
  79 H :    0.025699
  80 H :   -0.010422
  81 H :   -0.011567
  82 H :    0.035796
  83 H :    0.031287
  84 H :    0.022525
  85 H :   -0.008080
  86 H :    0.024265
  87 H :    0.030357
  88 H :    0.037276
  89 H :   -0.019568
  90 H :   -0.023786
  91 H :   -0.021253
  92 H :   -0.003699
  93 H :    0.002568
  94 H :   -0.017472
  95 H :   -0.006179
  96 H :    0.005300
  97 H :   -0.016657
  98 H :   -0.002527
  99 H :    0.005745
 100 H :   -0.006541
 101 H :    0.041515
 102 H :    0.028748
 103 H :    0.026085
 104 H :   -0.004397
 105 H :    0.024893
 106 H :    0.034005
 107 H :    0.035333
 108 H :   -0.009618
 109 H :    0.029424
Sum of atomic charges:   -0.0000000

LOEWDIN ATOMIC CHARGES
----------------------
   0 C :   -0.162266
   1 C :   -0.063305
   2 C :   -0.039230
   3 C :   -0.056448
   4 C :   -0.172407
   5 C :   -0.068736
   6 C :   -0.178677
   7 C :   -0.199879
   8 S :    0.435955
   9 C :   -0.061348
  10 Cl:    0.124017
  11 C :   -0.151071
  12 C :   -0.040685
  13 C :   -0.054996
  14 C :   -0.147306
  15 S :    0.412428
  16 C :   -0.170066
  17 C :   -0.075844
  18 C :   -0.177343
  19 C :   -0.200353
  20 S :    0.444885
  21 C :   -0.061286
  22 Cl:    0.126046
  23 C :   -0.067846
  24 C :   -0.139267
  25 S :    0.398925
  26 C :   -0.036737
  27 C :   -0.015754
  28 C :   -0.018689
  29 C :   -0.029881
  30 C :    0.032255
  31 C :   -0.045479
  32 O :   -0.009249
  33 C :    0.076099
  34 N :   -0.106432
  35 C :   -0.054058
  36 C :    0.004538
  37 C :   -0.019978
  38 C :   -0.020959
  39 C :    0.028780
  40 C :   -0.022693
  41 O :   -0.007198
  42 C :    0.079195
  43 N :   -0.106935
  44 C :   -0.054836
  45 C :    0.005848
  46 C :   -0.019365
  47 C :   -0.020138
  48 C :    0.029606
  49 C :   -0.020092
  50 O :   -0.008399
  51 C :    0.054810
  52 N :   -0.103928
  53 C :   -0.190334
  54 C :   -0.021665
  55 C :   -0.047350
  56 C :   -0.046779
  57 C :   -0.174516
  58 C :   -0.073629
  59 C :   -0.178050
  60 C :   -0.197364
  61 S :    0.452049
  62 C :   -0.060667
  63 Cl:    0.127915
  64 C :   -0.147614
  65 C :   -0.038584
  66 C :   -0.056332
  67 C :   -0.139589
  68 S :    0.436294
  69 C :   -0.173192
  70 C :   -0.075751
  71 C :   -0.177446
  72 C :   -0.198637
  73 S :    0.445734
  74 C :   -0.061252
  75 Cl:    0.128603
  76 C :   -0.070766
  77 C :   -0.156774
  78 S :    0.418507
  79 H :    0.025049
  80 H :    0.031785
  81 H :    0.033682
  82 H :    0.039150
  83 H :    0.037836
  84 H :    0.033273
  85 H :    0.026306
  86 H :    0.034090
  87 H :    0.037341
  88 H :    0.039504
  89 H :    0.014320
  90 H :    0.029463
  91 H :    0.036223
  92 H :    0.028223
  93 H :    0.037519
  94 H :    0.037543
  95 H :    0.038967
  96 H :    0.038348
  97 H :    0.038072
  98 H :    0.040353
  99 H :    0.028205
 100 H :    0.026877
 101 H :    0.041492
 102 H :    0.037258
 103 H :    0.034818
 104 H :    0.027848
 105 H :    0.034137
 106 H :    0.038839
 107 H :    0.039156
 108 H :    0.020596
 109 H :    0.026690

  Mayer bond orders larger than 0.100000
B(  0-C ,  1-C ) :   1.6384 B(  0-C , 15-S ) :   1.1044 B(  0-C , 79-H ) :   0.9670
B(  1-C ,  2-C ) :   1.1797 B(  1-C , 80-H ) :   0.9901 B(  2-C ,  3-C ) :   1.3375
B(  2-C , 14-C ) :   1.2798 B(  3-C ,  4-C ) :   0.9737 B(  3-C , 11-C ) :   1.3989
B(  4-C ,  5-C ) :   1.5558 B(  4-C ,  8-S ) :   1.1370 B(  5-C ,  6-C ) :   1.2113
B(  5-C , 81-H ) :   1.0098 B(  6-C ,  7-C ) :   1.6067 B(  6-C , 10-Cl) :   1.0016
B(  7-C ,  8-S ) :   1.1268 B(  7-C ,  9-C ) :   1.0830 B(  9-C , 82-H ) :   0.9492
B(  9-C , 83-H ) :   0.9480 B(  9-C , 84-H ) :   0.9443 B( 11-C , 12-C ) :   1.2772
B( 11-C , 25-S ) :   1.0568 B( 12-C , 13-C ) :   1.3151 B( 12-C , 23-C ) :   1.1605
B( 13-C , 14-C ) :   1.4216 B( 13-C , 16-C ) :   0.9820 B( 14-C , 15-S ) :   1.0695
B( 16-C , 17-C ) :   1.5556 B( 16-C , 20-S ) :   1.1297 B( 17-C , 18-C ) :   1.2186
B( 17-C , 85-H ) :   0.9957 B( 18-C , 19-C ) :   1.6064 B( 18-C , 22-Cl) :   1.0050
B( 19-C , 20-S ) :   1.1281 B( 19-C , 21-C ) :   1.0820 B( 21-C , 86-H ) :   0.9445
B( 21-C , 87-H ) :   0.9484 B( 21-C , 88-H ) :   0.9492 B( 23-C , 24-C ) :   1.6185
B( 23-C , 89-H ) :   0.9721 B( 24-C , 25-S ) :   1.0665 B( 24-C , 26-C ) :   1.0695
B( 26-C , 27-C ) :   1.3221 B( 26-C , 31-C ) :   1.3111 B( 27-C , 28-C ) :   1.4050
B( 27-C , 90-H ) :   0.9904 B( 28-C , 29-C ) :   1.2928 B( 28-C , 91-H ) :   1.0180
B( 29-C , 30-C ) :   1.2785 B( 29-C , 34-N ) :   1.2908 B( 30-C , 31-C ) :   1.3435
B( 30-C , 32-O ) :   1.0993 B( 31-C , 92-H ) :   1.0068 B( 32-O , 33-C ) :   1.1583
B( 33-C , 34-N ) :   1.7698 B( 33-C , 35-C ) :   1.0271 B( 35-C , 36-C ) :   1.3424
B( 35-C , 40-C ) :   1.3123 B( 36-C , 37-C ) :   1.3870 B( 36-C , 93-H ) :   0.9878
B( 37-C , 38-C ) :   1.2869 B( 37-C , 94-H ) :   1.0217 B( 38-C , 39-C ) :   1.2700
B( 38-C , 43-N ) :   1.2919 B( 39-C , 40-C ) :   1.3125 B( 39-C , 41-O ) :   1.0946
B( 40-C , 95-H ) :   1.0250 B( 41-O , 42-C ) :   1.1648 B( 42-C , 43-N ) :   1.7651
B( 42-C , 44-C ) :   1.0271 B( 44-C , 45-C ) :   1.3409 B( 44-C , 49-C ) :   1.3132
B( 45-C , 46-C ) :   1.3853 B( 45-C , 96-H ) :   0.9883 B( 46-C , 47-C ) :   1.2830
B( 46-C , 97-H ) :   1.0229 B( 47-C , 48-C ) :   1.2658 B( 47-C , 52-N ) :   1.2973
B( 48-C , 49-C ) :   1.3119 B( 48-C , 50-O ) :   1.0932 B( 49-C , 98-H ) :   1.0251
B( 50-O , 51-C ) :   1.1901 B( 51-C , 52-N ) :   1.7741 B( 51-C , 53-C ) :   1.0365
B( 53-C , 54-C ) :   1.6129 B( 53-C , 68-S ) :   1.0603 B( 54-C , 55-C ) :   1.1563
B( 54-C , 99-H ) :   0.9873 B( 55-C , 56-C ) :   1.2932 B( 55-C , 67-C ) :   1.2753
B( 56-C , 57-C ) :   0.9921 B( 56-C , 64-C ) :   1.4289 B( 57-C , 58-C ) :   1.5480
B( 57-C , 61-S ) :   1.1315 B( 58-C , 59-C ) :   1.2251 B( 58-C ,100-H ) :   0.9959
B( 59-C , 60-C ) :   1.5980 B( 59-C , 63-Cl) :   1.0096 B( 60-C , 61-S ) :   1.1343
B( 60-C , 62-C ) :   1.0853 B( 62-C ,101-H ) :   0.9492 B( 62-C ,102-H ) :   0.9467
B( 62-C ,103-H ) :   0.9444 B( 64-C , 65-C ) :   1.2693 B( 64-C , 78-S ) :   1.0729
B( 65-C , 66-C ) :   1.3229 B( 65-C , 76-C ) :   1.1829 B( 66-C , 67-C ) :   1.4097
B( 66-C , 69-C ) :   0.9807 B( 67-C , 68-S ) :   1.0633 B( 69-C , 70-C ) :   1.5555
B( 69-C , 73-S ) :   1.1328 B( 70-C , 71-C ) :   1.2201 B( 70-C ,104-H ) :   0.9963
B( 71-C , 72-C ) :   1.6076 B( 71-C , 75-Cl) :   1.0061 B( 72-C , 73-S ) :   1.1281
B( 72-C , 74-C ) :   1.0820 B( 74-C ,105-H ) :   0.9442 B( 74-C ,106-H ) :   0.9488
B( 74-C ,107-H ) :   0.9485 B( 76-C , 77-C ) :   1.6481 B( 76-C ,108-H ) :   0.9775
B( 77-C , 78-S ) :   1.1095 B( 77-C ,109-H ) :   0.9659

-----------------------------------------------------------------------------
         ABSORPTION SPECTRUM VIA TRANSITION ELECTRIC DIPOLE MOMENTS
-----------------------------------------------------------------------------
State   Energy  Wavelength   fosc         T2         TX        TY        TZ
        (cm-1)    (nm)                  (au**2)     (au)      (au)      (au)
-----------------------------------------------------------------------------
   0   25229.2    396.4   1.446867457  18.87997  -4.21090  -0.47342   0.96132
   1   26952.4    371.0   1.408591190  17.20531   3.96180   0.84331  -0.89346
   2   28711.5    348.3   0.354819639   4.06843   1.67370   1.05093  -0.40335
   3   30639.3    326.4   0.236808167   2.54445  -0.89387   0.97013  -0.89682
   4   31123.9    321.3   0.504251418   5.33371   0.23833   1.42905  -1.79853
   5   31887.5    313.6   1.231081617  12.70991   1.03675  -2.64017   2.15976
   6   33165.8    301.5   0.346700825   3.44144  -1.39678   0.81752  -0.90670
   7   34704.8    288.1   0.101255445   0.96052   0.21123   0.76409  -0.57626
   8   34985.4    285.8   0.077610889   0.73032  -0.82084   0.17343   0.16267
   9   35975.1    278.0   0.049899301   0.45663  -0.38227   0.55086  -0.08400
  10   36110.1    276.9   0.011526716   0.10509   0.23608  -0.15410   0.16002
  11   36739.9    272.2   0.138800712   1.24374   0.20989  -0.76818   0.78076
  12   37059.3    269.8   0.191238790   1.69885  -1.17288  -0.36839   0.43298
  13   37728.3    265.1   0.050962976   0.44470  -0.19316  -0.40976   0.48937
  14   38064.7    262.7   0.021957521   0.18990   0.08609   0.06400  -0.42237
  15   38429.1    260.2   0.143783830   1.23176   0.60787   0.55123  -0.74726
  16   39143.6    255.5   0.131533154   1.10624  -0.73738   0.43005  -0.61447
  17   39719.5    251.8   0.071179080   0.58996   0.34214   0.49700  -0.47529
  18   39958.6    250.3   0.046561912   0.38362   0.54117   0.09610   0.28551
  19   40311.6    248.1   0.075087592   0.61322   0.51333  -0.23420   0.54300

FINAL SINGLE POINT ENERGY     -7754.577942041304

DIPOLE MOMENT
-------------
                                X             Y             Z
Electronic contribution:      4.33202      16.62698      -6.38639
Nuclear contribution   :     -3.50135     -16.03849       5.24584
                        -----------------------------------------
Total Dipole Moment    :      0.83067       0.58849      -1.14054
                        -----------------------------------------
Magnitude (a.u.)       :      1.52878
Magnitude (Debye)      :      3.88586

Rotational constants in cm-1:     0.000958     0.000138     0.000122
Rotational constants in MHz :    28.712818     4.139963     3.662948

                             ****ORCA TERMINATED NORMALLY****
TOTAL RUN TIME: 0 days 0 hours 13 minutes 43 seconds 401 msec
