                         Program Version 4.2.0 -  RELEASE  -
|  1> # ORCA input file
|  2> # SCF done       -198.755406673017          0.000366244903
|  3> ! CAM-B3LYP def2-SVP def2/J RIJCOSX Grid4 TightSCF
|  4> %maxcore 5000
|  5> %tddft
|  6>     Mode sTDDFT
|  7>     Ethresh 5.0
|  8>     maxcore 5000
|  9> end
| 10>
| 11> %pal
| 12>   nprocs 6
| 13>   end
| 14> * xyz 0 1
| 15>    C       -2.56787        -2.10801         4.45788
| 16>    C       -2.13145        -1.74090         3.23575
| 17>    C       -0.71181        -1.63908         3.15972
| 18>    C        0.08034        -1.29683         2.04953
| 19>    C       -0.47491        -1.03360         0.73578
| 20>    C       -0.08372        -0.07919        -0.15797
| 21>    C       -0.79857        -0.14270        -1.37365
| 22>    C       -1.72717        -1.13958        -1.43359
| 23>    S       -1.73450        -2.02680         0.05353
| 24>    C       -2.64201        -1.49922        -2.54637
| 25>   Cl       -0.50627         0.95868        -2.66558
| 26>    C        1.45527        -1.23356         2.25957
| 27>    C        2.06133        -1.52019         3.50720
| 28>    C        1.27112        -1.90232         4.61076
| 29>    C       -0.10446        -1.92551         4.40697
| 30>    S       -1.29869        -2.34983         5.60404
| 31>    C        1.88185        -2.27470         5.86967
| 32>    C        3.00302        -3.02999         6.06609
| 33>    C        3.31420        -3.19722         7.43239
| 34>    C        2.45195        -2.57511         8.28809
| 35>    S        1.20972        -1.76561         7.39478
| 36>    C        2.47953        -2.53590         9.77178
| 37>   Cl        4.67340        -4.11483         7.95723
| 38>    C        3.46634        -1.36759         3.45635
| 39>    C        3.93565        -1.02303         2.21926
| 40>    S        2.64560        -0.84330         1.05064
| 41>    C        5.31047        -0.87372         1.84427
| 42>    C        5.70954        -0.48746         0.57053
| 43>    O        4.72776        -0.09132        -0.31616
| 44>    C        4.48673         1.30649        -0.30006
| 45>    C        7.07418        -0.47612         0.14205
| 46>    O        7.45452        -0.15302        -1.11369
| 47>    C        6.60847        -0.38565        -2.23036
| 48>    C        8.11046        -0.74077         1.03802
| 49>    C        7.73453        -1.01190         2.37311
| 50>    C        6.35647        -1.13042         2.76999
| 51>    N        6.34759        -1.45490         4.04714
| 52>    O        7.62131        -1.53415         4.42256
| 53>    N        8.47287        -1.27544         3.43409
| 54>    C        9.51344        -0.73837         0.69749
| 55>    S       10.66118        -0.10108         1.82226
| 56>    C       12.00198        -0.48012         0.78512
| 57>    C       11.55443        -1.08146        -0.38247
| 58>    C       10.15337        -1.23198        -0.42467
| 59>    S        9.25721        -2.16942        -1.60926
| 60>    C       10.28425        -2.42508        -3.01547
| 61>    O        9.83935        -3.08959        -3.91339
| 62>    C       11.67114        -1.83809        -3.13504
| 63>    O       12.19674        -1.74269        -4.20860
| 64>    S       12.65105        -1.45418        -1.70631
| 65>    C       13.31277        -0.14979         1.24281
| 66>    C       14.48200        -0.57815         0.73683
| 67>    C       15.75696        -0.17408         1.29496
| 68>    N       15.76951         0.72341         2.28605
| 69>    C       16.95012         1.07395         2.75908
| 70>    C       18.13635         0.54875         2.27106
| 71>    C       18.02804        -0.39567         1.24198
| 72>    N       16.83374        -0.74056         0.76362
| 73>    C       19.20842        -1.02420         0.67678
| 74>    C       19.10751        -2.01251        -0.22516
| 75>    C       20.12846        -2.76703        -0.88648
| 76>    N       19.81529        -3.80914        -1.61271
| 77>    C       20.95794        -4.30091        -2.14399
| 78>    C       22.01313        -3.52503        -1.77806
| 79>    N       21.50576        -2.52871        -0.96161
| 80>    C       22.30125        -1.55860        -0.35117
| 81>    O       22.16334        -1.17388         0.77691
| 82>    N       23.31160        -1.06883        -1.17672
| 83>    C       23.38336        -1.01444        -2.55530
| 84>    N       24.42961        -0.37926        -2.95645
| 85>    C       25.09965         0.01468        -1.82881
| 86>    C       24.42295        -0.37994        -0.72271
| 87>    H       -3.58136        -2.25286         4.77718
| 88>    H       -2.78838        -1.53845         2.41068
| 89>    H        0.66044         0.66774         0.04495
| 90>    H       -2.52787        -0.78664        -3.35948
| 91>    H       -3.67807        -1.49184        -2.20998
| 92>    H       -2.41822        -2.49844        -2.91961
| 93>    H        3.56743        -3.48913         5.27618
| 94>    H        3.31481        -3.12765        10.13767
| 95>    H        1.55328        -2.93576        10.18270
| 96>    H        2.58902        -1.51168        10.12706
| 97>    H        4.11863        -1.48780         4.30022
| 98>    H        3.69569         1.47949        -1.02658
| 99>    H        5.38233         1.87000        -0.58088
|100>    H        4.15488         1.63952         0.68821
|101>    H        5.94613         0.46029        -2.41885
|102>    H        6.01688        -1.29238        -2.10525
|103>    H        7.28105        -0.50512        -3.08006
|104>    H       13.34940         0.49401         2.11204
|105>    H       14.55082        -1.26257        -0.09317
|106>    H       16.93892         1.80383         3.55944
|107>    H       19.09533         0.84267         2.66519
|108>    H       20.15358        -0.66629         1.05310
|109>    H       18.11452        -2.33923        -0.50640
|110>    H       20.95072        -5.17784        -2.75916
|111>    H       23.06108        -3.61498        -1.97818
|112>    H       22.63118        -1.42566        -3.19810
|113>    H       26.01926         0.55816        -1.90222
|114>    H       24.60948        -0.26375         0.32403
|115> *
|116>
|117>                          ****END OF INPUT****

CARTESIAN COORDINATES (ANGSTROEM)
---------------------------------
  C     -2.567870   -2.108010    4.457880
  C     -2.131450   -1.740900    3.235750
  C     -0.711810   -1.639080    3.159720
  C      0.080340   -1.296830    2.049530
  C     -0.474910   -1.033600    0.735780
  C     -0.083720   -0.079190   -0.157970
  C     -0.798570   -0.142700   -1.373650
  C     -1.727170   -1.139580   -1.433590
  S     -1.734500   -2.026800    0.053530
  C     -2.642010   -1.499220   -2.546370
  Cl    -0.506270    0.958680   -2.665580
  C      1.455270   -1.233560    2.259570
  C      2.061330   -1.520190    3.507200
  C      1.271120   -1.902320    4.610760
  C     -0.104460   -1.925510    4.406970
  S     -1.298690   -2.349830    5.604040
  C      1.881850   -2.274700    5.869670
  C      3.003020   -3.029990    6.066090
  C      3.314200   -3.197220    7.432390
  C      2.451950   -2.575110    8.288090
  S      1.209720   -1.765610    7.394780
  C      2.479530   -2.535900    9.771780
  Cl     4.673400   -4.114830    7.957230
  C      3.466340   -1.367590    3.456350
  C      3.935650   -1.023030    2.219260
  S      2.645600   -0.843300    1.050640
  C      5.310470   -0.873720    1.844270
  C      5.709540   -0.487460    0.570530
  O      4.727760   -0.091320   -0.316160
  C      4.486730    1.306490   -0.300060
  C      7.074180   -0.476120    0.142050
  O      7.454520   -0.153020   -1.113690
  C      6.608470   -0.385650   -2.230360
  C      8.110460   -0.740770    1.038020
  C      7.734530   -1.011900    2.373110
  C      6.356470   -1.130420    2.769990
  N      6.347590   -1.454900    4.047140
  O      7.621310   -1.534150    4.422560
  N      8.472870   -1.275440    3.434090
  C      9.513440   -0.738370    0.697490
  S     10.661180   -0.101080    1.822260
  C     12.001980   -0.480120    0.785120
  C     11.554430   -1.081460   -0.382470
  C     10.153370   -1.231980   -0.424670
  S      9.257210   -2.169420   -1.609260
  C     10.284250   -2.425080   -3.015470
  O      9.839350   -3.089590   -3.913390
  C     11.671140   -1.838090   -3.135040
  O     12.196740   -1.742690   -4.208600
  S     12.651050   -1.454180   -1.706310
  C     13.312770   -0.149790    1.242810
  C     14.482000   -0.578150    0.736830
  C     15.756960   -0.174080    1.294960
  N     15.769510    0.723410    2.286050
  C     16.950120    1.073950    2.759080
  C     18.136350    0.548750    2.271060
  C     18.028040   -0.395670    1.241980
  N     16.833740   -0.740560    0.763620
  C     19.208420   -1.024200    0.676780
  C     19.107510   -2.012510   -0.225160
  C     20.128460   -2.767030   -0.886480
  N     19.815290   -3.809140   -1.612710
  C     20.957940   -4.300910   -2.143990
  C     22.013130   -3.525030   -1.778060
  N     21.505760   -2.528710   -0.961610
  C     22.301250   -1.558600   -0.351170
  O     22.163340   -1.173880    0.776910
  N     23.311600   -1.068830   -1.176720
  C     23.383360   -1.014440   -2.555300
  N     24.429610   -0.379260   -2.956450
  C     25.099650    0.014680   -1.828810
  C     24.422950   -0.379940   -0.722710
  H     -3.581360   -2.252860    4.777180
  H     -2.788380   -1.538450    2.410680
  H      0.660440    0.667740    0.044950
  H     -2.527870   -0.786640   -3.359480
  H     -3.678070   -1.491840   -2.209980
  H     -2.418220   -2.498440   -2.919610
  H      3.567430   -3.489130    5.276180
  H      3.314810   -3.127650   10.137670
  H      1.553280   -2.935760   10.182700
  H      2.589020   -1.511680   10.127060
  H      4.118630   -1.487800    4.300220
  H      3.695690    1.479490   -1.026580
  H      5.382330    1.870000   -0.580880
  H      4.154880    1.639520    0.688210
  H      5.946130    0.460290   -2.418850
  H      6.016880   -1.292380   -2.105250
  H      7.281050   -0.505120   -3.080060
  H     13.349400    0.494010    2.112040
  H     14.550820   -1.262570   -0.093170
  H     16.938920    1.803830    3.559440
  H     19.095330    0.842670    2.665190
  H     20.153580   -0.666290    1.053100
  H     18.114520   -2.339230   -0.506400
  H     20.950720   -5.177840   -2.759160
  H     23.061080   -3.614980   -1.978180
  H     22.631180   -1.425660   -3.198100
  H     26.019260    0.558160   -1.902220
  H     24.609480   -0.263750    0.324030

 Total Charge           Charge          ....    0
 Multiplicity           Mult            ....    1
 Number of Electrons    NEL             ....  572
 Basis Dimension        Dim             .... 1184

ORBITAL ENERGIES
----------------

  NO   OCC          E(Eh)            E(eV)
   0   2.0000    -101.584155     -2764.2454
   1   2.0000    -101.577284     -2764.0584
   2   2.0000     -88.966215     -2420.8938
   3   2.0000     -88.961468     -2420.7646
   4   2.0000     -88.960216     -2420.7305
   5   2.0000     -88.956326     -2420.6247
   6   2.0000     -88.952628     -2420.5241
   7   2.0000     -88.949097     -2420.4280
   8   2.0000     -88.947649     -2420.3886
   9   2.0000     -19.354798      -526.6708
  10   2.0000     -19.267355      -524.2914
  11   2.0000     -19.262817      -524.1679
  12   2.0000     -19.247268      -523.7448
  13   2.0000     -19.235477      -523.4239
  14   2.0000     -19.230017      -523.2754
  15   2.0000     -14.501848      -394.6153
  16   2.0000     -14.501376      -394.6025
  17   2.0000     -14.483184      -394.1075
  18   2.0000     -14.478592      -393.9825
  19   2.0000     -14.406083      -392.0094
  20   2.0000     -14.403269      -391.9329
  21   2.0000     -14.402729      -391.9182
  22   2.0000     -14.402387      -391.9089
  23   2.0000     -10.462034      -284.6864
  24   2.0000     -10.397179      -282.9216
  25   2.0000     -10.395409      -282.8735
  26   2.0000     -10.370595      -282.1982
  27   2.0000     -10.361994      -281.9642
  28   2.0000     -10.349376      -281.6208
  29   2.0000     -10.344075      -281.4766
  30   2.0000     -10.337399      -281.2949
  31   2.0000     -10.335260      -281.2367
  32   2.0000     -10.330887      -281.1177
  33   2.0000     -10.329675      -281.0847
  34   2.0000     -10.327559      -281.0272
  35   2.0000     -10.322786      -280.8973
  36   2.0000     -10.322606      -280.8924
  37   2.0000     -10.322111      -280.8789
  38   2.0000     -10.321606      -280.8652
  39   2.0000     -10.320465      -280.8341
  40   2.0000     -10.319372      -280.8044
  41   2.0000     -10.317405      -280.7509
  42   2.0000     -10.317001      -280.7399
  43   2.0000     -10.314577      -280.6739
  44   2.0000     -10.314285      -280.6660
  45   2.0000     -10.312603      -280.6202
  46   2.0000     -10.311186      -280.5816
  47   2.0000     -10.309600      -280.5385
  48   2.0000     -10.304941      -280.4117
  49   2.0000     -10.302490      -280.3450
  50   2.0000     -10.301379      -280.3148
  51   2.0000     -10.301294      -280.3125
  52   2.0000     -10.299146      -280.2540
  53   2.0000     -10.298516      -280.2369
  54   2.0000     -10.297855      -280.2189
  55   2.0000     -10.297687      -280.2143
  56   2.0000     -10.296638      -280.1858
  57   2.0000     -10.295663      -280.1592
  58   2.0000     -10.294405      -280.1250
  59   2.0000     -10.286071      -279.8982
  60   2.0000     -10.285858      -279.8924
  61   2.0000     -10.284181      -279.8468
  62   2.0000     -10.283918      -279.8396
  63   2.0000     -10.279491      -279.7192
  64   2.0000     -10.277154      -279.6556
  65   2.0000     -10.276149      -279.6282
  66   2.0000     -10.275066      -279.5988
  67   2.0000     -10.274514      -279.5837
  68   2.0000     -10.273828      -279.5651
  69   2.0000     -10.271806      -279.5101
  70   2.0000     -10.271350      -279.4976
  71   2.0000     -10.270694      -279.4798
  72   2.0000      -9.538905      -259.5668
  73   2.0000      -9.532045      -259.3801
  74   2.0000      -8.061674      -219.3693
  75   2.0000      -8.057592      -219.2582
  76   2.0000      -8.056534      -219.2294
  77   2.0000      -8.052020      -219.1066
  78   2.0000      -8.048347      -219.0067
  79   2.0000      -8.043530      -218.8756
  80   2.0000      -8.043211      -218.8669
  81   2.0000      -7.309102      -198.8908
  82   2.0000      -7.302304      -198.7058
  83   2.0000      -7.298992      -198.6157
  84   2.0000      -7.298947      -198.6144
  85   2.0000      -7.292099      -198.4281
  86   2.0000      -7.292042      -198.4265
  87   2.0000      -6.030916      -164.1096
  88   2.0000      -6.027407      -164.0141
  89   2.0000      -6.026795      -163.9974
  90   2.0000      -6.026406      -163.9868
  91   2.0000      -6.023685      -163.9128
  92   2.0000      -6.022831      -163.8896
  93   2.0000      -6.021830      -163.8623
  94   2.0000      -6.021348      -163.8492
  95   2.0000      -6.018587      -163.7741
  96   2.0000      -6.017659      -163.7488
  97   2.0000      -6.017367      -163.7409
  98   2.0000      -6.017156      -163.7351
  99   2.0000      -6.014058      -163.6508
 100   2.0000      -6.013437      -163.6339
 101   2.0000      -6.013218      -163.6280
 102   2.0000      -6.013009      -163.6223
 103   2.0000      -6.010453      -163.5527
 104   2.0000      -6.008757      -163.5066
 105   2.0000      -6.008538      -163.5006
 106   2.0000      -6.005034      -163.4053
 107   2.0000      -6.004639      -163.3945
 108   2.0000      -1.309612       -35.6363
 109   2.0000      -1.204670       -32.7807
 110   2.0000      -1.181161       -32.1410
 111   2.0000      -1.169827       -31.8326
 112   2.0000      -1.157040       -31.4847
 113   2.0000      -1.138165       -30.9711
 114   2.0000      -1.129846       -30.7447
 115   2.0000      -1.128211       -30.7002
 116   2.0000      -1.077211       -29.3124
 117   2.0000      -1.019510       -27.7423
 118   2.0000      -1.014772       -27.6133
 119   2.0000      -1.014367       -27.6023
 120   2.0000      -1.008243       -27.4357
 121   2.0000      -1.000123       -27.2147
 122   2.0000      -0.998692       -27.1758
 123   2.0000      -0.990194       -26.9445
 124   2.0000      -0.981784       -26.7157
 125   2.0000      -0.976454       -26.5707
 126   2.0000      -0.973071       -26.4786
 127   2.0000      -0.942578       -25.6489
 128   2.0000      -0.936163       -25.4743
 129   2.0000      -0.927245       -25.2316
 130   2.0000      -0.925065       -25.1723
 131   2.0000      -0.920925       -25.0597
 132   2.0000      -0.911348       -24.7990
 133   2.0000      -0.903463       -24.5845
 134   2.0000      -0.895959       -24.3803
 135   2.0000      -0.889696       -24.2099
 136   2.0000      -0.880545       -23.9609
 137   2.0000      -0.861863       -23.4525
 138   2.0000      -0.857369       -23.3302
 139   2.0000      -0.857155       -23.3244
 140   2.0000      -0.846079       -23.0230
 141   2.0000      -0.835447       -22.7337
 142   2.0000      -0.833102       -22.6699
 143   2.0000      -0.829044       -22.5594
 144   2.0000      -0.824023       -22.4228
 145   2.0000      -0.814835       -22.1728
 146   2.0000      -0.808474       -21.9997
 147   2.0000      -0.805216       -21.9110
 148   2.0000      -0.801260       -21.8034
 149   2.0000      -0.796914       -21.6851
 150   2.0000      -0.795658       -21.6510
 151   2.0000      -0.786888       -21.4123
 152   2.0000      -0.778436       -21.1823
 153   2.0000      -0.758046       -20.6275
 154   2.0000      -0.756464       -20.5844
 155   2.0000      -0.742933       -20.2162
 156   2.0000      -0.741705       -20.1828
 157   2.0000      -0.741287       -20.1714
 158   2.0000      -0.736028       -20.0283
 159   2.0000      -0.732666       -19.9369
 160   2.0000      -0.716934       -19.5088
 161   2.0000      -0.711189       -19.3524
 162   2.0000      -0.700950       -19.0738
 163   2.0000      -0.696802       -18.9610
 164   2.0000      -0.692301       -18.8385
 165   2.0000      -0.679265       -18.4837
 166   2.0000      -0.677542       -18.4368
 167   2.0000      -0.666663       -18.1408
 168   2.0000      -0.665124       -18.0989
 169   2.0000      -0.651875       -17.7384
 170   2.0000      -0.647890       -17.6300
 171   2.0000      -0.646437       -17.5904
 172   2.0000      -0.639380       -17.3984
 173   2.0000      -0.637305       -17.3420
 174   2.0000      -0.633035       -17.2258
 175   2.0000      -0.626909       -17.0591
 176   2.0000      -0.623352       -16.9623
 177   2.0000      -0.619513       -16.8578
 178   2.0000      -0.614668       -16.7260
 179   2.0000      -0.608717       -16.5640
 180   2.0000      -0.607970       -16.5437
 181   2.0000      -0.603878       -16.4324
 182   2.0000      -0.602308       -16.3896
 183   2.0000      -0.589110       -16.0305
 184   2.0000      -0.588516       -16.0143
 185   2.0000      -0.586269       -15.9532
 186   2.0000      -0.583712       -15.8836
 187   2.0000      -0.582040       -15.8381
 188   2.0000      -0.579951       -15.7813
 189   2.0000      -0.574372       -15.6295
 190   2.0000      -0.571441       -15.5497
 191   2.0000      -0.563356       -15.3297
 192   2.0000      -0.562359       -15.3026
 193   2.0000      -0.557506       -15.1705
 194   2.0000      -0.552601       -15.0370
 195   2.0000      -0.550539       -14.9809
 196   2.0000      -0.547846       -14.9077
 197   2.0000      -0.544977       -14.8296
 198   2.0000      -0.543010       -14.7761
 199   2.0000      -0.542737       -14.7686
 200   2.0000      -0.539695       -14.6859
 201   2.0000      -0.537253       -14.6194
 202   2.0000      -0.532504       -14.4902
 203   2.0000      -0.531847       -14.4723
 204   2.0000      -0.528544       -14.3824
 205   2.0000      -0.524272       -14.2662
 206   2.0000      -0.523336       -14.2407
 207   2.0000      -0.520005       -14.1501
 208   2.0000      -0.519801       -14.1445
 209   2.0000      -0.516911       -14.0659
 210   2.0000      -0.515187       -14.0190
 211   2.0000      -0.514038       -13.9877
 212   2.0000      -0.512458       -13.9447
 213   2.0000      -0.508636       -13.8407
 214   2.0000      -0.506826       -13.7914
 215   2.0000      -0.506124       -13.7723
 216   2.0000      -0.505754       -13.7623
 217   2.0000      -0.502322       -13.6689
 218   2.0000      -0.498841       -13.5742
 219   2.0000      -0.496646       -13.5144
 220   2.0000      -0.494707       -13.4617
 221   2.0000      -0.491605       -13.3772
 222   2.0000      -0.484282       -13.1780
 223   2.0000      -0.482201       -13.1214
 224   2.0000      -0.478445       -13.0191
 225   2.0000      -0.477567       -12.9952
 226   2.0000      -0.476923       -12.9777
 227   2.0000      -0.473235       -12.8774
 228   2.0000      -0.465095       -12.6559
 229   2.0000      -0.464794       -12.6477
 230   2.0000      -0.463987       -12.6257
 231   2.0000      -0.463546       -12.6137
 232   2.0000      -0.463082       -12.6011
 233   2.0000      -0.458870       -12.4865
 234   2.0000      -0.454244       -12.3606
 235   2.0000      -0.448408       -12.2018
 236   2.0000      -0.447656       -12.1813
 237   2.0000      -0.444142       -12.0857
 238   2.0000      -0.442938       -12.0530
 239   2.0000      -0.439600       -11.9621
 240   2.0000      -0.436148       -11.8682
 241   2.0000      -0.433865       -11.8061
 242   2.0000      -0.428002       -11.6465
 243   2.0000      -0.426292       -11.6000
 244   2.0000      -0.425161       -11.5692
 245   2.0000      -0.419886       -11.4257
 246   2.0000      -0.419225       -11.4077
 247   2.0000      -0.417069       -11.3490
 248   2.0000      -0.413747       -11.2586
 249   2.0000      -0.410808       -11.1786
 250   2.0000      -0.409862       -11.1529
 251   2.0000      -0.409535       -11.1440
 252   2.0000      -0.405866       -11.0442
 253   2.0000      -0.399867       -10.8809
 254   2.0000      -0.395759       -10.7691
 255   2.0000      -0.394236       -10.7277
 256   2.0000      -0.386536       -10.5182
 257   2.0000      -0.384898       -10.4736
 258   2.0000      -0.382054       -10.3962
 259   2.0000      -0.380340       -10.3496
 260   2.0000      -0.379066       -10.3149
 261   2.0000      -0.377493       -10.2721
 262   2.0000      -0.374579       -10.1928
 263   2.0000      -0.374182       -10.1820
 264   2.0000      -0.373029       -10.1506
 265   2.0000      -0.370232       -10.0745
 266   2.0000      -0.367626       -10.0036
 267   2.0000      -0.360964        -9.8223
 268   2.0000      -0.358815        -9.7639
 269   2.0000      -0.355681        -9.6786
 270   2.0000      -0.343661        -9.3515
 271   2.0000      -0.333363        -9.0713
 272   2.0000      -0.330159        -8.9841
 273   2.0000      -0.324597        -8.8327
 274   2.0000      -0.322988        -8.7890
 275   2.0000      -0.319854        -8.7037
 276   2.0000      -0.314896        -8.5687
 277   2.0000      -0.313477        -8.5301
 278   2.0000      -0.309282        -8.4160
 279   2.0000      -0.297855        -8.1050
 280   2.0000      -0.292886        -7.9698
 281   2.0000      -0.289077        -7.8662
 282   2.0000      -0.288655        -7.8547
 283   2.0000      -0.282681        -7.6921
 284   2.0000      -0.258252        -7.0274
 285   2.0000      -0.241212        -6.5637
 286   0.0000      -0.079837        -2.1725
 287   0.0000      -0.051852        -1.4110
 288   0.0000      -0.047984        -1.3057
 289   0.0000      -0.034711        -0.9445
 290   0.0000      -0.029220        -0.7951

MULLIKEN ATOMIC CHARGES
-----------------------
   0 C :   -0.045839
   1 C :    0.003027
   2 C :    0.051966
   3 C :    0.126134
   4 C :   -0.206938
   5 C :    0.036038
   6 C :    0.088017
   7 C :   -0.268105
   8 S :    0.138114
   9 C :    0.123820
  10 Cl:   -0.096218
  11 C :   -0.116354
  12 C :    0.103100
  13 C :    0.137471
  14 C :   -0.162573
  15 S :    0.114174
  16 C :   -0.213682
  17 C :    0.045647
  18 C :    0.077982
  19 C :   -0.260146
  20 S :    0.139571
  21 C :    0.121950
  22 Cl:   -0.087305
  23 C :   -0.090238
  24 C :   -0.138322
  25 S :    0.114993
  26 C :    0.209652
  27 C :   -0.036425
  28 O :   -0.363487
  29 C :    0.195935
  30 C :    0.136212
  31 O :   -0.301163
  32 C :    0.201502
  33 C :   -0.003917
  34 C :   -0.055645
  35 C :   -0.066298
  36 N :    0.043458
  37 O :   -0.090997
  38 N :    0.047482
  39 C :   -0.172215
  40 S :    0.213874
  41 C :   -0.116291
  42 C :   -0.034608
  43 C :   -0.011120
  44 S :    0.097056
  45 C :    0.076307
  46 O :   -0.150227
  47 C :    0.077497
  48 O :   -0.128666
  49 S :    0.076098
  50 C :    0.071741
  51 C :    0.013157
  52 C :   -0.075775
  53 N :   -0.076231
  54 C :    0.080242
  55 C :   -0.048609
  56 C :    0.042398
  57 N :   -0.044285
  58 C :   -0.024623
  59 C :    0.064576
  60 C :    0.060396
  61 N :   -0.086090
  62 C :    0.027791
  63 C :    0.057772
  64 N :   -0.194927
  65 C :    0.254073
  66 O :   -0.154298
  67 N :   -0.188802
  68 C :    0.085787
  69 N :   -0.110996
  70 C :    0.020911
  71 C :    0.076803
  72 H :    0.027232
  73 H :   -0.011551
  74 H :   -0.016591
  75 H :    0.024213
  76 H :    0.031969
  77 H :    0.036181
  78 H :   -0.009207
  79 H :    0.023852
  80 H :    0.032356
  81 H :    0.034941
  82 H :    0.008092
  83 H :    0.049730
  84 H :    0.031058
  85 H :    0.030956
  86 H :    0.022991
  87 H :    0.038303
  88 H :    0.038962
  89 H :    0.009298
  90 H :    0.005389
  91 H :    0.005951
  92 H :   -0.003859
  93 H :   -0.003269
  94 H :    0.025187
  95 H :    0.006448
  96 H :    0.037205
  97 H :    0.051490
  98 H :    0.012052
  99 H :    0.029313
Sum of atomic charges:   -0.0000000

LOEWDIN ATOMIC CHARGES
----------------------
   0 C :   -0.158983
   1 C :   -0.072105
   2 C :   -0.039332
   3 C :   -0.059506
   4 C :   -0.169709
   5 C :   -0.078866
   6 C :   -0.178183
   7 C :   -0.199542
   8 S :    0.446219
   9 C :   -0.061107
  10 Cl:    0.123354
  11 C :   -0.146655
  12 C :   -0.041982
  13 C :   -0.046845
  14 C :   -0.155952
  15 S :    0.400732
  16 C :   -0.175740
  17 C :   -0.061473
  18 C :   -0.176906
  19 C :   -0.198130
  20 S :    0.434030
  21 C :   -0.061283
  22 Cl:    0.129601
  23 C :   -0.034166
  24 C :   -0.164584
  25 S :    0.440543
  26 C :   -0.042048
  27 C :    0.022627
  28 O :   -0.128478
  29 C :    0.072869
  30 C :    0.053134
  31 O :   -0.093217
  32 C :    0.078136
  33 C :   -0.095502
  34 C :   -0.053716
  35 C :   -0.048282
  36 N :   -0.020965
  37 O :    0.076991
  38 N :   -0.036616
  39 C :   -0.181455
  40 S :    0.502950
  41 C :   -0.187900
  42 C :   -0.213472
  43 C :   -0.213721
  44 S :    0.415043
  45 C :   -0.120518
  46 O :   -0.119915
  47 C :   -0.108983
  48 O :   -0.099656
  49 S :    0.394487
  50 C :   -0.017082
  51 C :   -0.038899
  52 C :    0.030208
  53 N :   -0.093204
  54 C :    0.050852
  55 C :   -0.066628
  56 C :    0.036102
  57 N :   -0.084994
  58 C :   -0.035834
  59 C :    0.000888
  60 C :    0.027778
  61 N :   -0.084619
  62 C :   -0.025292
  63 C :   -0.016726
  64 N :    0.023139
  65 C :    0.126483
  66 O :   -0.129049
  67 N :    0.024237
  68 C :    0.029554
  69 N :   -0.091226
  70 C :   -0.022819
  71 C :   -0.005336
  72 H :    0.025705
  73 H :    0.019643
  74 H :    0.023450
  75 H :    0.033834
  76 H :    0.037984
  77 H :    0.039694
  78 H :    0.035321
  79 H :    0.033681
  80 H :    0.038206
  81 H :    0.038987
  82 H :    0.031852
  83 H :    0.030103
  84 H :    0.016852
  85 H :    0.015615
  86 H :    0.016401
  87 H :    0.023441
  88 H :    0.022025
  89 H :    0.034901
  90 H :    0.020871
  91 H :    0.026052
  92 H :    0.033932
  93 H :    0.025212
  94 H :    0.050466
  95 H :    0.026985
  96 H :    0.030277
  97 H :    0.026878
  98 H :    0.025614
  99 H :    0.033261

  Mayer bond orders larger than 0.100000
B(  0-C ,  1-C ) :   1.6440 B(  0-C , 15-S ) :   1.1099 B(  0-C , 72-H ) :   0.9667
B(  1-C ,  2-C ) :   1.1849 B(  1-C , 73-H ) :   0.9777 B(  2-C ,  3-C ) :   1.3161
B(  2-C , 14-C ) :   1.2743 B(  3-C ,  4-C ) :   0.9817 B(  3-C , 11-C ) :   1.4168
B(  4-C ,  5-C ) :   1.5576 B(  4-C ,  8-S ) :   1.1333 B(  5-C ,  6-C ) :   1.2185
B(  5-C , 74-H ) :   0.9955 B(  6-C ,  7-C ) :   1.6074 B(  6-C , 10-Cl) :   0.9976
B(  7-C ,  8-S ) :   1.1281 B(  7-C ,  9-C ) :   1.0828 B(  9-C , 75-H ) :   0.9445
B(  9-C , 76-H ) :   0.9483 B(  9-C , 77-H ) :   0.9491 B( 11-C , 12-C ) :   1.2702
B( 11-C , 25-S ) :   1.0258 B( 12-C , 13-C ) :   1.3194 B( 12-C , 23-C ) :   1.1435
B( 13-C , 14-C ) :   1.4059 B( 13-C , 16-C ) :   0.9896 B( 14-C , 15-S ) :   1.0714
B( 16-C , 17-C ) :   1.5460 B( 16-C , 20-S ) :   1.1311 B( 17-C , 18-C ) :   1.2202
B( 17-C , 78-H ) :   1.0076 B( 18-C , 19-C ) :   1.6000 B( 18-C , 22-Cl) :   1.0079
B( 19-C , 20-S ) :   1.1275 B( 19-C , 21-C ) :   1.0826 B( 21-C , 79-H ) :   0.9445
B( 21-C , 80-H ) :   0.9486 B( 21-C , 81-H ) :   0.9490 B( 23-C , 24-C ) :   1.5724
B( 23-C , 82-H ) :   0.9783 B( 24-C , 25-S ) :   1.0504 B( 24-C , 26-C ) :   1.1168
B( 26-C , 27-C ) :   1.4535 B( 26-C , 33-C ) :   0.1145 B( 26-C , 35-C ) :   1.1075
B( 27-C , 28-O ) :   1.1139 B( 27-C , 30-C ) :   1.1042 B( 28-O , 29-C ) :   0.9049
B( 29-C , 83-H ) :   0.9811 B( 29-C , 84-H ) :   0.9666 B( 29-C , 85-H ) :   0.9641
B( 30-C , 31-O ) :   1.2498 B( 30-C , 33-C ) :   1.4751 B( 31-O , 32-C ) :   0.9049
B( 32-C , 86-H ) :   0.9765 B( 32-C , 87-H ) :   0.9721 B( 32-C , 88-H ) :   0.9733
B( 33-C , 34-C ) :   1.1691 B( 33-C , 39-C ) :   1.0214 B( 34-C , 35-C ) :   1.1415
B( 34-C , 38-N ) :   1.6098 B( 35-C , 36-N ) :   1.6032 B( 36-N , 37-O ) :   1.0609
B( 36-N , 38-N ) :   0.1780 B( 37-O , 38-N ) :   1.0591 B( 39-C , 40-S ) :   1.1716
B( 39-C , 41-C ) :   0.1183 B( 39-C , 43-C ) :   1.5808 B( 40-S , 41-C ) :   1.1353
B( 41-C , 42-C ) :   1.5555 B( 41-C , 50-C ) :   1.0906 B( 42-C , 43-C ) :   1.2757
B( 42-C , 49-S ) :   0.9743 B( 43-C , 44-S ) :   0.9774 B( 44-S , 45-C ) :   1.0695
B( 44-S , 46-O ) :   0.1420 B( 45-C , 46-O ) :   2.1342 B( 45-C , 47-C ) :   0.7713
B( 47-C , 48-O ) :   2.1658 B( 47-C , 49-S ) :   1.0439 B( 48-O , 49-S ) :   0.1306
B( 50-C , 51-C ) :   1.7057 B( 50-C , 89-H ) :   0.9476 B( 51-C , 52-C ) :   1.0477
B( 51-C , 90-H ) :   0.9583 B( 52-C , 53-N ) :   1.5195 B( 52-C , 57-N ) :   1.5502
B( 53-N , 54-C ) :   1.5555 B( 54-C , 55-C ) :   1.3593 B( 54-C , 91-H ) :   0.9808
B( 55-C , 56-C ) :   1.3417 B( 55-C , 92-H ) :   0.9752 B( 56-C , 57-N ) :   1.5147
B( 56-C , 58-C ) :   1.0573 B( 58-C , 59-C ) :   1.7078 B( 58-C , 93-H ) :   0.9670
B( 59-C , 60-C ) :   1.0665 B( 59-C , 94-H ) :   0.9493 B( 60-C , 61-N ) :   1.7085
B( 60-C , 64-N ) :   1.0830 B( 61-N , 62-C ) :   1.3608 B( 62-C , 63-C ) :   1.5514
B( 62-C , 95-H ) :   1.0005 B( 63-C , 64-N ) :   1.0887 B( 63-C , 96-H ) :   0.9802
B( 64-N , 65-C ) :   0.9889 B( 65-C , 66-O ) :   2.1350 B( 65-C , 67-N ) :   1.0108
B( 67-N , 68-C ) :   1.0881 B( 67-N , 71-C ) :   1.0977 B( 68-C , 69-N ) :   1.7685
B( 68-C , 97-H ) :   0.9734 B( 69-N , 70-C ) :   1.3177 B( 70-C , 71-C ) :   1.5905
B( 70-C , 98-H ) :   0.9999 B( 71-C , 99-H ) :   0.9945

-----------------------------------------------------------------------------
         ABSORPTION SPECTRUM VIA TRANSITION ELECTRIC DIPOLE MOMENTS
-----------------------------------------------------------------------------
State   Energy  Wavelength   fosc         T2         TX        TY        TZ
        (cm-1)    (nm)                  (au**2)     (au)      (au)      (au)
-----------------------------------------------------------------------------
   0   19622.8    509.6   0.722349062  12.11887   3.04861   0.38203  -1.63673
   1   22786.1    438.9   0.660515378   9.54307   3.08635  -0.10789   0.07661
   2   27142.1    368.4   0.026137375   0.31703  -0.46114  -0.05132  -0.31897
   3   28646.5    349.1   0.081335386   0.93473  -0.95730   0.13393   0.01913
   4   28971.6    345.2   0.163791133   1.86120   0.88678   0.37089   0.96812
   5   29351.2    340.7   0.467307033   5.24146  -0.35673  -0.54583   2.19460
   6   29618.8    337.6   0.019992451   0.22222   0.02771  -0.07327   0.46484
   7   30418.2    328.8   0.312259417   3.37954   1.58298   0.17926   0.91738
   8   30868.1    324.0   0.002889804   0.03082   0.16572  -0.01723   0.05531
   9   31336.4    319.1   0.459104489   4.82323   2.07980  -0.64193  -0.29251
  10   32627.9    306.5   0.036790178   0.37121  -0.55001   0.20617  -0.16182
  11   32760.0    305.3   0.006090652   0.06121  -0.11479   0.20718   0.07145
  12   32772.9    305.1   0.036209909   0.36374   0.58377   0.13770   0.06319
  13   33335.6    300.0   0.025613869   0.25295  -0.47909  -0.14999   0.03057
  14   33414.0    299.3   0.256412142   2.52630  -0.37387   0.85445   1.28702
  15   33929.9    294.7   0.042828655   0.41555   0.46336  -0.28920   0.34236
  16   34455.7    290.2   0.147740889   1.41161   0.08389   0.13275   1.17769
  17   34642.8    288.7   0.010882978   0.10342   0.21501   0.13049  -0.20041
  18   35212.0    284.0   0.035949217   0.33610  -0.36703  -0.05333  -0.44559
  19   35423.4    282.3   0.165379983   1.53698  -1.17792  -0.12685   0.36523
  20   35557.0    281.2   0.041788751   0.38691   0.59547  -0.09626  -0.15187
  21   35747.7    279.7   0.183856436   1.69319  -1.27474  -0.25418  -0.06015
  22   36260.5    275.8   0.052263258   0.47450  -0.21029  -0.13307   0.64232
  23   36732.1    272.2   0.031610576   0.28331  -0.01766   0.20449  -0.49110
  24   37087.1    269.6   0.102829411   0.91279   0.91344  -0.16285  -0.22782
  25   37683.8    265.4   0.077897067   0.68052  -0.81113   0.11005  -0.10233
  26   38012.3    263.1   0.108320637   0.93813  -0.89907   0.09938   0.34631
  27   38548.4    259.4   0.414774940   3.54227   1.11222  -1.11605  -1.02941
  28   39039.7    256.1   0.006757713   0.05699  -0.20978   0.04912  -0.10279
  29   39230.2    254.9   0.052324914   0.43910  -0.06749   0.32385   0.57417
  30   39463.3    253.4   0.026197506   0.21855  -0.05006   0.34808   0.30803
  31   39892.9    250.7   0.012367182   0.10206  -0.02217   0.06621   0.31174
  32   40138.8    249.1   0.024443915   0.20048  -0.28959   0.05095  -0.33768

FINAL SINGLE POINT ENERGY     -6476.506354382352

DIPOLE MOMENT
-------------
                                X             Y             Z
Electronic contribution:    -33.29462      -8.24991      10.31301
Nuclear contribution   :     32.80770       9.50750      -9.28958
                        -----------------------------------------
Total Dipole Moment    :     -0.48691       1.25759       1.02342
                        -----------------------------------------
Magnitude (a.u.)       :      1.69293
Magnitude (Debye)      :      4.30309

Rotational constants in cm-1:     0.001492     0.000221     0.000199
Rotational constants in MHz :    44.717761     6.610475     5.961490

                             ****ORCA TERMINATED NORMALLY****
TOTAL RUN TIME: 0 days 0 hours 8 minutes 25 seconds 34 msec
