                         Program Version 4.2.0 -  RELEASE  -
|  1> # ORCA input file
|  2> # SCF done       -197.259823011797          0.000412083153
|  3> ! CAM-B3LYP def2-SVP def2/J RIJCOSX Grid4 TightSCF
|  4> %maxcore 5000
|  5> %tddft
|  6>     Mode sTDDFT
|  7>     Ethresh 5.0
|  8>     maxcore 5000
|  9> end
| 10>
| 11> %pal
| 12>   nprocs 6
| 13>   end
| 14> * xyz 0 1
| 15>    C        0.27251        -4.86198        -4.29204
| 16>    C       -0.02527        -4.16498        -3.17788
| 17>    C        1.03760        -3.31514        -2.74990
| 18>    C        1.08205        -2.46615        -1.62939
| 19>    C       -0.00617        -2.36749        -0.67530
| 20>    C       -0.47234        -1.24462        -0.05584
| 21>    C       -1.50906        -1.51760         0.86288
| 22>    C       -1.84189        -2.83533         0.96882
| 23>    S       -0.85576        -3.77701        -0.09938
| 24>    C       -2.87166        -3.47298         1.82823
| 25>   Cl       -2.28131        -0.27237         1.76888
| 26>    C        2.24305        -1.71847        -1.45632
| 27>    C        3.35900        -1.80406        -2.32575
| 28>    C        3.32369        -2.66976        -3.43554
| 29>    C        2.14689        -3.39079        -3.62380
| 30>    S        1.85320        -4.53064        -4.91028
| 31>    C        4.45156        -2.83873        -4.32940
| 32>    C        4.43299        -2.99653        -5.68514
| 33>    C        5.71958        -3.20077        -6.22950
| 34>    C        6.72803        -3.21494        -5.31200
| 35>    S        6.08364        -2.95889        -3.72516
| 36>    C        8.18434        -3.41056        -5.52706
| 37>   Cl        5.97687        -3.41299        -7.91958
| 38>    C        4.40516        -0.94111        -1.92129
| 39>    C        4.13186        -0.24715        -0.77730
| 40>    S        2.54435        -0.61242        -0.14088
| 41>    C        4.96647         0.68390        -0.10858
| 42>    C        4.68571         1.35951         1.07209
| 43>    O        3.49304         1.15156         1.67600
| 44>    C        3.23384         1.85431         2.86846
| 45>    C        5.72903         2.20055         1.48802
| 46>    C        6.81010         2.18586         0.63498
| 47>    S        6.54133         1.11156        -0.70733
| 48>    C        8.02306         2.91110         0.75797
| 49>    C        9.06832         2.96378        -0.13650
| 50>    C       10.13582         3.76788         0.27484
| 51>    C       11.36676         3.97097        -0.54090
| 52>    C        9.91250         4.34193         1.51892
| 53>    S        8.35949         3.88123         2.16393
| 54>    C       10.75302         5.18759         2.28401
| 55>    C       10.47147         5.68010         3.55750
| 56>    O        9.28637         5.36041         4.13351
| 57>    C        9.04034         5.84546         5.43221
| 58>    C       11.49689         6.46844         4.09215
| 59>    C       12.57483         6.60307         3.24243
| 60>    S       12.31431         5.74009         1.75975
| 61>    C       13.78194         7.32118         3.47201
| 62>    C       14.18147         7.94375         4.62040
| 63>    C       15.45127         8.56377         4.52107
| 64>    C       16.15888         9.25466         5.52310
| 65>    C       15.64984         9.32578         6.87822
| 66>    C       15.08331         8.32175         7.60950
| 67>    C       14.69081         8.74224         8.89880
| 68>    C       14.94397        10.05536         9.16647
| 69>    S       15.69640        10.80467         7.79789
| 70>    C       14.66846        10.82325        10.40715
| 71>   Cl       13.95149         7.66914        10.02787
| 72>    C       17.36752         9.83158         5.14614
| 73>    C       17.91887         9.70407         3.84935
| 74>    C       17.23520         8.97330         2.86020
| 75>    C       16.00485         8.43429         3.22424
| 76>    S       14.96548         7.49072         2.19140
| 77>    C       17.76855         8.76535         1.52773
| 78>    C       17.08811         8.76709         0.34460
| 79>    C       17.91386         8.47011        -0.76158
| 80>    C       19.21820         8.22765        -0.44613
| 81>    S       19.44756         8.37596         1.26373
| 82>    C       20.34735         7.88166        -1.34606
| 83>   Cl       17.30606         8.42293        -2.37231
| 84>    C       19.16104        10.39602         3.74119
| 85>    C       19.53764        10.98562         4.89352
| 86>    S       18.41685        10.75311         6.18839
| 87>    H       -0.34638        -5.56238        -4.81768
| 88>    H       -0.96970        -4.23899        -2.67195
| 89>    H       -0.11828        -0.25221        -0.26224
| 90>    H       -3.41540        -2.70734         2.37618
| 91>    H       -2.40882        -4.15547         2.54078
| 92>    H       -3.57519        -4.04531         1.22470
| 93>    H        3.54604        -2.93745        -6.28763
| 94>    H        8.52179        -4.33222        -5.05311
| 95>    H        8.74997        -2.58559        -5.09613
| 96>    H        8.39235        -3.46699        -6.59261
| 97>    H        5.33173        -0.81998        -2.45144
| 98>    H        3.95562         1.59392         3.64883
| 99>    H        2.23639         1.54856         3.17878
|100>    H        3.25015         2.93622         2.70378
|101>    H        5.71604         2.80870         2.37413
|102>    H        9.05073         2.42840        -1.06981
|103>    H       11.28890         3.41630        -1.47201
|104>    H       12.25009         3.62966        -0.00145
|105>    H       11.50903         5.02654        -0.77149
|106>    H        8.05757         5.46704         5.70695
|107>    H        9.02815         6.93980         5.45279
|108>    H        9.78524         5.47540         6.14358
|109>    H       11.46191         6.93339         5.05952
|110>    H       13.58111         7.97527         5.50978
|111>    H       14.98795         7.30833         7.26579
|112>    H       14.07395        11.70884        10.18694
|113>    H       15.59989        11.15119        10.86827
|114>    H       14.12746        10.19839        11.11357
|115>    H       16.04510         9.00362         0.24765
|116>    H       20.71185         6.87614        -1.13600
|117>    H       21.17626         8.57441        -1.20686
|118>    H       20.01641         7.92618        -2.38068
|119>    H       19.73489        10.45304         2.83530
|120>    H       20.42096        11.56487         5.07826
|121> *
|122>
|123>                          ****END OF INPUT****

CARTESIAN COORDINATES (ANGSTROEM)
---------------------------------
  C      0.272510   -4.861980   -4.292040
  C     -0.025270   -4.164980   -3.177880
  C      1.037600   -3.315140   -2.749900
  C      1.082050   -2.466150   -1.629390
  C     -0.006170   -2.367490   -0.675300
  C     -0.472340   -1.244620   -0.055840
  C     -1.509060   -1.517600    0.862880
  C     -1.841890   -2.835330    0.968820
  S     -0.855760   -3.777010   -0.099380
  C     -2.871660   -3.472980    1.828230
  Cl    -2.281310   -0.272370    1.768880
  C      2.243050   -1.718470   -1.456320
  C      3.359000   -1.804060   -2.325750
  C      3.323690   -2.669760   -3.435540
  C      2.146890   -3.390790   -3.623800
  S      1.853200   -4.530640   -4.910280
  C      4.451560   -2.838730   -4.329400
  C      4.432990   -2.996530   -5.685140
  C      5.719580   -3.200770   -6.229500
  C      6.728030   -3.214940   -5.312000
  S      6.083640   -2.958890   -3.725160
  C      8.184340   -3.410560   -5.527060
  Cl     5.976870   -3.412990   -7.919580
  C      4.405160   -0.941110   -1.921290
  C      4.131860   -0.247150   -0.777300
  S      2.544350   -0.612420   -0.140880
  C      4.966470    0.683900   -0.108580
  C      4.685710    1.359510    1.072090
  O      3.493040    1.151560    1.676000
  C      3.233840    1.854310    2.868460
  C      5.729030    2.200550    1.488020
  C      6.810100    2.185860    0.634980
  S      6.541330    1.111560   -0.707330
  C      8.023060    2.911100    0.757970
  C      9.068320    2.963780   -0.136500
  C     10.135820    3.767880    0.274840
  C     11.366760    3.970970   -0.540900
  C      9.912500    4.341930    1.518920
  S      8.359490    3.881230    2.163930
  C     10.753020    5.187590    2.284010
  C     10.471470    5.680100    3.557500
  O      9.286370    5.360410    4.133510
  C      9.040340    5.845460    5.432210
  C     11.496890    6.468440    4.092150
  C     12.574830    6.603070    3.242430
  S     12.314310    5.740090    1.759750
  C     13.781940    7.321180    3.472010
  C     14.181470    7.943750    4.620400
  C     15.451270    8.563770    4.521070
  C     16.158880    9.254660    5.523100
  C     15.649840    9.325780    6.878220
  C     15.083310    8.321750    7.609500
  C     14.690810    8.742240    8.898800
  C     14.943970   10.055360    9.166470
  S     15.696400   10.804670    7.797890
  C     14.668460   10.823250   10.407150
  Cl    13.951490    7.669140   10.027870
  C     17.367520    9.831580    5.146140
  C     17.918870    9.704070    3.849350
  C     17.235200    8.973300    2.860200
  C     16.004850    8.434290    3.224240
  S     14.965480    7.490720    2.191400
  C     17.768550    8.765350    1.527730
  C     17.088110    8.767090    0.344600
  C     17.913860    8.470110   -0.761580
  C     19.218200    8.227650   -0.446130
  S     19.447560    8.375960    1.263730
  C     20.347350    7.881660   -1.346060
  Cl    17.306060    8.422930   -2.372310
  C     19.161040   10.396020    3.741190
  C     19.537640   10.985620    4.893520
  S     18.416850   10.753110    6.188390
  H     -0.346380   -5.562380   -4.817680
  H     -0.969700   -4.238990   -2.671950
  H     -0.118280   -0.252210   -0.262240
  H     -3.415400   -2.707340    2.376180
  H     -2.408820   -4.155470    2.540780
  H     -3.575190   -4.045310    1.224700
  H      3.546040   -2.937450   -6.287630
  H      8.521790   -4.332220   -5.053110
  H      8.749970   -2.585590   -5.096130
  H      8.392350   -3.466990   -6.592610
  H      5.331730   -0.819980   -2.451440
  H      3.955620    1.593920    3.648830
  H      2.236390    1.548560    3.178780
  H      3.250150    2.936220    2.703780
  H      5.716040    2.808700    2.374130
  H      9.050730    2.428400   -1.069810
  H     11.288900    3.416300   -1.472010
  H     12.250090    3.629660   -0.001450
  H     11.509030    5.026540   -0.771490
  H      8.057570    5.467040    5.706950
  H      9.028150    6.939800    5.452790
  H      9.785240    5.475400    6.143580
  H     11.461910    6.933390    5.059520
  H     13.581110    7.975270    5.509780
  H     14.987950    7.308330    7.265790
  H     14.073950   11.708840   10.186940
  H     15.599890   11.151190   10.868270
  H     14.127460   10.198390   11.113570
  H     16.045100    9.003620    0.247650
  H     20.711850    6.876140   -1.136000
  H     21.176260    8.574410   -1.206860
  H     20.016410    7.926180   -2.380680
  H     19.734890   10.453040    2.835300
  H     20.420960   11.564870    5.078260

 Total Charge           Charge          ....    0
 Multiplicity           Mult            ....    1
 Number of Electrons    NEL             ....  624
 Basis Dimension        Dim             .... 1238

ORBITAL ENERGIES
----------------

  NO   OCC          E(Eh)            E(eV)
   0   2.0000    -101.584551     -2764.2562
   1   2.0000    -101.581076     -2764.1616
   2   2.0000    -101.575446     -2764.0084
   3   2.0000    -101.572802     -2763.9364
   4   2.0000     -88.961591     -2420.7680
   5   2.0000     -88.956407     -2420.6269
   6   2.0000     -88.955466     -2420.6013
   7   2.0000     -88.950703     -2420.4717
   8   2.0000     -88.949974     -2420.4519
   9   2.0000     -88.947444     -2420.3830
  10   2.0000     -88.946817     -2420.3659
  11   2.0000     -88.945156     -2420.3208
  12   2.0000     -88.944766     -2420.3101
  13   2.0000     -88.935283     -2420.0521
  14   2.0000     -88.932650     -2419.9804
  15   2.0000     -19.257578      -524.0253
  16   2.0000     -19.250289      -523.8270
  17   2.0000     -10.335831      -281.2522
  18   2.0000     -10.331893      -281.1451
  19   2.0000     -10.331159      -281.1251
  20   2.0000     -10.324466      -280.9430
  21   2.0000     -10.317889      -280.7640
  22   2.0000     -10.315684      -280.7040
  23   2.0000     -10.310581      -280.5652
  24   2.0000     -10.309176      -280.5269
  25   2.0000     -10.308248      -280.5017
  26   2.0000     -10.306253      -280.4474
  27   2.0000     -10.305332      -280.4223
  28   2.0000     -10.305237      -280.4198
  29   2.0000     -10.304306      -280.3944
  30   2.0000     -10.303147      -280.3629
  31   2.0000     -10.302773      -280.3527
  32   2.0000     -10.301707      -280.3237
  33   2.0000     -10.301327      -280.3133
  34   2.0000     -10.301280      -280.3121
  35   2.0000     -10.297459      -280.2081
  36   2.0000     -10.295708      -280.1605
  37   2.0000     -10.295209      -280.1469
  38   2.0000     -10.294774      -280.1350
  39   2.0000     -10.294586      -280.1299
  40   2.0000     -10.294019      -280.1145
  41   2.0000     -10.293303      -280.0950
  42   2.0000     -10.293278      -280.0943
  43   2.0000     -10.291815      -280.0545
  44   2.0000     -10.291170      -280.0370
  45   2.0000     -10.288111      -279.9537
  46   2.0000     -10.287783      -279.9448
  47   2.0000     -10.286152      -279.9004
  48   2.0000     -10.284289      -279.8497
  49   2.0000     -10.284179      -279.8467
  50   2.0000     -10.282153      -279.7916
  51   2.0000     -10.281887      -279.7844
  52   2.0000     -10.280581      -279.7488
  53   2.0000     -10.280367      -279.7430
  54   2.0000     -10.277905      -279.6760
  55   2.0000     -10.276404      -279.6352
  56   2.0000     -10.276061      -279.6258
  57   2.0000     -10.274990      -279.5967
  58   2.0000     -10.273241      -279.5491
  59   2.0000     -10.272217      -279.5212
  60   2.0000     -10.271025      -279.4888
  61   2.0000     -10.270697      -279.4799
  62   2.0000     -10.270477      -279.4739
  63   2.0000     -10.270320      -279.4696
  64   2.0000     -10.269345      -279.4431
  65   2.0000     -10.267292      -279.3872
  66   2.0000     -10.266184      -279.3571
  67   2.0000     -10.265020      -279.3254
  68   2.0000     -10.263827      -279.2929
  69   2.0000     -10.263396      -279.2812
  70   2.0000     -10.259518      -279.1757
  71   2.0000     -10.253661      -279.0163
  72   2.0000      -9.539256      -259.5763
  73   2.0000      -9.535830      -259.4831
  74   2.0000      -9.530232      -259.3308
  75   2.0000      -9.527589      -259.2589
  76   2.0000      -8.056278      -219.2225
  77   2.0000      -8.052130      -219.1096
  78   2.0000      -8.051097      -219.0815
  79   2.0000      -8.046002      -218.9429
  80   2.0000      -8.045072      -218.9175
  81   2.0000      -8.043226      -218.8673
  82   2.0000      -8.042427      -218.8456
  83   2.0000      -8.040393      -218.7902
  84   2.0000      -8.039671      -218.7706
  85   2.0000      -8.030966      -218.5337
  86   2.0000      -8.027214      -218.4316
  87   2.0000      -7.309465      -198.9007
  88   2.0000      -7.306070      -198.8083
  89   2.0000      -7.300417      -198.6544
  90   2.0000      -7.299349      -198.6254
  91   2.0000      -7.299295      -198.6239
  92   2.0000      -7.297798      -198.5832
  93   2.0000      -7.295904      -198.5317
  94   2.0000      -7.295831      -198.5296
  95   2.0000      -7.290344      -198.3803
  96   2.0000      -7.290258      -198.3780
  97   2.0000      -7.287682      -198.3079
  98   2.0000      -7.287602      -198.3057
  99   2.0000      -6.025773      -163.9696
 100   2.0000      -6.021521      -163.8539
 101   2.0000      -6.021430      -163.8514
 102   2.0000      -6.020442      -163.8245
 103   2.0000      -6.018211      -163.7638
 104   2.0000      -6.017213      -163.7367
 105   2.0000      -6.016226      -163.7098
 106   2.0000      -6.015752      -163.6969
 107   2.0000      -6.014530      -163.6637
 108   2.0000      -6.014236      -163.6557
 109   2.0000      -6.013149      -163.6261
 110   2.0000      -6.012904      -163.6194
 111   2.0000      -6.011730      -163.5875
 112   2.0000      -6.011502      -163.5813
 113   2.0000      -6.010537      -163.5550
 114   2.0000      -6.009713      -163.5326
 115   2.0000      -6.009229      -163.5194
 116   2.0000      -6.008468      -163.4987
 117   2.0000      -6.007586      -163.4747
 118   2.0000      -6.007272      -163.4662
 119   2.0000      -6.006786      -163.4529
 120   2.0000      -6.005535      -163.4189
 121   2.0000      -6.004903      -163.4017
 122   2.0000      -6.004781      -163.3984
 123   2.0000      -6.004511      -163.3910
 124   2.0000      -6.002452      -163.3350
 125   2.0000      -6.001487      -163.3088
 126   2.0000      -6.000657      -163.2862
 127   2.0000      -5.997025      -163.1873
 128   2.0000      -5.996238      -163.1659
 129   2.0000      -5.992607      -163.0671
 130   2.0000      -5.992511      -163.0645
 131   2.0000      -5.988495      -162.9552
 132   2.0000      -1.162127       -31.6231
 133   2.0000      -1.155354       -31.4388
 134   2.0000      -1.010658       -27.5014
 135   2.0000      -1.000344       -27.2207
 136   2.0000      -0.997645       -27.1473
 137   2.0000      -0.996639       -27.1199
 138   2.0000      -0.990845       -26.9623
 139   2.0000      -0.990183       -26.9443
 140   2.0000      -0.985330       -26.8122
 141   2.0000      -0.979889       -26.6641
 142   2.0000      -0.972169       -26.4541
 143   2.0000      -0.963491       -26.2179
 144   2.0000      -0.954032       -25.9605
 145   2.0000      -0.943074       -25.6623
 146   2.0000      -0.938085       -25.5266
 147   2.0000      -0.933350       -25.3977
 148   2.0000      -0.928523       -25.2664
 149   2.0000      -0.909092       -24.7377
 150   2.0000      -0.897301       -24.4168
 151   2.0000      -0.896822       -24.4038
 152   2.0000      -0.884630       -24.0720
 153   2.0000      -0.874281       -23.7904
 154   2.0000      -0.862796       -23.4779
 155   2.0000      -0.857612       -23.3368
 156   2.0000      -0.850613       -23.1463
 157   2.0000      -0.847670       -23.0663
 158   2.0000      -0.843293       -22.9472
 159   2.0000      -0.840551       -22.8726
 160   2.0000      -0.836585       -22.7646
 161   2.0000      -0.833476       -22.6800
 162   2.0000      -0.831870       -22.6363
 163   2.0000      -0.817523       -22.2459
 164   2.0000      -0.816513       -22.2184
 165   2.0000      -0.806828       -21.9549
 166   2.0000      -0.803720       -21.8703
 167   2.0000      -0.802699       -21.8425
 168   2.0000      -0.798138       -21.7184
 169   2.0000      -0.794496       -21.6193
 170   2.0000      -0.789567       -21.4852
 171   2.0000      -0.788074       -21.4446
 172   2.0000      -0.782010       -21.2796
 173   2.0000      -0.778460       -21.1830
 174   2.0000      -0.770532       -20.9672
 175   2.0000      -0.768067       -20.9002
 176   2.0000      -0.767311       -20.8796
 177   2.0000      -0.745121       -20.2758
 178   2.0000      -0.742687       -20.2095
 179   2.0000      -0.733051       -19.9473
 180   2.0000      -0.719503       -19.5787
 181   2.0000      -0.703785       -19.1510
 182   2.0000      -0.691761       -18.8238
 183   2.0000      -0.684186       -18.6176
 184   2.0000      -0.670960       -18.2577
 185   2.0000      -0.664508       -18.0822
 186   2.0000      -0.660860       -17.9829
 187   2.0000      -0.650790       -17.7089
 188   2.0000      -0.648534       -17.6475
 189   2.0000      -0.642136       -17.4734
 190   2.0000      -0.638606       -17.3774
 191   2.0000      -0.638028       -17.3616
 192   2.0000      -0.634316       -17.2606
 193   2.0000      -0.627255       -17.0685
 194   2.0000      -0.625824       -17.0295
 195   2.0000      -0.624249       -16.9867
 196   2.0000      -0.620953       -16.8970
 197   2.0000      -0.615021       -16.7356
 198   2.0000      -0.608005       -16.5447
 199   2.0000      -0.605788       -16.4843
 200   2.0000      -0.597828       -16.2677
 201   2.0000      -0.594975       -16.1901
 202   2.0000      -0.589209       -16.0332
 203   2.0000      -0.584551       -15.9064
 204   2.0000      -0.580747       -15.8029
 205   2.0000      -0.577654       -15.7188
 206   2.0000      -0.573865       -15.6157
 207   2.0000      -0.570884       -15.5345
 208   2.0000      -0.564416       -15.3585
 209   2.0000      -0.564277       -15.3548
 210   2.0000      -0.559577       -15.2269
 211   2.0000      -0.556915       -15.1544
 212   2.0000      -0.553358       -15.0576
 213   2.0000      -0.544252       -14.8099
 214   2.0000      -0.542113       -14.7516
 215   2.0000      -0.536149       -14.5894
 216   2.0000      -0.535255       -14.5650
 217   2.0000      -0.528628       -14.3847
 218   2.0000      -0.523562       -14.2469
 219   2.0000      -0.521440       -14.1891
 220   2.0000      -0.519857       -14.1460
 221   2.0000      -0.517497       -14.0818
 222   2.0000      -0.516728       -14.0609
 223   2.0000      -0.512672       -13.9505
 224   2.0000      -0.511399       -13.9159
 225   2.0000      -0.509639       -13.8680
 226   2.0000      -0.509352       -13.8602
 227   2.0000      -0.508619       -13.8402
 228   2.0000      -0.508507       -13.8372
 229   2.0000      -0.505278       -13.7493
 230   2.0000      -0.499455       -13.5909
 231   2.0000      -0.498419       -13.5627
 232   2.0000      -0.497621       -13.5410
 233   2.0000      -0.495192       -13.4749
 234   2.0000      -0.492795       -13.4096
 235   2.0000      -0.490457       -13.3460
 236   2.0000      -0.486492       -13.2381
 237   2.0000      -0.484291       -13.1782
 238   2.0000      -0.483342       -13.1524
 239   2.0000      -0.480904       -13.0861
 240   2.0000      -0.479073       -13.0363
 241   2.0000      -0.477440       -12.9918
 242   2.0000      -0.476161       -12.9570
 243   2.0000      -0.472636       -12.8611
 244   2.0000      -0.467932       -12.7331
 245   2.0000      -0.466150       -12.6846
 246   2.0000      -0.465588       -12.6693
 247   2.0000      -0.464025       -12.6268
 248   2.0000      -0.462860       -12.5951
 249   2.0000      -0.462637       -12.5890
 250   2.0000      -0.459302       -12.4982
 251   2.0000      -0.457025       -12.4363
 252   2.0000      -0.456158       -12.4127
 253   2.0000      -0.454957       -12.3800
 254   2.0000      -0.454202       -12.3595
 255   2.0000      -0.453043       -12.3279
 256   2.0000      -0.452351       -12.3091
 257   2.0000      -0.450613       -12.2618
 258   2.0000      -0.445007       -12.1093
 259   2.0000      -0.442447       -12.0396
 260   2.0000      -0.440726       -11.9928
 261   2.0000      -0.437404       -11.9024
 262   2.0000      -0.436467       -11.8769
 263   2.0000      -0.435112       -11.8400
 264   2.0000      -0.433084       -11.7848
 265   2.0000      -0.427718       -11.6388
 266   2.0000      -0.423942       -11.5360
 267   2.0000      -0.421490       -11.4693
 268   2.0000      -0.420317       -11.4374
 269   2.0000      -0.418490       -11.3877
 270   2.0000      -0.416347       -11.3294
 271   2.0000      -0.414137       -11.2692
 272   2.0000      -0.413722       -11.2579
 273   2.0000      -0.410450       -11.1689
 274   2.0000      -0.409443       -11.1415
 275   2.0000      -0.406000       -11.0478
 276   2.0000      -0.405173       -11.0253
 277   2.0000      -0.404428       -11.0051
 278   2.0000      -0.403506       -10.9799
 279   2.0000      -0.399969       -10.8837
 280   2.0000      -0.396614       -10.7924
 281   2.0000      -0.395413       -10.7597
 282   2.0000      -0.384370       -10.4592
 283   2.0000      -0.382179       -10.3996
 284   2.0000      -0.380863       -10.3638
 285   2.0000      -0.378950       -10.3118
 286   2.0000      -0.376748       -10.2518
 287   2.0000      -0.374287       -10.1849
 288   2.0000      -0.372284       -10.1304
 289   2.0000      -0.370915       -10.0931
 290   2.0000      -0.368100       -10.0165
 291   2.0000      -0.360059        -9.7977
 292   2.0000      -0.350535        -9.5385
 293   2.0000      -0.329463        -8.9652
 294   2.0000      -0.319303        -8.6887
 295   2.0000      -0.313913        -8.5420
 296   2.0000      -0.312845        -8.5129
 297   2.0000      -0.310954        -8.4615
 298   2.0000      -0.307524        -8.3682
 299   2.0000      -0.305825        -8.3219
 300   2.0000      -0.304566        -8.2877
 301   2.0000      -0.301750        -8.2110
 302   2.0000      -0.298461        -8.1215
 303   2.0000      -0.295894        -8.0517
 304   2.0000      -0.291638        -7.9359
 305   2.0000      -0.289868        -7.8877
 306   2.0000      -0.287131        -7.8132
 307   2.0000      -0.281373        -7.6565
 308   2.0000      -0.259583        -7.0636
 309   2.0000      -0.245996        -6.6939
 310   2.0000      -0.232884        -6.3371
 311   2.0000      -0.212768        -5.7897
 312   0.0000      -0.055189        -1.5018
 313   0.0000      -0.033991        -0.9249
 314   0.0000      -0.017177        -0.4674
 315   0.0000      -0.003809        -0.1037
 316   0.0000       0.014777         0.4021

MULLIKEN ATOMIC CHARGES
-----------------------
   0 C :   -0.050098
   1 C :    0.001942
   2 C :    0.050406
   3 C :    0.136152
   4 C :   -0.207700
   5 C :    0.035082
   6 C :    0.082859
   7 C :   -0.267332
   8 S :    0.133521
   9 C :    0.121341
  10 Cl:   -0.098242
  11 C :   -0.138786
  12 C :    0.097612
  13 C :    0.132622
  14 C :   -0.157858
  15 S :    0.098395
  16 C :   -0.208561
  17 C :    0.032100
  18 C :    0.085214
  19 C :   -0.267137
  20 S :    0.134235
  21 C :    0.122563
  22 Cl:   -0.096143
  23 C :   -0.112006
  24 C :   -0.006558
  25 S :    0.128367
  26 C :   -0.129212
  27 C :    0.240103
  28 O :   -0.319663
  29 C :    0.180209
  30 C :   -0.137337
  31 C :   -0.006334
  32 S :    0.130388
  33 C :   -0.017830
  34 C :   -0.061072
  35 C :   -0.092587
  36 C :    0.120757
  37 C :   -0.077773
  38 S :    0.134371
  39 C :   -0.141939
  40 C :    0.237583
  41 O :   -0.327034
  42 C :    0.181907
  43 C :   -0.112300
  44 C :   -0.014839
  45 S :    0.113926
  46 C :    0.013731
  47 C :   -0.102336
  48 C :    0.103065
  49 C :    0.123396
  50 C :   -0.211280
  51 C :    0.031227
  52 C :    0.079507
  53 C :   -0.263759
  54 S :    0.146110
  55 C :    0.120047
  56 Cl:   -0.094876
  57 C :   -0.158770
  58 C :    0.046549
  59 C :    0.143837
  60 C :   -0.139830
  61 S :    0.110489
  62 C :   -0.212780
  63 C :    0.035559
  64 C :    0.084636
  65 C :   -0.267225
  66 S :    0.136475
  67 C :    0.123965
  68 Cl:   -0.091527
  69 C :    0.001684
  70 C :   -0.047436
  71 S :    0.110544
  72 H :    0.022071
  73 H :   -0.014961
  74 H :   -0.007942
  75 H :    0.021310
  76 H :    0.034994
  77 H :    0.030584
  78 H :   -0.009792
  79 H :    0.034927
  80 H :    0.028329
  81 H :    0.022756
  82 H :   -0.020150
  83 H :    0.024893
  84 H :    0.044436
  85 H :    0.025860
  86 H :   -0.021772
  87 H :   -0.024316
  88 H :    0.009105
  89 H :    0.033398
  90 H :    0.033082
  91 H :    0.039653
  92 H :    0.027950
  93 H :    0.027446
  94 H :   -0.026454
  95 H :   -0.021400
  96 H :   -0.011338
  97 H :    0.032549
  98 H :    0.037350
  99 H :    0.023285
 100 H :   -0.007546
 101 H :    0.036633
 102 H :    0.030577
 103 H :    0.024725
 104 H :   -0.010902
 105 H :    0.026342
Sum of atomic charges:   -0.0000000

LOEWDIN ATOMIC CHARGES
----------------------
   0 C :   -0.167353
   1 C :   -0.071686
   2 C :   -0.049666
   3 C :   -0.056830
   4 C :   -0.167455
   5 C :   -0.077502
   6 C :   -0.178402
   7 C :   -0.202556
   8 S :    0.443563
   9 C :   -0.062023
  10 Cl:    0.121216
  11 C :   -0.150533
  12 C :   -0.037576
  13 C :   -0.061274
  14 C :   -0.146755
  15 S :    0.408129
  16 C :   -0.166937
  17 C :   -0.078675
  18 C :   -0.177982
  19 C :   -0.202551
  20 S :    0.445162
  21 C :   -0.061887
  22 Cl:    0.123002
  23 C :   -0.091893
  24 C :   -0.155493
  25 S :    0.433131
  26 C :   -0.229433
  27 C :    0.021605
  28 O :   -0.100781
  29 C :    0.081135
  30 C :   -0.106697
  31 C :   -0.163099
  32 S :    0.442184
  33 C :   -0.196154
  34 C :   -0.062385
  35 C :   -0.063721
  36 C :   -0.057259
  37 C :   -0.182907
  38 S :    0.451590
  39 C :   -0.214732
  40 C :    0.010860
  41 O :   -0.105366
  42 C :    0.080939
  43 C :   -0.085243
  44 C :   -0.188885
  45 S :    0.460932
  46 C :   -0.165156
  47 C :   -0.061523
  48 C :   -0.034491
  49 C :   -0.058048
  50 C :   -0.171653
  51 C :   -0.071083
  52 C :   -0.179413
  53 C :   -0.199683
  54 S :    0.437086
  55 C :   -0.061640
  56 Cl:    0.122585
  57 C :   -0.153437
  58 C :   -0.045203
  59 C :   -0.054470
  60 C :   -0.143465
  61 S :    0.407216
  62 C :   -0.171302
  63 C :   -0.076363
  64 C :   -0.177449
  65 C :   -0.199493
  66 S :    0.445648
  67 C :   -0.061133
  68 Cl:    0.126859
  69 C :   -0.070837
  70 C :   -0.162443
  71 S :    0.397996
  72 H :    0.023300
  73 H :    0.017779
  74 H :    0.026525
  75 H :    0.032567
  76 H :    0.038474
  77 H :    0.037110
  78 H :    0.025718
  79 H :    0.038611
  80 H :    0.036458
  81 H :    0.032832
  82 H :    0.009874
  83 H :    0.016805
  84 H :    0.032065
  85 H :    0.017120
  86 H :    0.024203
  87 H :    0.022649
  88 H :    0.034162
  89 H :    0.030850
  90 H :    0.030659
  91 H :    0.030418
  92 H :    0.017799
  93 H :    0.017939
  94 H :    0.029731
  95 H :    0.028072
  96 H :    0.033431
  97 H :    0.038030
  98 H :    0.039948
  99 H :    0.033387
 100 H :    0.026567
 101 H :    0.039719
 102 H :    0.037528
 103 H :    0.033936
 104 H :    0.019618
 105 H :    0.025255

  Mayer bond orders larger than 0.100000
B(  0-C ,  1-C ) :   1.6494 B(  0-C , 15-S ) :   1.1042 B(  0-C , 72-H ) :   0.9668
B(  1-C ,  2-C ) :   1.1797 B(  1-C , 73-H ) :   0.9767 B(  2-C ,  3-C ) :   1.3096
B(  2-C , 14-C ) :   1.2831 B(  3-C ,  4-C ) :   0.9790 B(  3-C , 11-C ) :   1.4233
B(  4-C ,  5-C ) :   1.5589 B(  4-C ,  8-S ) :   1.1320 B(  5-C ,  6-C ) :   1.2177
B(  5-C , 74-H ) :   0.9959 B(  6-C ,  7-C ) :   1.6088 B(  6-C , 10-Cl) :   0.9968
B(  7-C ,  8-S ) :   1.1267 B(  7-C ,  9-C ) :   1.0810 B(  9-C , 75-H ) :   0.9449
B(  9-C , 76-H ) :   0.9497 B(  9-C , 77-H ) :   0.9490 B( 11-C , 12-C ) :   1.2658
B( 11-C , 25-S ) :   1.0289 B( 12-C , 13-C ) :   1.3062 B( 12-C , 23-C ) :   1.1846
B( 13-C , 14-C ) :   1.4171 B( 13-C , 16-C ) :   0.9837 B( 14-C , 15-S ) :   1.0698
B( 16-C , 17-C ) :   1.5549 B( 16-C , 20-S ) :   1.1318 B( 17-C , 18-C ) :   1.2187
B( 17-C , 78-H ) :   0.9961 B( 18-C , 19-C ) :   1.6068 B( 18-C , 22-Cl) :   0.9992
B( 19-C , 20-S ) :   1.1270 B( 19-C , 21-C ) :   1.0831 B( 21-C , 79-H ) :   0.9496
B( 21-C , 80-H ) :   0.9483 B( 21-C , 81-H ) :   0.9442 B( 23-C , 24-C ) :   1.5556
B( 23-C , 82-H ) :   0.9729 B( 24-C , 25-S ) :   1.0753 B( 24-C , 26-C ) :   1.1686
B( 26-C , 27-C ) :   1.4692 B( 26-C , 31-C ) :   0.1078 B( 26-C , 32-S ) :   1.0953
B( 27-C , 28-O ) :   1.1475 B( 27-C , 30-C ) :   1.2006 B( 28-O , 29-C ) :   0.9541
B( 29-C , 83-H ) :   0.9709 B( 29-C , 84-H ) :   0.9799 B( 29-C , 85-H ) :   0.9709
B( 30-C , 31-C ) :   1.4646 B( 30-C , 86-H ) :   1.0026 B( 31-C , 32-S ) :   1.1321
B( 31-C , 33-C ) :   1.1619 B( 33-C , 34-C ) :   1.4726 B( 33-C , 38-S ) :   1.0900
B( 34-C , 35-C ) :   1.2867 B( 34-C , 87-H ) :   0.9951 B( 35-C , 36-C ) :   1.1078
B( 35-C , 37-C ) :   1.4864 B( 36-C , 88-H ) :   0.9409 B( 36-C , 89-H ) :   0.9370
B( 36-C , 90-H ) :   0.9384 B( 37-C , 38-S ) :   1.1220 B( 37-C , 39-C ) :   1.1690
B( 39-C , 40-C ) :   1.4491 B( 39-C , 44-C ) :   0.1182 B( 39-C , 45-S ) :   1.1099
B( 40-C , 41-O ) :   1.1292 B( 40-C , 43-C ) :   1.2221 B( 41-O , 42-C ) :   0.9542
B( 42-C , 91-H ) :   0.9792 B( 42-C , 92-H ) :   0.9707 B( 42-C , 93-H ) :   0.9706
B( 43-C , 44-C ) :   1.4765 B( 43-C , 94-H ) :   1.0037 B( 44-C , 45-S ) :   1.1146
B( 44-C , 46-C ) :   1.1084 B( 46-C , 47-C ) :   1.5800 B( 46-C , 61-S ) :   1.0556
B( 47-C , 48-C ) :   1.1690 B( 47-C , 95-H ) :   0.9930 B( 48-C , 49-C ) :   1.3258
B( 48-C , 60-C ) :   1.2723 B( 49-C , 50-C ) :   0.9832 B( 49-C , 57-C ) :   1.3978
B( 50-C , 51-C ) :   1.5487 B( 50-C , 54-S ) :   1.1380 B( 51-C , 52-C ) :   1.2144
B( 51-C , 96-H ) :   1.0096 B( 52-C , 53-C ) :   1.6025 B( 52-C , 56-Cl) :   1.0013
B( 53-C , 54-S ) :   1.1287 B( 53-C , 55-C ) :   1.0834 B( 55-C , 97-H ) :   0.9488
B( 55-C , 98-H ) :   0.9484 B( 55-C , 99-H ) :   0.9450 B( 57-C , 58-C ) :   1.2837
B( 57-C , 71-S ) :   1.0755 B( 58-C , 59-C ) :   1.3081 B( 58-C , 69-C ) :   1.1852
B( 59-C , 60-C ) :   1.4237 B( 59-C , 62-C ) :   0.9837 B( 60-C , 61-S ) :   1.0561
B( 62-C , 63-C ) :   1.5552 B( 62-C , 66-S ) :   1.1321 B( 63-C , 64-C ) :   1.2212
B( 63-C ,100-H ) :   0.9946 B( 64-C , 65-C ) :   1.6073 B( 64-C , 68-Cl) :   1.0036
B( 65-C , 66-S ) :   1.1272 B( 65-C , 67-C ) :   1.0820 B( 67-C ,101-H ) :   0.9491
B( 67-C ,102-H ) :   0.9480 B( 67-C ,103-H ) :   0.9446 B( 69-C , 70-C ) :   1.6485
B( 69-C ,104-H ) :   0.9772 B( 70-C , 71-S ) :   1.1059 B( 70-C ,105-H ) :   0.9660

-----------------------------------------------------------------------------
         ABSORPTION SPECTRUM VIA TRANSITION ELECTRIC DIPOLE MOMENTS
-----------------------------------------------------------------------------
State   Energy  Wavelength   fosc         T2         TX        TY        TZ
        (cm-1)    (nm)                  (au**2)     (au)      (au)      (au)
-----------------------------------------------------------------------------
   0   20064.2    498.4   2.465338114  40.45102   4.17707   3.87336   2.82847
   1   25309.2    395.1   0.108256742   1.40816  -0.99784   0.36826   0.52617
   2   26426.4    378.4   0.140015343   1.74427  -0.97445  -0.64368  -0.61676
   3   27018.4    370.1   0.449560964   5.47779  -1.25821   0.20110   1.96323
   4   28440.0    351.6   0.339578756   3.93085  -1.46060   0.04960   1.33979
   5   29537.0    338.6   0.009754870   0.10873  -0.16406  -0.22179  -0.18061
   6   30364.3    329.3   0.018887623   0.20478  -0.29389  -0.12789  -0.31946
   7   32619.6    306.6   0.237607723   2.39805   0.54394  -0.51252  -1.35628
   8   33838.7    295.5   0.019930702   0.19390  -0.12537  -0.05663  -0.41830
   9   34124.3    293.0   0.035343239   0.34097  -0.04231   0.21527   0.54115
  10   34316.5    291.4   0.551661936   5.29232  -2.04164  -0.90661   0.54962
  11   36049.1    277.4   0.015809145   0.14437   0.26535   0.03606  -0.26956
  12   36404.0    274.7   0.010335672   0.09347  -0.11525  -0.14415  -0.24374
  13   36691.2    272.5   0.020204012   0.18128   0.10207   0.27450   0.30905
  14   36855.1    271.3   0.123985979   1.10752  -0.84972  -0.12272   0.60863
  15   37028.8    270.1   0.108169126   0.96170   0.60774   0.60369   0.47740
  16   37319.5    268.0   0.243935613   2.15186   1.33858   0.55939  -0.21714
  17   37479.8    266.8   0.021889700   0.19227  -0.14568   0.35726   0.20836
  18   37986.8    263.2   0.008620438   0.07471   0.22933  -0.03086  -0.14548
  19   38005.1    263.1   0.150564158   1.30423  -0.63415  -0.66327  -0.67982
  20   38818.5    257.6   0.093672656   0.79442   0.83352   0.26268  -0.17509
  21   38947.1    256.8   0.016208822   0.13701   0.31263   0.16882  -0.10379
  22   39642.4    252.3   0.016475781   0.13682  -0.28942   0.01738   0.22969
  23   39704.3    251.9   0.114580200   0.95005   0.69852   0.00716  -0.67975
  24   40050.9    249.7   0.035604724   0.29266   0.44892   0.22255  -0.20397

FINAL SINGLE POINT ENERGY     -8482.951113797926

DIPOLE MOMENT
-------------
                                X             Y             Z
Electronic contribution:     -0.28483      -2.91153     -16.42300
Nuclear contribution   :      1.48550       4.37021      18.60202
                        -----------------------------------------
Total Dipole Moment    :      1.20067       1.45868       2.17903
                        -----------------------------------------
Magnitude (a.u.)       :      2.88401
Magnitude (Debye)      :      7.33057

Rotational constants in cm-1:     0.001056     0.000178     0.000154
Rotational constants in MHz :    31.647133     5.324452     4.630832

                             ****ORCA TERMINATED NORMALLY****
TOTAL RUN TIME: 0 days 0 hours 9 minutes 12 seconds 281 msec
