                         Program Version 4.2.0 -  RELEASE  -
|  1> # ORCA input file
|  2> # SCF done       -209.175755818625          0.000592411205
|  3> ! CAM-B3LYP def2-SVP def2/J RIJCOSX Grid4 TightSCF
|  4> %maxcore 5000
|  5> %tddft
|  6>     Mode sTDDFT
|  7>     Ethresh 5.0
|  8>     maxcore 5000
|  9> end
| 10>
| 11> %pal
| 12>   nprocs 6
| 13>   end
| 14> * xyz 0 1
| 15>    C        3.85565         7.30841        -5.62358
| 16>    C        4.87201         7.10452        -4.76217
| 17>    C        4.90266         5.77790        -4.23946
| 18>    C        5.80681         5.22466        -3.31444
| 19>    C        6.86121         5.99685        -2.68602
| 20>    C        8.13191         5.59473        -2.39168
| 21>    C        8.87588         6.58563        -1.71476
| 22>    C        8.19283         7.74075        -1.47224
| 23>    S        6.58483         7.61649        -2.10216
| 24>    C        8.65672         8.97397        -0.78765
| 25>   Cl       10.51220         6.33726        -1.23987
| 26>    C        5.62867         3.88077        -3.00013
| 27>    C        4.57896         3.08857        -3.52756
| 28>    C        3.65953         3.64888        -4.43508
| 29>    C        3.86478         4.98284        -4.78010
| 30>    S        2.87249         5.90905        -5.87373
| 31>    C        2.54287         2.90002        -4.97466
| 32>    C        2.03374         2.94867        -6.24071
| 33>    C        0.90248         2.12095        -6.40759
| 34>    C        0.52499         1.44417        -5.28515
| 35>    S        1.59509         1.82555        -3.97922
| 36>    C       -0.60758         0.50201        -5.09977
| 37>   Cl        0.07866         1.98685        -7.91379
| 38>    C        4.62581         1.76177        -3.03794
| 39>    C        5.64222         1.53802        -2.15441
| 40>    S        6.61378         2.96909        -1.88680
| 41>    C        5.95117         0.31731        -1.49943
| 42>    C        6.98732         0.00391        -0.65170
| 43>    S        8.29771         0.93028        -0.00050
| 44>    C        8.84149        -0.47493         0.91586
| 45>    C       10.03968        -0.33890         1.78099
| 46>    C        8.07263        -1.56834         0.72250
| 47>    C        6.99980        -1.34308        -0.18747
| 48>    C        5.93786        -2.07947        -0.68089
| 49>    S        4.94044        -1.08729        -1.71525
| 50>    C        5.60499        -3.46384        -0.48041
| 51>    C        4.28840        -3.92822        -0.43731
| 52>    C        3.95487        -5.29357        -0.26228
| 53>    N        2.61742        -5.54418        -0.17959
| 54>    C        1.93112        -4.47910        -0.29860
| 55>    S        2.82278        -2.99496        -0.52229
| 56>    C        4.94792        -6.27311        -0.14840
| 57>    C        6.25902        -5.82302        -0.19492
| 58>    C        6.59770        -4.45376        -0.35748
| 59>    N        7.93720        -4.22688        -0.45218
| 60>    C        8.61289        -5.30422        -0.37980
| 61>    S        7.70781        -6.78347        -0.17996
| 62>    C        4.58024        -7.68149        -0.04348
| 63>    C        5.00975        -8.52237         0.97353
| 64>    C        4.60593        -9.87667         1.06305
| 65>    N        5.09463       -10.53530         2.14824
| 66>    C        5.81645        -9.77891         2.87734
| 67>    S        6.01462        -8.13244         2.33679
| 68>    C        3.79448       -10.47228         0.07915
| 69>    C        3.35519        -9.61783        -0.93418
| 70>    C        3.72482        -8.24902        -0.99338
| 71>    N        3.20098        -7.56926        -2.05157
| 72>    C        2.44124        -8.29836        -2.75909
| 73>    S        2.26944        -9.96487        -2.24505
| 74>    C        3.44720       -11.85700         0.22699
| 75>    C        3.20595       -12.79744        -0.71680
| 76>    C        2.49405       -14.05415        -0.33081
| 77>    O        2.28968       -14.45305         0.79062
| 78>    C        2.05115       -14.65134        -1.60476
| 79>    C        1.24479       -15.73346        -1.81096
| 80>    C        0.91568       -16.10586        -3.13347
| 81>    C        1.42786       -15.34127        -4.22239
| 82>    C        1.08410       -15.70985        -5.53766
| 83>    C        0.27253       -16.79093        -5.74143
| 84>    C       -0.23796       -17.55741        -4.68470
| 85>    C        0.08462       -17.21298        -3.40162
| 86>    F       -0.05755       -17.14391        -6.99672
| 87>    C        2.26981       -14.23134        -3.97965
| 88>    C        2.58200       -13.89567        -2.68990
| 89>    C        3.42281       -12.83354        -2.14878
| 90>    C        4.38495       -12.14915        -2.84265
| 91>    C        5.32954       -11.28911        -2.24586
| 92>    N        6.14010       -10.60303        -1.80991
| 93>    C        4.59048       -12.27769        -4.23213
| 94>    N        4.78347       -12.33117        -5.36217
| 95>    H        3.61201         8.20740        -6.15488
| 96>    H        5.58797         7.86270        -4.50590
| 97>    H        8.54505         4.64371        -2.67102
| 98>    H        9.70038         8.86329        -0.50411
| 99>    H        8.06501         9.16196         0.10796
|100>    H        8.55631         9.83850        -1.44295
|101>    H        2.46172         3.52099        -7.04221
|102>    H       -1.09418         0.32301        -6.05535
|103>    H       -1.33900         0.91304        -4.40393
|104>    H       -0.25545        -0.44591        -4.69503
|105>    H        3.94575         0.98320        -3.33040
|106>    H       10.90747        -0.05538         1.18611
|107>    H       10.24763        -1.28010         2.28361
|108>    H        9.88402         0.43790         2.52928
|109>    H        8.25668        -2.51343         1.19632
|110>    H        0.85930        -4.45718        -0.26446
|111>    H        9.68351        -5.33405        -0.43505
|112>    H        6.28959       -10.10619         3.78247
|113>    H        1.92636        -7.95961        -3.63631
|114>    H        3.33976       -12.18830         1.25527
|115>    H        0.85928       -16.29748        -0.97488
|116>    H        1.46210       -15.14478        -6.37529
|117>    H       -0.87338       -18.40004        -4.90670
|118>    H       -0.29702       -17.78781        -2.57129
|119>    H        2.63687       -13.66478        -4.82067
|120> *
|121>
|122>                          ****END OF INPUT****

CARTESIAN COORDINATES (ANGSTROEM)
---------------------------------
  C      3.855650    7.308410   -5.623580
  C      4.872010    7.104520   -4.762170
  C      4.902660    5.777900   -4.239460
  C      5.806810    5.224660   -3.314440
  C      6.861210    5.996850   -2.686020
  C      8.131910    5.594730   -2.391680
  C      8.875880    6.585630   -1.714760
  C      8.192830    7.740750   -1.472240
  S      6.584830    7.616490   -2.102160
  C      8.656720    8.973970   -0.787650
  Cl    10.512200    6.337260   -1.239870
  C      5.628670    3.880770   -3.000130
  C      4.578960    3.088570   -3.527560
  C      3.659530    3.648880   -4.435080
  C      3.864780    4.982840   -4.780100
  S      2.872490    5.909050   -5.873730
  C      2.542870    2.900020   -4.974660
  C      2.033740    2.948670   -6.240710
  C      0.902480    2.120950   -6.407590
  C      0.524990    1.444170   -5.285150
  S      1.595090    1.825550   -3.979220
  C     -0.607580    0.502010   -5.099770
  Cl     0.078660    1.986850   -7.913790
  C      4.625810    1.761770   -3.037940
  C      5.642220    1.538020   -2.154410
  S      6.613780    2.969090   -1.886800
  C      5.951170    0.317310   -1.499430
  C      6.987320    0.003910   -0.651700
  S      8.297710    0.930280   -0.000500
  C      8.841490   -0.474930    0.915860
  C     10.039680   -0.338900    1.780990
  C      8.072630   -1.568340    0.722500
  C      6.999800   -1.343080   -0.187470
  C      5.937860   -2.079470   -0.680890
  S      4.940440   -1.087290   -1.715250
  C      5.604990   -3.463840   -0.480410
  C      4.288400   -3.928220   -0.437310
  C      3.954870   -5.293570   -0.262280
  N      2.617420   -5.544180   -0.179590
  C      1.931120   -4.479100   -0.298600
  S      2.822780   -2.994960   -0.522290
  C      4.947920   -6.273110   -0.148400
  C      6.259020   -5.823020   -0.194920
  C      6.597700   -4.453760   -0.357480
  N      7.937200   -4.226880   -0.452180
  C      8.612890   -5.304220   -0.379800
  S      7.707810   -6.783470   -0.179960
  C      4.580240   -7.681490   -0.043480
  C      5.009750   -8.522370    0.973530
  C      4.605930   -9.876670    1.063050
  N      5.094630  -10.535300    2.148240
  C      5.816450   -9.778910    2.877340
  S      6.014620   -8.132440    2.336790
  C      3.794480  -10.472280    0.079150
  C      3.355190   -9.617830   -0.934180
  C      3.724820   -8.249020   -0.993380
  N      3.200980   -7.569260   -2.051570
  C      2.441240   -8.298360   -2.759090
  S      2.269440   -9.964870   -2.245050
  C      3.447200  -11.857000    0.226990
  C      3.205950  -12.797440   -0.716800
  C      2.494050  -14.054150   -0.330810
  O      2.289680  -14.453050    0.790620
  C      2.051150  -14.651340   -1.604760
  C      1.244790  -15.733460   -1.810960
  C      0.915680  -16.105860   -3.133470
  C      1.427860  -15.341270   -4.222390
  C      1.084100  -15.709850   -5.537660
  C      0.272530  -16.790930   -5.741430
  C     -0.237960  -17.557410   -4.684700
  C      0.084620  -17.212980   -3.401620
  F     -0.057550  -17.143910   -6.996720
  C      2.269810  -14.231340   -3.979650
  C      2.582000  -13.895670   -2.689900
  C      3.422810  -12.833540   -2.148780
  C      4.384950  -12.149150   -2.842650
  C      5.329540  -11.289110   -2.245860
  N      6.140100  -10.603030   -1.809910
  C      4.590480  -12.277690   -4.232130
  N      4.783470  -12.331170   -5.362170
  H      3.612010    8.207400   -6.154880
  H      5.587970    7.862700   -4.505900
  H      8.545050    4.643710   -2.671020
  H      9.700380    8.863290   -0.504110
  H      8.065010    9.161960    0.107960
  H      8.556310    9.838500   -1.442950
  H      2.461720    3.520990   -7.042210
  H     -1.094180    0.323010   -6.055350
  H     -1.339000    0.913040   -4.403930
  H     -0.255450   -0.445910   -4.695030
  H      3.945750    0.983200   -3.330400
  H     10.907470   -0.055380    1.186110
  H     10.247630   -1.280100    2.283610
  H      9.884020    0.437900    2.529280
  H      8.256680   -2.513430    1.196320
  H      0.859300   -4.457180   -0.264460
  H      9.683510   -5.334050   -0.435050
  H      6.289590  -10.106190    3.782470
  H      1.926360   -7.959610   -3.636310
  H      3.339760  -12.188300    1.255270
  H      0.859280  -16.297480   -0.974880
  H      1.462100  -15.144780   -6.375290
  H     -0.873380  -18.400040   -4.906700
  H     -0.297020  -17.787810   -2.571290
  H      2.636870  -13.664780   -4.820670

 Total Charge           Charge          ....    0
 Multiplicity           Mult            ....    1
 Number of Electrons    NEL             ....  638
 Basis Dimension        Dim             .... 1293

ORBITAL ENERGIES
----------------

  NO   OCC          E(Eh)            E(eV)
   0   2.0000    -101.578483     -2764.0911
   1   2.0000    -101.578303     -2764.0861
   2   2.0000     -88.967413     -2420.9264
   3   2.0000     -88.967104     -2420.9180
   4   2.0000     -88.960916     -2420.7496
   5   2.0000     -88.959279     -2420.7051
   6   2.0000     -88.956695     -2420.6347
   7   2.0000     -88.952209     -2420.5127
   8   2.0000     -88.951985     -2420.5066
   9   2.0000     -88.947284     -2420.3786
  10   2.0000     -88.943456     -2420.2745
  11   2.0000     -88.939898     -2420.1777
  12   2.0000     -24.785819      -674.4564
  13   2.0000     -19.213783      -522.8336
  14   2.0000     -14.418428      -392.3454
  15   2.0000     -14.416843      -392.3022
  16   2.0000     -14.415148      -392.2561
  17   2.0000     -14.414120      -392.2281
  18   2.0000     -14.412058      -392.1720
  19   2.0000     -14.409624      -392.1058
  20   2.0000     -10.369597      -282.1711
  21   2.0000     -10.364727      -282.0386
  22   2.0000     -10.345170      -281.5064
  23   2.0000     -10.343221      -281.4534
  24   2.0000     -10.339560      -281.3537
  25   2.0000     -10.338809      -281.3333
  26   2.0000     -10.336474      -281.2697
  27   2.0000     -10.334025      -281.2031
  28   2.0000     -10.320542      -280.8362
  29   2.0000     -10.319045      -280.7955
  30   2.0000     -10.318639      -280.7844
  31   2.0000     -10.316311      -280.7211
  32   2.0000     -10.315750      -280.7058
  33   2.0000     -10.315245      -280.6921
  34   2.0000     -10.313335      -280.6401
  35   2.0000     -10.313009      -280.6312
  36   2.0000     -10.312875      -280.6276
  37   2.0000     -10.312536      -280.6184
  38   2.0000     -10.312288      -280.6116
  39   2.0000     -10.312090      -280.6062
  40   2.0000     -10.309172      -280.5268
  41   2.0000     -10.307865      -280.4913
  42   2.0000     -10.306146      -280.4445
  43   2.0000     -10.306126      -280.4439
  44   2.0000     -10.305888      -280.4375
  45   2.0000     -10.305743      -280.4335
  46   2.0000     -10.304575      -280.4018
  47   2.0000     -10.304485      -280.3993
  48   2.0000     -10.303115      -280.3620
  49   2.0000     -10.301061      -280.3061
  50   2.0000     -10.301009      -280.3047
  51   2.0000     -10.300680      -280.2958
  52   2.0000     -10.299809      -280.2720
  53   2.0000     -10.298711      -280.2422
  54   2.0000     -10.298337      -280.2320
  55   2.0000     -10.297922      -280.2207
  56   2.0000     -10.297866      -280.2192
  57   2.0000     -10.297854      -280.2188
  58   2.0000     -10.297776      -280.2167
  59   2.0000     -10.297661      -280.2136
  60   2.0000     -10.297163      -280.2001
  61   2.0000     -10.297109      -280.1986
  62   2.0000     -10.294959      -280.1401
  63   2.0000     -10.294396      -280.1248
  64   2.0000     -10.291720      -280.0519
  65   2.0000     -10.290677      -280.0235
  66   2.0000     -10.290149      -280.0092
  67   2.0000     -10.289430      -279.9896
  68   2.0000     -10.288984      -279.9775
  69   2.0000     -10.281922      -279.7853
  70   2.0000     -10.279993      -279.7328
  71   2.0000     -10.278245      -279.6853
  72   2.0000     -10.272832      -279.5380
  73   2.0000     -10.272724      -279.5350
  74   2.0000     -10.272569      -279.5308
  75   2.0000     -10.272228      -279.5215
  76   2.0000     -10.271778      -279.5093
  77   2.0000     -10.267097      -279.3819
  78   2.0000     -10.267052      -279.3807
  79   2.0000     -10.260839      -279.2116
  80   2.0000      -9.533286      -259.4139
  81   2.0000      -9.533061      -259.4078
  82   2.0000      -8.063203      -219.4109
  83   2.0000      -8.062931      -219.4035
  84   2.0000      -8.057002      -219.2422
  85   2.0000      -8.055339      -219.1969
  86   2.0000      -8.051447      -219.0910
  87   2.0000      -8.047907      -218.9947
  88   2.0000      -8.047559      -218.9852
  89   2.0000      -8.042298      -218.8420
  90   2.0000      -8.039166      -218.7568
  91   2.0000      -8.035832      -218.6661
  92   2.0000      -7.303498      -198.7383
  93   2.0000      -7.303297      -198.7328
  94   2.0000      -7.293373      -198.4628
  95   2.0000      -7.293291      -198.4605
  96   2.0000      -7.293140      -198.4564
  97   2.0000      -7.293067      -198.4544
  98   2.0000      -6.032557      -164.1542
  99   2.0000      -6.032326      -164.1479
 100   2.0000      -6.028396      -164.0410
 101   2.0000      -6.028110      -164.0332
 102   2.0000      -6.026368      -163.9858
 103   2.0000      -6.024962      -163.9476
 104   2.0000      -6.024808      -163.9433
 105   2.0000      -6.024764      -163.9422
 106   2.0000      -6.022184      -163.8720
 107   2.0000      -6.020887      -163.8367
 108   2.0000      -6.020533      -163.8270
 109   2.0000      -6.018741      -163.7783
 110   2.0000      -6.017218      -163.7368
 111   2.0000      -6.017024      -163.7315
 112   2.0000      -6.016882      -163.7277
 113   2.0000      -6.016699      -163.7227
 114   2.0000      -6.013405      -163.6331
 115   2.0000      -6.013053      -163.6235
 116   2.0000      -6.012697      -163.6138
 117   2.0000      -6.012041      -163.5960
 118   2.0000      -6.009957      -163.5392
 119   2.0000      -6.009637      -163.5305
 120   2.0000      -6.008863      -163.5095
 121   2.0000      -6.007826      -163.4813
 122   2.0000      -6.005735      -163.4244
 123   2.0000      -6.004418      -163.3885
 124   2.0000      -6.003556      -163.3651
 125   2.0000      -6.001390      -163.3061
 126   2.0000      -6.000708      -163.2876
 127   2.0000      -5.996777      -163.1806
 128   2.0000      -1.300870       -35.3985
 129   2.0000      -1.129330       -30.7306
 130   2.0000      -1.079276       -29.3686
 131   2.0000      -1.072885       -29.1947
 132   2.0000      -1.069843       -29.1119
 133   2.0000      -1.063890       -28.9499
 134   2.0000      -1.019090       -27.7308
 135   2.0000      -1.007762       -27.4226
 136   2.0000      -1.000861       -27.2348
 137   2.0000      -1.000415       -27.2227
 138   2.0000      -0.996172       -27.1072
 139   2.0000      -0.994465       -27.0608
 140   2.0000      -0.987657       -26.8755
 141   2.0000      -0.976779       -26.5795
 142   2.0000      -0.969267       -26.3751
 143   2.0000      -0.965502       -26.2727
 144   2.0000      -0.952461       -25.9178
 145   2.0000      -0.945192       -25.7200
 146   2.0000      -0.938859       -25.5476
 147   2.0000      -0.935406       -25.4537
 148   2.0000      -0.929669       -25.2976
 149   2.0000      -0.924115       -25.1464
 150   2.0000      -0.910639       -24.7797
 151   2.0000      -0.901397       -24.5283
 152   2.0000      -0.898707       -24.4551
 153   2.0000      -0.893495       -24.3132
 154   2.0000      -0.892763       -24.2933
 155   2.0000      -0.886633       -24.1265
 156   2.0000      -0.883998       -24.0548
 157   2.0000      -0.869372       -23.6568
 158   2.0000      -0.861936       -23.4545
 159   2.0000      -0.854882       -23.2625
 160   2.0000      -0.846265       -23.0280
 161   2.0000      -0.844442       -22.9784
 162   2.0000      -0.842203       -22.9175
 163   2.0000      -0.834487       -22.7076
 164   2.0000      -0.830690       -22.6042
 165   2.0000      -0.828506       -22.5448
 166   2.0000      -0.823377       -22.4052
 167   2.0000      -0.814425       -22.1616
 168   2.0000      -0.808103       -21.9896
 169   2.0000      -0.801482       -21.8094
 170   2.0000      -0.801278       -21.8039
 171   2.0000      -0.793727       -21.5984
 172   2.0000      -0.787707       -21.4346
 173   2.0000      -0.776906       -21.1407
 174   2.0000      -0.771808       -21.0020
 175   2.0000      -0.764296       -20.7976
 176   2.0000      -0.758647       -20.6438
 177   2.0000      -0.746393       -20.3104
 178   2.0000      -0.739556       -20.1243
 179   2.0000      -0.736347       -20.0370
 180   2.0000      -0.728980       -19.8365
 181   2.0000      -0.719735       -19.5850
 182   2.0000      -0.709317       -19.3015
 183   2.0000      -0.707010       -19.2387
 184   2.0000      -0.692109       -18.8332
 185   2.0000      -0.689649       -18.7663
 186   2.0000      -0.680796       -18.5254
 187   2.0000      -0.678646       -18.4669
 188   2.0000      -0.675538       -18.3823
 189   2.0000      -0.665125       -18.0990
 190   2.0000      -0.658551       -17.9201
 191   2.0000      -0.652676       -17.7602
 192   2.0000      -0.650491       -17.7008
 193   2.0000      -0.645635       -17.5686
 194   2.0000      -0.642801       -17.4915
 195   2.0000      -0.636180       -17.3113
 196   2.0000      -0.634139       -17.2558
 197   2.0000      -0.630122       -17.1465
 198   2.0000      -0.628698       -17.1077
 199   2.0000      -0.628133       -17.0924
 200   2.0000      -0.622301       -16.9337
 201   2.0000      -0.620573       -16.8867
 202   2.0000      -0.612577       -16.6691
 203   2.0000      -0.606152       -16.4942
 204   2.0000      -0.600799       -16.3486
 205   2.0000      -0.594296       -16.1716
 206   2.0000      -0.591442       -16.0939
 207   2.0000      -0.590340       -16.0640
 208   2.0000      -0.581186       -15.8149
 209   2.0000      -0.580437       -15.7945
 210   2.0000      -0.576772       -15.6948
 211   2.0000      -0.571000       -15.5377
 212   2.0000      -0.569958       -15.5094
 213   2.0000      -0.565203       -15.3800
 214   2.0000      -0.558368       -15.1940
 215   2.0000      -0.554962       -15.1013
 216   2.0000      -0.553327       -15.0568
 217   2.0000      -0.549037       -14.9401
 218   2.0000      -0.546969       -14.8838
 219   2.0000      -0.541269       -14.7287
 220   2.0000      -0.539983       -14.6937
 221   2.0000      -0.537525       -14.6268
 222   2.0000      -0.537257       -14.6195
 223   2.0000      -0.535587       -14.5741
 224   2.0000      -0.533305       -14.5120
 225   2.0000      -0.529303       -14.4031
 226   2.0000      -0.525371       -14.2961
 227   2.0000      -0.523529       -14.2459
 228   2.0000      -0.517997       -14.0954
 229   2.0000      -0.516845       -14.0641
 230   2.0000      -0.514845       -14.0096
 231   2.0000      -0.513885       -13.9835
 232   2.0000      -0.513097       -13.9621
 233   2.0000      -0.512135       -13.9359
 234   2.0000      -0.511017       -13.9055
 235   2.0000      -0.507292       -13.8041
 236   2.0000      -0.505026       -13.7424
 237   2.0000      -0.504264       -13.7217
 238   2.0000      -0.501209       -13.6386
 239   2.0000      -0.498662       -13.5693
 240   2.0000      -0.496960       -13.5230
 241   2.0000      -0.495649       -13.4873
 242   2.0000      -0.494730       -13.4623
 243   2.0000      -0.493952       -13.4411
 244   2.0000      -0.490865       -13.3571
 245   2.0000      -0.489182       -13.3113
 246   2.0000      -0.487587       -13.2679
 247   2.0000      -0.485230       -13.2038
 248   2.0000      -0.482912       -13.1407
 249   2.0000      -0.482060       -13.1175
 250   2.0000      -0.481663       -13.1067
 251   2.0000      -0.474087       -12.9006
 252   2.0000      -0.473091       -12.8735
 253   2.0000      -0.467395       -12.7185
 254   2.0000      -0.465213       -12.6591
 255   2.0000      -0.460946       -12.5430
 256   2.0000      -0.459981       -12.5167
 257   2.0000      -0.459105       -12.4929
 258   2.0000      -0.458083       -12.4651
 259   2.0000      -0.457438       -12.4475
 260   2.0000      -0.455824       -12.4036
 261   2.0000      -0.453664       -12.3448
 262   2.0000      -0.453416       -12.3381
 263   2.0000      -0.450933       -12.2705
 264   2.0000      -0.447174       -12.1682
 265   2.0000      -0.445714       -12.1285
 266   2.0000      -0.445432       -12.1208
 267   2.0000      -0.442615       -12.0442
 268   2.0000      -0.440476       -11.9860
 269   2.0000      -0.438078       -11.9207
 270   2.0000      -0.434696       -11.8287
 271   2.0000      -0.431759       -11.7488
 272   2.0000      -0.427733       -11.6392
 273   2.0000      -0.426401       -11.6030
 274   2.0000      -0.425184       -11.5699
 275   2.0000      -0.420697       -11.4478
 276   2.0000      -0.416772       -11.3409
 277   2.0000      -0.416542       -11.3347
 278   2.0000      -0.415164       -11.2972
 279   2.0000      -0.414731       -11.2854
 280   2.0000      -0.411168       -11.1885
 281   2.0000      -0.409799       -11.1512
 282   2.0000      -0.407613       -11.0917
 283   2.0000      -0.406144       -11.0517
 284   2.0000      -0.402951       -10.9649
 285   2.0000      -0.402455       -10.9513
 286   2.0000      -0.398850       -10.8533
 287   2.0000      -0.391377       -10.6499
 288   2.0000      -0.390624       -10.6294
 289   2.0000      -0.387255       -10.5377
 290   2.0000      -0.379815       -10.3353
 291   2.0000      -0.376759       -10.2521
 292   2.0000      -0.375401       -10.2152
 293   2.0000      -0.373060       -10.1515
 294   2.0000      -0.368593       -10.0299
 295   2.0000      -0.368149       -10.0179
 296   2.0000      -0.359536        -9.7835
 297   2.0000      -0.355086        -9.6624
 298   2.0000      -0.351149        -9.5552
 299   2.0000      -0.350376        -9.5342
 300   2.0000      -0.341955        -9.3051
 301   2.0000      -0.337823        -9.1926
 302   2.0000      -0.336966        -9.1693
 303   2.0000      -0.331918        -9.0319
 304   2.0000      -0.318723        -8.6729
 305   2.0000      -0.313449        -8.5294
 306   2.0000      -0.311252        -8.4696
 307   2.0000      -0.308356        -8.3908
 308   2.0000      -0.306419        -8.3381
 309   2.0000      -0.303747        -8.2654
 310   2.0000      -0.298516        -8.1230
 311   2.0000      -0.296618        -8.0714
 312   2.0000      -0.295392        -8.0380
 313   2.0000      -0.292812        -7.9678
 314   2.0000      -0.288141        -7.8407
 315   2.0000      -0.287552        -7.8247
 316   2.0000      -0.278017        -7.5652
 317   2.0000      -0.249445        -6.7877
 318   2.0000      -0.227739        -6.1971
 319   0.0000      -0.091762        -2.4970
 320   0.0000      -0.057409        -1.5622
 321   0.0000      -0.050733        -1.3805
 322   0.0000      -0.033574        -0.9136
 323   0.0000      -0.026049        -0.7088

MULLIKEN ATOMIC CHARGES
-----------------------
   0 C :   -0.044210
   1 C :    0.000167
   2 C :    0.050668
   3 C :    0.142635
   4 C :   -0.210594
   5 C :    0.031134
   6 C :    0.085408
   7 C :   -0.267835
   8 S :    0.135848
   9 C :    0.123389
  10 Cl:   -0.092097
  11 C :   -0.137598
  12 C :    0.097716
  13 C :    0.139958
  14 C :   -0.160544
  15 S :    0.104282
  16 C :   -0.212009
  17 C :    0.034053
  18 C :    0.085211
  19 C :   -0.265846
  20 S :    0.134336
  21 C :    0.123919
  22 Cl:   -0.093087
  23 C :   -0.107094
  24 C :   -0.019606
  25 S :    0.109661
  26 C :   -0.105171
  27 C :   -0.079321
  28 S :    0.100578
  29 C :   -0.203254
  30 C :    0.121332
  31 C :    0.020554
  32 C :    0.174614
  33 C :   -0.240362
  34 S :    0.139579
  35 C :    0.095267
  36 C :   -0.141719
  37 C :    0.040035
  38 N :   -0.039968
  39 C :    0.013005
  40 S :    0.108445
  41 C :   -0.052837
  42 C :   -0.113162
  43 C :   -0.012796
  44 N :   -0.056457
  45 C :    0.010502
  46 S :    0.140172
  47 C :   -0.024624
  48 C :   -0.109177
  49 C :    0.042685
  50 N :   -0.052902
  51 C :    0.017567
  52 S :    0.131987
  53 C :   -0.014434
  54 C :   -0.119217
  55 C :    0.059828
  56 N :   -0.028023
  57 C :    0.022660
  58 S :    0.097864
  59 C :   -0.006757
  60 C :   -0.124495
  61 C :    0.139315
  62 O :   -0.136210
  63 C :    0.011250
  64 C :   -0.078298
  65 C :    0.097319
  66 C :    0.099983
  67 C :   -0.096080
  68 C :    0.301646
  69 C :   -0.032433
  70 C :   -0.006405
  71 F :   -0.189919
  72 C :   -0.086612
  73 C :    0.042685
  74 C :    0.267765
  75 C :   -0.321403
  76 C :   -0.181525
  77 N :    0.168959
  78 C :   -0.182783
  79 N :    0.159401
  80 H :    0.024852
  81 H :   -0.011425
  82 H :   -0.003469
  83 H :    0.022487
  84 H :    0.035666
  85 H :    0.031858
  86 H :   -0.007938
  87 H :    0.023255
  88 H :    0.036414
  89 H :    0.028865
  90 H :   -0.009528
  91 H :    0.034800
  92 H :    0.019421
  93 H :    0.035393
  94 H :   -0.028164
  95 H :    0.040550
  96 H :    0.044262
  97 H :    0.047064
  98 H :    0.044186
  99 H :    0.039405
 100 H :   -0.011178
 101 H :   -0.002663
 102 H :    0.004660
 103 H :   -0.008506
 104 H :   -0.006784
Sum of atomic charges:   -0.0000000

LOEWDIN ATOMIC CHARGES
----------------------
   0 C :   -0.163351
   1 C :   -0.071087
   2 C :   -0.046156
   3 C :   -0.054493
   4 C :   -0.170279
   5 C :   -0.077100
   6 C :   -0.177395
   7 C :   -0.200247
   8 S :    0.445356
   9 C :   -0.061609
  10 Cl:    0.126155
  11 C :   -0.143715
  12 C :   -0.039172
  13 C :   -0.056424
  14 C :   -0.146262
  15 S :    0.413411
  16 C :   -0.169131
  17 C :   -0.076378
  18 C :   -0.177346
  19 C :   -0.200758
  20 S :    0.446395
  21 C :   -0.061537
  22 Cl:    0.125930
  23 C :   -0.078011
  24 C :   -0.164848
  25 S :    0.417137
  26 C :   -0.207573
  27 C :   -0.187366
  28 S :    0.369312
  29 C :   -0.143334
  30 C :   -0.058997
  31 C :   -0.061201
  32 C :   -0.051167
  33 C :   -0.178665
  34 S :    0.446978
  35 C :   -0.047503
  36 C :   -0.171850
  37 C :   -0.016621
  38 N :   -0.081182
  39 C :   -0.104168
  40 S :    0.387192
  41 C :   -0.048088
  42 C :   -0.165215
  43 C :   -0.032336
  44 N :   -0.078797
  45 C :   -0.104880
  46 S :    0.406961
  47 C :   -0.012607
  48 C :   -0.167978
  49 C :   -0.008722
  50 N :   -0.088084
  51 C :   -0.094523
  52 S :    0.405429
  53 C :   -0.058965
  54 C :   -0.154136
  55 C :   -0.015806
  56 N :   -0.068951
  57 C :   -0.097785
  58 S :    0.408372
  59 C :    0.081585
  60 C :   -0.091973
  61 C :    0.085297
  62 O :   -0.135969
  63 C :   -0.060185
  64 C :    0.035453
  65 C :   -0.018980
  66 C :    0.003481
  67 C :   -0.042530
  68 C :    0.093130
  69 C :   -0.037265
  70 C :    0.005125
  71 F :   -0.064471
  72 C :    0.010074
  73 C :   -0.016824
  74 C :    0.052493
  75 C :   -0.136304
  76 C :   -0.018179
  77 N :   -0.042622
  78 C :   -0.017687
  79 N :   -0.049478
  80 H :    0.024784
  81 H :    0.019067
  82 H :    0.027275
  83 H :    0.033355
  84 H :    0.039110
  85 H :    0.037772
  86 H :    0.026165
  87 H :    0.033406
  88 H :    0.039221
  89 H :    0.036796
  90 H :    0.011998
  91 H :    0.038707
  92 H :    0.037892
  93 H :    0.038461
  94 H :    0.026608
  95 H :    0.019823
  96 H :    0.021107
  97 H :    0.022976
  98 H :    0.021885
  99 H :    0.053055
 100 H :    0.039904
 101 H :    0.042970
 102 H :    0.042081
 103 H :    0.035942
 104 H :    0.038637

  Mayer bond orders larger than 0.100000
B(  0-C ,  1-C ) :   1.6507 B(  0-C , 15-S ) :   1.1052 B(  0-C , 80-H ) :   0.9660
B(  1-C ,  2-C ) :   1.1808 B(  1-C , 81-H ) :   0.9763 B(  2-C ,  3-C ) :   1.3083
B(  2-C , 14-C ) :   1.2801 B(  3-C ,  4-C ) :   0.9840 B(  3-C , 11-C ) :   1.4186
B(  4-C ,  5-C ) :   1.5554 B(  4-C ,  8-S ) :   1.1320 B(  5-C ,  6-C ) :   1.2201
B(  5-C , 82-H ) :   0.9941 B(  6-C ,  7-C ) :   1.6062 B(  6-C , 10-Cl) :   1.0024
B(  7-C ,  8-S ) :   1.1286 B(  7-C ,  9-C ) :   1.0839 B(  9-C , 83-H ) :   0.9437
B(  9-C , 84-H ) :   0.9489 B(  9-C , 85-H ) :   0.9482 B( 11-C , 12-C ) :   1.2668
B( 11-C , 25-S ) :   1.0582 B( 12-C , 13-C ) :   1.3031 B( 12-C , 23-C ) :   1.1789
B( 13-C , 14-C ) :   1.4166 B( 13-C , 16-C ) :   0.9882 B( 14-C , 15-S ) :   1.0735
B( 16-C , 17-C ) :   1.5544 B( 16-C , 20-S ) :   1.1307 B( 17-C , 18-C ) :   1.2190
B( 17-C , 86-H ) :   0.9950 B( 18-C , 19-C ) :   1.6076 B( 18-C , 22-Cl) :   1.0024
B( 19-C , 20-S ) :   1.1271 B( 19-C , 21-C ) :   1.0833 B( 21-C , 87-H ) :   0.9440
B( 21-C , 88-H ) :   0.9492 B( 21-C , 89-H ) :   0.9478 B( 23-C , 24-C ) :   1.5681
B( 23-C , 90-H ) :   0.9716 B( 24-C , 25-S ) :   1.0611 B( 24-C , 26-C ) :   1.1565
B( 26-C , 27-C ) :   1.5211 B( 26-C , 33-C ) :   0.1190 B( 26-C , 34-S ) :   1.1260
B( 27-C , 28-S ) :   1.0424 B( 27-C , 32-C ) :   1.2184 B( 28-S , 29-C ) :   1.0458
B( 29-C , 30-C ) :   1.0709 B( 29-C , 31-C ) :   1.6963 B( 30-C , 91-H ) :   0.9476
B( 30-C , 92-H ) :   0.9567 B( 30-C , 93-H ) :   0.9487 B( 31-C , 32-C ) :   1.1360
B( 31-C , 94-H ) :   0.9848 B( 32-C , 33-C ) :   1.4677 B( 33-C , 34-S ) :   1.1160
B( 33-C , 35-C ) :   1.0293 B( 35-C , 36-C ) :   1.3671 B( 35-C , 41-C ) :   0.1037
B( 35-C , 43-C ) :   1.3583 B( 36-C , 37-C ) :   1.2807 B( 36-C , 40-S ) :   1.0664
B( 37-C , 38-N ) :   1.3307 B( 37-C , 41-C ) :   1.4078 B( 38-N , 39-C ) :   1.7659
B( 38-N , 40-S ) :   0.1062 B( 39-C , 40-S ) :   1.1015 B( 39-C , 95-H ) :   0.9626
B( 41-C , 42-C ) :   1.4376 B( 41-C , 47-C ) :   0.9182 B( 42-C , 43-C ) :   1.2598
B( 42-C , 46-S ) :   1.0800 B( 43-C , 44-N ) :   1.3397 B( 44-N , 45-C ) :   1.7507
B( 44-N , 46-S ) :   0.1061 B( 45-C , 46-S ) :   1.1079 B( 45-C , 96-H ) :   0.9633
B( 47-C , 48-C ) :   1.4228 B( 47-C , 53-C ) :   0.1054 B( 47-C , 55-C ) :   1.4217
B( 48-C , 49-C ) :   1.2803 B( 48-C , 52-S ) :   1.0708 B( 49-C , 50-N ) :   1.3746
B( 49-C , 53-C ) :   1.3258 B( 50-N , 51-C ) :   1.7484 B( 50-N , 52-S ) :   0.1048
B( 51-C , 52-S ) :   1.1205 B( 51-C , 97-H ) :   0.9632 B( 53-C , 54-C ) :   1.3442
B( 53-C , 59-C ) :   1.0715 B( 54-C , 55-C ) :   1.2704 B( 54-C , 58-S ) :   1.0896
B( 55-C , 56-N ) :   1.3323 B( 56-N , 57-C ) :   1.7822 B( 56-N , 58-S ) :   0.1021
B( 57-C , 58-S ) :   1.0851 B( 57-C , 98-H ) :   0.9622 B( 59-C , 60-C ) :   1.6792
B( 59-C , 99-H ) :   0.9396 B( 60-C , 61-C ) :   0.9274 B( 60-C , 74-C ) :   1.0267
B( 61-C , 62-O ) :   2.2805 B( 61-C , 63-C ) :   0.9177 B( 63-C , 64-C ) :   1.4706
B( 63-C , 73-C ) :   1.2174 B( 64-C , 65-C ) :   1.1932 B( 64-C ,100-H ) :   1.0147
B( 65-C , 66-C ) :   1.2549 B( 65-C , 70-C ) :   1.2341 B( 66-C , 67-C ) :   1.2018
B( 66-C , 72-C ) :   1.2051 B( 67-C , 68-C ) :   1.4420 B( 67-C ,101-H ) :   1.0062
B( 68-C , 69-C ) :   1.2546 B( 68-C , 71-F ) :   1.0891 B( 69-C , 70-C ) :   1.4613
B( 69-C ,102-H ) :   0.9930 B( 70-C ,103-H ) :   0.9969 B( 72-C , 73-C ) :   1.4611
B( 72-C ,104-H ) :   0.9946 B( 73-C , 74-C ) :   0.9995 B( 74-C , 75-C ) :   1.6554
B( 75-C , 76-C ) :   1.1656 B( 75-C , 78-C ) :   1.1327 B( 76-C , 77-N ) :   2.9957
B( 78-C , 79-N ) :   2.9889

-----------------------------------------------------------------------------
         ABSORPTION SPECTRUM VIA TRANSITION ELECTRIC DIPOLE MOMENTS
-----------------------------------------------------------------------------
State   Energy  Wavelength   fosc         T2         TX        TY        TZ
        (cm-1)    (nm)                  (au**2)     (au)      (au)      (au)
-----------------------------------------------------------------------------
   0   19201.6    520.8   0.581729330   9.97379  -0.30515  -3.14312  -0.03849
   1   23022.3    434.4   0.691464676   9.88773  -0.95306   2.31745  -1.89969
   2   23385.9    427.6   0.472477889   6.65124  -0.24602  -2.47038  -0.69851
   3   26181.1    382.0   0.074778451   0.94030   0.68578   0.66964   0.14694
   4   27162.6    368.2   0.107635797   1.30455  -0.70759  -0.87585   0.19171
   5   27639.5    361.8   0.497692538   5.92798   1.60563   1.56212   0.95378
   6   27857.2    359.0   0.043071015   0.50901  -0.32607   0.41416  -0.48078
   7   27924.9    358.1   0.091545144   1.07924   0.55327   0.30745   0.82378
   8   28649.5    349.0   0.009978790   0.11467  -0.19291   0.27094   0.06360
   9   29049.5    344.2   0.024519842   0.27788  -0.51057  -0.07681   0.10629
  10   30247.2    330.6   0.015186661   0.16529   0.13498  -0.37528   0.07899
  11   30422.7    328.7   0.153681584   1.66303  -0.85980  -0.96091   0.02058
  12   30798.4    324.7   0.132324429   1.41445  -0.58956  -1.03279   0.01498
  13   31560.9    316.8   0.217795846   2.27183   0.50963   1.41829   0.02396
  14   31923.7    313.2   0.011878414   0.12250  -0.29501  -0.13175   0.13456
  15   32480.8    307.9   0.026231420   0.26587  -0.29842   0.09355  -0.40996
  16   32791.1    305.0   0.024537172   0.24635   0.26439  -0.33897   0.24808
  17   33315.9    300.2   0.179808930   1.77679   0.55725   1.16662  -0.32445
  18   33585.9    297.7   0.273662513   2.68246   1.33543   0.90144   0.29410
  19   34301.3    291.5   0.029509305   0.28322  -0.12669  -0.46190  -0.23199
  20   34704.4    288.1   0.004914271   0.04662  -0.08485  -0.01776  -0.19774
  21   34930.0    286.3   0.150456413   1.41804   0.79297   0.86793   0.18959
  22   35112.4    284.8   0.182814160   1.71405   0.92679   0.44087   0.81286
  23   35395.8    282.5   0.041966825   0.39033  -0.07206  -0.56159  -0.26411
  24   35493.1    281.7   0.032467030   0.30114   0.23924   0.49379   0.00878
  25   35965.0    278.0   0.035531290   0.32524  -0.08656   0.56339  -0.01847
  26   36139.2    276.7   0.141005540   1.28450  -0.79640   0.03794  -0.80549
  27   36337.1    275.2   0.137415834   1.24498   0.08718   1.10725   0.10664
  28   36538.3    273.7   0.187532373   1.68967  -0.48772  -1.06158  -0.56996
  29   36715.2    272.4   0.262364312   2.35253   1.00109   0.72620   0.90718
  30   36854.5    271.3   0.036692950   0.32777  -0.20039   0.23345  -0.48282
  31   37051.6    269.9   0.001835461   0.01631  -0.06911   0.05407  -0.09278
  32   37395.2    267.4   0.019336442   0.17023   0.32726   0.24467   0.05715
  33   37532.4    266.4   0.049567770   0.43478   0.02443  -0.65254  -0.09151
  34   37625.1    265.8   0.089414145   0.78235  -0.33379   0.63183  -0.52128
  35   37813.0    264.5   0.119009960   1.03614   0.94314   0.16387   0.34608
  36   38085.0    262.6   0.130597734   1.12890  -0.25676   0.91565  -0.47388
  37   38401.0    260.4   0.022300225   0.19118  -0.31505   0.05788  -0.29761
  38   38475.3    259.9   0.073934415   0.63262  -0.64789  -0.42602   0.17712
  39   38964.6    256.6   0.135957537   1.14871   0.23839   1.04383   0.04794
  40   39077.5    255.9   0.074685062   0.62919  -0.34392  -0.17011   0.69424
  41   39641.8    252.3   0.038196324   0.31721  -0.53986   0.05421  -0.15108
  42   39847.5    251.0   0.073483437   0.60711   0.69160   0.16759  -0.31735
  43   40047.5    249.7   0.150944082   1.24084  -0.63637   0.18024  -0.89632
  44   40219.4    248.6   0.016173699   0.13239  -0.28030  -0.10610  -0.20631

FINAL SINGLE POINT ENERGY     -7702.354691750915

DIPOLE MOMENT
-------------
                                X             Y             Z
Electronic contribution:     -3.15090     -10.23891     -10.01077
Nuclear contribution   :      2.20557      10.20109      11.32000
                        -----------------------------------------
Total Dipole Moment    :     -0.94533      -0.03782       1.30923
                        -----------------------------------------
Magnitude (a.u.)       :      1.61529
Magnitude (Debye)      :      4.10573

Rotational constants in cm-1:     0.001126     0.000220     0.000193
Rotational constants in MHz :    33.765334     6.609687     5.773785

                             ****ORCA TERMINATED NORMALLY****
TOTAL RUN TIME: 0 days 0 hours 12 minutes 15 seconds 835 msec
