                         Program Version 4.2.0 -  RELEASE  -
|  1> # ORCA input file
|  2> # SCF done       -199.772927585562          0.000737159748
|  3> ! CAM-B3LYP def2-SVP def2/J RIJCOSX Grid4 TightSCF
|  4> %maxcore 5000
|  5> %tddft
|  6>     Mode sTDDFT
|  7>     Ethresh 5.0
|  8>     maxcore 5000
|  9> end
| 10>
| 11> %pal
| 12>   nprocs 6
| 13>   end
| 14> * xyz 0 1
| 15>    C       -3.49888         1.18178         1.72617
| 16>    C       -2.58784         0.24225         2.04975
| 17>    C       -1.25997         0.60245         1.67541
| 18>    C       -0.07913        -0.14576         1.83661
| 19>    C       -0.11029        -1.49173         2.37569
| 20>    C       -0.98967        -2.49300         2.08217
| 21>    C       -0.72208        -3.67932         2.80021
| 22>    C        0.34665        -3.59982         3.64401
| 23>    S        1.05915        -2.02412         3.55225
| 24>    C        0.90159        -4.64033         4.54596
| 25>   Cl       -1.67878        -5.10041         2.61251
| 26>    C        1.10282         0.46550         1.43720
| 27>    C        1.15041         1.75284         0.84637
| 28>    C       -0.03703         2.48283         0.63781
| 29>    C       -1.21504         1.88604         1.08264
| 30>    S       -2.81342         2.57112         0.95933
| 31>    C       -0.05202         3.77207        -0.02236
| 32>    C       -0.83592         4.85454         0.25859
| 33>    C       -0.62501         5.93009        -0.63122
| 34>    C        0.30227         5.68923        -1.60242
| 35>    S        0.94618         4.09369        -1.41819
| 36>    C        0.76410         6.57990        -2.69676
| 37>   Cl       -1.47605         7.42036        -0.48742
| 38>    C        2.47485         2.14276         0.54163
| 39>    C        3.41420         1.19568         0.84342
| 40>    S        2.69096        -0.24209         1.54066
| 41>    C        4.81670         1.26107         0.63980
| 42>    S        5.78976        -0.17510         0.74432
| 43>    C        7.26197         0.66601         0.33064
| 44>    C        6.98453         2.00726         0.14429
| 45>    C        5.61293         2.35780         0.31473
| 46>    C        5.40477         3.74516         0.12733
| 47>    C        6.55581         4.40441        -0.18237
| 48>    C        6.72786         5.83429        -0.44460
| 49>    O        7.77975         6.36406        -0.69807
| 50>    O        5.55678         6.49256        -0.36686
| 51>    C        5.62571         7.89178        -0.60124
| 52>    S        7.96911         3.37702        -0.26016
| 53>    C        8.49432        -0.02073         0.20435
| 54>    C        9.73183         0.51697        -0.10679
| 55>    C       10.71923        -0.46585        -0.17706
| 56>    C       10.23289        -1.75665         0.08130
| 57>    S        8.55903        -1.76308         0.41772
| 58>    C       11.30568        -2.68153        -0.03023
| 59>    C       12.47178        -1.96688        -0.35839
| 60>    C       12.14689        -0.55606        -0.45803
| 61>    C       12.99687         0.46864        -0.75493
| 62>    C       12.56700         1.81051        -0.82767
| 63>    N       12.23013         2.90490        -0.88553
| 64>    C       14.36794         0.25600        -1.01169
| 65>    N       15.48456         0.09449        -1.21691
| 66>    C       13.58615        -2.79799        -0.50224
| 67>    C       13.26199        -4.11729        -0.28649
| 68>    S       11.57824        -4.36100         0.09972
| 69>    C       14.13579        -5.26031        -0.35159
| 70>    N       13.58563        -6.45346        -0.11366
| 71>    C       14.39473        -7.49748        -0.17871
| 72>    C       15.73969        -7.37757        -0.47511
| 73>    C       16.22904        -6.08192        -0.71051
| 74>    N       15.40796        -5.03136        -0.64442
| 75>    C       17.61588        -5.84085        -1.02355
| 76>    C       18.08398        -4.59480        -1.24371
| 77>    C       19.42581        -4.21258        -1.55132
| 78>    C       20.48349        -5.07377        -1.68998
| 79>    C       21.79476        -4.69353        -1.98804
| 80>    C       22.12333        -3.28397        -2.27552
| 81>    C       21.23909        -2.26562        -2.18427
| 82>    S       19.60103        -2.46727        -1.73469
| 83>    C       23.49271        -3.28578        -2.64105
| 84>    C       23.98867        -4.59202        -2.58453
| 85>    C       25.35783        -4.65626        -2.93176
| 86>    C       25.85309        -3.43024        -3.23838
| 87>    S       24.69156        -2.14806        -3.11776
| 88>    C       22.94276        -5.47399        -2.15829
| 89>    C       23.13548        -6.88731        -1.96136
| 90>    C       22.46554        -7.67120        -1.11860
| 91>    H       -4.55720         1.16200         1.89807
| 92>    H       -2.83167        -0.67265         2.55682
| 93>    H       -1.77390        -2.41111         1.35247
| 94>    H        0.32547        -5.55691         4.44686
| 95>    H        0.86384        -4.30913         5.58330
| 96>    H        1.94212        -4.84628         4.29766
| 97>    H       -1.51568         4.90906         1.08804
| 98>    H        0.35147         7.57593        -2.55729
| 99>    H        0.43867         6.19849        -3.66482
|100>    H        1.85137         6.64036        -2.70932
|101>    H        2.72290         3.08513         0.09637
|102>    H        4.46577         4.25480         0.22664
|103>    H        4.63671         8.28503        -0.38050
|104>    H        5.89395         8.08879        -1.64135
|105>    H        6.37648         8.34876         0.04638
|106>    H        9.89015         1.56658        -0.27201
|107>    H       14.58299        -2.48478        -0.75027
|108>    H       13.93642        -8.45917         0.01560
|109>    H       16.38766        -8.23756        -0.52399
|110>    H       18.25215        -6.71257        -1.06888
|111>    H       17.36568        -3.78790        -1.17434
|112>    H       20.27819        -6.12859        -1.58527
|113>    H       21.51480        -1.24197        -2.38528
|114>    H       25.94612        -5.55588        -2.95415
|115>    H       26.85301        -3.18052        -3.53577
|116>    H       23.94363        -7.31451        -2.54392
|117>    H       21.70399        -7.29271        -0.45905
|118>    H       22.68856        -8.72125        -1.03647
|119> *
|120>
|121>                          ****END OF INPUT****

CARTESIAN COORDINATES (ANGSTROEM)
---------------------------------
  C     -3.498880    1.181780    1.726170
  C     -2.587840    0.242250    2.049750
  C     -1.259970    0.602450    1.675410
  C     -0.079130   -0.145760    1.836610
  C     -0.110290   -1.491730    2.375690
  C     -0.989670   -2.493000    2.082170
  C     -0.722080   -3.679320    2.800210
  C      0.346650   -3.599820    3.644010
  S      1.059150   -2.024120    3.552250
  C      0.901590   -4.640330    4.545960
  Cl    -1.678780   -5.100410    2.612510
  C      1.102820    0.465500    1.437200
  C      1.150410    1.752840    0.846370
  C     -0.037030    2.482830    0.637810
  C     -1.215040    1.886040    1.082640
  S     -2.813420    2.571120    0.959330
  C     -0.052020    3.772070   -0.022360
  C     -0.835920    4.854540    0.258590
  C     -0.625010    5.930090   -0.631220
  C      0.302270    5.689230   -1.602420
  S      0.946180    4.093690   -1.418190
  C      0.764100    6.579900   -2.696760
  Cl    -1.476050    7.420360   -0.487420
  C      2.474850    2.142760    0.541630
  C      3.414200    1.195680    0.843420
  S      2.690960   -0.242090    1.540660
  C      4.816700    1.261070    0.639800
  S      5.789760   -0.175100    0.744320
  C      7.261970    0.666010    0.330640
  C      6.984530    2.007260    0.144290
  C      5.612930    2.357800    0.314730
  C      5.404770    3.745160    0.127330
  C      6.555810    4.404410   -0.182370
  C      6.727860    5.834290   -0.444600
  O      7.779750    6.364060   -0.698070
  O      5.556780    6.492560   -0.366860
  C      5.625710    7.891780   -0.601240
  S      7.969110    3.377020   -0.260160
  C      8.494320   -0.020730    0.204350
  C      9.731830    0.516970   -0.106790
  C     10.719230   -0.465850   -0.177060
  C     10.232890   -1.756650    0.081300
  S      8.559030   -1.763080    0.417720
  C     11.305680   -2.681530   -0.030230
  C     12.471780   -1.966880   -0.358390
  C     12.146890   -0.556060   -0.458030
  C     12.996870    0.468640   -0.754930
  C     12.567000    1.810510   -0.827670
  N     12.230130    2.904900   -0.885530
  C     14.367940    0.256000   -1.011690
  N     15.484560    0.094490   -1.216910
  C     13.586150   -2.797990   -0.502240
  C     13.261990   -4.117290   -0.286490
  S     11.578240   -4.361000    0.099720
  C     14.135790   -5.260310   -0.351590
  N     13.585630   -6.453460   -0.113660
  C     14.394730   -7.497480   -0.178710
  C     15.739690   -7.377570   -0.475110
  C     16.229040   -6.081920   -0.710510
  N     15.407960   -5.031360   -0.644420
  C     17.615880   -5.840850   -1.023550
  C     18.083980   -4.594800   -1.243710
  C     19.425810   -4.212580   -1.551320
  C     20.483490   -5.073770   -1.689980
  C     21.794760   -4.693530   -1.988040
  C     22.123330   -3.283970   -2.275520
  C     21.239090   -2.265620   -2.184270
  S     19.601030   -2.467270   -1.734690
  C     23.492710   -3.285780   -2.641050
  C     23.988670   -4.592020   -2.584530
  C     25.357830   -4.656260   -2.931760
  C     25.853090   -3.430240   -3.238380
  S     24.691560   -2.148060   -3.117760
  C     22.942760   -5.473990   -2.158290
  C     23.135480   -6.887310   -1.961360
  C     22.465540   -7.671200   -1.118600
  H     -4.557200    1.162000    1.898070
  H     -2.831670   -0.672650    2.556820
  H     -1.773900   -2.411110    1.352470
  H      0.325470   -5.556910    4.446860
  H      0.863840   -4.309130    5.583300
  H      1.942120   -4.846280    4.297660
  H     -1.515680    4.909060    1.088040
  H      0.351470    7.575930   -2.557290
  H      0.438670    6.198490   -3.664820
  H      1.851370    6.640360   -2.709320
  H      2.722900    3.085130    0.096370
  H      4.465770    4.254800    0.226640
  H      4.636710    8.285030   -0.380500
  H      5.893950    8.088790   -1.641350
  H      6.376480    8.348760    0.046380
  H      9.890150    1.566580   -0.272010
  H     14.582990   -2.484780   -0.750270
  H     13.936420   -8.459170    0.015600
  H     16.387660   -8.237560   -0.523990
  H     18.252150   -6.712570   -1.068880
  H     17.365680   -3.787900   -1.174340
  H     20.278190   -6.128590   -1.585270
  H     21.514800   -1.241970   -2.385280
  H     25.946120   -5.555880   -2.954150
  H     26.853010   -3.180520   -3.535770
  H     23.943630   -7.314510   -2.543920
  H     21.703990   -7.292710   -0.459050
  H     22.688560   -8.721250   -1.036470

 Total Charge           Charge          ....    0
 Multiplicity           Mult            ....    1
 Number of Electrons    NEL             ....  614
 Basis Dimension        Dim             .... 1252

ORBITAL ENERGIES
----------------

  NO   OCC          E(Eh)            E(eV)
   0   2.0000    -101.583877     -2764.2378
   1   2.0000    -101.583606     -2764.2305
   2   2.0000     -88.983090     -2421.3530
   3   2.0000     -88.976881     -2421.1840
   4   2.0000     -88.974511     -2421.1195
   5   2.0000     -88.963151     -2420.8104
   6   2.0000     -88.959205     -2420.7030
   7   2.0000     -88.958997     -2420.6974
   8   2.0000     -88.957228     -2420.6492
   9   2.0000     -88.954718     -2420.5809
  10   2.0000     -88.950242     -2420.4591
  11   2.0000     -88.947754     -2420.3914
  12   2.0000     -19.260622      -524.1082
  13   2.0000     -19.205334      -522.6037
  14   2.0000     -14.421144      -392.4193
  15   2.0000     -14.420195      -392.3934
  16   2.0000     -14.407300      -392.0426
  17   2.0000     -14.406299      -392.0153
  18   2.0000     -10.404590      -283.1233
  19   2.0000     -10.354515      -281.7607
  20   2.0000     -10.347795      -281.5778
  21   2.0000     -10.342177      -281.4249
  22   2.0000     -10.327885      -281.0360
  23   2.0000     -10.323738      -280.9232
  24   2.0000     -10.322520      -280.8900
  25   2.0000     -10.322398      -280.8867
  26   2.0000     -10.322278      -280.8835
  27   2.0000     -10.321709      -280.8680
  28   2.0000     -10.321386      -280.8592
  29   2.0000     -10.321053      -280.8501
  30   2.0000     -10.320474      -280.8344
  31   2.0000     -10.320271      -280.8288
  32   2.0000     -10.318843      -280.7900
  33   2.0000     -10.318207      -280.7727
  34   2.0000     -10.318176      -280.7718
  35   2.0000     -10.316054      -280.7141
  36   2.0000     -10.311377      -280.5868
  37   2.0000     -10.310039      -280.5504
  38   2.0000     -10.309161      -280.5265
  39   2.0000     -10.307624      -280.4847
  40   2.0000     -10.307376      -280.4780
  41   2.0000     -10.306178      -280.4454
  42   2.0000     -10.304464      -280.3987
  43   2.0000     -10.304316      -280.3947
  44   2.0000     -10.303285      -280.3666
  45   2.0000     -10.300711      -280.2966
  46   2.0000     -10.299273      -280.2575
  47   2.0000     -10.298462      -280.2354
  48   2.0000     -10.297247      -280.2023
  49   2.0000     -10.295804      -280.1631
  50   2.0000     -10.294862      -280.1374
  51   2.0000     -10.294229      -280.1202
  52   2.0000     -10.293631      -280.1039
  53   2.0000     -10.290192      -280.0103
  54   2.0000     -10.289441      -279.9899
  55   2.0000     -10.289295      -279.9860
  56   2.0000     -10.289230      -279.9842
  57   2.0000     -10.288279      -279.9583
  58   2.0000     -10.288074      -279.9527
  59   2.0000     -10.287391      -279.9341
  60   2.0000     -10.287096      -279.9261
  61   2.0000     -10.280793      -279.7546
  62   2.0000     -10.279238      -279.7123
  63   2.0000     -10.279100      -279.7085
  64   2.0000     -10.278961      -279.7048
  65   2.0000     -10.277893      -279.6757
  66   2.0000     -10.277616      -279.6682
  67   2.0000     -10.276016      -279.6246
  68   2.0000     -10.275435      -279.6088
  69   2.0000     -10.274689      -279.5885
  70   2.0000     -10.273767      -279.5634
  71   2.0000     -10.268998      -279.4337
  72   2.0000     -10.267264      -279.3864
  73   2.0000     -10.264701      -279.3167
  74   2.0000     -10.263901      -279.2949
  75   2.0000     -10.256923      -279.1051
  76   2.0000      -9.538639      -259.5596
  77   2.0000      -9.538349      -259.5517
  78   2.0000      -8.077862      -219.8098
  79   2.0000      -8.070873      -219.6196
  80   2.0000      -8.069603      -219.5851
  81   2.0000      -8.058612      -219.2860
  82   2.0000      -8.054430      -219.1722
  83   2.0000      -8.053861      -219.1567
  84   2.0000      -8.053026      -219.1340
  85   2.0000      -8.050283      -219.0593
  86   2.0000      -8.045986      -218.9424
  87   2.0000      -8.043169      -218.8658
  88   2.0000      -7.308888      -198.8849
  89   2.0000      -7.308585      -198.8767
  90   2.0000      -7.298722      -198.6083
  91   2.0000      -7.298623      -198.6056
  92   2.0000      -7.298416      -198.6000
  93   2.0000      -7.298366      -198.5986
  94   2.0000      -6.047187      -164.5523
  95   2.0000      -6.042969      -164.4376
  96   2.0000      -6.040094      -164.3593
  97   2.0000      -6.040029      -164.3575
  98   2.0000      -6.039057      -164.3311
  99   2.0000      -6.035774      -164.2418
 100   2.0000      -6.034725      -164.2132
 101   2.0000      -6.033560      -164.1815
 102   2.0000      -6.031643      -164.1293
 103   2.0000      -6.028082      -164.0324
 104   2.0000      -6.023763      -163.9149
 105   2.0000      -6.023726      -163.9139
 106   2.0000      -6.023592      -163.9103
 107   2.0000      -6.022324      -163.8758
 108   2.0000      -6.020597      -163.8288
 109   2.0000      -6.020001      -163.8125
 110   2.0000      -6.019570      -163.8008
 111   2.0000      -6.019381      -163.7957
 112   2.0000      -6.018106      -163.7610
 113   2.0000      -6.016514      -163.7177
 114   2.0000      -6.015828      -163.6990
 115   2.0000      -6.015687      -163.6952
 116   2.0000      -6.015116      -163.6796
 117   2.0000      -6.015022      -163.6771
 118   2.0000      -6.012666      -163.6130
 119   2.0000      -6.011440      -163.5796
 120   2.0000      -6.011245      -163.5743
 121   2.0000      -6.008415      -163.4973
 122   2.0000      -6.007484      -163.4720
 123   2.0000      -6.005106      -163.4072
 124   2.0000      -1.191569       -32.4242
 125   2.0000      -1.098977       -29.9047
 126   2.0000      -1.083123       -29.4733
 127   2.0000      -1.034811       -28.1586
 128   2.0000      -1.020215       -27.7615
 129   2.0000      -1.012696       -27.5569
 130   2.0000      -1.010819       -27.5058
 131   2.0000      -1.002011       -27.2661
 132   2.0000      -0.998254       -27.1639
 133   2.0000      -0.995987       -27.1022
 134   2.0000      -0.994752       -27.0686
 135   2.0000      -0.986858       -26.8538
 136   2.0000      -0.981380       -26.7047
 137   2.0000      -0.978227       -26.6189
 138   2.0000      -0.962399       -26.1882
 139   2.0000      -0.956506       -26.0279
 140   2.0000      -0.946997       -25.7691
 141   2.0000      -0.944615       -25.7043
 142   2.0000      -0.939546       -25.5663
 143   2.0000      -0.920377       -25.0447
 144   2.0000      -0.915729       -24.9183
 145   2.0000      -0.909333       -24.7442
 146   2.0000      -0.899463       -24.4756
 147   2.0000      -0.898626       -24.4528
 148   2.0000      -0.886033       -24.1102
 149   2.0000      -0.874493       -23.7962
 150   2.0000      -0.860540       -23.4165
 151   2.0000      -0.859040       -23.3757
 152   2.0000      -0.854889       -23.2627
 153   2.0000      -0.852863       -23.2076
 154   2.0000      -0.849866       -23.1260
 155   2.0000      -0.844436       -22.9783
 156   2.0000      -0.841445       -22.8969
 157   2.0000      -0.835972       -22.7480
 158   2.0000      -0.827553       -22.5189
 159   2.0000      -0.827273       -22.5112
 160   2.0000      -0.812610       -22.1123
 161   2.0000      -0.808397       -21.9976
 162   2.0000      -0.806355       -21.9420
 163   2.0000      -0.800198       -21.7745
 164   2.0000      -0.799870       -21.7656
 165   2.0000      -0.793928       -21.6039
 166   2.0000      -0.783473       -21.3194
 167   2.0000      -0.780183       -21.2299
 168   2.0000      -0.770371       -20.9629
 169   2.0000      -0.764463       -20.8021
 170   2.0000      -0.750584       -20.4244
 171   2.0000      -0.745476       -20.2854
 172   2.0000      -0.742371       -20.2009
 173   2.0000      -0.722505       -19.6603
 174   2.0000      -0.717898       -19.5350
 175   2.0000      -0.715209       -19.4618
 176   2.0000      -0.703250       -19.1364
 177   2.0000      -0.696284       -18.9468
 178   2.0000      -0.688697       -18.7404
 179   2.0000      -0.680375       -18.5139
 180   2.0000      -0.670474       -18.2445
 181   2.0000      -0.667414       -18.1613
 182   2.0000      -0.659104       -17.9351
 183   2.0000      -0.654094       -17.7988
 184   2.0000      -0.651124       -17.7180
 185   2.0000      -0.646663       -17.5966
 186   2.0000      -0.643967       -17.5232
 187   2.0000      -0.641127       -17.4459
 188   2.0000      -0.638245       -17.3675
 189   2.0000      -0.629915       -17.1409
 190   2.0000      -0.626406       -17.0454
 191   2.0000      -0.623308       -16.9611
 192   2.0000      -0.620090       -16.8735
 193   2.0000      -0.614644       -16.7253
 194   2.0000      -0.607557       -16.5325
 195   2.0000      -0.606547       -16.5050
 196   2.0000      -0.600918       -16.3518
 197   2.0000      -0.595128       -16.1942
 198   2.0000      -0.593280       -16.1440
 199   2.0000      -0.586388       -15.9564
 200   2.0000      -0.583145       -15.8682
 201   2.0000      -0.579224       -15.7615
 202   2.0000      -0.575885       -15.6706
 203   2.0000      -0.574671       -15.6376
 204   2.0000      -0.571365       -15.5476
 205   2.0000      -0.566249       -15.4084
 206   2.0000      -0.562609       -15.3094
 207   2.0000      -0.553430       -15.0596
 208   2.0000      -0.548084       -14.9141
 209   2.0000      -0.547660       -14.9026
 210   2.0000      -0.543932       -14.8011
 211   2.0000      -0.541104       -14.7242
 212   2.0000      -0.539794       -14.6885
 213   2.0000      -0.536494       -14.5987
 214   2.0000      -0.526778       -14.3344
 215   2.0000      -0.524751       -14.2792
 216   2.0000      -0.523346       -14.2410
 217   2.0000      -0.521800       -14.1989
 218   2.0000      -0.519385       -14.1332
 219   2.0000      -0.518551       -14.1105
 220   2.0000      -0.518451       -14.1078
 221   2.0000      -0.517358       -14.0780
 222   2.0000      -0.511870       -13.9287
 223   2.0000      -0.509948       -13.8764
 224   2.0000      -0.509027       -13.8513
 225   2.0000      -0.504287       -13.7224
 226   2.0000      -0.503153       -13.6915
 227   2.0000      -0.501722       -13.6526
 228   2.0000      -0.499020       -13.5790
 229   2.0000      -0.496514       -13.5108
 230   2.0000      -0.495248       -13.4764
 231   2.0000      -0.494087       -13.4448
 232   2.0000      -0.493077       -13.4173
 233   2.0000      -0.491097       -13.3634
 234   2.0000      -0.486778       -13.2459
 235   2.0000      -0.484827       -13.1928
 236   2.0000      -0.483992       -13.1701
 237   2.0000      -0.479373       -13.0444
 238   2.0000      -0.477487       -12.9931
 239   2.0000      -0.474529       -12.9126
 240   2.0000      -0.473347       -12.8804
 241   2.0000      -0.468162       -12.7393
 242   2.0000      -0.465868       -12.6769
 243   2.0000      -0.465736       -12.6733
 244   2.0000      -0.462710       -12.5910
 245   2.0000      -0.462393       -12.5823
 246   2.0000      -0.459228       -12.4962
 247   2.0000      -0.458858       -12.4862
 248   2.0000      -0.458418       -12.4742
 249   2.0000      -0.454954       -12.3799
 250   2.0000      -0.452404       -12.3105
 251   2.0000      -0.450009       -12.2454
 252   2.0000      -0.449003       -12.2180
 253   2.0000      -0.447702       -12.1826
 254   2.0000      -0.446555       -12.1514
 255   2.0000      -0.444257       -12.0888
 256   2.0000      -0.439539       -11.9605
 257   2.0000      -0.436284       -11.8719
 258   2.0000      -0.434252       -11.8166
 259   2.0000      -0.433166       -11.7871
 260   2.0000      -0.432180       -11.7602
 261   2.0000      -0.431115       -11.7312
 262   2.0000      -0.429291       -11.6816
 263   2.0000      -0.426930       -11.6173
 264   2.0000      -0.425634       -11.5821
 265   2.0000      -0.422862       -11.5067
 266   2.0000      -0.422163       -11.4876
 267   2.0000      -0.420473       -11.4416
 268   2.0000      -0.417812       -11.3692
 269   2.0000      -0.416568       -11.3354
 270   2.0000      -0.416224       -11.3260
 271   2.0000      -0.413887       -11.2624
 272   2.0000      -0.412161       -11.2155
 273   2.0000      -0.409508       -11.1433
 274   2.0000      -0.408711       -11.1216
 275   2.0000      -0.402446       -10.9511
 276   2.0000      -0.398119       -10.8334
 277   2.0000      -0.397756       -10.8235
 278   2.0000      -0.391432       -10.6514
 279   2.0000      -0.388301       -10.5662
 280   2.0000      -0.380782       -10.3616
 281   2.0000      -0.380663       -10.3584
 282   2.0000      -0.379210       -10.3188
 283   2.0000      -0.379131       -10.3167
 284   2.0000      -0.378410       -10.2971
 285   2.0000      -0.375513       -10.2182
 286   2.0000      -0.364539        -9.9196
 287   2.0000      -0.358721        -9.7613
 288   2.0000      -0.348352        -9.4791
 289   2.0000      -0.340110        -9.2549
 290   2.0000      -0.337593        -9.1864
 291   2.0000      -0.327077        -8.9002
 292   2.0000      -0.326270        -8.8783
 293   2.0000      -0.320830        -8.7302
 294   2.0000      -0.317164        -8.6305
 295   2.0000      -0.315922        -8.5967
 296   2.0000      -0.315190        -8.5768
 297   2.0000      -0.313290        -8.5250
 298   2.0000      -0.312357        -8.4997
 299   2.0000      -0.305917        -8.3244
 300   2.0000      -0.300270        -8.1707
 301   2.0000      -0.293327        -7.9818
 302   2.0000      -0.279828        -7.6145
 303   2.0000      -0.268900        -7.3171
 304   2.0000      -0.252555        -6.8724
 305   2.0000      -0.230141        -6.2625
 306   2.0000      -0.229230        -6.2377
 307   0.0000      -0.095940        -2.6107
 308   0.0000      -0.066740        -1.8161
 309   0.0000      -0.057767        -1.5719
 310   0.0000      -0.029843        -0.8121
 311   0.0000      -0.028291        -0.7699

MULLIKEN ATOMIC CHARGES
-----------------------
   0 C :   -0.043455
   1 C :   -0.000899
   2 C :    0.059455
   3 C :    0.135795
   4 C :   -0.213336
   5 C :    0.030401
   6 C :    0.083940
   7 C :   -0.265741
   8 S :    0.143927
   9 C :    0.123794
  10 Cl:   -0.091422
  11 C :   -0.133141
  12 C :    0.077645
  13 C :    0.141354
  14 C :   -0.157360
  15 S :    0.106670
  16 C :   -0.212494
  17 C :    0.031967
  18 C :    0.088039
  19 C :   -0.267133
  20 S :    0.132367
  21 C :    0.122691
  22 Cl:   -0.090560
  23 C :   -0.084734
  24 C :   -0.022349
  25 S :    0.118402
  26 C :   -0.086214
  27 S :    0.157820
  28 C :   -0.122767
  29 C :   -0.047222
  30 C :    0.126981
  31 C :   -0.009620
  32 C :   -0.135699
  33 C :    0.207880
  34 O :   -0.190665
  35 O :   -0.307752
  36 C :    0.189627
  37 S :    0.166403
  38 C :   -0.062653
  39 C :   -0.063110
  40 C :    0.010930
  41 C :   -0.105045
  42 S :    0.180045
  43 C :   -0.095525
  44 C :    0.001107
  45 C :    0.303278
  46 C :   -0.302496
  47 C :   -0.190373
  48 N :    0.175365
  49 C :   -0.188368
  50 N :    0.170025
  51 C :   -0.039799
  52 C :   -0.039738
  53 S :    0.233188
  54 C :   -0.075164
  55 N :   -0.096333
  56 C :    0.089821
  57 C :   -0.056767
  58 C :    0.069483
  59 N :   -0.052855
  60 C :   -0.020129
  61 C :    0.085449
  62 C :   -0.087502
  63 C :   -0.031160
  64 C :    0.042496
  65 C :    0.058122
  66 C :   -0.132062
  67 S :    0.152531
  68 C :   -0.107692
  69 C :    0.049961
  70 C :    0.008963
  71 C :   -0.069614
  72 S :    0.122476
  73 C :    0.043238
  74 C :   -0.038035
  75 C :   -0.031375
  76 H :    0.029049
  77 H :   -0.008014
  78 H :   -0.008831
  79 H :    0.023923
  80 H :    0.036045
  81 H :    0.033355
  82 H :   -0.005653
  83 H :    0.023762
  84 H :    0.040050
  85 H :    0.029784
  86 H :   -0.026161
  87 H :    0.004317
  88 H :    0.034035
  89 H :    0.032316
  90 H :    0.038111
  91 H :    0.010528
  92 H :    0.010421
  93 H :    0.004170
  94 H :   -0.007601
  95 H :   -0.021600
  96 H :    0.015139
  97 H :   -0.023023
  98 H :    0.036452
  99 H :   -0.019656
 100 H :    0.023818
 101 H :   -0.011577
 102 H :    0.015153
 103 H :    0.018406
Sum of atomic charges:   -0.0000000

LOEWDIN ATOMIC CHARGES
----------------------
   0 C :   -0.160558
   1 C :   -0.062837
   2 C :   -0.037573
   3 C :   -0.055476
   4 C :   -0.173969
   5 C :   -0.067740
   6 C :   -0.178293
   7 C :   -0.198354
   8 S :    0.436471
   9 C :   -0.061130
  10 Cl:    0.125976
  11 C :   -0.148913
  12 C :   -0.041031
  13 C :   -0.053466
  14 C :   -0.146911
  15 S :    0.415688
  16 C :   -0.170526
  17 C :   -0.075095
  18 C :   -0.177399
  19 C :   -0.199189
  20 S :    0.447277
  21 C :   -0.061230
  22 Cl:    0.127384
  23 C :   -0.062937
  24 C :   -0.168213
  25 S :    0.391427
  26 C :   -0.181931
  27 S :    0.450312
  28 C :   -0.214428
  29 C :   -0.180086
  30 C :   -0.070226
  31 C :   -0.016116
  32 C :   -0.195263
  33 C :    0.065687
  34 O :   -0.168438
  35 O :   -0.097597
  36 C :    0.082211
  37 S :    0.444771
  38 C :   -0.178597
  39 C :   -0.038103
  40 C :   -0.064555
  41 C :   -0.185099
  42 S :    0.465039
  43 C :   -0.176073
  44 C :   -0.079498
  45 C :    0.083045
  46 C :   -0.104255
  47 C :   -0.019574
  48 N :   -0.030844
  49 C :   -0.015188
  50 N :   -0.037249
  51 C :   -0.004807
  52 C :   -0.190859
  53 S :    0.510470
  54 C :    0.012859
  55 N :   -0.118347
  56 C :    0.053387
  57 C :   -0.075017
  58 C :    0.044100
  59 N :   -0.090942
  60 C :   -0.052340
  61 C :    0.006408
  62 C :   -0.183006
  63 C :   -0.003530
  64 C :   -0.025406
  65 C :   -0.052804
  66 C :   -0.139883
  67 S :    0.463699
  68 C :   -0.202164
  69 C :   -0.041232
  70 C :   -0.065138
  71 C :   -0.165764
  72 S :    0.414167
  73 C :   -0.051703
  74 C :   -0.018856
  75 C :   -0.058124
  76 H :    0.026239
  77 H :    0.032631
  78 H :    0.034185
  79 H :    0.033820
  80 H :    0.039426
  81 H :    0.038877
  82 H :    0.026314
  83 H :    0.033791
  84 H :    0.041068
  85 H :    0.037129
  86 H :    0.013809
  87 H :    0.036366
  88 H :    0.025762
  89 H :    0.023672
  90 H :    0.025254
  91 H :    0.030769
  92 H :    0.042597
  93 H :    0.026735
  94 H :    0.032328
  95 H :    0.025284
  96 H :    0.033501
  97 H :    0.035941
  98 H :    0.036557
  99 H :    0.029474
 100 H :    0.022115
 101 H :    0.029237
 102 H :    0.017942
 103 H :    0.022683

  Mayer bond orders larger than 0.100000
B(  0-C ,  1-C ) :   1.6379 B(  0-C , 15-S ) :   1.1064 B(  0-C , 76-H ) :   0.9665
B(  1-C ,  2-C ) :   1.1823 B(  1-C , 77-H ) :   0.9897 B(  2-C ,  3-C ) :   1.3322
B(  2-C , 14-C ) :   1.2784 B(  3-C ,  4-C ) :   0.9770 B(  3-C , 11-C ) :   1.4012
B(  4-C ,  5-C ) :   1.5532 B(  4-C ,  8-S ) :   1.1357 B(  5-C ,  6-C ) :   1.2134
B(  5-C , 78-H ) :   1.0099 B(  6-C ,  7-C ) :   1.6025 B(  6-C , 10-Cl) :   1.0029
B(  7-C ,  8-S ) :   1.1278 B(  7-C ,  9-C ) :   1.0840 B(  9-C , 79-H ) :   0.9440
B(  9-C , 80-H ) :   0.9490 B(  9-C , 81-H ) :   0.9479 B( 11-C , 12-C ) :   1.2722
B( 11-C , 25-S ) :   1.0572 B( 12-C , 13-C ) :   1.3007 B( 12-C , 23-C ) :   1.1808
B( 13-C , 14-C ) :   1.4207 B( 13-C , 16-C ) :   0.9911 B( 14-C , 15-S ) :   1.0715
B( 16-C , 17-C ) :   1.5514 B( 16-C , 20-S ) :   1.1289 B( 17-C , 18-C ) :   1.2210
B( 17-C , 82-H ) :   0.9946 B( 18-C , 19-C ) :   1.6031 B( 18-C , 22-Cl) :   1.0052
B( 19-C , 20-S ) :   1.1294 B( 19-C , 21-C ) :   1.0829 B( 21-C , 83-H ) :   0.9445
B( 21-C , 84-H ) :   0.9491 B( 21-C , 85-H ) :   0.9477 B( 23-C , 24-C ) :   1.5754
B( 23-C , 86-H ) :   0.9748 B( 24-C , 25-S ) :   1.0574 B( 24-C , 26-C ) :   1.1346
B( 26-C , 27-S ) :   1.1323 B( 26-C , 28-C ) :   0.1274 B( 26-C , 30-C ) :   1.4212
B( 27-S , 28-C ) :   1.1150 B( 28-C , 29-C ) :   1.5414 B( 28-C , 38-C ) :   1.1530
B( 29-C , 30-C ) :   1.2415 B( 29-C , 37-S ) :   1.0554 B( 30-C , 31-C ) :   1.1212
B( 31-C , 32-C ) :   1.6204 B( 31-C , 87-H ) :   0.9983 B( 32-C , 33-C ) :   0.9598
B( 32-C , 37-S ) :   1.0676 B( 33-C , 34-O ) :   2.1490 B( 33-C , 35-O ) :   1.2303
B( 35-O , 36-C ) :   0.9219 B( 36-C , 88-H ) :   0.9812 B( 36-C , 89-H ) :   0.9783
B( 36-C , 90-H ) :   0.9735 B( 38-C , 39-C ) :   1.4741 B( 38-C , 42-S ) :   1.0976
B( 39-C , 40-C ) :   1.3035 B( 39-C , 91-H ) :   0.9829 B( 40-C , 41-C ) :   1.4570
B( 40-C , 45-C ) :   0.9888 B( 41-C , 42-S ) :   1.1145 B( 41-C , 43-C ) :   1.1878
B( 43-C , 44-C ) :   1.4342 B( 43-C , 53-S ) :   1.1313 B( 44-C , 45-C ) :   1.0036
B( 44-C , 51-C ) :   1.2534 B( 45-C , 46-C ) :   1.7119 B( 46-C , 47-C ) :   1.1332
B( 46-C , 49-C ) :   1.1334 B( 47-C , 48-N ) :   2.9894 B( 49-C , 50-N ) :   3.0001
B( 51-C , 52-C ) :   1.4986 B( 51-C , 92-H ) :   1.0083 B( 52-C , 53-S ) :   1.1057
B( 52-C , 54-C ) :   1.0070 B( 52-C , 59-N ) :  -0.1025 B( 54-C , 55-N ) :   1.5888
B( 54-C , 59-N ) :   1.6206 B( 55-N , 56-C ) :   1.5294 B( 56-C , 57-C ) :   1.3884
B( 56-C , 93-H ) :   0.9788 B( 57-C , 58-C ) :   1.3122 B( 57-C , 94-H ) :   0.9756
B( 58-C , 59-N ) :   1.4985 B( 58-C , 60-C ) :   1.0918 B( 60-C , 61-C ) :   1.7213
B( 60-C , 95-H ) :   0.9680 B( 61-C , 62-C ) :   1.0789 B( 61-C , 96-H ) :   0.9567
B( 62-C , 63-C ) :   1.5446 B( 62-C , 67-S ) :   1.0521 B( 63-C , 64-C ) :   1.2328
B( 63-C , 97-H ) :   0.9637 B( 64-C , 65-C ) :   1.0398 B( 64-C , 73-C ) :   1.4314
B( 65-C , 66-C ) :   1.5932 B( 65-C , 68-C ) :   1.1991 B( 66-C , 67-S ) :   1.1557
B( 66-C , 98-H ) :   0.9428 B( 68-C , 69-C ) :   1.4259 B( 68-C , 72-S ) :   1.0694
B( 69-C , 70-C ) :   1.2051 B( 69-C , 73-C ) :   1.1399 B( 70-C , 71-C ) :   1.5931
B( 70-C , 99-H ) :   0.9984 B( 71-C , 72-S ) :   1.1490 B( 71-C ,100-H ) :   0.9664
B( 73-C , 74-C ) :   1.0922 B( 74-C , 75-C ) :   1.9257 B( 74-C ,101-H ) :   0.9561
B( 75-C ,102-H ) :   0.9572 B( 75-C ,103-H ) :   0.9475

-----------------------------------------------------------------------------
         ABSORPTION SPECTRUM VIA TRANSITION ELECTRIC DIPOLE MOMENTS
-----------------------------------------------------------------------------
State   Energy  Wavelength   fosc         T2         TX        TY        TZ
        (cm-1)    (nm)                  (au**2)     (au)      (au)      (au)
-----------------------------------------------------------------------------
   0   12167.1    821.9   0.197827756   5.35273   2.03022  -1.08910  -0.21166
   1   18668.2    535.7   0.037558078   0.66233   0.79772  -0.10727  -0.12026
   2   19970.6    500.7   1.662534144  27.40655   5.06245  -1.24849  -0.46838
   3   21486.8    465.4   0.407693025   6.24649  -2.43701   0.09639   0.54608
   4   22121.3    452.1   0.013247869   0.19716  -0.41880  -0.05061   0.13857
   5   22851.9    437.6   0.032431914   0.46722   0.66948  -0.01866  -0.13667
   6   23780.5    420.5   0.039057665   0.54070   0.51446   0.27611  -0.44699
   7   26669.9    375.0   0.030924613   0.38173   0.24688   0.37643  -0.42318
   8   26969.6    370.8   0.027287768   0.33310  -0.08689   0.56899  -0.04240
   9   27755.5    360.3   0.016163610   0.19172  -0.23481  -0.34974   0.11942
  10   28098.5    355.9   0.033427895   0.39165  -0.35045   0.51771   0.02848
  11   28643.9    349.1   0.317882044   3.65351   1.74399  -0.55668  -0.54965
  12   28746.3    347.9   0.301314892   3.45075  -0.92499   1.51229  -0.55510
  13   29497.1    339.0   0.246690207   2.75327   0.00881   1.64729  -0.19907
  14   30879.3    323.8   0.148909804   1.58756   0.50346   1.07641  -0.41885
  15   31486.5    317.6   0.553845668   5.79081   1.34954   1.92465  -0.51503
  16   31844.7    314.0   0.019121654   0.19768  -0.08113  -0.42988   0.07940
  17   32300.8    309.6   0.238171123   2.42746  -1.01998   1.17592   0.06555
  18   32541.5    307.3   0.514852949   5.20860   0.37946   2.20784  -0.43595
  19   32638.2    306.4   0.001113221   0.01123  -0.00232  -0.10370  -0.02166
  20   32710.0    305.7   0.031633556   0.31838   0.46915  -0.30576   0.06918
  21   32820.2    304.7   0.061701113   0.61891  -0.38529  -0.65453   0.20507
  22   33152.3    301.6   0.148113825   1.47081   0.68769  -0.97600   0.21290
  23   33425.9    299.2   0.146725579   1.44510  -0.71184  -0.67813   0.69175
  24   33930.7    294.7   0.024188466   0.23469   0.45269  -0.03335  -0.16925
  25   34373.9    290.9   0.668764961   6.40502   2.46223   0.26399  -0.52228
  26   34460.8    290.2   0.078254280   0.74758  -0.25817  -0.77843   0.27383
  27   34766.9    287.6   0.005477999   0.05187   0.01579   0.03885   0.22386
  28   34948.4    286.1   0.215625424   2.03118  -0.89769  -1.05675   0.32957
  29   35046.6    285.3   0.068715232   0.64548  -0.73504  -0.22867   0.23001
  30   35652.5    280.5   0.023023970   0.21260  -0.40131  -0.19299   0.11960
  31   35921.2    278.4   0.008690623   0.07965   0.26309   0.08214  -0.06070
  32   36387.6    274.8   0.005028711   0.04550   0.08913   0.16782  -0.09689
  33   36677.3    272.6   0.004024987   0.03613   0.17518   0.05709  -0.04670
  34   36889.8    271.1   0.004394128   0.03921  -0.15266   0.09867   0.07858
  35   37109.5    269.5   0.030082559   0.26687   0.13454  -0.49654  -0.04714
  36   37220.6    268.7   0.060272598   0.53310  -0.71013  -0.00835   0.16956
  37   37341.1    267.8   0.287188411   2.53195  -1.50379   0.39507   0.33837
  38   37424.4    267.2   0.201130297   1.76929  -0.59445   1.17016  -0.21596
  39   37707.5    265.2   0.030676440   0.26783   0.51246  -0.06206   0.03685
  40   37925.4    263.7   0.127373618   1.10567  -0.99609  -0.21057   0.26294
  41   38106.2    262.4   0.009384753   0.08108   0.23841   0.13988  -0.06835
  42   38325.0    260.9   0.103179351   0.88631   0.07178  -0.93662   0.06250
  43   38376.5    260.6   0.015944819   0.13678   0.32805   0.17064   0.00691
  44   38871.2    257.3   0.000887433   0.00752  -0.01217   0.08457  -0.01466
  45   39171.0    255.3   0.069553910   0.58456   0.55971   0.49082  -0.17430
  46   39623.9    252.4   0.000789298   0.00656  -0.01398  -0.05989  -0.05268
  47   39714.9    251.8   0.229515525   1.90254   0.06165   1.36283  -0.20358
  48   40057.8    249.6   0.052056142   0.42782   0.64179  -0.10873  -0.06411
  49   40185.5    248.8   0.063060044   0.51661   0.24604   0.66075  -0.13956

FINAL SINGLE POINT ENERGY     -7493.964062683312

DIPOLE MOMENT
-------------
                                X             Y             Z
Electronic contribution:    -56.80471      15.06578       8.57820
Nuclear contribution   :     55.78231     -16.57925      -8.25137
                        -----------------------------------------
Total Dipole Moment    :     -1.02240      -1.51348       0.32683
                        -----------------------------------------
Magnitude (a.u.)       :      1.85546
Magnitude (Debye)      :      4.71620

Rotational constants in cm-1:     0.001200     0.000173     0.000153
Rotational constants in MHz :    35.990014     5.188539     4.580909

                             ****ORCA TERMINATED NORMALLY****
TOTAL RUN TIME: 0 days 0 hours 10 minutes 0 seconds 49 msec
