                         Program Version 4.2.0 -  RELEASE  -
|  1> # ORCA input file
|  2> # SCF done       -180.203573692338          0.000635156257
|  3> ! CAM-B3LYP def2-SVP def2/J RIJCOSX Grid4 TightSCF
|  4> %maxcore 5000
|  5> %tddft
|  6>     Mode sTDDFT
|  7>     Ethresh 5.0
|  8>     maxcore 5000
|  9> end
| 10>
| 11> %pal
| 12>   nprocs 6
| 13>   end
| 14> * xyz 0 1
| 15>    C       -3.28402         0.89820        -1.81414
| 16>    C       -2.52974         0.01654        -1.12731
| 17>    C       -1.16848         0.42228        -1.00652
| 18>    C       -0.10776        -0.25671        -0.37785
| 19>    C       -0.26274        -1.55832         0.24232
| 20>    C        0.30779        -2.00195         1.40069
| 21>    C       -0.01671        -3.34492         1.69112
| 22>    C       -0.81841        -3.94611         0.76559
| 23>    S       -1.19764        -2.82831        -0.50061
| 24>    C       -1.35088        -5.33175         0.75157
| 25>   Cl        0.56115        -4.14222         3.10377
| 26>    C        1.12813         0.38204        -0.38724
| 27>    C        1.35246         1.63744        -1.00491
| 28>    C        0.29550         2.30930        -1.65103
| 29>    C       -0.94644         1.67940        -1.61827
| 30>    S       -2.40688         2.28580        -2.35086
| 31>    C        0.47667         3.57548        -2.33110
| 32>    C       -0.38363         4.63560        -2.37364
| 33>    C        0.09334         5.69731        -3.17193
| 34>    C        1.30527         5.46758        -3.75535
| 35>    S        1.88654         3.90108        -3.30765
| 36>    C        2.09164         6.34979        -4.65375
| 37>   Cl       -0.79074         7.16018        -3.37911
| 38>    C        2.69346         2.06233        -0.86619
| 39>    C        3.49203         1.17008        -0.20537
| 40>    S        2.59963        -0.25402         0.29638
| 41>    C        4.87721         1.28689         0.07805
| 42>    S        5.79749        -0.09688         0.58330
| 43>    C        7.29558         0.79736         0.65917
| 44>    C        7.05824         2.11689         0.31882
| 45>    C        5.70214         2.40724        -0.01073
| 46>    C        5.52611         3.77541        -0.32777
| 47>    C        6.69105         4.47702        -0.25656
| 48>    C        6.89408         5.90478        -0.51362
| 49>    O        7.94758         6.47828        -0.40413
| 50>    O        5.74973         6.50157        -0.89118
| 51>    C        5.84470         7.89441        -1.15391
| 52>    S        8.07640         3.51593         0.20849
| 53>    C        8.51410         0.16584         1.00439
| 54>    C        9.76496         0.75232         1.11976
| 55>    C       10.74523        -0.18189         1.44942
| 56>    C       10.24035        -1.48602         1.58493
| 57>    S        8.55476        -1.56158         1.31318
| 58>    C       11.31127        -2.35694         1.89805
| 59>    C       12.50036        -1.60435         1.96404
| 60>    C       12.18245        -0.21252         1.69032
| 61>    C       13.04269         0.84441         1.66515
| 62>    C       12.61086         2.16003         1.39001
| 63>    N       12.26924         3.23164         1.16905
| 64>    C       14.42454         0.70113         1.91501
| 65>    N       15.54872         0.59992         2.11529
| 66>    C       13.61790        -2.38469         2.25418
| 67>    C       13.28398        -3.71924         2.40545
| 68>    S       11.56885        -4.01626         2.19319
| 69>    C       14.17448        -4.78332         2.68497
| 70>    N       15.45553        -4.62729         2.84767
| 71>    C       16.04671        -5.79847         3.08402
| 72>    C       15.21532        -6.93053         3.11183
| 73>    S       13.58729        -6.46323         2.82165
| 74>    N       15.81088        -8.09998         3.34087
| 75>    C       17.08919        -7.94821         3.49896
| 76>    S       17.67186        -6.26794         3.37039
| 77>    C       17.99273        -9.03388         3.75288
| 78>    C       19.36683        -8.85846         3.95095
| 79>    N       20.17859        -9.87188         4.17760
| 80>    C       19.63836       -11.07794         4.21263
| 81>    N       18.35875       -11.36726         4.04343
| 82>    C       17.54074       -10.36112         3.81545
| 83>    H       -4.32964         0.83253        -2.04249
| 84>    H       -2.92038        -0.89253        -0.71046
| 85>    H        0.90782        -1.39348         2.05114
| 86>    H       -0.98465        -5.87230         1.62067
| 87>    H       -1.03686        -5.85563        -0.15054
| 88>    H       -2.44038        -5.32489         0.77275
| 89>    H       -1.30849         4.68450        -1.83040
| 90>    H        2.05302         5.98415        -5.68020
| 91>    H        3.13561         6.37743        -4.34686
| 92>    H        1.68245         7.35670        -4.62908
| 93>    H        3.06158         2.98652        -1.26367
| 94>    H        4.59450         4.24329        -0.58148
| 95>    H        4.84859         8.21482        -1.44750
| 96>    H        6.56251         8.08178        -1.95498
| 97>    H        6.17166         8.42782        -0.25931
| 98>    H        9.93523         1.80183         0.96714
| 99>    H       14.62909        -2.03585         2.35220
|100>    H       19.81727        -7.87349         3.92535
|101>    H       20.30708       -11.90746         4.39975
|102>    H       16.49443       -10.59349         3.67338
|103> *
|104>
|105>                          ****END OF INPUT****

CARTESIAN COORDINATES (ANGSTROEM)
---------------------------------
  C     -3.284020    0.898200   -1.814140
  C     -2.529740    0.016540   -1.127310
  C     -1.168480    0.422280   -1.006520
  C     -0.107760   -0.256710   -0.377850
  C     -0.262740   -1.558320    0.242320
  C      0.307790   -2.001950    1.400690
  C     -0.016710   -3.344920    1.691120
  C     -0.818410   -3.946110    0.765590
  S     -1.197640   -2.828310   -0.500610
  C     -1.350880   -5.331750    0.751570
  Cl     0.561150   -4.142220    3.103770
  C      1.128130    0.382040   -0.387240
  C      1.352460    1.637440   -1.004910
  C      0.295500    2.309300   -1.651030
  C     -0.946440    1.679400   -1.618270
  S     -2.406880    2.285800   -2.350860
  C      0.476670    3.575480   -2.331100
  C     -0.383630    4.635600   -2.373640
  C      0.093340    5.697310   -3.171930
  C      1.305270    5.467580   -3.755350
  S      1.886540    3.901080   -3.307650
  C      2.091640    6.349790   -4.653750
  Cl    -0.790740    7.160180   -3.379110
  C      2.693460    2.062330   -0.866190
  C      3.492030    1.170080   -0.205370
  S      2.599630   -0.254020    0.296380
  C      4.877210    1.286890    0.078050
  S      5.797490   -0.096880    0.583300
  C      7.295580    0.797360    0.659170
  C      7.058240    2.116890    0.318820
  C      5.702140    2.407240   -0.010730
  C      5.526110    3.775410   -0.327770
  C      6.691050    4.477020   -0.256560
  C      6.894080    5.904780   -0.513620
  O      7.947580    6.478280   -0.404130
  O      5.749730    6.501570   -0.891180
  C      5.844700    7.894410   -1.153910
  S      8.076400    3.515930    0.208490
  C      8.514100    0.165840    1.004390
  C      9.764960    0.752320    1.119760
  C     10.745230   -0.181890    1.449420
  C     10.240350   -1.486020    1.584930
  S      8.554760   -1.561580    1.313180
  C     11.311270   -2.356940    1.898050
  C     12.500360   -1.604350    1.964040
  C     12.182450   -0.212520    1.690320
  C     13.042690    0.844410    1.665150
  C     12.610860    2.160030    1.390010
  N     12.269240    3.231640    1.169050
  C     14.424540    0.701130    1.915010
  N     15.548720    0.599920    2.115290
  C     13.617900   -2.384690    2.254180
  C     13.283980   -3.719240    2.405450
  S     11.568850   -4.016260    2.193190
  C     14.174480   -4.783320    2.684970
  N     15.455530   -4.627290    2.847670
  C     16.046710   -5.798470    3.084020
  C     15.215320   -6.930530    3.111830
  S     13.587290   -6.463230    2.821650
  N     15.810880   -8.099980    3.340870
  C     17.089190   -7.948210    3.498960
  S     17.671860   -6.267940    3.370390
  C     17.992730   -9.033880    3.752880
  C     19.366830   -8.858460    3.950950
  N     20.178590   -9.871880    4.177600
  C     19.638360  -11.077940    4.212630
  N     18.358750  -11.367260    4.043430
  C     17.540740  -10.361120    3.815450
  H     -4.329640    0.832530   -2.042490
  H     -2.920380   -0.892530   -0.710460
  H      0.907820   -1.393480    2.051140
  H     -0.984650   -5.872300    1.620670
  H     -1.036860   -5.855630   -0.150540
  H     -2.440380   -5.324890    0.772750
  H     -1.308490    4.684500   -1.830400
  H      2.053020    5.984150   -5.680200
  H      3.135610    6.377430   -4.346860
  H      1.682450    7.356700   -4.629080
  H      3.061580    2.986520   -1.263670
  H      4.594500    4.243290   -0.581480
  H      4.848590    8.214820   -1.447500
  H      6.562510    8.081780   -1.954980
  H      6.171660    8.427820   -0.259310
  H      9.935230    1.801830    0.967140
  H     14.629090   -2.035850    2.352200
  H     19.817270   -7.873490    3.925350
  H     20.307080  -11.907460    4.399750
  H     16.494430  -10.593490    3.673380

 Total Charge           Charge          ....    0
 Multiplicity           Mult            ....    1
 Number of Electrons    NEL             ....  560
 Basis Dimension        Dim             .... 1100

ORBITAL ENERGIES
----------------

  NO   OCC          E(Eh)            E(eV)
   0   2.0000    -101.586795     -2764.3172
   1   2.0000    -101.585610     -2764.2850
   2   2.0000     -88.993942     -2421.6483
   3   2.0000     -88.990762     -2421.5618
   4   2.0000     -88.979889     -2421.2659
   5   2.0000     -88.976114     -2421.1632
   6   2.0000     -88.975554     -2421.1479
   7   2.0000     -88.964471     -2420.8463
   8   2.0000     -88.962633     -2420.7963
   9   2.0000     -88.960746     -2420.7450
  10   2.0000     -88.959227     -2420.7036
  11   2.0000     -88.953618     -2420.5510
  12   2.0000     -19.264451      -524.2124
  13   2.0000     -19.209100      -522.7062
  14   2.0000     -14.430527      -392.6746
  15   2.0000     -14.428339      -392.6151
  16   2.0000     -14.428195      -392.6111
  17   2.0000     -14.427405      -392.5896
  18   2.0000     -14.414322      -392.2336
  19   2.0000     -14.412847      -392.1935
  20   2.0000     -10.408430      -283.2278
  21   2.0000     -10.364690      -282.0376
  22   2.0000     -10.359588      -281.8987
  23   2.0000     -10.353861      -281.7429
  24   2.0000     -10.351073      -281.6670
  25   2.0000     -10.336805      -281.2788
  26   2.0000     -10.336701      -281.2759
  27   2.0000     -10.336495      -281.2703
  28   2.0000     -10.334989      -281.2293
  29   2.0000     -10.332078      -281.1501
  30   2.0000     -10.330400      -281.1045
  31   2.0000     -10.329310      -281.0748
  32   2.0000     -10.328446      -281.0513
  33   2.0000     -10.328067      -281.0410
  34   2.0000     -10.327917      -281.0369
  35   2.0000     -10.326338      -280.9939
  36   2.0000     -10.325751      -280.9780
  37   2.0000     -10.324686      -280.9490
  38   2.0000     -10.324446      -280.9424
  39   2.0000     -10.321812      -280.8708
  40   2.0000     -10.320659      -280.8394
  41   2.0000     -10.320276      -280.8290
  42   2.0000     -10.316045      -280.7138
  43   2.0000     -10.315808      -280.7074
  44   2.0000     -10.311453      -280.5889
  45   2.0000     -10.310785      -280.5707
  46   2.0000     -10.309767      -280.5430
  47   2.0000     -10.307937      -280.4932
  48   2.0000     -10.307707      -280.4870
  49   2.0000     -10.306363      -280.4504
  50   2.0000     -10.305320      -280.4220
  51   2.0000     -10.304130      -280.3896
  52   2.0000     -10.303421      -280.3703
  53   2.0000     -10.303048      -280.3602
  54   2.0000     -10.302988      -280.3586
  55   2.0000     -10.302498      -280.3452
  56   2.0000     -10.300891      -280.3015
  57   2.0000     -10.300229      -280.2835
  58   2.0000     -10.299696      -280.2690
  59   2.0000     -10.298665      -280.2409
  60   2.0000     -10.293707      -280.1060
  61   2.0000     -10.291351      -280.0419
  62   2.0000     -10.283622      -279.8316
  63   2.0000     -10.282464      -279.8001
  64   2.0000     -10.281544      -279.7750
  65   2.0000     -10.280704      -279.7522
  66   2.0000     -10.279156      -279.7101
  67   2.0000     -10.276517      -279.6383
  68   2.0000      -9.541537      -259.6384
  69   2.0000      -9.540396      -259.6074
  70   2.0000      -8.088731      -220.1055
  71   2.0000      -8.085535      -220.0186
  72   2.0000      -8.075050      -219.7333
  73   2.0000      -8.072169      -219.6549
  74   2.0000      -8.071326      -219.6320
  75   2.0000      -8.059160      -219.3009
  76   2.0000      -8.058039      -219.2704
  77   2.0000      -8.056384      -219.2254
  78   2.0000      -8.054578      -219.1762
  79   2.0000      -8.049356      -219.0341
  80   2.0000      -7.311788      -198.9639
  81   2.0000      -7.310625      -198.9322
  82   2.0000      -7.301636      -198.6876
  83   2.0000      -7.301502      -198.6840
  84   2.0000      -7.300472      -198.6559
  85   2.0000      -7.300393      -198.6538
  86   2.0000      -6.057972      -164.8458
  87   2.0000      -6.054884      -164.7618
  88   2.0000      -6.053830      -164.7331
  89   2.0000      -6.051049      -164.6574
  90   2.0000      -6.050671      -164.6471
  91   2.0000      -6.047709      -164.5665
  92   2.0000      -6.044455      -164.4780
  93   2.0000      -6.041373      -164.3941
  94   2.0000      -6.040422      -164.3682
  95   2.0000      -6.040205      -164.3623
  96   2.0000      -6.037680      -164.2936
  97   2.0000      -6.037072      -164.2771
  98   2.0000      -6.036757      -164.2685
  99   2.0000      -6.033819      -164.1886
 100   2.0000      -6.033200      -164.1717
 101   2.0000      -6.028972      -164.0567
 102   2.0000      -6.027364      -164.0129
 103   2.0000      -6.025714      -163.9680
 104   2.0000      -6.024694      -163.9403
 105   2.0000      -6.024324      -163.9302
 106   2.0000      -6.023186      -163.8992
 107   2.0000      -6.021511      -163.8536
 108   2.0000      -6.020346      -163.8219
 109   2.0000      -6.020143      -163.8164
 110   2.0000      -6.020108      -163.8155
 111   2.0000      -6.019041      -163.7864
 112   2.0000      -6.018444      -163.7702
 113   2.0000      -6.015785      -163.6978
 114   2.0000      -6.014585      -163.6652
 115   2.0000      -6.010906      -163.5651
 116   2.0000      -1.195502       -32.5313
 117   2.0000      -1.102893       -30.0113
 118   2.0000      -1.101703       -29.9789
 119   2.0000      -1.085684       -29.5430
 120   2.0000      -1.061045       -28.8725
 121   2.0000      -1.044889       -28.4329
 122   2.0000      -1.025748       -27.9120
 123   2.0000      -1.019998       -27.7555
 124   2.0000      -1.015344       -27.6289
 125   2.0000      -1.005640       -27.3649
 126   2.0000      -1.005120       -27.3507
 127   2.0000      -0.998791       -27.1785
 128   2.0000      -0.996648       -27.1202
 129   2.0000      -0.982176       -26.7264
 130   2.0000      -0.981459       -26.7069
 131   2.0000      -0.964109       -26.2347
 132   2.0000      -0.954657       -25.9775
 133   2.0000      -0.947550       -25.7841
 134   2.0000      -0.942792       -25.6547
 135   2.0000      -0.928201       -25.2576
 136   2.0000      -0.921526       -25.0760
 137   2.0000      -0.913152       -24.8481
 138   2.0000      -0.903209       -24.5776
 139   2.0000      -0.902464       -24.5573
 140   2.0000      -0.887659       -24.1544
 141   2.0000      -0.881528       -23.9876
 142   2.0000      -0.868302       -23.6277
 143   2.0000      -0.864528       -23.5250
 144   2.0000      -0.859872       -23.3983
 145   2.0000      -0.853371       -23.2214
 146   2.0000      -0.851781       -23.1781
 147   2.0000      -0.843724       -22.9589
 148   2.0000      -0.837802       -22.7977
 149   2.0000      -0.831264       -22.6199
 150   2.0000      -0.813867       -22.1464
 151   2.0000      -0.810123       -22.0446
 152   2.0000      -0.806961       -21.9585
 153   2.0000      -0.804529       -21.8923
 154   2.0000      -0.798496       -21.7282
 155   2.0000      -0.787713       -21.4347
 156   2.0000      -0.784056       -21.3353
 157   2.0000      -0.775703       -21.1079
 158   2.0000      -0.758898       -20.6507
 159   2.0000      -0.749443       -20.3934
 160   2.0000      -0.748825       -20.3766
 161   2.0000      -0.733924       -19.9711
 162   2.0000      -0.722721       -19.6662
 163   2.0000      -0.712842       -19.3974
 164   2.0000      -0.704023       -19.1574
 165   2.0000      -0.696678       -18.9576
 166   2.0000      -0.690525       -18.7901
 167   2.0000      -0.676874       -18.4187
 168   2.0000      -0.673663       -18.3313
 169   2.0000      -0.670047       -18.2329
 170   2.0000      -0.664605       -18.0848
 171   2.0000      -0.655029       -17.8242
 172   2.0000      -0.651994       -17.7417
 173   2.0000      -0.645693       -17.5702
 174   2.0000      -0.643012       -17.4973
 175   2.0000      -0.637464       -17.3463
 176   2.0000      -0.634217       -17.2579
 177   2.0000      -0.629531       -17.1304
 178   2.0000      -0.625206       -17.0127
 179   2.0000      -0.617798       -16.8111
 180   2.0000      -0.614442       -16.7198
 181   2.0000      -0.611376       -16.6364
 182   2.0000      -0.609226       -16.5779
 183   2.0000      -0.598615       -16.2891
 184   2.0000      -0.593431       -16.1481
 185   2.0000      -0.587303       -15.9813
 186   2.0000      -0.584055       -15.8929
 187   2.0000      -0.580082       -15.7848
 188   2.0000      -0.578650       -15.7459
 189   2.0000      -0.575077       -15.6486
 190   2.0000      -0.565037       -15.3754
 191   2.0000      -0.558359       -15.1937
 192   2.0000      -0.554839       -15.0979
 193   2.0000      -0.549325       -14.9479
 194   2.0000      -0.546705       -14.8766
 195   2.0000      -0.545434       -14.8420
 196   2.0000      -0.541753       -14.7419
 197   2.0000      -0.530923       -14.4471
 198   2.0000      -0.529144       -14.3988
 199   2.0000      -0.528323       -14.3764
 200   2.0000      -0.525372       -14.2961
 201   2.0000      -0.525066       -14.2878
 202   2.0000      -0.523845       -14.2546
 203   2.0000      -0.522617       -14.2211
 204   2.0000      -0.521918       -14.2021
 205   2.0000      -0.514433       -13.9984
 206   2.0000      -0.513813       -13.9816
 207   2.0000      -0.513639       -13.9768
 208   2.0000      -0.506522       -13.7832
 209   2.0000      -0.504790       -13.7360
 210   2.0000      -0.504185       -13.7196
 211   2.0000      -0.503691       -13.7061
 212   2.0000      -0.499901       -13.6030
 213   2.0000      -0.498960       -13.5774
 214   2.0000      -0.496448       -13.5090
 215   2.0000      -0.495060       -13.4713
 216   2.0000      -0.494778       -13.4636
 217   2.0000      -0.491933       -13.3862
 218   2.0000      -0.487497       -13.2655
 219   2.0000      -0.486678       -13.2432
 220   2.0000      -0.482074       -13.1179
 221   2.0000      -0.480564       -13.0768
 222   2.0000      -0.474877       -12.9221
 223   2.0000      -0.473694       -12.8899
 224   2.0000      -0.469759       -12.7828
 225   2.0000      -0.468155       -12.7391
 226   2.0000      -0.466921       -12.7056
 227   2.0000      -0.463756       -12.6195
 228   2.0000      -0.463322       -12.6076
 229   2.0000      -0.458689       -12.4816
 230   2.0000      -0.456442       -12.4204
 231   2.0000      -0.455563       -12.3965
 232   2.0000      -0.453859       -12.3501
 233   2.0000      -0.453564       -12.3421
 234   2.0000      -0.447602       -12.1799
 235   2.0000      -0.440453       -11.9853
 236   2.0000      -0.439361       -11.9556
 237   2.0000      -0.438041       -11.9197
 238   2.0000      -0.437360       -11.9012
 239   2.0000      -0.435790       -11.8584
 240   2.0000      -0.429758       -11.6943
 241   2.0000      -0.429514       -11.6877
 242   2.0000      -0.426796       -11.6137
 243   2.0000      -0.425523       -11.5791
 244   2.0000      -0.424423       -11.5491
 245   2.0000      -0.423338       -11.5196
 246   2.0000      -0.420480       -11.4418
 247   2.0000      -0.419701       -11.4207
 248   2.0000      -0.416904       -11.3445
 249   2.0000      -0.413943       -11.2640
 250   2.0000      -0.405246       -11.0273
 251   2.0000      -0.402316       -10.9476
 252   2.0000      -0.398512       -10.8441
 253   2.0000      -0.394568       -10.7367
 254   2.0000      -0.387639       -10.5482
 255   2.0000      -0.387369       -10.5408
 256   2.0000      -0.383984       -10.4487
 257   2.0000      -0.382868       -10.4184
 258   2.0000      -0.381451       -10.3798
 259   2.0000      -0.378383       -10.2963
 260   2.0000      -0.374156       -10.1813
 261   2.0000      -0.371599       -10.1117
 262   2.0000      -0.362496        -9.8640
 263   2.0000      -0.354286        -9.6406
 264   2.0000      -0.353294        -9.6136
 265   2.0000      -0.350711        -9.5433
 266   2.0000      -0.334686        -9.1073
 267   2.0000      -0.331054        -9.0084
 268   2.0000      -0.324517        -8.8305
 269   2.0000      -0.323500        -8.8029
 270   2.0000      -0.322039        -8.7631
 271   2.0000      -0.320361        -8.7175
 272   2.0000      -0.317771        -8.6470
 273   2.0000      -0.315729        -8.5914
 274   2.0000      -0.305408        -8.3106
 275   2.0000      -0.302520        -8.2320
 276   2.0000      -0.296397        -8.0654
 277   2.0000      -0.272641        -7.4190
 278   2.0000      -0.254585        -6.9276
 279   2.0000      -0.233804        -6.3621
 280   0.0000      -0.106738        -2.9045
 281   0.0000      -0.072898        -1.9836
 282   0.0000      -0.058153        -1.5824
 283   0.0000      -0.031551        -0.8585
 284   0.0000      -0.021730        -0.5913

MULLIKEN ATOMIC CHARGES
-----------------------
   0 C :   -0.043757
   1 C :    0.000661
   2 C :    0.056080
   3 C :    0.143861
   4 C :   -0.212707
   5 C :    0.030093
   6 C :    0.085976
   7 C :   -0.266484
   8 S :    0.137635
   9 C :    0.122561
  10 Cl:   -0.089283
  11 C :   -0.137143
  12 C :    0.087182
  13 C :    0.145663
  14 C :   -0.164362
  15 S :    0.109962
  16 C :   -0.213032
  17 C :    0.033719
  18 C :    0.086587
  19 C :   -0.267810
  20 S :    0.132899
  21 C :    0.122563
  22 Cl:   -0.088385
  23 C :   -0.085366
  24 C :   -0.024944
  25 S :    0.114176
  26 C :   -0.078590
  27 S :    0.160744
  28 C :   -0.124367
  29 C :   -0.046177
  30 C :    0.124937
  31 C :   -0.014025
  32 C :   -0.133011
  33 C :    0.209222
  34 O :   -0.190646
  35 O :   -0.307663
  36 C :    0.189096
  37 S :    0.167339
  38 C :   -0.061462
  39 C :   -0.063849
  40 C :    0.014343
  41 C :   -0.103674
  42 S :    0.185022
  43 C :   -0.092145
  44 C :    0.007134
  45 C :    0.302592
  46 C :   -0.292472
  47 C :   -0.188430
  48 N :    0.180855
  49 C :   -0.194283
  50 N :    0.182291
  51 C :   -0.034843
  52 C :   -0.041816
  53 S :    0.192644
  54 C :   -0.106229
  55 N :   -0.028281
  56 C :   -0.052103
  57 C :   -0.055867
  58 S :    0.118063
  59 N :   -0.025839
  60 C :   -0.098975
  61 S :    0.124758
  62 C :    0.011788
  63 C :    0.020610
  64 N :   -0.087962
  65 C :    0.068102
  66 N :   -0.086008
  67 C :    0.048762
  68 H :    0.029264
  69 H :   -0.009459
  70 H :   -0.005193
  71 H :    0.024322
  72 H :    0.035045
  73 H :    0.035319
  74 H :   -0.006505
  75 H :    0.042786
  76 H :    0.027119
  77 H :    0.025415
  78 H :   -0.025119
  79 H :    0.005149
  80 H :    0.034631
  81 H :    0.035507
  82 H :    0.036529
  83 H :    0.012320
  84 H :    0.022073
  85 H :    0.018839
  86 H :    0.024175
  87 H :    0.021853
Sum of atomic charges:   -0.0000000

LOEWDIN ATOMIC CHARGES
----------------------
   0 C :   -0.159351
   1 C :   -0.070941
   2 C :   -0.041885
   3 C :   -0.054087
   4 C :   -0.172833
   5 C :   -0.076483
   6 C :   -0.177570
   7 C :   -0.198391
   8 S :    0.447614
   9 C :   -0.061189
  10 Cl:    0.128293
  11 C :   -0.140988
  12 C :   -0.041798
  13 C :   -0.052224
  14 C :   -0.146553
  15 S :    0.418301
  16 C :   -0.171755
  17 C :   -0.073774
  18 C :   -0.177624
  19 C :   -0.199114
  20 S :    0.447987
  21 C :   -0.061154
  22 Cl:    0.128505
  23 C :   -0.060163
  24 C :   -0.170372
  25 S :    0.408476
  26 C :   -0.178547
  27 S :    0.451827
  28 C :   -0.217139
  29 C :   -0.178300
  30 C :   -0.070917
  31 C :   -0.015837
  32 C :   -0.194640
  33 C :    0.065327
  34 O :   -0.167722
  35 O :   -0.096909
  36 C :    0.082586
  37 S :    0.446408
  38 C :   -0.173833
  39 C :   -0.038515
  40 C :   -0.059901
  41 C :   -0.190469
  42 S :    0.466264
  43 C :   -0.169809
  44 C :   -0.073968
  45 C :    0.079593
  46 C :   -0.095415
  47 C :   -0.018781
  48 N :   -0.024498
  49 C :   -0.018431
  50 N :   -0.025607
  51 C :    0.003062
  52 C :   -0.205620
  53 S :    0.474217
  54 C :   -0.128084
  55 N :   -0.099786
  56 C :   -0.206500
  57 C :   -0.215179
  58 S :    0.396446
  59 N :   -0.091103
  60 C :   -0.116288
  61 S :    0.418812
  62 C :   -0.096926
  63 C :    0.045294
  64 N :   -0.079205
  65 C :    0.050352
  66 N :   -0.078140
  67 C :    0.071586
  68 H :    0.026573
  69 H :    0.019449
  70 H :    0.026943
  71 H :    0.034147
  72 H :    0.039247
  73 H :    0.039198
  74 H :    0.026727
  75 H :    0.042115
  76 H :    0.036250
  77 H :    0.034405
  78 H :    0.013432
  79 H :    0.036727
  80 H :    0.025919
  81 H :    0.024463
  82 H :    0.025382
  83 H :    0.031352
  84 H :    0.048309
  85 H :    0.021188
  86 H :    0.020753
  87 H :    0.030790

  Mayer bond orders larger than 0.100000
B(  0-C ,  1-C ) :   1.6477 B(  0-C , 15-S ) :   1.1090 B(  0-C , 68-H ) :   0.9660
B(  1-C ,  2-C ) :   1.1847 B(  1-C , 69-H ) :   0.9762 B(  2-C ,  3-C ) :   1.3075
B(  2-C , 14-C ) :   1.2762 B(  3-C ,  4-C ) :   0.9825 B(  3-C , 11-C ) :   1.4227
B(  4-C ,  5-C ) :   1.5537 B(  4-C ,  8-S ) :   1.1319 B(  5-C ,  6-C ) :   1.2219
B(  5-C , 70-H ) :   0.9950 B(  6-C ,  7-C ) :   1.6041 B(  6-C , 10-Cl) :   1.0057
B(  7-C ,  8-S ) :   1.1288 B(  7-C ,  9-C ) :   1.0824 B(  9-C , 71-H ) :   0.9442
B(  9-C , 72-H ) :   0.9489 B(  9-C , 73-H ) :   0.9486 B( 11-C , 12-C ) :   1.2686
B( 11-C , 25-S ) :   1.0565 B( 12-C , 13-C ) :   1.2997 B( 12-C , 23-C ) :   1.1785
B( 13-C , 14-C ) :   1.4217 B( 13-C , 16-C ) :   0.9892 B( 14-C , 15-S ) :   1.0751
B( 16-C , 17-C ) :   1.5517 B( 16-C , 20-S ) :   1.1281 B( 17-C , 18-C ) :   1.2227
B( 17-C , 74-H ) :   0.9945 B( 18-C , 19-C ) :   1.6015 B( 18-C , 22-Cl) :   1.0100
B( 19-C , 20-S ) :   1.1307 B( 19-C , 21-C ) :   1.0852 B( 21-C , 75-H ) :   0.9486
B( 21-C , 76-H ) :   0.9472 B( 21-C , 77-H ) :   0.9441 B( 23-C , 24-C ) :   1.5762
B( 23-C , 78-H ) :   0.9747 B( 24-C , 25-S ) :   1.0564 B( 24-C , 26-C ) :   1.1325
B( 26-C , 27-S ) :   1.1347 B( 26-C , 28-C ) :   0.1274 B( 26-C , 30-C ) :   1.4203
B( 27-S , 28-C ) :   1.1139 B( 28-C , 29-C ) :   1.5337 B( 28-C , 38-C ) :   1.1577
B( 29-C , 30-C ) :   1.2416 B( 29-C , 37-S ) :   1.0607 B( 30-C , 31-C ) :   1.1233
B( 31-C , 32-C ) :   1.6225 B( 31-C , 79-H ) :   0.9975 B( 32-C , 33-C ) :   0.9593
B( 32-C , 37-S ) :   1.0654 B( 33-C , 34-O ) :   2.1502 B( 33-C , 35-O ) :   1.2291
B( 35-O , 36-C ) :   0.9202 B( 36-C , 80-H ) :   0.9810 B( 36-C , 81-H ) :   0.9760
B( 36-C , 82-H ) :   0.9766 B( 38-C , 39-C ) :   1.4686 B( 38-C , 42-S ) :   1.1009
B( 39-C , 40-C ) :   1.3083 B( 39-C , 83-H ) :   0.9822 B( 40-C , 41-C ) :   1.4453
B( 40-C , 45-C ) :   0.9924 B( 41-C , 42-S ) :   1.1082 B( 41-C , 43-C ) :   1.2006
B( 43-C , 44-C ) :   1.4249 B( 43-C , 53-S ) :   1.1394 B( 44-C , 45-C ) :   0.9891
B( 44-C , 51-C ) :   1.2730 B( 45-C , 46-C ) :   1.7205 B( 46-C , 47-C ) :   1.1338
B( 46-C , 49-C ) :   1.1332 B( 47-C , 48-N ) :   2.9888 B( 49-C , 50-N ) :   3.0000
B( 51-C , 52-C ) :   1.4732 B( 51-C , 84-H ) :   1.0110 B( 52-C , 53-S ) :   1.0924
B( 52-C , 54-C ) :   1.1057 B( 54-C , 55-N ) :   1.7404 B( 54-C , 58-S ) :   1.0810
B( 55-N , 56-C ) :   1.3866 B( 56-C , 57-C ) :   1.3069 B( 56-C , 61-S ) :   1.1043
B( 57-C , 58-S ) :   1.0921 B( 57-C , 59-N ) :   1.3911 B( 59-N , 60-C ) :   1.7384
B( 59-N , 61-S ) :   0.1028 B( 60-C , 61-S ) :   1.0905 B( 60-C , 62-C ) :   1.0480
B( 62-C , 63-C ) :   1.3335 B( 62-C , 67-C ) :   1.3459 B( 63-C , 64-N ) :   1.5779
B( 63-C , 85-H ) :   0.9825 B( 64-N , 65-C ) :   1.5065 B( 65-C , 66-N ) :   1.4978
B( 65-C , 86-H ) :   0.9755 B( 66-N , 67-C ) :   1.5656 B( 67-C , 87-H ) :   0.9853

-----------------------------------------------------------------------------
         ABSORPTION SPECTRUM VIA TRANSITION ELECTRIC DIPOLE MOMENTS
-----------------------------------------------------------------------------
State   Energy  Wavelength   fosc         T2         TX        TY        TZ
        (cm-1)    (nm)                  (au**2)     (au)      (au)      (au)
-----------------------------------------------------------------------------
   0   10999.5    909.1   0.257556611   7.70859   2.26272  -1.46415   0.66703
   1   19325.9    517.4   1.032734317  17.59240  -3.79640   1.33282  -1.18462
   2   20393.0    490.4   0.750905798  12.12216  -3.11110   1.31598  -0.84343
   3   22393.9    446.5   0.058727470   0.86335   0.91744  -0.12830  -0.07208
   4   24778.6    403.6   0.620022424   8.23771   1.14087  -2.62072   0.26070
   5   25841.9    387.0   0.278563943   3.54875  -0.05849   1.80050  -0.55094
   6   28402.4    352.1   0.040433344   0.46866   0.37383  -0.51175   0.25890
   7   28773.5    347.5   0.173933532   1.99006  -0.02675   1.17938  -0.77357
   8   29661.5    337.1   0.530075829   5.88329  -0.67403  -2.29343   0.41129
   9   30533.0    327.5   0.061083068   0.65861   0.15952   0.79120  -0.08459
  10   31027.6    322.3   0.198697602   2.10824  -1.26636  -0.68638  -0.18287
  11   31555.4    316.9   0.060881581   0.63517   0.71142   0.33165   0.13806
  12   31872.7    313.7   0.157091917   1.62260  -0.99651  -0.79242   0.04046
  13   32604.7    306.7   0.164214286   1.65808  -0.85451  -0.95880   0.09280
  14   32725.5    305.6   0.005493290   0.05526  -0.10404   0.20779  -0.03552
  15   32761.5    305.2   0.297606050   2.99056   1.68477  -0.38875   0.03115
  16   32921.7    303.8   0.025058409   0.25058  -0.00664   0.45203  -0.21495
  17   33259.9    300.7   0.400265277   3.96189  -0.57059   1.77346  -0.70082
  18   33776.0    296.1   0.032768093   0.31939  -0.46197   0.28342  -0.16013
  19   34916.1    286.4   0.056841979   0.53594  -0.29604  -0.66695   0.05900
  20   35331.6    283.0   0.097162638   0.90534   0.58308   0.74307  -0.11487
  21   35440.3    282.2   0.004174766   0.03878   0.16870  -0.04523  -0.09096
  22   35565.7    281.2   0.003530706   0.03268   0.15740   0.06535   0.06031
  23   35793.2    279.4   0.037477091   0.34470   0.10934   0.55634  -0.15242
  24   35984.0    277.9   0.000131428   0.00120  -0.02399  -0.02436   0.00581
  25   36268.0    275.7   0.003478600   0.03158  -0.03396   0.14799  -0.09231
  26   36312.1    275.4   0.064951072   0.58886  -0.45165  -0.60003   0.15759
  27   36545.5    273.6   0.043802259   0.39458   0.25365   0.57460   0.00873
  28   37163.9    269.1   0.126078559   1.11685   0.95547   0.43970   0.10292
  29   37346.8    267.8   0.037639272   0.33179  -0.31840  -0.46872  -0.10349
  30   37377.7    267.5   0.004109259   0.03619  -0.11269  -0.15286  -0.01134
  31   37792.3    264.6   0.035841754   0.31222  -0.53563  -0.15436   0.03871
  32   37896.2    263.9   0.116922253   1.01573  -0.27040   0.93326  -0.26764
  33   38247.2    261.5   0.013975240   0.12029   0.33595  -0.08466  -0.01621
  34   38716.4    258.3   0.021963407   0.18676  -0.39469   0.06206  -0.16470
  35   39322.8    254.3   0.159176793   1.33263  -0.53224  -1.01965   0.09834
  36   39672.1    252.1   0.015908804   0.13202  -0.01129  -0.33465   0.14106
  37   39866.2    250.8   0.065011498   0.53686  -0.55039  -0.48156  -0.04500
  38   40130.5    249.2   0.037023230   0.30372   0.26619  -0.47113   0.10441

FINAL SINGLE POINT ENERGY     -7218.010589591108

DIPOLE MOMENT
-------------
                                X             Y             Z
Electronic contribution:     14.17478     -14.33099      13.11572
Nuclear contribution   :    -17.67496      14.04040     -14.11952
                        -----------------------------------------
Total Dipole Moment    :     -3.50018      -0.29058      -1.00380
                        -----------------------------------------
Magnitude (a.u.)       :      3.65285
Magnitude (Debye)      :      9.28482

Rotational constants in cm-1:     0.001198     0.000250     0.000210
Rotational constants in MHz :    35.918866     7.485309     6.310457

                             ****ORCA TERMINATED NORMALLY****
TOTAL RUN TIME: 0 days 0 hours 7 minutes 49 seconds 8 msec
