                         Program Version 4.2.0 -  RELEASE  -
|  1> # ORCA input file
|  2> # SCF done       -196.763809364963          0.000626108647
|  3> ! CAM-B3LYP def2-SVP def2/J RIJCOSX Grid4 TightSCF
|  4> %maxcore 5000
|  5> %tddft
|  6>     Mode sTDDFT
|  7>     Ethresh 5.0
|  8>     maxcore 5000
|  9> end
| 10>
| 11> %pal
| 12>   nprocs 6
| 13>   end
| 14> * xyz 0 1
| 15>    C        5.62107        -2.52055        -7.32158
| 16>    C        4.56399        -3.38795        -7.44947
| 17>    N        4.07384        -3.69569        -8.75431
| 18>    O        4.43668        -2.96750        -9.65613
| 19>    O        3.34273        -4.65268        -8.90078
| 20>    C        4.07145        -3.88447        -6.20918
| 21>    C        2.91511        -4.80599        -6.05342
| 22>    C        4.79268        -3.36464        -5.14655
| 23>    S        6.06217        -2.29101        -5.70196
| 24>    C        4.62737        -3.59058        -3.75304
| 25>    S        3.42515        -4.68902        -3.13001
| 26>    C        3.85257        -4.39550        -1.47173
| 27>    C        4.88986        -3.48726        -1.42129
| 28>    C        5.33739        -3.02357        -2.69251
| 29>    C        6.39178        -2.08587        -2.55753
| 30>    C        6.71947        -1.86117        -1.25456
| 31>    C        7.73987        -0.96598        -0.70697
| 32>    O        7.97337        -0.85007         0.47121
| 33>    O        8.38040        -0.28790        -1.67068
| 34>    C        9.38394         0.61236        -1.22214
| 35>    S        5.76886        -2.77571        -0.10830
| 36>    C        3.15816        -5.01054        -0.39697
| 37>    C        3.36585        -4.80098         0.93745
| 38>    C        2.47804        -5.52074         1.76907
| 39>    C        2.38435        -5.46913         3.17551
| 40>    C        3.34763        -4.75014         3.98239
| 41>    C        3.13145        -4.02384         5.11895
| 42>    C        4.32083        -3.49121         5.66116
| 43>    C        5.45248        -3.81015         4.96763
| 44>    S        5.05025        -4.78939         3.60043
| 45>    C        6.85730        -3.41661         5.23841
| 46>   Cl        4.32516        -2.52008         7.08230
| 47>    C        1.31211        -6.14811         3.74425
| 48>    C        0.37809        -6.90665         2.99291
| 49>    C        0.51333        -7.01228         1.59260
| 50>    C        1.55943        -6.29617         1.01994
| 51>    S        1.85846        -6.14590        -0.69095
| 52>    C       -0.37855        -7.80014         0.76672
| 53>    C       -0.04558        -8.53773        -0.33412
| 54>    C       -1.16190        -9.15073        -0.94216
| 55>    C       -2.35384        -8.88648        -0.33333
| 56>    S       -2.10054        -7.85837         1.03586
| 57>    C       -3.71301        -9.35851        -0.69746
| 58>   Cl       -1.01232       -10.14873        -2.33733
| 59>    C       -0.60362        -7.49755         3.82154
| 60>    C       -0.45614        -7.20270         5.14702
| 61>    S        0.94626        -6.19861         5.44713
| 62>    C       -1.32781        -7.55680         6.21306
| 63>    C       -1.17150        -7.28554         7.55737
| 64>    C       -2.27211        -7.70983         8.30519
| 65>    C       -3.27120        -8.30574         7.51809
| 66>    S       -2.85095        -8.36011         5.86446
| 67>    C       -4.36515        -8.66314         8.34893
| 68>    C       -4.04687        -8.28685         9.66891
| 69>    C       -2.72003        -7.68998         9.68803
| 70>    C       -2.04521        -7.20935        10.77124
| 71>    C       -2.59411        -7.24341        12.07034
| 72>    N       -3.03811        -7.26979        13.12729
| 73>    C       -0.75487        -6.64807        10.66675
| 74>    N        0.29555        -6.19526        10.58783
| 75>    C       -5.07587        -8.55993        10.55649
| 76>    C       -6.18288        -9.12953         9.93116
| 77>    S       -5.91890        -9.34538         8.20473
| 78>    C       -7.37265        -9.46852        10.62842
| 79>    C       -8.65635        -9.85348        10.21995
| 80>    N       -9.02600       -10.06938         8.88911
| 81>    O       -8.13323       -10.17020         8.04814
| 82>    O      -10.20468       -10.15525         8.60353
| 83>    C       -9.58424       -10.01094        11.30283
| 84>    C      -11.01064       -10.41393        11.17071
| 85>    C       -8.99341        -9.76337        12.49674
| 86>    S       -7.33774        -9.31874        12.36053
| 87>    H        6.14660        -2.03393        -8.11933
| 88>    H        2.47345        -5.03386        -7.01817
| 89>    H        2.15819        -4.36072        -5.40758
| 90>    H        3.23476        -5.74076        -5.59255
| 91>    H        6.89411        -1.58992        -3.36603
| 92>    H        9.78495         1.08650        -2.11389
| 93>    H       10.16758         0.07125        -0.68798
| 94>    H        8.95201         1.35724        -0.55064
| 95>    H        4.10994        -4.12140         1.30545
| 96>    H        2.16289        -3.83326         5.54188
| 97>    H        6.91070        -2.87055         6.17676
| 98>    H        7.23582        -2.78133         4.43749
| 99>    H        7.49802        -4.29523         5.29982
|100>    H        0.95944        -8.67862        -0.68555
|101>    H       -3.65019       -10.02884        -1.55096
|102>    H       -4.35620        -8.51750        -0.95543
|103>    H       -4.17228        -9.88727         0.13697
|104>    H       -1.40261        -8.11815         3.46013
|105>    H       -0.29983        -6.79570         7.95286
|106>    H       -5.04900        -8.34760        11.61051
|107>    H      -11.57247        -9.65078        10.63517
|108>    H      -11.44668       -10.55623        12.15610
|109>    H      -11.09965       -11.33602        10.59955
|110>    H       -9.44094        -9.81391        13.46889
|111> *
|112>
|113>                          ****END OF INPUT****

CARTESIAN COORDINATES (ANGSTROEM)
---------------------------------
  C      5.621070   -2.520550   -7.321580
  C      4.563990   -3.387950   -7.449470
  N      4.073840   -3.695690   -8.754310
  O      4.436680   -2.967500   -9.656130
  O      3.342730   -4.652680   -8.900780
  C      4.071450   -3.884470   -6.209180
  C      2.915110   -4.805990   -6.053420
  C      4.792680   -3.364640   -5.146550
  S      6.062170   -2.291010   -5.701960
  C      4.627370   -3.590580   -3.753040
  S      3.425150   -4.689020   -3.130010
  C      3.852570   -4.395500   -1.471730
  C      4.889860   -3.487260   -1.421290
  C      5.337390   -3.023570   -2.692510
  C      6.391780   -2.085870   -2.557530
  C      6.719470   -1.861170   -1.254560
  C      7.739870   -0.965980   -0.706970
  O      7.973370   -0.850070    0.471210
  O      8.380400   -0.287900   -1.670680
  C      9.383940    0.612360   -1.222140
  S      5.768860   -2.775710   -0.108300
  C      3.158160   -5.010540   -0.396970
  C      3.365850   -4.800980    0.937450
  C      2.478040   -5.520740    1.769070
  C      2.384350   -5.469130    3.175510
  C      3.347630   -4.750140    3.982390
  C      3.131450   -4.023840    5.118950
  C      4.320830   -3.491210    5.661160
  C      5.452480   -3.810150    4.967630
  S      5.050250   -4.789390    3.600430
  C      6.857300   -3.416610    5.238410
  Cl     4.325160   -2.520080    7.082300
  C      1.312110   -6.148110    3.744250
  C      0.378090   -6.906650    2.992910
  C      0.513330   -7.012280    1.592600
  C      1.559430   -6.296170    1.019940
  S      1.858460   -6.145900   -0.690950
  C     -0.378550   -7.800140    0.766720
  C     -0.045580   -8.537730   -0.334120
  C     -1.161900   -9.150730   -0.942160
  C     -2.353840   -8.886480   -0.333330
  S     -2.100540   -7.858370    1.035860
  C     -3.713010   -9.358510   -0.697460
  Cl    -1.012320  -10.148730   -2.337330
  C     -0.603620   -7.497550    3.821540
  C     -0.456140   -7.202700    5.147020
  S      0.946260   -6.198610    5.447130
  C     -1.327810   -7.556800    6.213060
  C     -1.171500   -7.285540    7.557370
  C     -2.272110   -7.709830    8.305190
  C     -3.271200   -8.305740    7.518090
  S     -2.850950   -8.360110    5.864460
  C     -4.365150   -8.663140    8.348930
  C     -4.046870   -8.286850    9.668910
  C     -2.720030   -7.689980    9.688030
  C     -2.045210   -7.209350   10.771240
  C     -2.594110   -7.243410   12.070340
  N     -3.038110   -7.269790   13.127290
  C     -0.754870   -6.648070   10.666750
  N      0.295550   -6.195260   10.587830
  C     -5.075870   -8.559930   10.556490
  C     -6.182880   -9.129530    9.931160
  S     -5.918900   -9.345380    8.204730
  C     -7.372650   -9.468520   10.628420
  C     -8.656350   -9.853480   10.219950
  N     -9.026000  -10.069380    8.889110
  O     -8.133230  -10.170200    8.048140
  O    -10.204680  -10.155250    8.603530
  C     -9.584240  -10.010940   11.302830
  C    -11.010640  -10.413930   11.170710
  C     -8.993410   -9.763370   12.496740
  S     -7.337740   -9.318740   12.360530
  H      6.146600   -2.033930   -8.119330
  H      2.473450   -5.033860   -7.018170
  H      2.158190   -4.360720   -5.407580
  H      3.234760   -5.740760   -5.592550
  H      6.894110   -1.589920   -3.366030
  H      9.784950    1.086500   -2.113890
  H     10.167580    0.071250   -0.687980
  H      8.952010    1.357240   -0.550640
  H      4.109940   -4.121400    1.305450
  H      2.162890   -3.833260    5.541880
  H      6.910700   -2.870550    6.176760
  H      7.235820   -2.781330    4.437490
  H      7.498020   -4.295230    5.299820
  H      0.959440   -8.678620   -0.685550
  H     -3.650190  -10.028840   -1.550960
  H     -4.356200   -8.517500   -0.955430
  H     -4.172280   -9.887270    0.136970
  H     -1.402610   -8.118150    3.460130
  H     -0.299830   -6.795700    7.952860
  H     -5.049000   -8.347600   11.610510
  H    -11.572470   -9.650780   10.635170
  H    -11.446680  -10.556230   12.156100
  H    -11.099650  -11.336020   10.599550
  H     -9.440940   -9.813910   13.468890

 Total Charge           Charge          ....    0
 Multiplicity           Mult            ....    1
 Number of Electrons    NEL             ....  594
 Basis Dimension        Dim             .... 1176

ORBITAL ENERGIES
----------------

  NO   OCC          E(Eh)            E(eV)
   0   2.0000    -101.584634     -2764.2584
   1   2.0000    -101.578404     -2764.0889
   2   2.0000     -88.988040     -2421.4877
   3   2.0000     -88.987925     -2421.4845
   4   2.0000     -88.986434     -2421.4440
   5   2.0000     -88.980733     -2421.2888
   6   2.0000     -88.979304     -2421.2500
   7   2.0000     -88.964613     -2420.8502
   8   2.0000     -88.960750     -2420.7451
   9   2.0000     -88.957335     -2420.6521
  10   2.0000     -88.956922     -2420.6409
  11   2.0000     -88.954826     -2420.5839
  12   2.0000     -19.267691      -524.3005
  13   2.0000     -19.246332      -523.7193
  14   2.0000     -19.246211      -523.7160
  15   2.0000     -19.245005      -523.6832
  16   2.0000     -19.241664      -523.5923
  17   2.0000     -19.211780      -522.7791
  18   2.0000     -14.654388      -398.7662
  19   2.0000     -14.652779      -398.7224
  20   2.0000     -14.429097      -392.6357
  21   2.0000     -14.427505      -392.5924
  22   2.0000     -10.411101      -283.3005
  23   2.0000     -10.362091      -281.9668
  24   2.0000     -10.350314      -281.6464
  25   2.0000     -10.349424      -281.6221
  26   2.0000     -10.334640      -281.2198
  27   2.0000     -10.333750      -281.1956
  28   2.0000     -10.331610      -281.1374
  29   2.0000     -10.329996      -281.0935
  30   2.0000     -10.329628      -281.0835
  31   2.0000     -10.329187      -281.0715
  32   2.0000     -10.328575      -281.0548
  33   2.0000     -10.328224      -281.0453
  34   2.0000     -10.327815      -281.0341
  35   2.0000     -10.326220      -280.9907
  36   2.0000     -10.326084      -280.9870
  37   2.0000     -10.323463      -280.9157
  38   2.0000     -10.320228      -280.8277
  39   2.0000     -10.320063      -280.8232
  40   2.0000     -10.317578      -280.7556
  41   2.0000     -10.316686      -280.7313
  42   2.0000     -10.316604      -280.7291
  43   2.0000     -10.314352      -280.6678
  44   2.0000     -10.313652      -280.6487
  45   2.0000     -10.311009      -280.5768
  46   2.0000     -10.309480      -280.5352
  47   2.0000     -10.309419      -280.5336
  48   2.0000     -10.309323      -280.5309
  49   2.0000     -10.305997      -280.4404
  50   2.0000     -10.305940      -280.4389
  51   2.0000     -10.304853      -280.4093
  52   2.0000     -10.304643      -280.4036
  53   2.0000     -10.304095      -280.3887
  54   2.0000     -10.302729      -280.3515
  55   2.0000     -10.301629      -280.3216
  56   2.0000     -10.300785      -280.2986
  57   2.0000     -10.300495      -280.2907
  58   2.0000     -10.300346      -280.2867
  59   2.0000     -10.300157      -280.2815
  60   2.0000     -10.300075      -280.2793
  61   2.0000     -10.299666      -280.2681
  62   2.0000     -10.293004      -280.0869
  63   2.0000     -10.291339      -280.0416
  64   2.0000     -10.282099      -279.7901
  65   2.0000     -10.280941      -279.7586
  66   2.0000     -10.278296      -279.6866
  67   2.0000     -10.277947      -279.6772
  68   2.0000     -10.276880      -279.6481
  69   2.0000     -10.272116      -279.5185
  70   2.0000     -10.271200      -279.4935
  71   2.0000     -10.270939      -279.4864
  72   2.0000      -9.539389      -259.5800
  73   2.0000      -9.533178      -259.4110
  74   2.0000      -8.082625      -219.9394
  75   2.0000      -8.081824      -219.9176
  76   2.0000      -8.080095      -219.8706
  77   2.0000      -8.075011      -219.7322
  78   2.0000      -8.074830      -219.7273
  79   2.0000      -8.059219      -219.3025
  80   2.0000      -8.056335      -219.2240
  81   2.0000      -8.052482      -219.1192
  82   2.0000      -8.052259      -219.1131
  83   2.0000      -8.050409      -219.0628
  84   2.0000      -7.309630      -198.9052
  85   2.0000      -7.303434      -198.7365
  86   2.0000      -7.299461      -198.6284
  87   2.0000      -7.299381      -198.6262
  88   2.0000      -7.293244      -198.4592
  89   2.0000      -7.293157      -198.4569
  90   2.0000      -6.051857      -164.6794
  91   2.0000      -6.051034      -164.6570
  92   2.0000      -6.049637      -164.6190
  93   2.0000      -6.047713      -164.5666
  94   2.0000      -6.046761      -164.5407
  95   2.0000      -6.044952      -164.4915
  96   2.0000      -6.044825      -164.4881
  97   2.0000      -6.044482      -164.4787
  98   2.0000      -6.044302      -164.4738
  99   2.0000      -6.044211      -164.4713
 100   2.0000      -6.042541      -164.4259
 101   2.0000      -6.039913      -164.3544
 102   2.0000      -6.039820      -164.3519
 103   2.0000      -6.037100      -164.2778
 104   2.0000      -6.037075      -164.2772
 105   2.0000      -6.029057      -164.0590
 106   2.0000      -6.025663      -163.9666
 107   2.0000      -6.024721      -163.9410
 108   2.0000      -6.022223      -163.8730
 109   2.0000      -6.022012      -163.8673
 110   2.0000      -6.021487      -163.8530
 111   2.0000      -6.020462      -163.8251
 112   2.0000      -6.019734      -163.8053
 113   2.0000      -6.018391      -163.7687
 114   2.0000      -6.018000      -163.7581
 115   2.0000      -6.017767      -163.7518
 116   2.0000      -6.015557      -163.6916
 117   2.0000      -6.013711      -163.6414
 118   2.0000      -6.013487      -163.6353
 119   2.0000      -6.012443      -163.6069
 120   2.0000      -1.325620       -36.0720
 121   2.0000      -1.325371       -36.0652
 122   2.0000      -1.198805       -32.6211
 123   2.0000      -1.143211       -31.1083
 124   2.0000      -1.141561       -31.0634
 125   2.0000      -1.105475       -30.0815
 126   2.0000      -1.042803       -28.3761
 127   2.0000      -1.028514       -27.9873
 128   2.0000      -1.021083       -27.7851
 129   2.0000      -1.018073       -27.7032
 130   2.0000      -1.015298       -27.6277
 131   2.0000      -1.010708       -27.5028
 132   2.0000      -1.005867       -27.3710
 133   2.0000      -1.002185       -27.2709
 134   2.0000      -0.996872       -27.1263
 135   2.0000      -0.992527       -27.0080
 136   2.0000      -0.980816       -26.6894
 137   2.0000      -0.960805       -26.1448
 138   2.0000      -0.955378       -25.9972
 139   2.0000      -0.944943       -25.7132
 140   2.0000      -0.938841       -25.5472
 141   2.0000      -0.924124       -25.1467
 142   2.0000      -0.915546       -24.9133
 143   2.0000      -0.912278       -24.8244
 144   2.0000      -0.906262       -24.6607
 145   2.0000      -0.900850       -24.5134
 146   2.0000      -0.890005       -24.2183
 147   2.0000      -0.882162       -24.0048
 148   2.0000      -0.870422       -23.6854
 149   2.0000      -0.865520       -23.5520
 150   2.0000      -0.860846       -23.4248
 151   2.0000      -0.855908       -23.2904
 152   2.0000      -0.855562       -23.2810
 153   2.0000      -0.848462       -23.0878
 154   2.0000      -0.842318       -22.9206
 155   2.0000      -0.835738       -22.7416
 156   2.0000      -0.820458       -22.3258
 157   2.0000      -0.812128       -22.0991
 158   2.0000      -0.809752       -22.0345
 159   2.0000      -0.808454       -21.9991
 160   2.0000      -0.804221       -21.8840
 161   2.0000      -0.797472       -21.7003
 162   2.0000      -0.791256       -21.5312
 163   2.0000      -0.775738       -21.1089
 164   2.0000      -0.773863       -21.0579
 165   2.0000      -0.767849       -20.8942
 166   2.0000      -0.762846       -20.7581
 167   2.0000      -0.757561       -20.6143
 168   2.0000      -0.745544       -20.2873
 169   2.0000      -0.733783       -19.9673
 170   2.0000      -0.724546       -19.7159
 171   2.0000      -0.711967       -19.3736
 172   2.0000      -0.702346       -19.1118
 173   2.0000      -0.698282       -19.0012
 174   2.0000      -0.684873       -18.6363
 175   2.0000      -0.684304       -18.6209
 176   2.0000      -0.676274       -18.4023
 177   2.0000      -0.669699       -18.2234
 178   2.0000      -0.658468       -17.9178
 179   2.0000      -0.653360       -17.7788
 180   2.0000      -0.650798       -17.7091
 181   2.0000      -0.647619       -17.6226
 182   2.0000      -0.644773       -17.5452
 183   2.0000      -0.640502       -17.4289
 184   2.0000      -0.634992       -17.2790
 185   2.0000      -0.634625       -17.2690
 186   2.0000      -0.633332       -17.2339
 187   2.0000      -0.630061       -17.1448
 188   2.0000      -0.621050       -16.8996
 189   2.0000      -0.618290       -16.8245
 190   2.0000      -0.617075       -16.7915
 191   2.0000      -0.612597       -16.6696
 192   2.0000      -0.606572       -16.5057
 193   2.0000      -0.601772       -16.3751
 194   2.0000      -0.595951       -16.2167
 195   2.0000      -0.592437       -16.1210
 196   2.0000      -0.587814       -15.9952
 197   2.0000      -0.584320       -15.9002
 198   2.0000      -0.582270       -15.8444
 199   2.0000      -0.578458       -15.7406
 200   2.0000      -0.577987       -15.7278
 201   2.0000      -0.576572       -15.6893
 202   2.0000      -0.562471       -15.3056
 203   2.0000      -0.559754       -15.2317
 204   2.0000      -0.556310       -15.1380
 205   2.0000      -0.548828       -14.9344
 206   2.0000      -0.547572       -14.9002
 207   2.0000      -0.545481       -14.8433
 208   2.0000      -0.537085       -14.6148
 209   2.0000      -0.535461       -14.5706
 210   2.0000      -0.531261       -14.4563
 211   2.0000      -0.527055       -14.3419
 212   2.0000      -0.523553       -14.2466
 213   2.0000      -0.520977       -14.1765
 214   2.0000      -0.519061       -14.1244
 215   2.0000      -0.518658       -14.1134
 216   2.0000      -0.516624       -14.0581
 217   2.0000      -0.514579       -14.0024
 218   2.0000      -0.513868       -13.9831
 219   2.0000      -0.511085       -13.9073
 220   2.0000      -0.507792       -13.8177
 221   2.0000      -0.504426       -13.7261
 222   2.0000      -0.503076       -13.6894
 223   2.0000      -0.502906       -13.6848
 224   2.0000      -0.501270       -13.6403
 225   2.0000      -0.496380       -13.5072
 226   2.0000      -0.495477       -13.4826
 227   2.0000      -0.493269       -13.4225
 228   2.0000      -0.492121       -13.3913
 229   2.0000      -0.489136       -13.3101
 230   2.0000      -0.488511       -13.2931
 231   2.0000      -0.485261       -13.2046
 232   2.0000      -0.481363       -13.0985
 233   2.0000      -0.478267       -13.0143
 234   2.0000      -0.475970       -12.9518
 235   2.0000      -0.474164       -12.9026
 236   2.0000      -0.471917       -12.8415
 237   2.0000      -0.471079       -12.8187
 238   2.0000      -0.468520       -12.7491
 239   2.0000      -0.468162       -12.7393
 240   2.0000      -0.465330       -12.6623
 241   2.0000      -0.464844       -12.6490
 242   2.0000      -0.461259       -12.5515
 243   2.0000      -0.459832       -12.5127
 244   2.0000      -0.458102       -12.4656
 245   2.0000      -0.457099       -12.4383
 246   2.0000      -0.454618       -12.3708
 247   2.0000      -0.450286       -12.2529
 248   2.0000      -0.445328       -12.1180
 249   2.0000      -0.442338       -12.0366
 250   2.0000      -0.441212       -12.0060
 251   2.0000      -0.438794       -11.9402
 252   2.0000      -0.438625       -11.9356
 253   2.0000      -0.438052       -11.9200
 254   2.0000      -0.436731       -11.8841
 255   2.0000      -0.433300       -11.7907
 256   2.0000      -0.431292       -11.7361
 257   2.0000      -0.429423       -11.6852
 258   2.0000      -0.424288       -11.5455
 259   2.0000      -0.423094       -11.5130
 260   2.0000      -0.423058       -11.5120
 261   2.0000      -0.420802       -11.4506
 262   2.0000      -0.417911       -11.3719
 263   2.0000      -0.415777       -11.3139
 264   2.0000      -0.413063       -11.2400
 265   2.0000      -0.408468       -11.1150
 266   2.0000      -0.403214       -10.9720
 267   2.0000      -0.402279       -10.9466
 268   2.0000      -0.393388       -10.7046
 269   2.0000      -0.388744       -10.5783
 270   2.0000      -0.386646       -10.5212
 271   2.0000      -0.385703       -10.4955
 272   2.0000      -0.385213       -10.4822
 273   2.0000      -0.382171       -10.3994
 274   2.0000      -0.380814       -10.3625
 275   2.0000      -0.377600       -10.2750
 276   2.0000      -0.373340       -10.1591
 277   2.0000      -0.370404       -10.0792
 278   2.0000      -0.367601       -10.0029
 279   2.0000      -0.365544        -9.9470
 280   2.0000      -0.363640        -9.8952
 281   2.0000      -0.345478        -9.4009
 282   2.0000      -0.345034        -9.3888
 283   2.0000      -0.343477        -9.3465
 284   2.0000      -0.338019        -9.1980
 285   2.0000      -0.333998        -9.0885
 286   2.0000      -0.328587        -8.9413
 287   2.0000      -0.321221        -8.7409
 288   2.0000      -0.318754        -8.6737
 289   2.0000      -0.316873        -8.6226
 290   2.0000      -0.313120        -8.5204
 291   2.0000      -0.302460        -8.2304
 292   2.0000      -0.300240        -8.1700
 293   2.0000      -0.292327        -7.9546
 294   2.0000      -0.259241        -7.0543
 295   2.0000      -0.258682        -7.0391
 296   2.0000      -0.233997        -6.3674
 297   0.0000      -0.102643        -2.7931
 298   0.0000      -0.074889        -2.0378
 299   0.0000      -0.067441        -1.8352
 300   0.0000      -0.047860        -1.3023
 301   0.0000      -0.041486        -1.1289

MULLIKEN ATOMIC CHARGES
-----------------------
   0 C :   -0.069881
   1 C :    0.112511
   2 N :    0.262149
   3 O :   -0.244106
   4 O :   -0.234457
   5 C :   -0.112081
   6 C :    0.122453
   7 C :   -0.136412
   8 S :    0.142782
   9 C :   -0.084151
  10 S :    0.130135
  11 C :   -0.098537
  12 C :   -0.041036
  13 C :    0.090239
  14 C :   -0.004445
  15 C :   -0.130194
  16 C :    0.207861
  17 O :   -0.200943
  18 O :   -0.302929
  19 C :    0.191228
  20 S :    0.154106
  21 C :   -0.025001
  22 C :   -0.098078
  23 C :    0.083844
  24 C :    0.145323
  25 C :   -0.212931
  26 C :    0.031823
  27 C :    0.086919
  28 C :   -0.265375
  29 S :    0.137275
  30 C :    0.122539
  31 Cl:   -0.086391
  32 C :   -0.141460
  33 C :    0.091492
  34 C :    0.144406
  35 C :   -0.144973
  36 S :    0.112181
  37 C :   -0.206831
  38 C :    0.028980
  39 C :    0.085486
  40 C :   -0.265443
  41 S :    0.131858
  42 C :    0.123274
  43 Cl:   -0.087379
  44 C :   -0.096448
  45 C :   -0.010698
  46 S :    0.121097
  47 C :   -0.045668
  48 C :   -0.059190
  49 C :    0.012394
  50 C :   -0.101150
  51 S :    0.190762
  52 C :   -0.076011
  53 C :    0.034512
  54 C :    0.306984
  55 C :   -0.300509
  56 C :   -0.188580
  57 N :    0.167600
  58 C :   -0.191633
  59 N :    0.178869
  60 C :   -0.085717
  61 C :   -0.063598
  62 S :    0.242497
  63 C :   -0.141794
  64 C :    0.121385
  65 N :    0.287476
  66 O :   -0.289375
  67 O :   -0.241245
  68 C :   -0.096845
  69 C :    0.162238
  70 C :   -0.118042
  71 S :    0.147768
  72 H :    0.045041
  73 H :    0.043698
  74 H :    0.035694
  75 H :    0.037209
  76 H :    0.009989
  77 H :    0.035000
  78 H :    0.035145
  79 H :    0.036365
  80 H :   -0.004162
  81 H :   -0.006566
  82 H :    0.023624
  83 H :    0.046272
  84 H :    0.032552
  85 H :   -0.005784
  86 H :    0.026396
  87 H :    0.037601
  88 H :    0.033599
  89 H :   -0.011368
  90 H :    0.015798
  91 H :    0.023146
  92 H :    0.039453
  93 H :    0.001365
  94 H :    0.029142
  95 H :    0.027882
Sum of atomic charges:   -0.0000000

LOEWDIN ATOMIC CHARGES
----------------------
   0 C :   -0.153084
   1 C :   -0.076144
   2 N :    0.288124
   3 O :   -0.206563
   4 O :   -0.196433
   5 C :   -0.043852
   6 C :   -0.066691
   7 C :   -0.184503
   8 S :    0.492580
   9 C :   -0.180986
  10 S :    0.492220
  11 C :   -0.217768
  12 C :   -0.176381
  13 C :   -0.083550
  14 C :   -0.027582
  15 C :   -0.195950
  16 C :    0.064445
  17 O :   -0.176919
  18 O :   -0.093277
  19 C :    0.083606
  20 S :    0.443622
  21 C :   -0.170464
  22 C :   -0.070277
  23 C :   -0.039798
  24 C :   -0.052604
  25 C :   -0.174439
  26 C :   -0.074334
  27 C :   -0.177757
  28 C :   -0.194557
  29 S :    0.451029
  30 C :   -0.061318
  31 Cl:    0.130571
  32 C :   -0.141224
  33 C :   -0.039896
  34 C :   -0.054830
  35 C :   -0.140918
  36 S :    0.407247
  37 C :   -0.172543
  38 C :   -0.075290
  39 C :   -0.177091
  40 C :   -0.197640
  41 S :    0.445260
  42 C :   -0.061221
  43 Cl:    0.129626
  44 C :   -0.070932
  45 C :   -0.169963
  46 S :    0.427507
  47 C :   -0.172510
  48 C :   -0.033989
  49 C :   -0.066054
  50 C :   -0.179483
  51 S :    0.484406
  52 C :   -0.185240
  53 C :   -0.073857
  54 C :    0.082400
  55 C :   -0.104699
  56 C :   -0.015931
  57 N :   -0.035969
  58 C :   -0.018432
  59 N :   -0.030672
  60 C :   -0.024051
  61 C :   -0.203902
  62 S :    0.542340
  63 C :   -0.139450
  64 C :   -0.091296
  65 N :    0.292606
  66 O :   -0.248007
  67 O :   -0.192731
  68 C :   -0.043384
  69 C :   -0.043774
  70 C :   -0.190236
  71 S :    0.479355
  72 H :    0.039046
  73 H :    0.037616
  74 H :    0.031353
  75 H :    0.035629
  76 H :    0.024862
  77 H :    0.026534
  78 H :    0.024745
  79 H :    0.025206
  80 H :    0.007138
  81 H :    0.025746
  82 H :    0.034120
  83 H :    0.043635
  84 H :    0.038576
  85 H :    0.027109
  86 H :    0.034777
  87 H :    0.040251
  88 H :    0.038804
  89 H :    0.009943
  90 H :    0.038427
  91 H :    0.031963
  92 H :    0.042356
  93 H :    0.028563
  94 H :    0.038752
  95 H :    0.028348

  Mayer bond orders larger than 0.100000
B(  0-C ,  1-C ) :   1.5248 B(  0-C ,  8-S ) :   1.1971 B(  0-C , 72-H ) :   0.9544
B(  1-C ,  2-N ) :   0.9137 B(  1-C ,  5-C ) :   1.2582 B(  2-N ,  3-O ) :   1.5506
B(  2-N ,  4-O ) :   1.5269 B(  3-O ,  4-O ) :   0.2651 B(  5-C ,  6-C ) :   1.1272
B(  5-C ,  7-C ) :   1.5045 B(  6-C , 73-H ) :   0.9149 B(  6-C , 74-H ) :   0.9259
B(  6-C , 75-H ) :   0.9247 B(  7-C ,  8-S ) :   1.1245 B(  7-C ,  9-C ) :   1.1719
B(  9-C , 10-S ) :   1.1370 B(  9-C , 11-C ) :   0.1171 B(  9-C , 13-C ) :   1.3825
B( 10-S , 11-C ) :   1.1103 B( 11-C , 12-C ) :   1.5278 B( 11-C , 21-C ) :   1.1398
B( 12-C , 13-C ) :   1.2543 B( 12-C , 20-S ) :   1.0607 B( 13-C , 14-C ) :   1.1215
B( 14-C , 15-C ) :   1.6297 B( 14-C , 76-H ) :   0.9886 B( 15-C , 16-C ) :   0.9599
B( 15-C , 20-S ) :   1.0693 B( 16-C , 17-O ) :   2.1383 B( 16-C , 18-O ) :   1.2430
B( 18-O , 19-C ) :   0.9186 B( 19-C , 77-H ) :   0.9812 B( 19-C , 78-H ) :   0.9765
B( 19-C , 79-H ) :   0.9759 B( 21-C , 22-C ) :   1.5852 B( 21-C , 36-S ) :   1.0535
B( 22-C , 23-C ) :   1.1889 B( 22-C , 80-H ) :   0.9652 B( 23-C , 24-C ) :   1.2928
B( 23-C , 35-C ) :   1.2721 B( 24-C , 25-C ) :   0.9936 B( 24-C , 32-C ) :   1.4230
B( 25-C , 26-C ) :   1.5463 B( 25-C , 29-S ) :   1.1280 B( 26-C , 27-C ) :   1.2212
B( 26-C , 81-H ) :   0.9937 B( 27-C , 28-C ) :   1.6037 B( 27-C , 31-Cl) :   1.0083
B( 28-C , 29-S ) :   1.1325 B( 28-C , 30-C ) :   1.0823 B( 30-C , 82-H ) :   0.9434
B( 30-C , 83-H ) :   0.9480 B( 30-C , 84-H ) :   0.9474 B( 32-C , 33-C ) :   1.2707
B( 32-C , 46-S ) :   1.0560 B( 33-C , 34-C ) :   1.2966 B( 33-C , 44-C ) :   1.1872
B( 34-C , 35-C ) :   1.4165 B( 34-C , 37-C ) :   0.9862 B( 35-C , 36-S ) :   1.0564
B( 37-C , 38-C ) :   1.5523 B( 37-C , 41-S ) :   1.1283 B( 38-C , 39-C ) :   1.2200
B( 38-C , 85-H ) :   0.9950 B( 39-C , 40-C ) :   1.6073 B( 39-C , 43-Cl) :   1.0068
B( 40-C , 41-S ) :   1.1273 B( 40-C , 42-C ) :   1.0821 B( 42-C , 86-H ) :   0.9438
B( 42-C , 87-H ) :   0.9483 B( 42-C , 88-H ) :   0.9481 B( 44-C , 45-C ) :   1.5697
B( 44-C , 89-H ) :   0.9676 B( 45-C , 46-S ) :   1.0715 B( 45-C , 47-C ) :   1.1514
B( 47-C , 48-C ) :   1.4676 B( 47-C , 51-S ) :   1.1082 B( 48-C , 49-C ) :   1.2832
B( 48-C , 90-H ) :   0.9913 B( 49-C , 50-C ) :   1.4470 B( 49-C , 54-C ) :   0.9971
B( 50-C , 51-S ) :   1.1237 B( 50-C , 52-C ) :   1.1778 B( 52-C , 53-C ) :   1.3995
B( 52-C , 62-S ) :   1.1132 B( 53-C , 54-C ) :   0.9880 B( 53-C , 60-C ) :   1.3474
B( 54-C , 55-C ) :   1.7098 B( 55-C , 56-C ) :   1.1367 B( 55-C , 58-C ) :   1.1317
B( 56-C , 57-N ) :   2.9863 B( 58-C , 59-N ) :   2.9962 B( 60-C , 61-C ) :   1.3905
B( 60-C , 91-H ) :   0.9798 B( 61-C , 62-S ) :   1.1018 B( 61-C , 63-C ) :   1.2048
B( 63-C , 64-C ) :   1.4062 B( 63-C , 71-S ) :   1.2136 B( 64-C , 65-N ) :   0.9969
B( 64-C , 68-C ) :   1.2140 B( 65-N , 66-O ) :   1.4142 B( 65-N , 67-O ) :   1.5254
B( 66-O , 67-O ) :   0.2369 B( 68-C , 69-C ) :   1.1007 B( 68-C , 70-C ) :   1.6307
B( 69-C , 92-H ) :   0.9368 B( 69-C , 93-H ) :   0.9397 B( 69-C , 94-H ) :   0.9386
B( 70-C , 71-S ) :   1.1002 B( 70-C , 95-H ) :   0.9660

-----------------------------------------------------------------------------
         ABSORPTION SPECTRUM VIA TRANSITION ELECTRIC DIPOLE MOMENTS
-----------------------------------------------------------------------------
State   Energy  Wavelength   fosc         T2         TX        TY        TZ
        (cm-1)    (nm)                  (au**2)     (au)      (au)      (au)
-----------------------------------------------------------------------------
   0   12902.6    775.0   0.177700248   4.53406   1.46787   0.55553  -1.43903
   1   18903.9    529.0   0.270870620   4.71721  -0.83967  -0.41444   1.95969
   2   20681.8    483.5   1.742166810  27.73174  -2.69623  -1.29725   4.33350
   3   22579.3    442.9   0.342917966   4.99982  -1.97636  -0.45189  -0.94320
   4   23535.6    424.9   0.035101584   0.49099  -0.28796  -0.51139   0.38283
   5   25375.3    394.1   0.124228070   1.61170  -1.01143  -0.70400   0.30512
   6   25890.8    386.2   0.186187426   2.36745  -0.05071   0.05201  -1.53693
   7   27313.4    366.1   0.020806111   0.25078   0.28525   0.11618  -0.39486
   8   27615.7    362.1   0.026367554   0.31433  -0.29481  -0.13087  -0.45858
   9   27785.4    359.9   0.063601551   0.75357  -0.83458  -0.23511   0.04216
  10   29465.5    339.4   0.063009526   0.70399   0.62012   0.28240  -0.48958
  11   30339.0    329.6   0.135108247   1.46608   0.17732  -0.16585  -1.18622
  12   30693.5    325.8   0.106151360   1.13856  -0.66666  -0.46022  -0.69450
  13   30801.7    324.7   0.536498299   5.73416  -1.82530  -1.23525   0.93627
  14   30913.1    323.5   0.009211556   0.09810  -0.13469  -0.12697  -0.25266
  15   32110.5    311.4   0.747743459   7.66623   2.17655   1.30866   1.10285
  16   32596.7    306.8   0.229632970   2.31919  -0.18313   0.22022   1.49571
  17   32745.6    305.4   0.089117992   0.89596   0.55348  -0.03186  -0.76721
  18   33491.5    298.6   0.076808657   0.75501  -0.73976  -0.45547   0.01746
  19   33913.5    294.9   0.009481865   0.09204  -0.08771  -0.04010   0.28765
  20   34130.8    293.0   0.150761183   1.45418  -0.72649  -0.43153  -0.86033
  21   34274.5    291.8   0.040732283   0.39124   0.05010   0.09241   0.61660
  22   34403.5    290.7   0.005106947   0.04887   0.06834   0.05337  -0.20335
  23   34848.5    287.0   0.138029434   1.30396  -0.76158  -0.54745  -0.65134
  24   34983.9    285.8   0.031449301   0.29595  -0.30072  -0.34371   0.29560
  25   35217.9    283.9   0.044766792   0.41847   0.06476   0.05114   0.64161
  26   35395.4    282.5   0.002807665   0.02611  -0.07546   0.01126   0.14245
  27   35874.2    278.8   0.005414876   0.04969  -0.15305  -0.13599   0.08817
  28   36031.2    277.5   0.009062282   0.08280   0.24930   0.12576   0.06953
  29   36547.5    273.6   0.105446100   0.94984  -0.10740   0.44241   0.86173
  30   36591.9    273.3   0.136154820   1.22496   0.98832   0.47003  -0.16510
  31   36946.9    270.7   0.192848963   1.71836  -1.11853  -0.68343  -0.01287
  32   37249.6    268.5   0.044912146   0.39693  -0.44919  -0.34734  -0.27298
  33   37485.7    266.8   0.027059753   0.23765   0.06357   0.01403  -0.48312
  34   37553.2    266.3   0.009196505   0.08062  -0.26641   0.00508   0.09808
  35   37657.4    265.6   0.006509174   0.05691  -0.23571  -0.03665   0.00216
  36   38108.8    262.4   0.045763081   0.39534   0.45587   0.24299   0.35843
  37   38308.2    261.0   0.031253003   0.26858   0.13973   0.10403   0.48809
  38   38498.8    259.7   0.020290761   0.17351   0.15090   0.15826  -0.35453
  39   39109.5    255.7   0.035110308   0.29555  -0.10937  -0.03381  -0.53145
  40   39184.0    255.2   0.022348114   0.18776   0.06779  -0.01983  -0.42752
  41   39309.2    254.4   0.013794470   0.11553   0.03307  -0.20962  -0.26551
  42   39415.8    253.7   0.080161346   0.66953   0.43547   0.42479   0.54722
  43   39735.2    251.7   0.043933499   0.36400   0.42441   0.14155   0.40476
  44   39895.1    250.7   0.010011209   0.08261  -0.02866   0.02876  -0.28454
  45   40108.5    249.3   0.043060905   0.35345   0.18595   0.11059   0.55375

FINAL SINGLE POINT ENERGY     -7487.526249694663

DIPOLE MOMENT
-------------
                                X             Y             Z
Electronic contribution:     -2.15686      -9.66698      10.73315
Nuclear contribution   :      2.16996       9.91285     -10.67005
                        -----------------------------------------
Total Dipole Moment    :      0.01310       0.24587       0.06310
                        -----------------------------------------
Magnitude (a.u.)       :      0.25418
Magnitude (Debye)      :      0.64607

Rotational constants in cm-1:     0.001205     0.000252     0.000213
Rotational constants in MHz :    36.126157     7.568141     6.391949

                             ****ORCA TERMINATED NORMALLY****
TOTAL RUN TIME: 0 days 0 hours 10 minutes 5 seconds 679 msec
