                         Program Version 4.2.0 -  RELEASE  -
|  1> # ORCA input file
|  2> # SCF done       -170.807317265983          0.000725246762
|  3> ! CAM-B3LYP def2-SVP def2/J RIJCOSX Grid4 TightSCF
|  4> %maxcore 5000
|  5> %tddft
|  6>     Mode sTDDFT
|  7>     Ethresh 5.0
|  8>     maxcore 5000
|  9> end
| 10>
| 11> %pal
| 12>   nprocs 6
| 13>   end
| 14> * xyz 0 1
| 15>    C       -3.24017        -2.67733        -2.76938
| 16>    C       -2.19323        -2.74594        -3.65583
| 17>    N       -2.22133        -1.93720        -4.83146
| 18>    O       -3.04380        -1.04435        -4.85764
| 19>    O       -1.44810        -2.18179        -5.73407
| 20>    C       -1.16809        -3.65675        -3.26623
| 21>    C        0.09480        -3.91038        -4.01206
| 22>    C       -1.48585        -4.26422        -2.06794
| 23>    S       -3.03084        -3.71734        -1.44889
| 24>    C       -0.76302        -5.23081        -1.30802
| 25>    C       -1.17271        -5.78327        -0.10880
| 26>    C       -0.25213        -6.70473         0.39138
| 27>    C        0.87149        -6.85460        -0.43567
| 28>    S        0.79194        -5.86673        -1.82299
| 29>    C        1.74578        -7.80451         0.15513
| 30>    C        1.17092        -8.25699         1.35304
| 31>    C       -0.10247        -7.57876         1.54459
| 32>    C       -0.96749        -7.72472         2.58829
| 33>    C       -0.70728        -8.60579         3.65932
| 34>    N       -0.49276        -9.32313         4.52753
| 35>    C       -2.17597        -7.00045         2.66558
| 36>    N       -3.15724        -6.41079         2.72777
| 37>    C        1.96076        -9.19979         2.01269
| 38>    C        3.13205        -9.46178         1.32736
| 39>    S        3.25835        -8.53175        -0.15943
| 40>    C        4.17471       -10.34957         1.69638
| 41>    C        5.37209       -10.56008         1.03831
| 42>    C        6.16802       -11.50005         1.69272
| 43>    C        5.56744       -12.01190         2.85492
| 44>    S        4.02719       -11.33356         3.14606
| 45>    C        6.45106       -12.95200         3.44394
| 46>    C        7.61227       -13.03010         2.65655
| 47>    C        7.47358       -12.12051         1.52996
| 48>    C        8.37637       -11.89323         0.53372
| 49>    C        9.62140       -12.55534         0.48366
| 50>    N       10.63365       -13.09203         0.44337
| 51>    C        8.12262       -10.97929        -0.51090
| 52>    N        7.91323       -10.23601        -1.35837
| 53>    C        8.54939       -13.93307         3.15825
| 54>    C        8.10867       -14.54414         4.31765
| 55>    S        6.50968       -13.99152         4.79734
| 56>    C        8.78998       -15.51245         5.09819
| 57>    C        8.33266       -16.14972         6.23721
| 58>    C        9.27323       -17.04648         6.74334
| 59>    C       10.45553       -17.08878         5.98458
| 60>    S       10.40846       -16.02927         4.64659
| 61>    C       11.34895       -18.02238         6.57067
| 62>    C       10.71975       -18.56816         7.70794
| 63>    C        9.39815       -17.97925         7.85202
| 64>    C        8.47133       -18.24573         8.81643
| 65>    C        8.70990       -19.17932         9.84671
| 66>    N        8.90326       -19.93932        10.68337
| 67>    C        7.21490       -17.60493         8.84428
| 68>    N        6.19369       -17.08373         8.86530
| 69>    C       11.52021       -19.49432         8.35811
| 70>    C       12.75675       -19.65960         7.73782
| 71>    S       12.91397       -18.64262         6.31064
| 72>    C       13.74652       -20.55654         8.22175
| 73>    C       15.08996       -20.78485         7.89608
| 74>    N       15.77593       -20.11849         6.87567
| 75>    O       15.11958       -19.45691         6.07216
| 76>    O       16.98537       -20.21479         6.80813
| 77>    C       15.72233       -21.77827         8.71556
| 78>    C       17.13399       -22.23282         8.59532
| 79>    C       14.85798       -22.28669         9.62715
| 80>    S       13.28953       -21.58778         9.54510
| 81>    H       -4.11479        -2.06450        -2.86606
| 82>    H        0.14491        -3.29267        -4.90277
| 83>    H        0.15188        -4.95593        -4.31534
| 84>    H        0.95777        -3.69804        -3.38075
| 85>    H       -2.09981        -5.51889         0.36721
| 86>    H        1.71168        -9.67608         2.94396
| 87>    H        5.63759       -10.04515         0.13247
| 88>    H        9.50524       -14.14669         2.71455
| 89>    H        7.36303       -15.96082         6.66199
| 90>    H       11.23943       -20.02925         9.24790
| 91>    H       17.81673       -21.41916         8.83288
| 92>    H       17.35272       -22.54559         7.57620
| 93>    H       17.31362       -23.06261         9.27386
| 94>    H       15.05317       -23.04472        10.35882
| 95> *
| 96>
| 97>                          ****END OF INPUT****

CARTESIAN COORDINATES (ANGSTROEM)
---------------------------------
  C     -3.240170   -2.677330   -2.769380
  C     -2.193230   -2.745940   -3.655830
  N     -2.221330   -1.937200   -4.831460
  O     -3.043800   -1.044350   -4.857640
  O     -1.448100   -2.181790   -5.734070
  C     -1.168090   -3.656750   -3.266230
  C      0.094800   -3.910380   -4.012060
  C     -1.485850   -4.264220   -2.067940
  S     -3.030840   -3.717340   -1.448890
  C     -0.763020   -5.230810   -1.308020
  C     -1.172710   -5.783270   -0.108800
  C     -0.252130   -6.704730    0.391380
  C      0.871490   -6.854600   -0.435670
  S      0.791940   -5.866730   -1.822990
  C      1.745780   -7.804510    0.155130
  C      1.170920   -8.256990    1.353040
  C     -0.102470   -7.578760    1.544590
  C     -0.967490   -7.724720    2.588290
  C     -0.707280   -8.605790    3.659320
  N     -0.492760   -9.323130    4.527530
  C     -2.175970   -7.000450    2.665580
  N     -3.157240   -6.410790    2.727770
  C      1.960760   -9.199790    2.012690
  C      3.132050   -9.461780    1.327360
  S      3.258350   -8.531750   -0.159430
  C      4.174710  -10.349570    1.696380
  C      5.372090  -10.560080    1.038310
  C      6.168020  -11.500050    1.692720
  C      5.567440  -12.011900    2.854920
  S      4.027190  -11.333560    3.146060
  C      6.451060  -12.952000    3.443940
  C      7.612270  -13.030100    2.656550
  C      7.473580  -12.120510    1.529960
  C      8.376370  -11.893230    0.533720
  C      9.621400  -12.555340    0.483660
  N     10.633650  -13.092030    0.443370
  C      8.122620  -10.979290   -0.510900
  N      7.913230  -10.236010   -1.358370
  C      8.549390  -13.933070    3.158250
  C      8.108670  -14.544140    4.317650
  S      6.509680  -13.991520    4.797340
  C      8.789980  -15.512450    5.098190
  C      8.332660  -16.149720    6.237210
  C      9.273230  -17.046480    6.743340
  C     10.455530  -17.088780    5.984580
  S     10.408460  -16.029270    4.646590
  C     11.348950  -18.022380    6.570670
  C     10.719750  -18.568160    7.707940
  C      9.398150  -17.979250    7.852020
  C      8.471330  -18.245730    8.816430
  C      8.709900  -19.179320    9.846710
  N      8.903260  -19.939320   10.683370
  C      7.214900  -17.604930    8.844280
  N      6.193690  -17.083730    8.865300
  C     11.520210  -19.494320    8.358110
  C     12.756750  -19.659600    7.737820
  S     12.913970  -18.642620    6.310640
  C     13.746520  -20.556540    8.221750
  C     15.089960  -20.784850    7.896080
  N     15.775930  -20.118490    6.875670
  O     15.119580  -19.456910    6.072160
  O     16.985370  -20.214790    6.808130
  C     15.722330  -21.778270    8.715560
  C     17.133990  -22.232820    8.595320
  C     14.857980  -22.286690    9.627150
  S     13.289530  -21.587780    9.545100
  H     -4.114790   -2.064500   -2.866060
  H      0.144910   -3.292670   -4.902770
  H      0.151880   -4.955930   -4.315340
  H      0.957770   -3.698040   -3.380750
  H     -2.099810   -5.518890    0.367210
  H      1.711680   -9.676080    2.943960
  H      5.637590  -10.045150    0.132470
  H      9.505240  -14.146690    2.714550
  H      7.363030  -15.960820    6.661990
  H     11.239430  -20.029250    9.247900
  H     17.816730  -21.419160    8.832880
  H     17.352720  -22.545590    7.576200
  H     17.313620  -23.062610    9.273860
  H     15.053170  -23.044720   10.358820

 Total Charge           Charge          ....    0
 Multiplicity           Mult            ....    1
 Number of Electrons    NEL             ....  506
 Basis Dimension        Dim             .... 1026

ORBITAL ENERGIES
----------------

  NO   OCC          E(Eh)            E(eV)
   0   2.0000     -88.999082     -2421.7881
   1   2.0000     -88.997279     -2421.7391
   2   2.0000     -88.997176     -2421.7363
   3   2.0000     -88.997065     -2421.7332
   4   2.0000     -88.995121     -2421.6804
   5   2.0000     -88.991532     -2421.5827
   6   2.0000     -88.988009     -2421.4868
   7   2.0000     -88.981738     -2421.3162
   8   2.0000     -19.248504      -523.7784
   9   2.0000     -19.248375      -523.7749
  10   2.0000     -19.246829      -523.7329
  11   2.0000     -19.243812      -523.6507
  12   2.0000     -14.656700      -398.8291
  13   2.0000     -14.654820      -398.7779
  14   2.0000     -14.436759      -392.8442
  15   2.0000     -14.436392      -392.8342
  16   2.0000     -14.436317      -392.8321
  17   2.0000     -14.436299      -392.8317
  18   2.0000     -14.433479      -392.7549
  19   2.0000     -14.433357      -392.7516
  20   2.0000     -10.371259      -282.2163
  21   2.0000     -10.371044      -282.2104
  22   2.0000     -10.367020      -282.1009
  23   2.0000     -10.358187      -281.8606
  24   2.0000     -10.358152      -281.8597
  25   2.0000     -10.355325      -281.7827
  26   2.0000     -10.352050      -281.6936
  27   2.0000     -10.338552      -281.3263
  28   2.0000     -10.338406      -281.3223
  29   2.0000     -10.338188      -281.3164
  30   2.0000     -10.337289      -281.2919
  31   2.0000     -10.337076      -281.2861
  32   2.0000     -10.336904      -281.2814
  33   2.0000     -10.336631      -281.2740
  34   2.0000     -10.336504      -281.2706
  35   2.0000     -10.336483      -281.2700
  36   2.0000     -10.336111      -281.2599
  37   2.0000     -10.335989      -281.2566
  38   2.0000     -10.335641      -281.2471
  39   2.0000     -10.335601      -281.2460
  40   2.0000     -10.335428      -281.2413
  41   2.0000     -10.335290      -281.2375
  42   2.0000     -10.335207      -281.2353
  43   2.0000     -10.334001      -281.2025
  44   2.0000     -10.333830      -281.1978
  45   2.0000     -10.332585      -281.1639
  46   2.0000     -10.330262      -281.1007
  47   2.0000     -10.328926      -281.0644
  48   2.0000     -10.327250      -281.0188
  49   2.0000     -10.314412      -280.6694
  50   2.0000     -10.309602      -280.5385
  51   2.0000     -10.309482      -280.5353
  52   2.0000     -10.309425      -280.5337
  53   2.0000     -10.309255      -280.5291
  54   2.0000     -10.308614      -280.5116
  55   2.0000     -10.308332      -280.5040
  56   2.0000     -10.308295      -280.5030
  57   2.0000     -10.308250      -280.5017
  58   2.0000     -10.308243      -280.5016
  59   2.0000     -10.308108      -280.4979
  60   2.0000     -10.307369      -280.4778
  61   2.0000     -10.306840      -280.4634
  62   2.0000     -10.306413      -280.4517
  63   2.0000     -10.304002      -280.3861
  64   2.0000     -10.278361      -279.6884
  65   2.0000     -10.272901      -279.5399
  66   2.0000      -8.092859      -220.2179
  67   2.0000      -8.091660      -220.1853
  68   2.0000      -8.091604      -220.1837
  69   2.0000      -8.091416      -220.1786
  70   2.0000      -8.089495      -220.1264
  71   2.0000      -8.083613      -219.9663
  72   2.0000      -8.083538      -219.9643
  73   2.0000      -8.077517      -219.8004
  74   2.0000      -6.062236      -164.9618
  75   2.0000      -6.060945      -164.9267
  76   2.0000      -6.060886      -164.9251
  77   2.0000      -6.060725      -164.9207
  78   2.0000      -6.058768      -164.8675
  79   2.0000      -6.057808      -164.8413
  80   2.0000      -6.056798      -164.8139
  81   2.0000      -6.056750      -164.8126
  82   2.0000      -6.056539      -164.8068
  83   2.0000      -6.055301      -164.7731
  84   2.0000      -6.054594      -164.7539
  85   2.0000      -6.053927      -164.7357
  86   2.0000      -6.053877      -164.7344
  87   2.0000      -6.053719      -164.7301
  88   2.0000      -6.053079      -164.7127
  89   2.0000      -6.052782      -164.7046
  90   2.0000      -6.051835      -164.6788
  91   2.0000      -6.048565      -164.5898
  92   2.0000      -6.048257      -164.5814
  93   2.0000      -6.046978      -164.5466
  94   2.0000      -6.046024      -164.5207
  95   2.0000      -6.045985      -164.5196
  96   2.0000      -6.042412      -164.4224
  97   2.0000      -6.039593      -164.3457
  98   2.0000      -1.327841       -36.1324
  99   2.0000      -1.327628       -36.1266
 100   2.0000      -1.145261       -31.1641
 101   2.0000      -1.144064       -31.1316
 102   2.0000      -1.052913       -28.6512
 103   2.0000      -1.050371       -28.5820
 104   2.0000      -1.047096       -28.4929
 105   2.0000      -1.028936       -27.9988
 106   2.0000      -1.028364       -27.9832
 107   2.0000      -1.025641       -27.9091
 108   2.0000      -1.023034       -27.8382
 109   2.0000      -1.020488       -27.7689
 110   2.0000      -1.014316       -27.6009
 111   2.0000      -1.013948       -27.5909
 112   2.0000      -1.011156       -27.5150
 113   2.0000      -1.010314       -27.4920
 114   2.0000      -1.000265       -27.2186
 115   2.0000      -0.991245       -26.9731
 116   2.0000      -0.969402       -26.3788
 117   2.0000      -0.962008       -26.1776
 118   2.0000      -0.958129       -26.0720
 119   2.0000      -0.928694       -25.2710
 120   2.0000      -0.922261       -25.0960
 121   2.0000      -0.915951       -24.9243
 122   2.0000      -0.911798       -24.8113
 123   2.0000      -0.905975       -24.6528
 124   2.0000      -0.886706       -24.1285
 125   2.0000      -0.886257       -24.1163
 126   2.0000      -0.877189       -23.8695
 127   2.0000      -0.876263       -23.8443
 128   2.0000      -0.870593       -23.6900
 129   2.0000      -0.865218       -23.5438
 130   2.0000      -0.859364       -23.3845
 131   2.0000      -0.855053       -23.2672
 132   2.0000      -0.846415       -23.0321
 133   2.0000      -0.828774       -22.5521
 134   2.0000      -0.810915       -22.0661
 135   2.0000      -0.793812       -21.6007
 136   2.0000      -0.786459       -21.4006
 137   2.0000      -0.781833       -21.2747
 138   2.0000      -0.777054       -21.1447
 139   2.0000      -0.772051       -21.0086
 140   2.0000      -0.765483       -20.8299
 141   2.0000      -0.758903       -20.6508
 142   2.0000      -0.742593       -20.2070
 143   2.0000      -0.724944       -19.7267
 144   2.0000      -0.714124       -19.4323
 145   2.0000      -0.709845       -19.3159
 146   2.0000      -0.703388       -19.1402
 147   2.0000      -0.695582       -18.9277
 148   2.0000      -0.692364       -18.8402
 149   2.0000      -0.688167       -18.7260
 150   2.0000      -0.682251       -18.5650
 151   2.0000      -0.679791       -18.4981
 152   2.0000      -0.662671       -18.0322
 153   2.0000      -0.655633       -17.8407
 154   2.0000      -0.652146       -17.7458
 155   2.0000      -0.639827       -17.4106
 156   2.0000      -0.638534       -17.3754
 157   2.0000      -0.637211       -17.3394
 158   2.0000      -0.634881       -17.2760
 159   2.0000      -0.633744       -17.2451
 160   2.0000      -0.630342       -17.1525
 161   2.0000      -0.626828       -17.0569
 162   2.0000      -0.623839       -16.9755
 163   2.0000      -0.620927       -16.8963
 164   2.0000      -0.620341       -16.8803
 165   2.0000      -0.616378       -16.7725
 166   2.0000      -0.612806       -16.6753
 167   2.0000      -0.597722       -16.2648
 168   2.0000      -0.590741       -16.0749
 169   2.0000      -0.586792       -15.9674
 170   2.0000      -0.577708       -15.7202
 171   2.0000      -0.566754       -15.4222
 172   2.0000      -0.557973       -15.1832
 173   2.0000      -0.556321       -15.1383
 174   2.0000      -0.553903       -15.0725
 175   2.0000      -0.553125       -15.0513
 176   2.0000      -0.549434       -14.9509
 177   2.0000      -0.543521       -14.7900
 178   2.0000      -0.540712       -14.7135
 179   2.0000      -0.532882       -14.5005
 180   2.0000      -0.527626       -14.3574
 181   2.0000      -0.524889       -14.2829
 182   2.0000      -0.518383       -14.1059
 183   2.0000      -0.515527       -14.0282
 184   2.0000      -0.514819       -14.0089
 185   2.0000      -0.514624       -14.0036
 186   2.0000      -0.513286       -13.9672
 187   2.0000      -0.511662       -13.9230
 188   2.0000      -0.506725       -13.7887
 189   2.0000      -0.504819       -13.7368
 190   2.0000      -0.503404       -13.6983
 191   2.0000      -0.502381       -13.6705
 192   2.0000      -0.499475       -13.5914
 193   2.0000      -0.497729       -13.5439
 194   2.0000      -0.495106       -13.4725
 195   2.0000      -0.492838       -13.4108
 196   2.0000      -0.489586       -13.3223
 197   2.0000      -0.488221       -13.2852
 198   2.0000      -0.484302       -13.1785
 199   2.0000      -0.482290       -13.1238
 200   2.0000      -0.477652       -12.9976
 201   2.0000      -0.476925       -12.9778
 202   2.0000      -0.473740       -12.8911
 203   2.0000      -0.467490       -12.7210
 204   2.0000      -0.467454       -12.7201
 205   2.0000      -0.467205       -12.7133
 206   2.0000      -0.465670       -12.6715
 207   2.0000      -0.464644       -12.6436
 208   2.0000      -0.463740       -12.6190
 209   2.0000      -0.463031       -12.5997
 210   2.0000      -0.462604       -12.5881
 211   2.0000      -0.460491       -12.5306
 212   2.0000      -0.454997       -12.3811
 213   2.0000      -0.448389       -12.2013
 214   2.0000      -0.447205       -12.1691
 215   2.0000      -0.446679       -12.1548
 216   2.0000      -0.446451       -12.1486
 217   2.0000      -0.445626       -12.1261
 218   2.0000      -0.443936       -12.0801
 219   2.0000      -0.443800       -12.0764
 220   2.0000      -0.442476       -12.0404
 221   2.0000      -0.441961       -12.0264
 222   2.0000      -0.440571       -11.9885
 223   2.0000      -0.435667       -11.8551
 224   2.0000      -0.434619       -11.8266
 225   2.0000      -0.434527       -11.8241
 226   2.0000      -0.431573       -11.7437
 227   2.0000      -0.428398       -11.6573
 228   2.0000      -0.427874       -11.6430
 229   2.0000      -0.418913       -11.3992
 230   2.0000      -0.412411       -11.2223
 231   2.0000      -0.398399       -10.8410
 232   2.0000      -0.395330       -10.7575
 233   2.0000      -0.392544       -10.6817
 234   2.0000      -0.389010       -10.5855
 235   2.0000      -0.388573       -10.5736
 236   2.0000      -0.384393       -10.4599
 237   2.0000      -0.376716       -10.2510
 238   2.0000      -0.370728       -10.0880
 239   2.0000      -0.366139        -9.9631
 240   2.0000      -0.358454        -9.7540
 241   2.0000      -0.355781        -9.6813
 242   2.0000      -0.351980        -9.5779
 243   2.0000      -0.348704        -9.4887
 244   2.0000      -0.345952        -9.4138
 245   2.0000      -0.343193        -9.3387
 246   2.0000      -0.332224        -9.0403
 247   2.0000      -0.328482        -8.9385
 248   2.0000      -0.325292        -8.8516
 249   2.0000      -0.320150        -8.7117
 250   2.0000      -0.293759        -7.9936
 251   2.0000      -0.265109        -7.2140
 252   2.0000      -0.241292        -6.5659
 253   0.0000      -0.114025        -3.1028
 254   0.0000      -0.108548        -2.9537
 255   0.0000      -0.105774        -2.8783
 256   0.0000      -0.072846        -1.9822
 257   0.0000      -0.055797        -1.5183

MULLIKEN ATOMIC CHARGES
-----------------------
   0 C :   -0.076745
   1 C :    0.110457
   2 N :    0.259428
   3 O :   -0.241524
   4 O :   -0.236239
   5 C :   -0.101252
   6 C :    0.114433
   7 C :   -0.134495
   8 S :    0.172255
   9 C :   -0.057031
  10 C :   -0.068076
  11 C :    0.022719
  12 C :   -0.092768
  13 S :    0.162948
  14 C :   -0.093117
  15 C :    0.012578
  16 C :    0.301135
  17 C :   -0.293808
  18 C :   -0.187152
  19 N :    0.172220
  20 C :   -0.186241
  21 N :    0.173655
  22 C :   -0.062270
  23 C :   -0.052791
  24 S :    0.194381
  25 C :   -0.051769
  26 C :   -0.064430
  27 C :    0.014872
  28 C :   -0.096801
  29 S :    0.198781
  30 C :   -0.099125
  31 C :    0.014554
  32 C :    0.300391
  33 C :   -0.293285
  34 C :   -0.187859
  35 N :    0.175764
  36 C :   -0.186501
  37 N :    0.170388
  38 C :   -0.063859
  39 C :   -0.052379
  40 S :    0.199237
  41 C :   -0.048787
  42 C :   -0.067150
  43 C :    0.015805
  44 C :   -0.103507
  45 S :    0.201721
  46 C :   -0.075907
  47 C :    0.034955
  48 C :    0.304049
  49 C :   -0.297042
  50 C :   -0.188629
  51 N :    0.169931
  52 C :   -0.188384
  53 N :    0.171367
  54 C :   -0.082438
  55 C :   -0.064345
  56 S :    0.248463
  57 C :   -0.148195
  58 C :    0.130475
  59 N :    0.289118
  60 O :   -0.289888
  61 O :   -0.239487
  62 C :   -0.105167
  63 C :    0.163474
  64 C :   -0.113940
  65 S :    0.148197
  66 H :    0.047867
  67 H :    0.047001
  68 H :    0.034372
  69 H :    0.032791
  70 H :    0.015935
  71 H :    0.010221
  72 H :    0.010393
  73 H :    0.012095
  74 H :    0.010991
  75 H :    0.023009
  76 H :    0.038806
  77 H :    0.029741
  78 H :    0.002128
  79 H :    0.029286
Sum of atomic charges:   -0.0000000

LOEWDIN ATOMIC CHARGES
----------------------
   0 C :   -0.148708
   1 C :   -0.077018
   2 N :    0.287540
   3 O :   -0.204793
   4 O :   -0.198251
   5 C :   -0.046149
   6 C :   -0.065824
   7 C :   -0.187244
   8 S :    0.493836
   9 C :   -0.177923
  10 C :   -0.040596
  11 C :   -0.066629
  12 C :   -0.188881
  13 S :    0.502696
  14 C :   -0.178243
  15 C :   -0.069875
  16 C :    0.082943
  17 C :   -0.100113
  18 C :   -0.016197
  19 N :   -0.031075
  20 C :   -0.016411
  21 N :   -0.030693
  22 C :   -0.038614
  23 C :   -0.180070
  24 S :    0.484566
  25 C :   -0.179596
  26 C :   -0.039556
  27 C :   -0.068416
  28 C :   -0.179921
  29 S :    0.486481
  30 C :   -0.179512
  31 C :   -0.068938
  32 C :    0.082839
  33 C :   -0.100002
  34 C :   -0.016879
  35 N :   -0.029893
  36 C :   -0.015676
  37 N :   -0.032236
  38 C :   -0.037448
  39 C :   -0.179862
  40 S :    0.487500
  41 C :   -0.177571
  42 C :   -0.040392
  43 C :   -0.064768
  44 C :   -0.179346
  45 S :    0.489285
  46 C :   -0.186047
  47 C :   -0.074327
  48 C :    0.082859
  49 C :   -0.104914
  50 C :   -0.016467
  51 N :   -0.033811
  52 C :   -0.016496
  53 N :   -0.034432
  54 C :   -0.023971
  55 C :   -0.202927
  56 S :    0.546472
  57 C :   -0.140057
  58 C :   -0.090154
  59 N :    0.292987
  60 O :   -0.247743
  61 O :   -0.190374
  62 C :   -0.043139
  63 C :   -0.043586
  64 C :   -0.189767
  65 S :    0.480117
  66 H :    0.040159
  67 H :    0.038944
  68 H :    0.034747
  69 H :    0.030441
  70 H :    0.033985
  71 H :    0.035643
  72 H :    0.035141
  73 H :    0.036012
  74 H :    0.035434
  75 H :    0.031901
  76 H :    0.042397
  77 H :    0.039042
  78 H :    0.028785
  79 H :    0.028782

  Mayer bond orders larger than 0.100000
B(  0-C ,  1-C ) :   1.5312 B(  0-C ,  8-S ) :   1.2018 B(  0-C , 66-H ) :   0.9534
B(  1-C ,  2-N ) :   0.9140 B(  1-C ,  5-C ) :   1.2479 B(  2-N ,  3-O ) :   1.5535
B(  2-N ,  4-O ) :   1.5258 B(  3-O ,  4-O ) :   0.2649 B(  5-C ,  6-C ) :   1.1187
B(  5-C ,  7-C ) :   1.5284 B(  6-C , 67-H ) :   0.9165 B(  6-C , 68-H ) :   0.9290
B(  6-C , 69-H ) :   0.9303 B(  7-C ,  8-S ) :   1.1356 B(  7-C ,  9-C ) :   1.1470
B(  9-C , 10-C ) :   1.4598 B(  9-C , 13-S ) :   1.1083 B( 10-C , 11-C ) :   1.3068
B( 10-C , 70-H ) :   0.9849 B( 11-C , 12-C ) :   1.4439 B( 11-C , 16-C ) :   0.9932
B( 12-C , 13-S ) :   1.1165 B( 12-C , 14-C ) :   1.1725 B( 14-C , 15-C ) :   1.4499
B( 14-C , 24-S ) :   1.1206 B( 15-C , 16-C ) :   0.9964 B( 15-C , 22-C ) :   1.2951
B( 16-C , 17-C ) :   1.7152 B( 17-C , 18-C ) :   1.1315 B( 17-C , 20-C ) :   1.1323
B( 18-C , 19-N ) :   2.9916 B( 20-C , 21-N ) :   2.9901 B( 22-C , 23-C ) :   1.4640
B( 22-C , 71-H ) :   0.9875 B( 23-C , 24-S ) :   1.1071 B( 23-C , 25-C ) :   1.1671
B( 25-C , 26-C ) :   1.4591 B( 25-C , 29-S ) :   1.1092 B( 26-C , 27-C ) :   1.2995
B( 26-C , 72-H ) :   0.9868 B( 27-C , 28-C ) :   1.4484 B( 27-C , 32-C ) :   0.9947
B( 28-C , 29-S ) :   1.1195 B( 28-C , 30-C ) :   1.1839 B( 30-C , 31-C ) :   1.4459
B( 30-C , 40-S ) :   1.1215 B( 31-C , 32-C ) :   0.9939 B( 31-C , 38-C ) :   1.3013
B( 32-C , 33-C ) :   1.7154 B( 33-C , 34-C ) :   1.1320 B( 33-C , 36-C ) :   1.1314
B( 34-C , 35-N ) :   2.9925 B( 36-C , 37-N ) :   2.9902 B( 38-C , 39-C ) :   1.4599
B( 38-C , 73-H ) :   0.9868 B( 39-C , 40-S ) :   1.1084 B( 39-C , 41-C ) :   1.1669
B( 41-C , 42-C ) :   1.4588 B( 41-C , 45-S ) :   1.1114 B( 42-C , 43-C ) :   1.2994
B( 42-C , 74-H ) :   0.9864 B( 43-C , 44-C ) :   1.4453 B( 43-C , 48-C ) :   0.9942
B( 44-C , 45-S ) :   1.1207 B( 44-C , 46-C ) :   1.1803 B( 46-C , 47-C ) :   1.3979
B( 46-C , 56-S ) :   1.1136 B( 47-C , 48-C ) :   0.9905 B( 47-C , 54-C ) :   1.3456
B( 48-C , 49-C ) :   1.7105 B( 49-C , 50-C ) :   1.1346 B( 49-C , 52-C ) :   1.1320
B( 50-C , 51-N ) :   2.9877 B( 52-C , 53-N ) :   2.9913 B( 54-C , 55-C ) :   1.3889
B( 54-C , 75-H ) :   0.9804 B( 55-C , 56-S ) :   1.1028 B( 55-C , 57-C ) :   1.2068
B( 57-C , 58-C ) :   1.4054 B( 57-C , 65-S ) :   1.2152 B( 58-C , 59-N ) :   0.9961
B( 58-C , 62-C ) :   1.2120 B( 59-N , 60-O ) :   1.4120 B( 59-N , 61-O ) :   1.5274
B( 60-O , 61-O ) :   0.2374 B( 62-C , 63-C ) :   1.1008 B( 62-C , 64-C ) :   1.6333
B( 63-C , 76-H ) :   0.9363 B( 63-C , 77-H ) :   0.9385 B( 63-C , 78-H ) :   0.9398
B( 64-C , 65-S ) :   1.0997 B( 64-C , 79-H ) :   0.9653

-----------------------------------------------------------------------------
         ABSORPTION SPECTRUM VIA TRANSITION ELECTRIC DIPOLE MOMENTS
-----------------------------------------------------------------------------
State   Energy  Wavelength   fosc         T2         TX        TY        TZ
        (cm-1)    (nm)                  (au**2)     (au)      (au)      (au)
-----------------------------------------------------------------------------
   0   10815.2    924.6   0.344279467  10.47976   2.02650  -2.14315   1.33416
   1   11906.3    839.9   0.078340520   2.16613   0.91214  -0.97576   0.61809
   2   12579.3    795.0   0.072878061   1.90729   0.86108  -0.90274   0.59236
   3   19840.4    504.0   0.006947654   0.11528  -0.22116   0.20743  -0.15280
   4   20919.2    478.0   0.938353809  14.76716   2.59641  -2.45863   1.40747
   5   21564.1    463.7   0.193744001   2.95783   1.18823  -1.07476   0.62516
   6   22687.9    440.8   0.588082788   8.53336   2.06014  -1.81220   1.00255
   7   25185.9    397.0   0.640543695   8.37274   1.59787  -2.00666   1.33898
   8   26721.4    374.2   0.542427931   6.68279  -1.56973   1.75512  -1.06690
   9   27595.0    362.4   0.009935807   0.11854  -0.03190   0.21889  -0.26383
  10   28195.5    354.7   0.005328725   0.06222  -0.12540   0.17576  -0.12491
  11   28994.3    344.9   0.042663451   0.48442  -0.34844  -0.27782   0.53463
  12   30272.6    330.3   0.245733863   2.67233   1.48303  -0.29760  -0.61999
  13   30813.8    324.5   0.100194441   1.07047   0.58007  -0.69694   0.49826
  14   31494.4    317.5   0.025155678   0.26295  -0.39411   0.28995  -0.15349
  15   31733.0    315.1   0.384469617   3.98865  -1.72125   0.08545   1.00928
  16   32075.3    311.8   1.042158098  10.69643  -1.58203  -0.91831   2.71114
  17   32220.0    310.4   0.427779857   4.37089   1.58598  -0.02043  -1.36203
  18   32671.3    306.1   0.138544395   1.39604   0.72196   0.28284  -0.89153
  19   32696.3    305.8   0.164056379   1.65185  -0.86041  -0.17765   0.93807
  20   32822.5    304.7   0.263250471   2.64042  -0.21437   1.07060  -1.20345
  21   33005.3    303.0   0.209607293   2.09073  -0.59973   1.00928  -0.84405
  22   33996.8    294.1   0.034134213   0.33054  -0.33768  -0.15410   0.43906
  23   34240.4    292.1   0.042103052   0.40481   0.44237  -0.37965   0.25492
  24   34320.8    291.4   0.012903744   0.12378   0.03222   0.19575  -0.29055
  25   34379.7    290.9   0.261703626   2.50602   1.11543  -1.00174   0.50829
  26   34667.2    288.5   0.123334481   1.17123   0.53341  -0.70448   0.62483
  27   35188.7    284.2   0.010974599   0.10267   0.19809  -0.22436   0.11445
  28   35424.1    282.3   0.004705615   0.04373  -0.06535   0.15203  -0.12786
  29   35696.0    280.1   0.058437999   0.53895  -0.50827   0.48110  -0.22172
  30   35831.6    279.1   0.008218216   0.07551   0.22771  -0.14052   0.06253
  31   35983.3    277.9   0.011476482   0.10500  -0.09273  -0.14331   0.27543
  32   36223.5    276.1   0.003619699   0.03290   0.02168   0.08366  -0.15946
  33   36574.3    273.4   0.045669541   0.41108   0.21521  -0.43777   0.41608
  34   37167.6    269.1   0.146373152   1.29650  -0.89900   0.66145  -0.22532
  35   37377.0    267.5   0.012860004   0.11327  -0.30240   0.05528   0.13699
  36   37947.6    263.5   0.045677643   0.39627   0.46021   0.13921  -0.40632
  37   38481.7    259.9   0.009971262   0.08530  -0.28256   0.07204  -0.01652
  38   38855.2    257.4   0.003673234   0.03112   0.16125  -0.00973   0.07090
  39   39015.5    256.3   0.002157554   0.01821  -0.11682  -0.06406   0.02135
  40   39219.5    255.0   0.012943460   0.10865   0.09783  -0.22446   0.22067
  41   39332.2    254.2   0.003174179   0.02657   0.15860  -0.03531  -0.01299
  42   39823.5    251.1   0.037892777   0.31325  -0.14027  -0.25962   0.47557
  43   39883.9    250.7   0.033543475   0.27688   0.05592   0.30556  -0.42471
  44   40302.3    248.1   0.168276100   1.37457   0.56605   0.52969  -0.87954

FINAL SINGLE POINT ENERGY     -5681.299390586253

DIPOLE MOMENT
-------------
                                X             Y             Z
Electronic contribution:    -12.48302       4.55531       1.84540
Nuclear contribution   :     13.32482      -5.79339      -1.14644
                        -----------------------------------------
Total Dipole Moment    :      0.84180      -1.23808       0.69896
                        -----------------------------------------
Magnitude (a.u.)       :      1.65228
Magnitude (Debye)      :      4.19976

Rotational constants in cm-1:     0.003084     0.000197     0.000186
Rotational constants in MHz :    92.468577     5.913996     5.563101

                             ****ORCA TERMINATED NORMALLY****
TOTAL RUN TIME: 0 days 0 hours 6 minutes 32 seconds 947 msec
