                         Program Version 4.2.0 -  RELEASE  -
|  1> # ORCA input file
|  2> # SCF done       -162.776904736570          0.000484299003
|  3> ! CAM-B3LYP def2-SVP def2/J RIJCOSX Grid4 TightSCF
|  4> %maxcore 5000
|  5> %tddft
|  6>     Mode sTDDFT
|  7>     Ethresh 5.0
|  8>     maxcore 5000
|  9> end
| 10>
| 11> %pal
| 12>   nprocs 6
| 13>   end
| 14> * xyz 0 1
| 15>    C       -3.50203         0.92869         0.26732
| 16>    C       -3.72008         1.28588        -1.04239
| 17>    N       -4.15991         2.60297        -1.35401
| 18>    O       -4.49589         3.30507        -0.41928
| 19>    O       -4.17188         2.95893        -2.51449
| 20>    C       -3.47357         0.23607        -1.97536
| 21>    C       -3.70594         0.32467        -3.44257
| 22>    C       -3.05021        -0.90083        -1.32067
| 23>    S       -2.97674        -0.67211         0.41250
| 24>    C       -2.69584        -2.18023        -1.85394
| 25>    C       -2.22527        -2.51014        -3.10633
| 26>    C       -1.98388        -3.88438        -3.23160
| 27>    C       -2.27171        -4.59525        -2.05128
| 28>    S       -2.83877        -3.58667        -0.79877
| 29>    C       -1.99305        -5.96047        -2.26182
| 30>    C       -1.52402        -6.12847        -3.58362
| 31>    C       -1.51045        -4.81901        -4.23201
| 32>    C       -1.14051        -4.54218        -5.51754
| 33>    C       -1.18029        -3.23276        -6.03839
| 34>    N       -1.21703        -2.16639        -6.45929
| 35>    C       -0.70241        -5.54607        -6.40434
| 36>    N       -0.34590        -6.36140        -7.12828
| 37>    C       -1.21922        -7.44577        -3.87993
| 38>    C       -1.45049        -8.30277        -2.79499
| 39>    S       -2.05932        -7.42128        -1.39320
| 40>    C       -1.24249        -9.68763        -2.77232
| 41>    C       -1.48115       -10.52051        -1.70034
| 42>    C       -1.29374       -11.92150        -1.61603
| 43>    C       -1.62903       -12.46764        -0.40733
| 44>    C       -2.09969       -11.52332         0.52406
| 45>    S       -2.09947        -9.92489        -0.17940
| 46>    C       -2.54728       -11.62523         1.83379
| 47>    C       -2.69413       -12.70822         2.71801
| 48>    C       -3.19196       -12.35258         3.94247
| 49>    C       -3.46651       -10.97151         4.09040
| 50>    S       -3.05760       -10.14402         2.60730
| 51>    C       -3.98363       -10.34079         5.20311
| 52>    C       -4.26799        -8.97545         5.33771
| 53>    C       -4.09624        -7.92563         4.42974
| 54>    C       -4.51788        -6.71155         4.93818
| 55>    C       -5.02332        -6.79256         6.25448
| 56>    S       -4.96746        -8.39464         6.85515
| 57>    C       -5.42454        -5.50535         6.66620
| 58>    C       -5.17183        -4.60446         5.60190
| 59>    C       -4.59528        -5.32764         4.48912
| 60>    C       -4.21067        -4.82899         3.27609
| 61>    C       -4.33122        -3.46301         2.94935
| 62>    N       -4.41907        -2.35561         2.66203
| 63>    C       -3.66466        -5.62520         2.24888
| 64>    N       -3.21916        -6.24043         1.38857
| 65>    C       -5.54655        -3.30709         5.91047
| 66>    C       -6.08495        -3.19174         7.18999
| 67>    S       -6.11080        -4.74304         8.03002
| 68>    C       -6.55916        -1.96371         7.71657
| 69>    C       -7.24465        -1.60783         8.88715
| 70>    N       -7.57287        -2.50212         9.90814
| 71>    O       -7.05955        -3.62144         9.88938
| 72>    O       -8.34206        -2.15364        10.78429
| 73>    C       -7.58273        -0.21463         8.95742
| 74>    C       -8.30134         0.44934        10.07869
| 75>    C       -7.14473         0.45536         7.86473
| 76>    S       -6.34095        -0.55004         6.72381
| 77>    H       -3.62699         1.55867         1.12588
| 78>    H       -4.47187         1.06308        -3.66266
| 79>    H       -4.00754        -0.64257        -3.83758
| 80>    H       -2.79698         0.64180        -3.95364
| 81>    H       -2.02812        -1.78902        -3.87640
| 82>    H       -0.84619        -7.80013        -4.82404
| 83>    H       -0.86255       -10.13550        -3.68095
| 84>    H       -0.91738       -12.48682        -2.45053
| 85>    H       -1.54999       -13.51411        -0.17185
| 86>    H       -2.43497       -13.71384         2.43817
| 87>    H       -3.37253       -13.04657         4.74454
| 88>    H       -4.20057       -10.96660         6.05873
| 89>    H       -3.68286        -8.04313         3.44750
| 90>    H       -5.44796        -2.46825         5.24431
| 91>    H       -7.80778         0.24600        11.02686
| 92>    H       -9.31681         0.06607        10.15891
| 93>    H       -8.33426         1.52278         9.91146
| 94>    H       -7.24820         1.50093         7.65482
| 95> *
| 96>
| 97>                          ****END OF INPUT****

CARTESIAN COORDINATES (ANGSTROEM)
---------------------------------
  C     -3.502030    0.928690    0.267320
  C     -3.720080    1.285880   -1.042390
  N     -4.159910    2.602970   -1.354010
  O     -4.495890    3.305070   -0.419280
  O     -4.171880    2.958930   -2.514490
  C     -3.473570    0.236070   -1.975360
  C     -3.705940    0.324670   -3.442570
  C     -3.050210   -0.900830   -1.320670
  S     -2.976740   -0.672110    0.412500
  C     -2.695840   -2.180230   -1.853940
  C     -2.225270   -2.510140   -3.106330
  C     -1.983880   -3.884380   -3.231600
  C     -2.271710   -4.595250   -2.051280
  S     -2.838770   -3.586670   -0.798770
  C     -1.993050   -5.960470   -2.261820
  C     -1.524020   -6.128470   -3.583620
  C     -1.510450   -4.819010   -4.232010
  C     -1.140510   -4.542180   -5.517540
  C     -1.180290   -3.232760   -6.038390
  N     -1.217030   -2.166390   -6.459290
  C     -0.702410   -5.546070   -6.404340
  N     -0.345900   -6.361400   -7.128280
  C     -1.219220   -7.445770   -3.879930
  C     -1.450490   -8.302770   -2.794990
  S     -2.059320   -7.421280   -1.393200
  C     -1.242490   -9.687630   -2.772320
  C     -1.481150  -10.520510   -1.700340
  C     -1.293740  -11.921500   -1.616030
  C     -1.629030  -12.467640   -0.407330
  C     -2.099690  -11.523320    0.524060
  S     -2.099470   -9.924890   -0.179400
  C     -2.547280  -11.625230    1.833790
  C     -2.694130  -12.708220    2.718010
  C     -3.191960  -12.352580    3.942470
  C     -3.466510  -10.971510    4.090400
  S     -3.057600  -10.144020    2.607300
  C     -3.983630  -10.340790    5.203110
  C     -4.267990   -8.975450    5.337710
  C     -4.096240   -7.925630    4.429740
  C     -4.517880   -6.711550    4.938180
  C     -5.023320   -6.792560    6.254480
  S     -4.967460   -8.394640    6.855150
  C     -5.424540   -5.505350    6.666200
  C     -5.171830   -4.604460    5.601900
  C     -4.595280   -5.327640    4.489120
  C     -4.210670   -4.828990    3.276090
  C     -4.331220   -3.463010    2.949350
  N     -4.419070   -2.355610    2.662030
  C     -3.664660   -5.625200    2.248880
  N     -3.219160   -6.240430    1.388570
  C     -5.546550   -3.307090    5.910470
  C     -6.084950   -3.191740    7.189990
  S     -6.110800   -4.743040    8.030020
  C     -6.559160   -1.963710    7.716570
  C     -7.244650   -1.607830    8.887150
  N     -7.572870   -2.502120    9.908140
  O     -7.059550   -3.621440    9.889380
  O     -8.342060   -2.153640   10.784290
  C     -7.582730   -0.214630    8.957420
  C     -8.301340    0.449340   10.078690
  C     -7.144730    0.455360    7.864730
  S     -6.340950   -0.550040    6.723810
  H     -3.626990    1.558670    1.125880
  H     -4.471870    1.063080   -3.662660
  H     -4.007540   -0.642570   -3.837580
  H     -2.796980    0.641800   -3.953640
  H     -2.028120   -1.789020   -3.876400
  H     -0.846190   -7.800130   -4.824040
  H     -0.862550  -10.135500   -3.680950
  H     -0.917380  -12.486820   -2.450530
  H     -1.549990  -13.514110   -0.171850
  H     -2.434970  -13.713840    2.438170
  H     -3.372530  -13.046570    4.744540
  H     -4.200570  -10.966600    6.058730
  H     -3.682860   -8.043130    3.447500
  H     -5.447960   -2.468250    5.244310
  H     -7.807780    0.246000   11.026860
  H     -9.316810    0.066070   10.158910
  H     -8.334260    1.522780    9.911460
  H     -7.248200    1.500930    7.654820

 Total Charge           Charge          ....    0
 Multiplicity           Mult            ....    1
 Number of Electrons    NEL             ....  484
 Basis Dimension        Dim             ....  990

ORBITAL ENERGIES
----------------

  NO   OCC          E(Eh)            E(eV)
   0   2.0000     -88.988453     -2421.4989
   1   2.0000     -88.985661     -2421.4229
   2   2.0000     -88.982083     -2421.3256
   3   2.0000     -88.978860     -2421.2379
   4   2.0000     -88.978389     -2421.2250
   5   2.0000     -88.973084     -2421.0807
   6   2.0000     -88.955369     -2420.5987
   7   2.0000     -88.954664     -2420.5795
   8   2.0000     -19.244992      -523.6829
   9   2.0000     -19.244701      -523.6749
  10   2.0000     -19.234125      -523.3872
  11   2.0000     -19.230528      -523.2893
  12   2.0000     -14.653253      -398.7353
  13   2.0000     -14.641691      -398.4207
  14   2.0000     -14.439457      -392.9176
  15   2.0000     -14.436764      -392.8443
  16   2.0000     -14.424041      -392.4981
  17   2.0000     -14.423893      -392.4941
  18   2.0000     -10.366607      -282.0897
  19   2.0000     -10.356335      -281.8102
  20   2.0000     -10.356328      -281.8100
  21   2.0000     -10.349656      -281.6285
  22   2.0000     -10.345631      -281.5189
  23   2.0000     -10.341287      -281.4007
  24   2.0000     -10.338060      -281.3129
  25   2.0000     -10.334037      -281.2034
  26   2.0000     -10.328869      -281.0628
  27   2.0000     -10.327275      -281.0194
  28   2.0000     -10.326832      -281.0074
  29   2.0000     -10.326321      -280.9935
  30   2.0000     -10.324807      -280.9523
  31   2.0000     -10.324727      -280.9501
  32   2.0000     -10.324548      -280.9452
  33   2.0000     -10.322126      -280.8793
  34   2.0000     -10.321478      -280.8617
  35   2.0000     -10.320905      -280.8461
  36   2.0000     -10.320515      -280.8355
  37   2.0000     -10.318501      -280.7807
  38   2.0000     -10.318461      -280.7796
  39   2.0000     -10.315868      -280.7090
  40   2.0000     -10.315834      -280.7081
  41   2.0000     -10.314934      -280.6836
  42   2.0000     -10.313776      -280.6521
  43   2.0000     -10.307115      -280.4709
  44   2.0000     -10.305515      -280.4273
  45   2.0000     -10.304856      -280.4094
  46   2.0000     -10.303761      -280.3796
  47   2.0000     -10.301031      -280.3053
  48   2.0000     -10.300621      -280.2941
  49   2.0000     -10.298984      -280.2496
  50   2.0000     -10.298245      -280.2295
  51   2.0000     -10.297709      -280.2149
  52   2.0000     -10.297385      -280.2061
  53   2.0000     -10.297047      -280.1969
  54   2.0000     -10.295955      -280.1672
  55   2.0000     -10.295903      -280.1658
  56   2.0000     -10.295416      -280.1525
  57   2.0000     -10.294766      -280.1348
  58   2.0000     -10.294675      -280.1323
  59   2.0000     -10.293881      -280.1107
  60   2.0000     -10.270504      -279.4746
  61   2.0000     -10.262203      -279.2487
  62   2.0000      -8.080479      -219.8810
  63   2.0000      -8.080245      -219.8746
  64   2.0000      -8.076653      -219.7769
  65   2.0000      -8.074585      -219.7206
  66   2.0000      -8.072342      -219.6596
  67   2.0000      -8.068846      -219.5644
  68   2.0000      -8.051365      -219.0888
  69   2.0000      -8.051305      -219.0872
  70   2.0000      -6.050050      -164.6302
  71   2.0000      -6.049486      -164.6149
  72   2.0000      -6.045916      -164.5177
  73   2.0000      -6.045423      -164.5043
  74   2.0000      -6.045240      -164.4994
  75   2.0000      -6.044076      -164.4677
  76   2.0000      -6.042865      -164.4347
  77   2.0000      -6.042529      -164.4256
  78   2.0000      -6.041710      -164.4033
  79   2.0000      -6.041552      -164.3990
  80   2.0000      -6.039527      -164.3439
  81   2.0000      -6.038967      -164.3286
  82   2.0000      -6.037942      -164.3008
  83   2.0000      -6.037185      -164.2802
  84   2.0000      -6.036622      -164.2648
  85   2.0000      -6.034815      -164.2157
  86   2.0000      -6.033624      -164.1833
  87   2.0000      -6.031347      -164.1213
  88   2.0000      -6.021095      -163.8423
  89   2.0000      -6.021025      -163.8404
  90   2.0000      -6.016876      -163.7275
  91   2.0000      -6.016742      -163.7239
  92   2.0000      -6.012444      -163.6069
  93   2.0000      -6.012293      -163.6028
  94   2.0000      -1.323572       -36.0162
  95   2.0000      -1.314003       -35.7559
  96   2.0000      -1.139621       -31.0107
  97   2.0000      -1.131445       -30.7882
  98   2.0000      -1.044543       -28.4235
  99   2.0000      -1.036585       -28.2069
 100   2.0000      -1.028270       -27.9806
 101   2.0000      -1.016745       -27.6670
 102   2.0000      -1.015899       -27.6440
 103   2.0000      -1.015453       -27.6319
 104   2.0000      -1.009916       -27.4812
 105   2.0000      -1.007018       -27.4023
 106   2.0000      -1.001561       -27.2539
 107   2.0000      -0.992867       -27.0173
 108   2.0000      -0.987315       -26.8662
 109   2.0000      -0.979530       -26.6544
 110   2.0000      -0.959469       -26.1085
 111   2.0000      -0.951138       -25.8818
 112   2.0000      -0.921972       -25.0881
 113   2.0000      -0.914877       -24.8951
 114   2.0000      -0.912343       -24.8261
 115   2.0000      -0.900254       -24.4971
 116   2.0000      -0.892434       -24.2844
 117   2.0000      -0.883529       -24.0420
 118   2.0000      -0.877318       -23.8730
 119   2.0000      -0.872850       -23.7514
 120   2.0000      -0.863876       -23.5073
 121   2.0000      -0.857540       -23.3349
 122   2.0000      -0.855100       -23.2685
 123   2.0000      -0.854370       -23.2486
 124   2.0000      -0.845056       -22.9951
 125   2.0000      -0.829108       -22.5612
 126   2.0000      -0.826003       -22.4767
 127   2.0000      -0.813104       -22.1257
 128   2.0000      -0.800098       -21.7718
 129   2.0000      -0.783974       -21.3330
 130   2.0000      -0.775857       -21.1121
 131   2.0000      -0.768340       -20.9076
 132   2.0000      -0.762735       -20.7551
 133   2.0000      -0.757781       -20.6203
 134   2.0000      -0.751225       -20.4419
 135   2.0000      -0.739656       -20.1271
 136   2.0000      -0.717037       -19.5116
 137   2.0000      -0.708910       -19.2904
 138   2.0000      -0.700808       -19.0700
 139   2.0000      -0.695036       -18.9129
 140   2.0000      -0.688160       -18.7258
 141   2.0000      -0.683261       -18.5925
 142   2.0000      -0.676306       -18.4032
 143   2.0000      -0.671198       -18.2642
 144   2.0000      -0.659572       -17.9479
 145   2.0000      -0.656149       -17.8547
 146   2.0000      -0.643571       -17.5125
 147   2.0000      -0.640483       -17.4284
 148   2.0000      -0.636895       -17.3308
 149   2.0000      -0.634373       -17.2622
 150   2.0000      -0.633269       -17.2321
 151   2.0000      -0.626409       -17.0455
 152   2.0000      -0.624571       -16.9954
 153   2.0000      -0.620301       -16.8793
 154   2.0000      -0.619438       -16.8558
 155   2.0000      -0.616599       -16.7785
 156   2.0000      -0.607334       -16.5264
 157   2.0000      -0.604895       -16.4600
 158   2.0000      -0.600601       -16.3432
 159   2.0000      -0.597962       -16.2714
 160   2.0000      -0.594056       -16.1651
 161   2.0000      -0.583612       -15.8809
 162   2.0000      -0.571573       -15.5533
 163   2.0000      -0.565437       -15.3863
 164   2.0000      -0.558270       -15.1913
 165   2.0000      -0.553412       -15.0591
 166   2.0000      -0.547989       -14.9116
 167   2.0000      -0.545544       -14.8450
 168   2.0000      -0.544919       -14.8280
 169   2.0000      -0.539757       -14.6875
 170   2.0000      -0.530663       -14.4401
 171   2.0000      -0.526943       -14.3389
 172   2.0000      -0.521684       -14.1957
 173   2.0000      -0.517167       -14.0728
 174   2.0000      -0.516369       -14.0511
 175   2.0000      -0.513300       -13.9676
 176   2.0000      -0.511145       -13.9090
 177   2.0000      -0.509399       -13.8614
 178   2.0000      -0.507254       -13.8031
 179   2.0000      -0.503645       -13.7049
 180   2.0000      -0.500954       -13.6317
 181   2.0000      -0.497937       -13.5495
 182   2.0000      -0.497623       -13.5410
 183   2.0000      -0.494435       -13.4543
 184   2.0000      -0.493414       -13.4265
 185   2.0000      -0.491964       -13.3870
 186   2.0000      -0.489397       -13.3172
 187   2.0000      -0.484825       -13.1928
 188   2.0000      -0.482920       -13.1409
 189   2.0000      -0.481527       -13.1030
 190   2.0000      -0.476824       -12.9750
 191   2.0000      -0.474672       -12.9165
 192   2.0000      -0.472735       -12.8638
 193   2.0000      -0.471336       -12.8257
 194   2.0000      -0.468141       -12.7388
 195   2.0000      -0.466832       -12.7031
 196   2.0000      -0.463046       -12.6001
 197   2.0000      -0.460281       -12.5249
 198   2.0000      -0.457654       -12.4534
 199   2.0000      -0.456203       -12.4139
 200   2.0000      -0.455711       -12.4005
 201   2.0000      -0.450383       -12.2555
 202   2.0000      -0.449533       -12.2324
 203   2.0000      -0.448467       -12.2034
 204   2.0000      -0.445712       -12.1284
 205   2.0000      -0.444363       -12.0917
 206   2.0000      -0.441970       -12.0266
 207   2.0000      -0.438313       -11.9271
 208   2.0000      -0.434760       -11.8304
 209   2.0000      -0.434505       -11.8235
 210   2.0000      -0.433132       -11.7861
 211   2.0000      -0.432049       -11.7567
 212   2.0000      -0.429167       -11.6782
 213   2.0000      -0.424602       -11.5540
 214   2.0000      -0.423600       -11.5267
 215   2.0000      -0.418007       -11.3745
 216   2.0000      -0.416035       -11.3209
 217   2.0000      -0.411865       -11.2074
 218   2.0000      -0.399946       -10.8831
 219   2.0000      -0.392370       -10.6769
 220   2.0000      -0.387629       -10.5479
 221   2.0000      -0.386684       -10.5222
 222   2.0000      -0.385090       -10.4788
 223   2.0000      -0.377003       -10.2588
 224   2.0000      -0.374949       -10.2029
 225   2.0000      -0.371322       -10.1042
 226   2.0000      -0.362952        -9.8764
 227   2.0000      -0.359580        -9.7847
 228   2.0000      -0.354887        -9.6570
 229   2.0000      -0.351644        -9.5687
 230   2.0000      -0.346333        -9.4242
 231   2.0000      -0.343045        -9.3347
 232   2.0000      -0.340753        -9.2724
 233   2.0000      -0.331488        -9.0203
 234   2.0000      -0.329404        -8.9635
 235   2.0000      -0.326242        -8.8775
 236   2.0000      -0.324287        -8.8243
 237   2.0000      -0.312791        -8.5115
 238   2.0000      -0.303695        -8.2640
 239   2.0000      -0.276472        -7.5232
 240   2.0000      -0.252864        -6.8808
 241   2.0000      -0.212222        -5.7749
 242   0.0000      -0.112614        -3.0644
 243   0.0000      -0.101041        -2.7495
 244   0.0000      -0.083984        -2.2853
 245   0.0000      -0.065990        -1.7957
 246   0.0000      -0.039551        -1.0762

MULLIKEN ATOMIC CHARGES
-----------------------
   0 C :   -0.090398
   1 C :    0.106378
   2 N :    0.264104
   3 O :   -0.252922
   4 O :   -0.241523
   5 C :   -0.076425
   6 C :    0.132030
   7 C :   -0.158401
   8 S :    0.197003
   9 C :   -0.073013
  10 C :   -0.042109
  11 C :   -0.008252
  12 C :   -0.078515
  13 S :    0.181024
  14 C :   -0.084175
  15 C :    0.036098
  16 C :    0.301140
  17 C :   -0.302917
  18 C :   -0.186522
  19 N :    0.166709
  20 C :   -0.186257
  21 N :    0.166863
  22 C :   -0.049417
  23 C :   -0.062610
  24 S :    0.179370
  25 C :    0.019457
  26 C :   -0.036248
  27 C :    0.042032
  28 C :    0.026289
  29 C :   -0.005966
  30 S :    0.035398
  31 C :   -0.022401
  32 C :    0.032276
  33 C :    0.029816
  34 C :   -0.021815
  35 S :    0.027667
  36 C :    0.033814
  37 C :   -0.092296
  38 C :   -0.049234
  39 C :   -0.008408
  40 C :   -0.104902
  41 S :    0.185907
  42 C :   -0.075037
  43 C :    0.022786
  44 C :    0.336470
  45 C :   -0.325263
  46 C :   -0.194405
  47 N :    0.165806
  48 C :   -0.173987
  49 N :    0.155947
  50 C :   -0.084108
  51 C :   -0.063308
  52 S :    0.243734
  53 C :   -0.141644
  54 C :    0.119253
  55 N :    0.288929
  56 O :   -0.292754
  57 O :   -0.243332
  58 C :   -0.101136
  59 C :    0.166049
  60 C :   -0.116418
  61 S :    0.138409
  62 H :    0.041884
  63 H :    0.034981
  64 H :    0.020343
  65 H :    0.045130
  66 H :    0.005091
  67 H :    0.004031
  68 H :   -0.002768
  69 H :   -0.006568
  70 H :   -0.010922
  71 H :   -0.009933
  72 H :   -0.009784
  73 H :   -0.017152
  74 H :    0.030978
  75 H :    0.022758
  76 H :    0.029214
  77 H :    0.037578
  78 H :    0.001669
  79 H :    0.028829
Sum of atomic charges:   -0.0000000

LOEWDIN ATOMIC CHARGES
----------------------
   0 C :   -0.153228
   1 C :   -0.080018
   2 N :    0.287469
   3 O :   -0.214954
   4 O :   -0.200939
   5 C :   -0.037858
   6 C :   -0.049564
   7 C :   -0.201231
   8 S :    0.501786
   9 C :   -0.180334
  10 C :   -0.031428
  11 C :   -0.075562
  12 C :   -0.171100
  13 S :    0.473602
  14 C :   -0.190593
  15 C :   -0.068975
  16 C :    0.084846
  17 C :   -0.108587
  18 C :   -0.016273
  19 N :   -0.037343
  20 C :   -0.016113
  21 N :   -0.038814
  22 C :   -0.022050
  23 C :   -0.172658
  24 S :    0.503275
  25 C :   -0.054320
  26 C :   -0.164556
  27 C :   -0.021372
  28 C :   -0.042679
  29 C :   -0.167481
  30 S :    0.381957
  31 C :   -0.182776
  32 C :   -0.031376
  33 C :   -0.035411
  34 C :   -0.140536
  35 S :    0.402127
  36 C :   -0.087868
  37 C :   -0.153318
  38 C :   -0.050485
  39 C :   -0.060442
  40 C :   -0.194820
  41 S :    0.469627
  42 C :   -0.174730
  43 C :   -0.082560
  44 C :    0.091277
  45 C :   -0.115776
  46 C :   -0.013627
  47 N :   -0.051136
  48 C :   -0.006480
  49 N :   -0.057765
  50 C :   -0.022502
  51 C :   -0.206762
  52 S :    0.539476
  53 C :   -0.137755
  54 C :   -0.093312
  55 N :    0.293447
  56 O :   -0.250910
  57 O :   -0.194112
  58 C :   -0.042952
  59 C :   -0.043556
  60 C :   -0.191227
  61 S :    0.472437
  62 H :    0.037626
  63 H :    0.036749
  64 H :    0.033178
  65 H :    0.046260
  66 H :    0.040443
  67 H :    0.039715
  68 H :    0.044250
  69 H :    0.035668
  70 H :    0.033819
  71 H :    0.034438
  72 H :    0.033924
  73 H :    0.033761
  74 H :    0.020324
  75 H :    0.031012
  76 H :    0.038684
  77 H :    0.042027
  78 H :    0.028567
  79 H :    0.028452

  Mayer bond orders larger than 0.100000
B(  0-C ,  1-C ) :   1.5119 B(  0-C ,  8-S ) :   1.2229 B(  0-C , 62-H ) :   0.9568
B(  1-C ,  2-N ) :   0.9198 B(  1-C ,  5-C ) :   1.2474 B(  2-N ,  3-O ) :   1.5426
B(  2-N ,  4-O ) :   1.5240 B(  3-O ,  4-O ) :   0.2630 B(  5-C ,  6-C ) :   1.1292
B(  5-C ,  7-C ) :   1.5571 B(  6-C , 63-H ) :   0.9252 B(  6-C , 64-H ) :   0.9318
B(  6-C , 65-H ) :   0.9302 B(  7-C ,  8-S ) :   1.1333 B(  7-C ,  9-C ) :   1.0824
B(  9-C , 10-C ) :   1.4999 B(  9-C , 13-S ) :   1.0934 B( 10-C , 11-C ) :   1.2608
B( 10-C , 66-H ) :   0.9955 B( 11-C , 12-C ) :   1.4232 B( 11-C , 16-C ) :   1.0122
B( 12-C , 13-S ) :   1.1283 B( 12-C , 14-C ) :   1.2053 B( 14-C , 15-C ) :   1.3813
B( 14-C , 24-S ) :   1.1513 B( 15-C , 16-C ) :   0.9770 B( 15-C , 22-C ) :   1.3416
B( 16-C , 17-C ) :   1.7052 B( 17-C , 18-C ) :   1.1345 B( 17-C , 20-C ) :   1.1346
B( 18-C , 19-N ) :   2.9880 B( 20-C , 21-N ) :   2.9919 B( 22-C , 23-C ) :   1.3527
B( 22-C , 67-H ) :   1.0052 B( 23-C , 24-S ) :   1.0742 B( 23-C , 25-C ) :   1.2196
B( 25-C , 26-C ) :   1.5228 B( 25-C , 68-H ) :   0.9750 B( 26-C , 27-C ) :   1.1641
B( 26-C , 30-S ) :   1.0355 B( 27-C , 28-C ) :   1.5693 B( 27-C , 69-H ) :   0.9980
B( 28-C , 29-C ) :   1.2051 B( 28-C , 70-H ) :   0.9957 B( 29-C , 30-S ) :   1.0533
B( 29-C , 31-C ) :   1.4663 B( 31-C , 32-C ) :   1.2131 B( 31-C , 35-S ) :   1.0415
B( 32-C , 33-C ) :   1.5637 B( 32-C , 71-H ) :   0.9958 B( 33-C , 34-C ) :   1.1667
B( 33-C , 72-H ) :   0.9986 B( 34-C , 35-S ) :   1.0550 B( 34-C , 36-C ) :   1.5553
B( 36-C , 37-C ) :   1.2004 B( 36-C , 73-H ) :   0.9538 B( 37-C , 38-C ) :   1.3814
B( 37-C , 41-S ) :   1.0990 B( 38-C , 39-C ) :   1.3565 B( 38-C , 74-H ) :   0.9619
B( 39-C , 40-C ) :   1.4136 B( 39-C , 44-C ) :   0.9958 B( 40-C , 41-S ) :   1.1056
B( 40-C , 42-C ) :   1.2125 B( 42-C , 43-C ) :   1.3729 B( 42-C , 52-S ) :   1.1174
B( 43-C , 44-C ) :   1.0024 B( 43-C , 50-C ) :   1.3449 B( 44-C , 45-C ) :   1.6768
B( 45-C , 46-C ) :   1.1501 B( 45-C , 48-C ) :   1.1467 B( 46-C , 47-N ) :   2.9687
B( 48-C , 49-N ) :   2.9643 B( 50-C , 51-C ) :   1.3902 B( 50-C , 75-H ) :   0.9786
B( 51-C , 52-S ) :   1.0867 B( 51-C , 53-C ) :   1.2190 B( 53-C , 54-C ) :   1.4016
B( 53-C , 61-S ) :   1.2090 B( 54-C , 55-N ) :   1.0014 B( 54-C , 58-C ) :   1.2080
B( 55-N , 56-O ) :   1.4100 B( 55-N , 57-O ) :   1.5236 B( 56-O , 57-O ) :   0.2352
B( 58-C , 59-C ) :   1.1013 B( 58-C , 60-C ) :   1.6384 B( 59-C , 76-H ) :   0.9375
B( 59-C , 77-H ) :   0.9361 B( 59-C , 78-H ) :   0.9393 B( 60-C , 61-S ) :   1.0952
B( 60-C , 79-H ) :   0.9647

-----------------------------------------------------------------------------
         ABSORPTION SPECTRUM VIA TRANSITION ELECTRIC DIPOLE MOMENTS
-----------------------------------------------------------------------------
State   Energy  Wavelength   fosc         T2         TX        TY        TZ
        (cm-1)    (nm)                  (au**2)     (au)      (au)      (au)
-----------------------------------------------------------------------------
   0    6592.8   1516.8   0.138694134   6.92572   1.01570  -0.63625  -2.34292
   1    9051.5   1104.8   0.179859766   6.54170  -0.44092  -1.64848   1.90520
   2   13346.9    749.2   0.586360374  14.46304   1.41581  -0.50369  -3.49354
   3   15076.5    663.3   0.088737790   1.93769  -0.38196   1.28090   0.38872
   4   17404.4    574.6   0.052896560   1.00056  -0.30946   0.80729   0.50307
   5   19553.7    511.4   0.560905348   9.44355   0.76809  -2.94463  -0.42750
   6   21258.7    470.4   0.091124492   1.41115  -0.19914   1.15937  -0.16543
   7   22023.5    454.1   0.422943447   6.32224  -0.64632   2.37278   0.52386
   8   24725.5    404.4   0.035425834   0.47168  -0.20762   0.54397   0.36425
   9   25749.6    388.4   0.813594264  10.40193   0.70322  -3.06103  -0.73315
  10   26575.7    376.3   0.010495455   0.13001  -0.26198   0.01424   0.24734
  11   26702.4    374.5   0.174671633   2.15351  -0.01747   1.31442  -0.65232
  12   27583.7    362.5   0.279067434   3.33067  -0.25465   1.79058  -0.24424
  13   28817.0    347.0   0.020981675   0.23970   0.15494   0.11632  -0.44962
  14   29001.2    344.8   0.110225739   1.25125   0.23484   0.56220  -0.93810
  15   29714.6    336.5   0.123837778   1.37202  -0.46264   0.23706   1.04966
  16   30007.1    333.3   0.001697300   0.01862   0.00674   0.02089  -0.13468
  17   30461.4    328.3   0.389695988   4.21164  -0.67664  -0.15556   1.93122
  18   30852.8    324.1   0.343097124   3.66099   0.59479   0.35477  -1.78364
  19   31284.5    319.6   0.242860088   2.55566   0.08238   1.31000  -0.91256
  20   31469.2    317.8   0.042452898   0.44412   0.18216   0.31472  -0.55847
  21   31857.9    313.9   0.229563285   2.37225  -0.40351  -0.40844   1.42920
  22   32179.9    310.8   0.605811099   6.19766   0.84360  -1.82528  -1.46776
  23   32586.5    306.9   0.061837410   0.62473  -0.17586   0.77058  -0.00239
  24   32976.7    303.2   0.049959868   0.49876   0.20850  -0.67403  -0.03124
  25   33175.9    301.4   0.041424958   0.41107   0.02227   0.64067   0.01067
  26   33383.6    299.5   0.230370294   2.27180  -0.42858  -0.28405   1.41684
  27   33794.0    295.9   0.077847025   0.75837  -0.30787   0.27122   0.76812
  28   33932.1    294.7   0.016398084   0.15910  -0.07905   0.13373   0.36737
  29   34158.1    292.8   0.070034750   0.67499   0.27752  -0.09427  -0.76752
  30   34524.1    289.7   0.004413870   0.04209   0.00955  -0.20144   0.03770
  31   34613.1    288.9   0.011879327   0.11299  -0.07765  -0.28017   0.16871
  32   34786.9    287.5   0.008702042   0.08235   0.02027   0.04880  -0.28207
  33   35202.1    284.1   0.040668289   0.38033  -0.02728   0.60520  -0.11539
  34   35383.8    282.6   0.002638521   0.02455   0.07052  -0.12622   0.06037
  35   35515.4    281.6   0.003229030   0.02993   0.06282  -0.13994  -0.08002
  36   35715.1    280.0   0.024781592   0.22843   0.14912  -0.17953  -0.41709
  37   35857.2    278.9   0.029019786   0.26644   0.09011  -0.50529   0.05480
  38   36078.0    277.2   0.020364397   0.18583  -0.10410   0.41606  -0.04335
  39   36170.1    276.5   0.004338937   0.03949  -0.02960   0.19473  -0.02639
  40   36987.6    270.4   0.002641417   0.02351  -0.02992   0.14444  -0.04186
  41   37561.1    266.2   0.013828324   0.12120  -0.01432  -0.28348   0.20158
  42   37797.9    264.6   0.075871672   0.66083  -0.34341   0.30357   0.67137
  43   37885.8    264.0   0.122806701   1.06714   0.43996  -0.63612  -0.68479
  44   38489.1    259.8   0.018280992   0.15636  -0.00249   0.39381  -0.03561
  45   38585.4    259.2   0.000428810   0.00366  -0.02057  -0.03893   0.04147
  46   38701.6    258.4   0.010339641   0.08795   0.02788   0.03164  -0.29356
  47   38900.9    257.1   0.000650791   0.00551   0.05791  -0.00804   0.04571
  48   39067.6    256.0   0.016438063   0.13852   0.10687  -0.35474   0.03548
  49   39137.4    255.5   0.018320238   0.15410   0.06652  -0.38668  -0.01243
  50   39244.8    254.8   0.052595248   0.44120   0.28973  -0.38599  -0.45637
  51   39529.6    253.0   0.175629372   1.46269  -0.25154   1.14880   0.28225
  52   39850.6    250.9   0.066023657   0.54543   0.05104  -0.70805   0.20369

FINAL SINGLE POINT ENERGY     -5498.225528074541

DIPOLE MOMENT
-------------
                                X             Y             Z
Electronic contribution:      4.87401      -4.12665       0.87821
Nuclear contribution   :     -4.87724       0.80496       1.69067
                        -----------------------------------------
Total Dipole Moment    :     -0.00323      -3.32170       2.56888
                        -----------------------------------------
Magnitude (a.u.)       :      4.19915
Magnitude (Debye)      :     10.67338

Rotational constants in cm-1:     0.001020     0.000677     0.000408
Rotational constants in MHz :    30.575514    20.302205    12.244683

                             ****ORCA TERMINATED NORMALLY****
TOTAL RUN TIME: 0 days 0 hours 8 minutes 32 seconds 995 msec
