                         Program Version 4.2.0 -  RELEASE  -
|  1> # ORCA input file
|  2> # SCF done       -215.376135301321          0.000694302874
|  3> ! CAM-B3LYP def2-SVP def2/J RIJCOSX Grid4 TightSCF
|  4> %maxcore 5000
|  5> %tddft
|  6>     Mode sTDDFT
|  7>     Ethresh 5.0
|  8>     maxcore 5000
|  9> end
| 10>
| 11> %pal
| 12>   nprocs 6
| 13>   end
| 14> * xyz 0 1
| 15>    C       -4.68389         1.11314         0.22573
| 16>    C       -4.25749         1.26230        -1.04392
| 17>    C       -2.84429         1.12200        -1.17600
| 18>    C       -2.06975         1.19615        -2.34749
| 19>    C       -2.68864         1.38587        -3.64627
| 20>    C       -3.78982         0.75977        -4.15179
| 21>    C       -4.11606         1.20031        -5.45388
| 22>    C       -3.28462         2.16050        -5.94996
| 23>    S       -2.05215         2.53373        -4.79149
| 24>    C       -3.33218         2.84634        -7.26624
| 25>   Cl       -5.45900         0.56527        -6.32784
| 26>    C       -0.69572         1.06685        -2.19463
| 27>    C       -0.06754         0.83036        -0.94685
| 28>    C       -0.84455         0.72956         0.22338
| 29>    C       -2.22125         0.89296         0.07172
| 30>    S       -3.40511         0.80789         1.34953
| 31>    C       -0.27004         0.45732         1.52546
| 32>    C       -0.64941         0.97082         2.73209
| 33>    C        0.08920         0.44064         3.81245
| 34>    C        1.02777        -0.48296         3.45906
| 35>    S        1.01342        -0.70622         1.74151
| 36>    C        1.96650        -1.23953         4.32569
| 37>   Cl       -0.18589         0.93351         5.43970
| 38>    C        1.34094         0.74421        -1.07828
| 39>    C        1.78524         0.87496        -2.36362
| 40>    S        0.46807         1.12504        -3.48909
| 41>    C        3.12075         0.84375        -2.85592
| 42>    N        4.21027         0.63497        -2.03634
| 43>    C        5.33382         0.67411        -2.80262
| 44>    C        6.72261         0.58186        -2.77306
| 45>    C        7.15298         0.76474        -4.09265
| 46>    N        6.05530         0.95974        -4.90689
| 47>    C        4.93571         0.91327        -4.14071
| 48>    C        3.54671         1.01879        -4.17226
| 49>    C        8.49293         0.77481        -4.55623
| 50>    C        8.87863         0.93715        -5.84660
| 51>    C       10.22310         0.98261        -6.29798
| 52>    C       11.40607         0.92029        -5.57916
| 53>    C       12.52714         1.02705        -6.40145
| 54>    C       12.20596         1.16760        -7.75794
| 55>    S       10.51961         1.17025        -8.02213
| 56>    C       13.41357         1.27872        -8.49993
| 57>    C       14.49320         1.21422        -7.60973
| 58>    C       13.98184         1.04871        -6.26630
| 59>    C       14.70157         0.93524        -5.11117
| 60>    C       14.08507         0.77410        -3.85426
| 61>    N       13.58735         0.64249        -2.82895
| 62>    C       16.11079         0.97274        -5.10068
| 63>    N       17.25745         1.00140        -5.08401
| 64>    C       15.73624         1.32913        -8.26000
| 65>    C       15.58922         1.46151        -9.60896
| 66>    S       13.91959         1.46710       -10.11712
| 67>    C       16.65898         1.66385       -10.63243
| 68>    C       17.08768         3.10203       -10.69073
| 69>    N       16.29364         4.11348       -10.42509
| 70>    S       17.12416         5.50026       -10.58936
| 71>    N       18.53824         4.82500       -11.00865
| 72>    C       18.40382         3.51993       -11.02126
| 73>    C       19.49135         2.55426       -11.39732
| 74>    C       19.19848         1.26466       -10.70175
| 75>    C       17.88421         0.84224       -10.36658
| 76>    N       17.86995        -0.33825        -9.78980
| 77>    S       19.39049        -0.89090        -9.66575
| 78>    N       20.11231         0.38366       -10.36573
| 79>    C       19.32401         2.38538       -12.87503
| 80>    C       20.03462         3.01995       -13.81922
| 81>    C       19.80027         2.96449       -15.26173
| 82>    C       18.65294         2.53281       -15.86883
| 83>    C       18.45152         2.52644       -17.26623
| 84>    N       18.23325         2.49909       -18.39222
| 85>    C       17.50574         2.08266       -15.18053
| 86>    N       16.53733         1.72853       -14.67482
| 87>    C       20.95581         3.55262       -15.91470
| 88>    C       21.83314         4.06880       -14.92496
| 89>    C       21.28655         3.80238       -13.58363
| 90>    O       21.76962         4.11616       -12.52160
| 91>    C       23.00723         4.70941       -15.24286
| 92>    C       23.33412         4.84415       -16.59507
| 93>    C       22.45650         4.31707       -17.57562
| 94>    C       21.26881         3.67220       -17.25743
| 95>    S       23.06513         4.59247       -19.17682
| 96>    C       24.45549         5.39603       -18.53613
| 97>    C       24.47303         5.45857       -17.18633
| 98>    H       -5.68804         1.17264         0.59733
| 99>    H       -4.90886         1.48329        -1.86901
|100>    H       -4.32946        -0.01520        -3.63946
|101>    H       -4.19629         2.50164        -7.82870
|102>    H       -2.42996         2.63620        -7.83999
|103>    H       -3.40164         3.92543        -7.13439
|104>    H       -1.40268         1.72583         2.85645
|105>    H        1.87438        -0.89298         5.35199
|106>    H        2.99474        -1.10068         3.99402
|107>    H        1.74483        -2.30625         4.29317
|108>    H        1.99849         0.60401        -0.24083
|109>    H        4.16180         0.47016        -1.04673
|110>    H        7.36201         0.40761        -1.93124
|111>    H        6.09388         1.12476        -5.89670
|112>    H        2.90456         1.20004        -5.01069
|113>    H        9.24312         0.64579        -3.79030
|114>    H        8.13467         1.04826        -6.62437
|115>    H       11.43994         0.80908        -4.51150
|116>    H       16.68981         1.30575        -7.76499
|117>    H       16.25414         1.39037       -11.61937
|118>    H       20.47799         2.95272       -11.15372
|119>    H       18.51175         1.73050       -13.16263
|120>    H       23.65182         5.09536       -14.46854
|121>    H       20.63482         3.28310       -18.03690
|122>    H       25.18691         5.77852       -19.22132
|123>    H       25.25773         5.92029       -16.61504
|124> *
|125>
|126>                          ****END OF INPUT****

CARTESIAN COORDINATES (ANGSTROEM)
---------------------------------
  C     -4.683890    1.113140    0.225730
  C     -4.257490    1.262300   -1.043920
  C     -2.844290    1.122000   -1.176000
  C     -2.069750    1.196150   -2.347490
  C     -2.688640    1.385870   -3.646270
  C     -3.789820    0.759770   -4.151790
  C     -4.116060    1.200310   -5.453880
  C     -3.284620    2.160500   -5.949960
  S     -2.052150    2.533730   -4.791490
  C     -3.332180    2.846340   -7.266240
  Cl    -5.459000    0.565270   -6.327840
  C     -0.695720    1.066850   -2.194630
  C     -0.067540    0.830360   -0.946850
  C     -0.844550    0.729560    0.223380
  C     -2.221250    0.892960    0.071720
  S     -3.405110    0.807890    1.349530
  C     -0.270040    0.457320    1.525460
  C     -0.649410    0.970820    2.732090
  C      0.089200    0.440640    3.812450
  C      1.027770   -0.482960    3.459060
  S      1.013420   -0.706220    1.741510
  C      1.966500   -1.239530    4.325690
  Cl    -0.185890    0.933510    5.439700
  C      1.340940    0.744210   -1.078280
  C      1.785240    0.874960   -2.363620
  S      0.468070    1.125040   -3.489090
  C      3.120750    0.843750   -2.855920
  N      4.210270    0.634970   -2.036340
  C      5.333820    0.674110   -2.802620
  C      6.722610    0.581860   -2.773060
  C      7.152980    0.764740   -4.092650
  N      6.055300    0.959740   -4.906890
  C      4.935710    0.913270   -4.140710
  C      3.546710    1.018790   -4.172260
  C      8.492930    0.774810   -4.556230
  C      8.878630    0.937150   -5.846600
  C     10.223100    0.982610   -6.297980
  C     11.406070    0.920290   -5.579160
  C     12.527140    1.027050   -6.401450
  C     12.205960    1.167600   -7.757940
  S     10.519610    1.170250   -8.022130
  C     13.413570    1.278720   -8.499930
  C     14.493200    1.214220   -7.609730
  C     13.981840    1.048710   -6.266300
  C     14.701570    0.935240   -5.111170
  C     14.085070    0.774100   -3.854260
  N     13.587350    0.642490   -2.828950
  C     16.110790    0.972740   -5.100680
  N     17.257450    1.001400   -5.084010
  C     15.736240    1.329130   -8.260000
  C     15.589220    1.461510   -9.608960
  S     13.919590    1.467100  -10.117120
  C     16.658980    1.663850  -10.632430
  C     17.087680    3.102030  -10.690730
  N     16.293640    4.113480  -10.425090
  S     17.124160    5.500260  -10.589360
  N     18.538240    4.825000  -11.008650
  C     18.403820    3.519930  -11.021260
  C     19.491350    2.554260  -11.397320
  C     19.198480    1.264660  -10.701750
  C     17.884210    0.842240  -10.366580
  N     17.869950   -0.338250   -9.789800
  S     19.390490   -0.890900   -9.665750
  N     20.112310    0.383660  -10.365730
  C     19.324010    2.385380  -12.875030
  C     20.034620    3.019950  -13.819220
  C     19.800270    2.964490  -15.261730
  C     18.652940    2.532810  -15.868830
  C     18.451520    2.526440  -17.266230
  N     18.233250    2.499090  -18.392220
  C     17.505740    2.082660  -15.180530
  N     16.537330    1.728530  -14.674820
  C     20.955810    3.552620  -15.914700
  C     21.833140    4.068800  -14.924960
  C     21.286550    3.802380  -13.583630
  O     21.769620    4.116160  -12.521600
  C     23.007230    4.709410  -15.242860
  C     23.334120    4.844150  -16.595070
  C     22.456500    4.317070  -17.575620
  C     21.268810    3.672200  -17.257430
  S     23.065130    4.592470  -19.176820
  C     24.455490    5.396030  -18.536130
  C     24.473030    5.458570  -17.186330
  H     -5.688040    1.172640    0.597330
  H     -4.908860    1.483290   -1.869010
  H     -4.329460   -0.015200   -3.639460
  H     -4.196290    2.501640   -7.828700
  H     -2.429960    2.636200   -7.839990
  H     -3.401640    3.925430   -7.134390
  H     -1.402680    1.725830    2.856450
  H      1.874380   -0.892980    5.351990
  H      2.994740   -1.100680    3.994020
  H      1.744830   -2.306250    4.293170
  H      1.998490    0.604010   -0.240830
  H      4.161800    0.470160   -1.046730
  H      7.362010    0.407610   -1.931240
  H      6.093880    1.124760   -5.896700
  H      2.904560    1.200040   -5.010690
  H      9.243120    0.645790   -3.790300
  H      8.134670    1.048260   -6.624370
  H     11.439940    0.809080   -4.511500
  H     16.689810    1.305750   -7.764990
  H     16.254140    1.390370  -11.619370
  H     20.477990    2.952720  -11.153720
  H     18.511750    1.730500  -13.162630
  H     23.651820    5.095360  -14.468540
  H     20.634820    3.283100  -18.036900
  H     25.186910    5.778520  -19.221320
  H     25.257730    5.920290  -16.615040

 Total Charge           Charge          ....    0
 Multiplicity           Mult            ....    1
 Number of Electrons    NEL             ....  648
 Basis Dimension        Dim             .... 1336

ORBITAL ENERGIES
----------------

  NO   OCC          E(Eh)            E(eV)
   0   2.0000    -101.580003     -2764.1324
   1   2.0000    -101.579799     -2764.1268
   2   2.0000     -89.013509     -2422.1807
   3   2.0000     -89.013252     -2422.1737
   4   2.0000     -88.975216     -2421.1387
   5   2.0000     -88.973959     -2421.1045
   6   2.0000     -88.972963     -2421.0774
   7   2.0000     -88.954307     -2420.5698
   8   2.0000     -88.952510     -2420.5209
   9   2.0000     -88.945226     -2420.3226
  10   2.0000     -88.943744     -2420.2823
  11   2.0000     -19.228213      -523.2263
  12   2.0000     -14.455001      -393.3406
  13   2.0000     -14.452563      -393.2742
  14   2.0000     -14.442289      -392.9947
  15   2.0000     -14.441925      -392.9848
  16   2.0000     -14.441606      -392.9761
  17   2.0000     -14.441102      -392.9624
  18   2.0000     -14.430926      -392.6855
  19   2.0000     -14.426025      -392.5521
  20   2.0000     -14.418465      -392.3464
  21   2.0000     -14.418025      -392.3344
  22   2.0000     -10.378776      -282.4208
  23   2.0000     -10.355652      -281.7916
  24   2.0000     -10.353573      -281.7350
  25   2.0000     -10.349521      -281.6248
  26   2.0000     -10.338290      -281.3192
  27   2.0000     -10.335358      -281.2394
  28   2.0000     -10.333929      -281.2005
  29   2.0000     -10.333501      -281.1888
  30   2.0000     -10.332820      -281.1703
  31   2.0000     -10.332410      -281.1592
  32   2.0000     -10.330938      -281.1191
  33   2.0000     -10.330250      -281.1004
  34   2.0000     -10.328205      -281.0448
  35   2.0000     -10.322778      -280.8971
  36   2.0000     -10.320836      -280.8442
  37   2.0000     -10.319644      -280.8118
  38   2.0000     -10.319047      -280.7955
  39   2.0000     -10.317133      -280.7435
  40   2.0000     -10.315830      -280.7080
  41   2.0000     -10.314512      -280.6721
  42   2.0000     -10.314012      -280.6585
  43   2.0000     -10.313846      -280.6540
  44   2.0000     -10.313756      -280.6516
  45   2.0000     -10.312053      -280.6052
  46   2.0000     -10.311653      -280.5944
  47   2.0000     -10.311317      -280.5852
  48   2.0000     -10.308427      -280.5065
  49   2.0000     -10.308256      -280.5019
  50   2.0000     -10.306879      -280.4644
  51   2.0000     -10.306607      -280.4570
  52   2.0000     -10.304640      -280.4035
  53   2.0000     -10.302563      -280.3470
  54   2.0000     -10.301151      -280.3086
  55   2.0000     -10.301043      -280.3056
  56   2.0000     -10.300579      -280.2930
  57   2.0000     -10.299885      -280.2741
  58   2.0000     -10.298961      -280.2490
  59   2.0000     -10.298227      -280.2290
  60   2.0000     -10.297212      -280.2014
  61   2.0000     -10.297092      -280.1981
  62   2.0000     -10.291023      -280.0330
  63   2.0000     -10.290879      -280.0291
  64   2.0000     -10.290143      -280.0090
  65   2.0000     -10.289118      -279.9811
  66   2.0000     -10.287825      -279.9460
  67   2.0000     -10.287542      -279.9383
  68   2.0000     -10.283605      -279.8311
  69   2.0000     -10.282801      -279.8092
  70   2.0000     -10.282488      -279.8007
  71   2.0000     -10.282253      -279.7943
  72   2.0000     -10.281699      -279.7792
  73   2.0000     -10.280718      -279.7526
  74   2.0000     -10.279138      -279.7096
  75   2.0000     -10.274478      -279.5828
  76   2.0000     -10.274192      -279.5750
  77   2.0000     -10.273619      -279.5594
  78   2.0000     -10.273094      -279.5451
  79   2.0000     -10.268369      -279.4165
  80   2.0000     -10.267411      -279.3905
  81   2.0000     -10.262183      -279.2482
  82   2.0000     -10.261766      -279.2368
  83   2.0000      -9.534764      -259.4541
  84   2.0000      -9.534576      -259.4490
  85   2.0000      -8.106265      -220.5827
  86   2.0000      -8.106066      -220.5773
  87   2.0000      -8.071485      -219.6363
  88   2.0000      -8.068829      -219.5640
  89   2.0000      -8.067815      -219.5364
  90   2.0000      -8.049844      -219.0474
  91   2.0000      -8.048299      -219.0053
  92   2.0000      -8.040509      -218.7934
  93   2.0000      -8.039335      -218.7614
  94   2.0000      -7.304988      -198.7788
  95   2.0000      -7.304792      -198.7735
  96   2.0000      -7.294841      -198.5027
  97   2.0000      -7.294782      -198.5011
  98   2.0000      -7.294668      -198.4980
  99   2.0000      -7.294578      -198.4955
 100   2.0000      -6.077928      -165.3888
 101   2.0000      -6.077694      -165.3825
 102   2.0000      -6.070220      -165.1791
 103   2.0000      -6.070036      -165.1741
 104   2.0000      -6.067445      -165.1036
 105   2.0000      -6.067243      -165.0981
 106   2.0000      -6.041006      -164.3841
 107   2.0000      -6.037971      -164.3015
 108   2.0000      -6.036996      -164.2750
 109   2.0000      -6.036670      -164.2661
 110   2.0000      -6.033838      -164.1891
 111   2.0000      -6.033152      -164.1704
 112   2.0000      -6.032930      -164.1644
 113   2.0000      -6.031330      -164.1208
 114   2.0000      -6.030228      -164.0908
 115   2.0000      -6.019134      -163.7890
 116   2.0000      -6.017592      -163.7470
 117   2.0000      -6.015026      -163.6772
 118   2.0000      -6.013392      -163.6327
 119   2.0000      -6.011931      -163.5930
 120   2.0000      -6.010391      -163.5510
 121   2.0000      -6.010239      -163.5469
 122   2.0000      -6.009049      -163.5145
 123   2.0000      -6.006049      -163.4329
 124   2.0000      -6.004594      -163.3933
 125   2.0000      -6.001749      -163.3159
 126   2.0000      -6.000881      -163.2923
 127   2.0000      -1.143823       -31.1250
 128   2.0000      -1.128683       -30.7130
 129   2.0000      -1.123527       -30.5727
 130   2.0000      -1.085951       -29.5502
 131   2.0000      -1.050062       -28.5736
 132   2.0000      -1.031935       -28.0804
 133   2.0000      -1.028686       -27.9920
 134   2.0000      -1.018964       -27.7274
 135   2.0000      -1.009422       -27.4678
 136   2.0000      -1.006650       -27.3923
 137   2.0000      -1.005911       -27.3722
 138   2.0000      -0.997384       -27.1402
 139   2.0000      -0.997193       -27.1350
 140   2.0000      -0.996031       -27.1034
 141   2.0000      -0.992887       -27.0178
 142   2.0000      -0.988882       -26.9088
 143   2.0000      -0.981170       -26.6990
 144   2.0000      -0.977255       -26.5924
 145   2.0000      -0.968931       -26.3660
 146   2.0000      -0.965573       -26.2746
 147   2.0000      -0.944019       -25.6881
 148   2.0000      -0.939934       -25.5769
 149   2.0000      -0.939082       -25.5537
 150   2.0000      -0.935652       -25.4604
 151   2.0000      -0.913388       -24.8546
 152   2.0000      -0.905895       -24.6507
 153   2.0000      -0.905527       -24.6406
 154   2.0000      -0.893186       -24.3048
 155   2.0000      -0.891367       -24.2553
 156   2.0000      -0.890113       -24.2212
 157   2.0000      -0.880299       -23.9542
 158   2.0000      -0.867886       -23.6164
 159   2.0000      -0.866375       -23.5753
 160   2.0000      -0.860077       -23.4039
 161   2.0000      -0.855823       -23.2881
 162   2.0000      -0.853006       -23.2115
 163   2.0000      -0.845084       -22.9959
 164   2.0000      -0.841409       -22.8959
 165   2.0000      -0.837397       -22.7867
 166   2.0000      -0.832626       -22.6569
 167   2.0000      -0.830135       -22.5891
 168   2.0000      -0.822690       -22.3865
 169   2.0000      -0.807441       -21.9716
 170   2.0000      -0.805456       -21.9176
 171   2.0000      -0.801368       -21.8063
 172   2.0000      -0.791074       -21.5262
 173   2.0000      -0.787216       -21.4212
 174   2.0000      -0.776843       -21.1390
 175   2.0000      -0.774407       -21.0727
 176   2.0000      -0.766504       -20.8576
 177   2.0000      -0.762550       -20.7501
 178   2.0000      -0.759246       -20.6601
 179   2.0000      -0.741149       -20.1677
 180   2.0000      -0.736503       -20.0413
 181   2.0000      -0.717632       -19.5278
 182   2.0000      -0.707075       -19.2405
 183   2.0000      -0.700630       -19.0651
 184   2.0000      -0.698907       -19.0182
 185   2.0000      -0.693859       -18.8809
 186   2.0000      -0.690207       -18.7815
 187   2.0000      -0.688268       -18.7287
 188   2.0000      -0.686793       -18.6886
 189   2.0000      -0.684300       -18.6207
 190   2.0000      -0.675895       -18.3920
 191   2.0000      -0.672943       -18.3117
 192   2.0000      -0.672317       -18.2947
 193   2.0000      -0.665593       -18.1117
 194   2.0000      -0.657697       -17.8969
 195   2.0000      -0.651148       -17.7186
 196   2.0000      -0.648629       -17.6501
 197   2.0000      -0.645306       -17.5597
 198   2.0000      -0.636871       -17.3301
 199   2.0000      -0.634150       -17.2561
 200   2.0000      -0.630390       -17.1538
 201   2.0000      -0.629129       -17.1195
 202   2.0000      -0.624924       -17.0050
 203   2.0000      -0.623335       -16.9618
 204   2.0000      -0.617541       -16.8042
 205   2.0000      -0.612817       -16.6756
 206   2.0000      -0.604882       -16.4597
 207   2.0000      -0.604538       -16.4503
 208   2.0000      -0.603076       -16.4105
 209   2.0000      -0.600457       -16.3393
 210   2.0000      -0.592082       -16.1114
 211   2.0000      -0.587239       -15.9796
 212   2.0000      -0.581570       -15.8253
 213   2.0000      -0.576907       -15.6985
 214   2.0000      -0.573759       -15.6128
 215   2.0000      -0.570991       -15.5375
 216   2.0000      -0.560235       -15.2448
 217   2.0000      -0.558863       -15.2074
 218   2.0000      -0.555193       -15.1076
 219   2.0000      -0.551179       -14.9984
 220   2.0000      -0.548988       -14.9387
 221   2.0000      -0.543145       -14.7797
 222   2.0000      -0.540600       -14.7105
 223   2.0000      -0.537724       -14.6322
 224   2.0000      -0.536065       -14.5871
 225   2.0000      -0.535284       -14.5658
 226   2.0000      -0.532172       -14.4811
 227   2.0000      -0.530393       -14.4327
 228   2.0000      -0.526695       -14.3321
 229   2.0000      -0.523965       -14.2578
 230   2.0000      -0.520744       -14.1702
 231   2.0000      -0.518090       -14.0979
 232   2.0000      -0.517491       -14.0817
 233   2.0000      -0.516952       -14.0670
 234   2.0000      -0.515342       -14.0232
 235   2.0000      -0.513711       -13.9788
 236   2.0000      -0.512217       -13.9381
 237   2.0000      -0.511196       -13.9103
 238   2.0000      -0.505595       -13.7580
 239   2.0000      -0.504596       -13.7308
 240   2.0000      -0.503272       -13.6947
 241   2.0000      -0.500930       -13.6310
 242   2.0000      -0.499453       -13.5908
 243   2.0000      -0.498891       -13.5755
 244   2.0000      -0.496172       -13.5015
 245   2.0000      -0.490704       -13.3527
 246   2.0000      -0.490516       -13.3476
 247   2.0000      -0.490271       -13.3409
 248   2.0000      -0.482889       -13.1401
 249   2.0000      -0.482371       -13.1260
 250   2.0000      -0.479307       -13.0426
 251   2.0000      -0.478276       -13.0145
 252   2.0000      -0.475544       -12.9402
 253   2.0000      -0.474714       -12.9176
 254   2.0000      -0.473401       -12.8819
 255   2.0000      -0.471851       -12.8397
 256   2.0000      -0.465215       -12.6592
 257   2.0000      -0.462810       -12.5937
 258   2.0000      -0.462418       -12.5830
 259   2.0000      -0.461688       -12.5632
 260   2.0000      -0.461387       -12.5550
 261   2.0000      -0.457685       -12.4543
 262   2.0000      -0.457291       -12.4435
 263   2.0000      -0.456690       -12.4272
 264   2.0000      -0.454866       -12.3775
 265   2.0000      -0.453474       -12.3396
 266   2.0000      -0.451267       -12.2796
 267   2.0000      -0.450966       -12.2714
 268   2.0000      -0.450247       -12.2518
 269   2.0000      -0.448243       -12.1973
 270   2.0000      -0.446006       -12.1365
 271   2.0000      -0.445569       -12.1246
 272   2.0000      -0.442733       -12.0474
 273   2.0000      -0.440359       -11.9828
 274   2.0000      -0.438791       -11.9401
 275   2.0000      -0.438009       -11.9188
 276   2.0000      -0.434012       -11.8101
 277   2.0000      -0.433416       -11.7939
 278   2.0000      -0.433278       -11.7901
 279   2.0000      -0.429127       -11.6771
 280   2.0000      -0.427491       -11.6326
 281   2.0000      -0.425815       -11.5870
 282   2.0000      -0.423034       -11.5113
 283   2.0000      -0.422384       -11.4937
 284   2.0000      -0.417844       -11.3701
 285   2.0000      -0.417197       -11.3525
 286   2.0000      -0.413908       -11.2630
 287   2.0000      -0.411334       -11.1930
 288   2.0000      -0.409906       -11.1541
 289   2.0000      -0.408001       -11.1023
 290   2.0000      -0.407337       -11.0842
 291   2.0000      -0.406244       -11.0545
 292   2.0000      -0.395790       -10.7700
 293   2.0000      -0.393975       -10.7206
 294   2.0000      -0.393613       -10.7107
 295   2.0000      -0.385294       -10.4844
 296   2.0000      -0.385164       -10.4809
 297   2.0000      -0.383865       -10.4455
 298   2.0000      -0.382273       -10.4022
 299   2.0000      -0.376385       -10.2420
 300   2.0000      -0.374924       -10.2022
 301   2.0000      -0.370639       -10.0856
 302   2.0000      -0.369161       -10.0454
 303   2.0000      -0.367930       -10.0119
 304   2.0000      -0.355472        -9.6729
 305   2.0000      -0.353110        -9.6086
 306   2.0000      -0.345058        -9.3895
 307   2.0000      -0.337387        -9.1808
 308   2.0000      -0.333746        -9.0817
 309   2.0000      -0.330976        -9.0063
 310   2.0000      -0.329957        -8.9786
 311   2.0000      -0.323034        -8.7902
 312   2.0000      -0.318628        -8.6703
 313   2.0000      -0.311810        -8.4848
 314   2.0000      -0.309844        -8.4313
 315   2.0000      -0.307454        -8.3663
 316   2.0000      -0.303428        -8.2567
 317   2.0000      -0.296388        -8.0651
 318   2.0000      -0.294866        -8.0237
 319   2.0000      -0.288833        -7.8595
 320   2.0000      -0.285688        -7.7740
 321   2.0000      -0.262885        -7.1535
 322   2.0000      -0.243533        -6.6269
 323   2.0000      -0.212329        -5.7778
 324   0.0000      -0.093492        -2.5440
 325   0.0000      -0.088747        -2.4149
 326   0.0000      -0.062251        -1.6939
 327   0.0000      -0.044924        -1.2225
 328   0.0000      -0.032227        -0.8769

MULLIKEN ATOMIC CHARGES
-----------------------
   0 C :   -0.045468
   1 C :   -0.001773
   2 C :    0.062396
   3 C :    0.131485
   4 C :   -0.212599
   5 C :    0.033407
   6 C :    0.083614
   7 C :   -0.265461
   8 S :    0.143717
   9 C :    0.120658
  10 Cl:   -0.093712
  11 C :   -0.131905
  12 C :    0.071708
  13 C :    0.140594
  14 C :   -0.160530
  15 S :    0.102782
  16 C :   -0.210743
  17 C :    0.031108
  18 C :    0.086910
  19 C :   -0.267428
  20 S :    0.124778
  21 C :    0.121951
  22 Cl:   -0.090953
  23 C :   -0.106878
  24 C :   -0.000694
  25 S :    0.111280
  26 C :    0.089632
  27 N :   -0.033517
  28 C :    0.115163
  29 C :   -0.167760
  30 C :    0.075539
  31 N :   -0.033640
  32 C :    0.110315
  33 C :   -0.176989
  34 C :    0.042036
  35 C :    0.024380
  36 C :   -0.083575
  37 C :   -0.041309
  38 C :    0.003531
  39 C :   -0.109166
  40 S :    0.168588
  41 C :   -0.101620
  42 C :   -0.021781
  43 C :    0.303556
  44 C :   -0.303790
  45 C :   -0.184953
  46 N :    0.161655
  47 C :   -0.189733
  48 N :    0.163126
  49 C :   -0.019585
  50 C :   -0.138976
  51 S :    0.202345
  52 C :    0.411291
  53 C :   -0.141245
  54 N :   -0.265086
  55 S :    0.466555
  56 N :   -0.247366
  57 C :   -0.050634
  58 C :    0.153815
  59 C :   -0.057762
  60 C :   -0.176158
  61 N :   -0.263205
  62 S :    0.470760
  63 N :   -0.253659
  64 C :   -0.064989
  65 C :   -0.031618
  66 C :    0.309603
  67 C :   -0.337263
  68 C :   -0.184234
  69 N :    0.157666
  70 C :   -0.197270
  71 N :    0.156702
  72 C :    0.009724
  73 C :   -0.022329
  74 C :    0.159128
  75 O :   -0.127913
  76 C :   -0.057518
  77 C :    0.111369
  78 C :   -0.094266
  79 C :   -0.016194
  80 S :    0.147313
  81 C :   -0.046164
  82 C :    0.027493
  83 H :    0.025561
  84 H :   -0.010476
  85 H :   -0.010875
  86 H :    0.022951
  87 H :    0.033562
  88 H :    0.034145
  89 H :   -0.006499
  90 H :    0.024381
  91 H :    0.027756
  92 H :    0.038436
  93 H :   -0.039592
  94 H :    0.124309
  95 H :   -0.034041
  96 H :    0.122450
  97 H :   -0.028437
  98 H :   -0.010635
  99 H :   -0.049463
 100 H :    0.002934
 101 H :   -0.000727
 102 H :    0.043832
 103 H :    0.050373
 104 H :    0.031961
 105 H :   -0.006347
 106 H :   -0.004089
 107 H :    0.042606
 108 H :   -0.002342
Sum of atomic charges:   -0.0000000

LOEWDIN ATOMIC CHARGES
----------------------
   0 C :   -0.164541
   1 C :   -0.063029
   2 C :   -0.041861
   3 C :   -0.056938
   4 C :   -0.172198
   5 C :   -0.068710
   6 C :   -0.178625
   7 C :   -0.200089
   8 S :    0.435586
   9 C :   -0.061692
  10 Cl:    0.124144
  11 C :   -0.151496
  12 C :   -0.037368
  13 C :   -0.059346
  14 C :   -0.146653
  15 S :    0.412156
  16 C :   -0.168077
  17 C :   -0.077085
  18 C :   -0.176863
  19 C :   -0.201361
  20 S :    0.438445
  21 C :   -0.061486
  22 Cl:    0.126722
  23 C :   -0.089992
  24 C :   -0.147826
  25 S :    0.402194
  26 C :   -0.018587
  27 N :    0.072189
  28 C :   -0.024064
  29 C :   -0.085975
  30 C :   -0.005907
  31 N :    0.068165
  32 C :   -0.018634
  33 C :   -0.096753
  34 C :   -0.013068
  35 C :   -0.078145
  36 C :   -0.157591
  37 C :   -0.039177
  38 C :   -0.066912
  39 C :   -0.195187
  40 S :    0.462267
  41 C :   -0.176498
  42 C :   -0.079761
  43 C :    0.088292
  44 C :   -0.111254
  45 C :   -0.015016
  46 N :   -0.043482
  47 C :   -0.015223
  48 N :   -0.041726
  49 C :   -0.024592
  50 C :   -0.160534
  51 S :    0.486884
  52 C :   -0.041519
  53 C :   -0.053004
  54 N :   -0.262362
  55 S :    0.596807
  56 N :   -0.258067
  57 C :   -0.050949
  58 C :   -0.023006
  59 C :   -0.056467
  60 C :   -0.054671
  61 N :   -0.257571
  62 S :    0.599499
  63 N :   -0.261686
  64 C :    0.086858
  65 C :   -0.076620
  66 C :    0.080743
  67 C :   -0.134466
  68 C :   -0.019037
  69 N :   -0.044276
  70 C :   -0.014497
  71 N :   -0.055569
  72 C :   -0.024712
  73 C :   -0.053131
  74 C :    0.089524
  75 O :   -0.122284
  76 C :    0.027973
  77 C :   -0.031173
  78 C :   -0.143906
  79 C :   -0.005143
  80 S :    0.434934
  81 C :   -0.144697
  82 C :   -0.056394
  83 H :    0.024816
  84 H :    0.031692
  85 H :    0.033857
  86 H :    0.033355
  87 H :    0.038540
  88 H :    0.038422
  89 H :    0.025980
  90 H :    0.033958
  91 H :    0.036236
  92 H :    0.039945
  93 H :    0.007247
  94 H :    0.089530
  95 H :    0.025570
  96 H :    0.086057
  97 H :    0.021880
  98 H :    0.038302
  99 H :    0.015457
 100 H :    0.036637
 101 H :    0.036761
 102 H :    0.059504
 103 H :    0.060538
 104 H :    0.038061
 105 H :    0.042863
 106 H :    0.041573
 107 H :    0.031246
 108 H :    0.037115

  Mayer bond orders larger than 0.100000
B(  0-C ,  1-C ) :   1.6391 B(  0-C , 15-S ) :   1.1026 B(  0-C , 83-H ) :   0.9668
B(  1-C ,  2-C ) :   1.1813 B(  1-C , 84-H ) :   0.9897 B(  2-C ,  3-C ) :   1.3323
B(  2-C , 14-C ) :   1.2834 B(  3-C ,  4-C ) :   0.9722 B(  3-C , 11-C ) :   1.4053
B(  4-C ,  5-C ) :   1.5571 B(  4-C ,  8-S ) :   1.1368 B(  5-C ,  6-C ) :   1.2103
B(  5-C , 85-H ) :   1.0107 B(  6-C ,  7-C ) :   1.6038 B(  6-C , 10-Cl) :   1.0009
B(  7-C ,  8-S ) :   1.1277 B(  7-C ,  9-C ) :   1.0831 B(  9-C , 86-H ) :   0.9447
B(  9-C , 87-H ) :   0.9489 B(  9-C , 88-H ) :   0.9493 B( 11-C , 12-C ) :   1.2762
B( 11-C , 25-S ) :   1.0520 B( 12-C , 13-C ) :   1.3050 B( 12-C , 23-C ) :   1.1848
B( 13-C , 14-C ) :   1.4136 B( 13-C , 16-C ) :   0.9863 B( 14-C , 15-S ) :   1.0720
B( 16-C , 17-C ) :   1.5575 B( 16-C , 20-S ) :   1.1255 B( 17-C , 18-C ) :   1.2181
B( 17-C , 89-H ) :   0.9942 B( 18-C , 19-C ) :   1.6074 B( 18-C , 22-Cl) :   1.0043
B( 19-C , 20-S ) :   1.1234 B( 19-C , 21-C ) :   1.0817 B( 21-C , 90-H ) :   0.9442
B( 21-C , 91-H ) :   0.9487 B( 21-C , 92-H ) :   0.9497 B( 23-C , 24-C ) :   1.5561
B( 23-C , 93-H ) :   0.9743 B( 24-C , 25-S ) :   1.0776 B( 24-C , 26-C ) :   1.0915
B( 26-C , 27-N ) :   1.2224 B( 26-C , 33-C ) :   1.4124 B( 27-N , 28-C ) :   1.1582
B( 27-N , 94-H ) :   0.9328 B( 28-C , 29-C ) :   1.2425 B( 28-C , 32-C ) :   1.3266
B( 29-C , 30-C ) :   1.3588 B( 29-C , 95-H ) :   1.0407 B( 30-C , 31-N ) :   1.1934
B( 30-C , 34-C ) :   1.1667 B( 31-N , 32-C ) :   1.1694 B( 31-N , 96-H ) :   0.9325
B( 32-C , 33-C ) :   1.2590 B( 33-C , 97-H ) :   1.0219 B( 34-C , 35-C ) :   1.6384
B( 34-C , 98-H ) :   0.9594 B( 35-C , 36-C ) :   1.1365 B( 35-C , 99-H ) :   0.9531
B( 36-C , 37-C ) :   1.4617 B( 36-C , 40-S ) :   1.1072 B( 37-C , 38-C ) :   1.2961
B( 37-C ,100-H ) :   0.9901 B( 38-C , 39-C ) :   1.4606 B( 38-C , 43-C ) :   0.9925
B( 39-C , 40-S ) :   1.1108 B( 39-C , 41-C ) :   1.1751 B( 41-C , 42-C ) :   1.4612
B( 41-C , 51-S ) :   1.1366 B( 42-C , 43-C ) :   1.0143 B( 42-C , 49-C ) :   1.2506
B( 43-C , 44-C ) :   1.6993 B( 44-C , 45-C ) :   1.1343 B( 44-C , 47-C ) :   1.1347
B( 45-C , 46-N ) :   2.9879 B( 47-C , 48-N ) :   2.9932 B( 49-C , 50-C ) :   1.5671
B( 49-C ,101-H ) :   0.9976 B( 50-C , 51-S ) :   1.1150 B( 50-C , 52-C ) :   1.0229
B( 52-C , 53-C ) :   0.9540 B( 52-C , 60-C ) :   0.9566 B( 52-C ,102-H ) :   0.7973
B( 53-C , 54-N ) :   1.6949 B( 53-C , 57-C ) :   1.2049 B( 54-N , 55-S ) :   1.2036
B( 54-N , 56-N ) :   0.1225 B( 55-S , 56-N ) :   1.2144 B( 56-N , 57-C ) :   1.7055
B( 57-C , 58-C ) :   1.0028 B( 58-C , 59-C ) :   0.9560 B( 58-C , 64-C ) :   1.0248
B( 58-C ,103-H ) :   0.8730 B( 59-C , 60-C ) :   1.1952 B( 59-C , 63-N ) :   1.7058
B( 60-C , 61-N ) :   1.6881 B( 61-N , 62-S ) :   1.2106 B( 61-N , 63-N ) :   0.1194
B( 62-S , 63-N ) :   1.2128 B( 64-C , 65-C ) :   1.8159 B( 64-C ,104-H ) :   0.9243
B( 65-C , 66-C ) :   1.0202 B( 65-C , 74-C ) :   0.9158 B( 66-C , 67-C ) :   1.6617
B( 66-C , 72-C ) :   1.0174 B( 67-C , 68-C ) :   1.1312 B( 67-C , 70-C ) :   1.1501
B( 68-C , 69-N ) :   2.9813 B( 70-C , 71-N ) :   2.9871 B( 72-C , 73-C ) :   1.2661
B( 72-C , 79-C ) :   1.3998 B( 73-C , 74-C ) :   0.9464 B( 73-C , 76-C ) :   1.4200
B( 74-C , 75-O ) :   2.2278 B( 76-C , 77-C ) :   1.2517 B( 76-C ,105-H ) :   1.0161
B( 77-C , 78-C ) :   1.2922 B( 77-C , 82-C ) :   1.1749 B( 78-C , 79-C ) :   1.3334
B( 78-C , 80-S ) :   1.1006 B( 79-C ,106-H ) :   0.9834 B( 80-S , 81-C ) :   1.1285
B( 81-C , 82-C ) :   1.6270 B( 81-C ,107-H ) :   0.9679 B( 82-C ,108-H ) :   0.9992

-----------------------------------------------------------------------------
         ABSORPTION SPECTRUM VIA TRANSITION ELECTRIC DIPOLE MOMENTS
-----------------------------------------------------------------------------
State   Energy  Wavelength   fosc         T2         TX        TY        TZ
        (cm-1)    (nm)                  (au**2)     (au)      (au)      (au)
-----------------------------------------------------------------------------
   0   11092.7    901.5   0.154848992   4.59563   1.89003   0.10950  -1.00570
   1   18528.0    539.7   0.004461343   0.07927  -0.22595  -0.03034   0.16522
   2   20543.3    486.8   0.801267358  12.84050  -3.13515  -0.09402   1.73277
   3   22060.1    453.3   1.686654341  25.17061   4.45278   0.15562  -2.30633
   4   25511.4    392.0   0.000268285   0.00346   0.05148   0.00703  -0.02761
   5   26537.9    376.8   0.041502535   0.51485   0.32912  -0.12521   0.62518
   6   26777.6    373.4   0.003005720   0.03695  -0.01509  -0.03775   0.18788
   7   27287.1    366.5   0.276913911   3.34090   1.78676  -0.09970   0.37210
   8   28091.0    356.0   0.198720176   2.32890  -1.19460  -0.58221   0.75024
   9   28470.5    351.2   0.285080200   3.29646  -0.66517   0.33125  -1.65659
  10   28491.0    351.0   0.005937404   0.06861  -0.01651  -0.10659   0.23869
  11   29562.2    338.3   0.001179264   0.01313  -0.05539  -0.02484   0.09720
  12   30428.4    328.6   0.052166982   0.56441   0.69637   0.25446   0.12134
  13   30850.0    324.1   0.031308983   0.33411  -0.26278   0.09351  -0.50627
  14   30945.1    323.2   0.073780211   0.78492   0.71193   0.49318  -0.18669
  15   31387.9    318.6   0.370278524   3.88367  -0.35229   0.08642  -1.93703
  16   31697.8    315.5   0.196317955   2.03895   0.98482  -0.29102   0.99217
  17   32365.3    309.0   0.074603357   0.75885  -0.37689  -0.10138   0.77880
  18   32522.1    307.5   0.038518717   0.38991  -0.48325  -0.20166  -0.34018
  19   33295.7    300.3   0.396812948   3.92349   0.30621  -0.47251   1.89907
  20   33508.2    298.4   0.032242194   0.31677   0.55582   0.07215   0.05135
  21   33759.8    296.2   0.053384801   0.52059   0.71022  -0.10575   0.07068
  22   33883.1    295.1   0.218229095   2.12034  -0.78646  -0.56487  -1.08754
  23   34082.8    293.4   0.044093510   0.42591  -0.61063  -0.02277  -0.22918
  24   34339.9    291.2   0.680752904   6.52628   2.29651   0.88247  -0.68815
  25   34804.0    287.3   0.040309760   0.38129   0.08639  -0.11636   0.60024
  26   35728.6    279.9   0.014261824   0.13141  -0.10859   0.06311  -0.34005
  27   35740.1    279.8   0.115978293   1.06831   0.39997  -0.17718   0.93645
  28   36167.3    276.5   0.000308305   0.00281   0.02381   0.00660   0.04686
  29   36251.3    275.9   0.000226245   0.00205   0.04247   0.00134  -0.01578
  30   36417.6    274.6   0.001550113   0.01401  -0.07532  -0.04274   0.08071
  31   36707.7    272.4   0.008554798   0.07672  -0.08829   0.22671  -0.13240
  32   36787.8    271.8   0.028554647   0.25553   0.48003  -0.12651   0.09542
  33   37124.5    269.4   0.001000620   0.00887   0.01840  -0.09166  -0.01158
  34   37446.3    267.0   0.028884398   0.25394   0.02756  -0.16375   0.47578
  35   37645.6    265.6   0.017577431   0.15372  -0.36380   0.14607  -0.00523
  36   37820.5    264.4   0.011081291   0.09646   0.28038  -0.10720   0.07971
  37   38161.8    262.0   0.014805629   0.12772  -0.11205   0.02652  -0.33833
  38   38338.0    260.8   0.017852662   0.15330   0.00350   0.07239  -0.38477
  39   38389.7    260.5   0.020984974   0.17996  -0.38146   0.13749  -0.12467
  40   38512.0    259.7   0.016296580   0.13931   0.33462  -0.04771  -0.15830
  41   38635.9    258.8   0.100303079   0.85467   0.68866  -0.02228  -0.61638
  42   38983.7    256.5   0.007647945   0.06459  -0.17276  -0.03066   0.18385
  43   39068.9    256.0   0.097056719   0.81784  -0.22406   0.25300  -0.83883
  44   39565.9    252.7   0.003821236   0.03179  -0.15399  -0.05002  -0.07471
  45   39896.4    250.6   0.006824255   0.05631  -0.19239   0.00547   0.13881
  46   39929.6    250.4   0.345606797   2.84946   1.60054  -0.12686  -0.52120
  47   40127.7    249.2   0.004431197   0.03635  -0.06600  -0.09410   0.15213
  48   40306.3    248.1   0.311889769   2.54744   0.34059  -0.00252   1.55930

FINAL SINGLE POINT ENERGY     -7461.797604449248

DIPOLE MOMENT
-------------
                                X             Y             Z
Electronic contribution:     16.69227      -0.28046     -11.55877
Nuclear contribution   :    -15.39490       1.31468       9.24653
                        -----------------------------------------
Total Dipole Moment    :      1.29737       1.03422      -2.31223
                        -----------------------------------------
Magnitude (a.u.)       :      2.84591
Magnitude (Debye)      :      7.23372

Rotational constants in cm-1:     0.001231     0.000108     0.000101
Rotational constants in MHz :    36.918454     3.232525     3.028089

                             ****ORCA TERMINATED NORMALLY****
TOTAL RUN TIME: 0 days 0 hours 12 minutes 18 seconds 787 msec
