                         Program Version 4.2.0 -  RELEASE  -
|  1> # ORCA input file
|  2> # SCF done       -152.626612430221          0.000513576556
|  3> ! CAM-B3LYP def2-SVP def2/J RIJCOSX Grid4 TightSCF
|  4> %maxcore 5000
|  5> %tddft
|  6>     Mode sTDDFT
|  7>     Ethresh 5.0
|  8>     maxcore 5000
|  9> end
| 10>
| 11> %pal
| 12>   nprocs 6
| 13>   end
| 14> * xyz 0 1
| 15>    C       -5.32440        -3.60319         6.50457
| 16>    C       -4.97731        -3.32863         5.20389
| 17>    N       -5.56316        -2.19613         4.55807
| 18>    O       -6.48152        -1.65731         5.14026
| 19>    O       -5.12320        -1.82573         3.49001
| 20>    C       -4.04276        -4.25243         4.65364
| 21>    C       -3.51783        -4.20120         3.26203
| 22>    C       -3.69999        -5.22033         5.58361
| 23>    S       -4.52519        -4.96769         7.10660
| 24>    C       -2.81366        -6.32998         5.42181
| 25>    S       -2.19413        -6.75844         3.85167
| 26>    C       -1.30741        -8.10276         4.47591
| 27>    C       -1.48285        -8.20506         5.84289
| 28>    C       -2.33113        -7.21590         6.37786
| 29>    S       -2.75314        -7.07103         8.07967
| 30>    C       -1.77073        -8.19120         9.03974
| 31>    O       -1.88796        -8.10439        10.22931
| 32>    C       -0.87207        -9.25497         8.44858
| 33>    O       -0.28664       -10.00528         9.17981
| 34>    S       -0.67859        -9.50602         6.71538
| 35>    C       -0.50634        -8.93888         3.63447
| 36>    C       -0.44025        -8.80208         2.30956
| 37>    C        0.45489        -9.62259         1.42786
| 38>    C        1.76931        -8.91684         1.27354
| 39>    N        2.52144        -8.59808         2.30568
| 40>    S        3.85860        -7.84539         1.78428
| 41>    N        3.50133        -7.91056         0.20409
| 42>    C        2.34094        -8.51245         0.04112
| 43>    C        1.69893        -8.66438        -1.29560
| 44>    C        0.40478        -9.38635        -1.14957
| 45>    C       -0.15809        -9.81604         0.07865
| 46>    N       -1.32340       -10.40635        -0.08238
| 47>    S       -1.69897       -10.42406        -1.65799
| 48>    N       -0.36122        -9.67604        -2.18019
| 49>    C        1.46567        -7.24810        -1.90956
| 50>    C        0.71478        -6.40795        -0.93291
| 51>    N       -0.50951        -6.69602        -0.54515
| 52>    S       -0.98459        -5.61644         0.57471
| 53>    N        0.39011        -4.75902         0.59998
| 54>    C        1.24301        -5.27220        -0.26034
| 55>    C        2.58174        -4.66949        -0.51697
| 56>    C        3.31550        -5.48978        -1.52559
| 57>    C        2.78644        -6.62163        -2.19707
| 58>    N        3.62862        -7.12601        -3.07371
| 59>    S        4.99422        -6.25235        -3.06194
| 60>    N        4.53148        -5.19132        -1.92872
| 61>    C        2.42736        -3.25555        -1.03818
| 62>    C        1.70249        -2.98221        -2.16917
| 63>    C        1.58457        -1.67206        -2.65925
| 64>    C        2.19626        -0.62836        -2.02301
| 65>    C        2.95098        -0.86995        -0.85881
| 66>    N        3.55981         0.15636        -0.22819
| 67>    C        4.24819        -0.11967         0.84441
| 68>    C        4.35888        -1.43412         1.34551
| 69>    N        3.78111        -2.44720         0.76151
| 70>    C        3.06725        -2.19670        -0.35573
| 71>    H       -6.00454        -3.03948         7.11265
| 72>    H       -3.85597        -3.29901         2.76318
| 73>    H       -3.86270        -5.06621         2.69568
| 74>    H       -2.42869        -4.21376         3.26165
| 75>    H        0.06732        -9.70264         4.14091
| 76>    H       -1.02033        -8.03841         1.80931
| 77>    H        0.62891       -10.59456         1.90571
| 78>    H        2.36129        -9.19776        -1.98625
| 79>    H        0.88739        -7.39310        -2.82789
| 80>    H        3.16055        -4.59828         0.41168
| 81>    H        1.21258        -3.78750        -2.69964
| 82>    H        1.00426        -1.49937        -3.55319
| 83>    H        2.12384         0.38517        -2.38405
| 84>    H        4.73338         0.71137         1.33856
| 85>    H        4.92964        -1.64852         2.23924
| 86> *
| 87>
| 88>                          ****END OF INPUT****

CARTESIAN COORDINATES (ANGSTROEM)
---------------------------------
  C     -5.324400   -3.603190    6.504570
  C     -4.977310   -3.328630    5.203890
  N     -5.563160   -2.196130    4.558070
  O     -6.481520   -1.657310    5.140260
  O     -5.123200   -1.825730    3.490010
  C     -4.042760   -4.252430    4.653640
  C     -3.517830   -4.201200    3.262030
  C     -3.699990   -5.220330    5.583610
  S     -4.525190   -4.967690    7.106600
  C     -2.813660   -6.329980    5.421810
  S     -2.194130   -6.758440    3.851670
  C     -1.307410   -8.102760    4.475910
  C     -1.482850   -8.205060    5.842890
  C     -2.331130   -7.215900    6.377860
  S     -2.753140   -7.071030    8.079670
  C     -1.770730   -8.191200    9.039740
  O     -1.887960   -8.104390   10.229310
  C     -0.872070   -9.254970    8.448580
  O     -0.286640  -10.005280    9.179810
  S     -0.678590   -9.506020    6.715380
  C     -0.506340   -8.938880    3.634470
  C     -0.440250   -8.802080    2.309560
  C      0.454890   -9.622590    1.427860
  C      1.769310   -8.916840    1.273540
  N      2.521440   -8.598080    2.305680
  S      3.858600   -7.845390    1.784280
  N      3.501330   -7.910560    0.204090
  C      2.340940   -8.512450    0.041120
  C      1.698930   -8.664380   -1.295600
  C      0.404780   -9.386350   -1.149570
  C     -0.158090   -9.816040    0.078650
  N     -1.323400  -10.406350   -0.082380
  S     -1.698970  -10.424060   -1.657990
  N     -0.361220   -9.676040   -2.180190
  C      1.465670   -7.248100   -1.909560
  C      0.714780   -6.407950   -0.932910
  N     -0.509510   -6.696020   -0.545150
  S     -0.984590   -5.616440    0.574710
  N      0.390110   -4.759020    0.599980
  C      1.243010   -5.272200   -0.260340
  C      2.581740   -4.669490   -0.516970
  C      3.315500   -5.489780   -1.525590
  C      2.786440   -6.621630   -2.197070
  N      3.628620   -7.126010   -3.073710
  S      4.994220   -6.252350   -3.061940
  N      4.531480   -5.191320   -1.928720
  C      2.427360   -3.255550   -1.038180
  C      1.702490   -2.982210   -2.169170
  C      1.584570   -1.672060   -2.659250
  C      2.196260   -0.628360   -2.023010
  C      2.950980   -0.869950   -0.858810
  N      3.559810    0.156360   -0.228190
  C      4.248190   -0.119670    0.844410
  C      4.358880   -1.434120    1.345510
  N      3.781110   -2.447200    0.761510
  C      3.067250   -2.196700   -0.355730
  H     -6.004540   -3.039480    7.112650
  H     -3.855970   -3.299010    2.763180
  H     -3.862700   -5.066210    2.695680
  H     -2.428690   -4.213760    3.261650
  H      0.067320   -9.702640    4.140910
  H     -1.020330   -8.038410    1.809310
  H      0.628910  -10.594560    1.905710
  H      2.361290   -9.197760   -1.986250
  H      0.887390   -7.393100   -2.827890
  H      3.160550   -4.598280    0.411680
  H      1.212580   -3.787500   -2.699640
  H      1.004260   -1.499370   -3.553190
  H      2.123840    0.385170   -2.384050
  H      4.733380    0.711370    1.338560
  H      4.929640   -1.648520    2.239240

 Total Charge           Charge          ....    0
 Multiplicity           Mult            ....    1
 Number of Electrons    NEL             ....  450
 Basis Dimension        Dim             ....  891

ORBITAL ENERGIES
----------------

  NO   OCC          E(Eh)            E(eV)
   0   2.0000     -89.021047     -2422.3858
   1   2.0000     -89.020818     -2422.3796
   2   2.0000     -89.012531     -2422.1541
   3   2.0000     -89.005878     -2421.9731
   4   2.0000     -88.987703     -2421.4785
   5   2.0000     -88.982736     -2421.3433
   6   2.0000     -88.974585     -2421.1215
   7   2.0000     -88.972953     -2421.0771
   8   2.0000     -19.246719      -523.7298
   9   2.0000     -19.246431      -523.7220
  10   2.0000     -19.243363      -523.6385
  11   2.0000     -19.243201      -523.6341
  12   2.0000     -14.654670      -398.7738
  13   2.0000     -14.448616      -393.1668
  14   2.0000     -14.447453      -393.1352
  15   2.0000     -14.446308      -393.1040
  16   2.0000     -14.444909      -393.0659
  17   2.0000     -14.439321      -392.9139
  18   2.0000     -14.438860      -392.9014
  19   2.0000     -14.433617      -392.7587
  20   2.0000     -14.431032      -392.6883
  21   2.0000     -14.425344      -392.5336
  22   2.0000     -14.420992      -392.4151
  23   2.0000     -10.410536      -283.2851
  24   2.0000     -10.408730      -283.2359
  25   2.0000     -10.339415      -281.3498
  26   2.0000     -10.336824      -281.2793
  27   2.0000     -10.336525      -281.2711
  28   2.0000     -10.336475      -281.2698
  29   2.0000     -10.336349      -281.2664
  30   2.0000     -10.334929      -281.2277
  31   2.0000     -10.334644      -281.2200
  32   2.0000     -10.333245      -281.1819
  33   2.0000     -10.331797      -281.1425
  34   2.0000     -10.329690      -281.0852
  35   2.0000     -10.329297      -281.0745
  36   2.0000     -10.325926      -280.9827
  37   2.0000     -10.325719      -280.9771
  38   2.0000     -10.323818      -280.9254
  39   2.0000     -10.323243      -280.9097
  40   2.0000     -10.317699      -280.7589
  41   2.0000     -10.315880      -280.7094
  42   2.0000     -10.315385      -280.6959
  43   2.0000     -10.314779      -280.6794
  44   2.0000     -10.314689      -280.6770
  45   2.0000     -10.314451      -280.6705
  46   2.0000     -10.314406      -280.6693
  47   2.0000     -10.313222      -280.6370
  48   2.0000     -10.300540      -280.2920
  49   2.0000     -10.296254      -280.1753
  50   2.0000     -10.295421      -280.1526
  51   2.0000     -10.292390      -280.0702
  52   2.0000     -10.284263      -279.8490
  53   2.0000     -10.283611      -279.8313
  54   2.0000     -10.277006      -279.6515
  55   2.0000     -10.275406      -279.6080
  56   2.0000      -8.113228      -220.7722
  57   2.0000      -8.113072      -220.7679
  58   2.0000      -8.105254      -220.5552
  59   2.0000      -8.098616      -220.3746
  60   2.0000      -8.083192      -219.9548
  61   2.0000      -8.077287      -219.7942
  62   2.0000      -8.071067      -219.6249
  63   2.0000      -8.069564      -219.5840
  64   2.0000      -6.084800      -165.5758
  65   2.0000      -6.084699      -165.5731
  66   2.0000      -6.077186      -165.3686
  67   2.0000      -6.077055      -165.3651
  68   2.0000      -6.076813      -165.3585
  69   2.0000      -6.074563      -165.2973
  70   2.0000      -6.074394      -165.2927
  71   2.0000      -6.070202      -165.1786
  72   2.0000      -6.069215      -165.1517
  73   2.0000      -6.066566      -165.0797
  74   2.0000      -6.062599      -164.9717
  75   2.0000      -6.059876      -164.8976
  76   2.0000      -6.052396      -164.6941
  77   2.0000      -6.047964      -164.5735
  78   2.0000      -6.046708      -164.5393
  79   2.0000      -6.045602      -164.5092
  80   2.0000      -6.042513      -164.4251
  81   2.0000      -6.040993      -164.3838
  82   2.0000      -6.039440      -164.3415
  83   2.0000      -6.039209      -164.3352
  84   2.0000      -6.036297      -164.2560
  85   2.0000      -6.034823      -164.2159
  86   2.0000      -6.031854      -164.1351
  87   2.0000      -6.030400      -164.0955
  88   2.0000      -1.327708       -36.1288
  89   2.0000      -1.183340       -32.2003
  90   2.0000      -1.151019       -31.3208
  91   2.0000      -1.145073       -31.1590
  92   2.0000      -1.133543       -30.8453
  93   2.0000      -1.129568       -30.7371
  94   2.0000      -1.123018       -30.5589
  95   2.0000      -1.116483       -30.3810
  96   2.0000      -1.078180       -29.3388
  97   2.0000      -1.032631       -28.0993
  98   2.0000      -1.012006       -27.5381
  99   2.0000      -1.002623       -27.2828
 100   2.0000      -0.999263       -27.1913
 101   2.0000      -0.988916       -26.9098
 102   2.0000      -0.977634       -26.6028
 103   2.0000      -0.973024       -26.4773
 104   2.0000      -0.970841       -26.4179
 105   2.0000      -0.954136       -25.9634
 106   2.0000      -0.941392       -25.6166
 107   2.0000      -0.936978       -25.4965
 108   2.0000      -0.931046       -25.3350
 109   2.0000      -0.906400       -24.6644
 110   2.0000      -0.897093       -24.4111
 111   2.0000      -0.886919       -24.1343
 112   2.0000      -0.876116       -23.8403
 113   2.0000      -0.869332       -23.6557
 114   2.0000      -0.865847       -23.5609
 115   2.0000      -0.854628       -23.2556
 116   2.0000      -0.852812       -23.2062
 117   2.0000      -0.836420       -22.7601
 118   2.0000      -0.831493       -22.6261
 119   2.0000      -0.813527       -22.1372
 120   2.0000      -0.793830       -21.6012
 121   2.0000      -0.776816       -21.1382
 122   2.0000      -0.773825       -21.0568
 123   2.0000      -0.766971       -20.8703
 124   2.0000      -0.755542       -20.5593
 125   2.0000      -0.754089       -20.5198
 126   2.0000      -0.740639       -20.1538
 127   2.0000      -0.731546       -19.9064
 128   2.0000      -0.721555       -19.6345
 129   2.0000      -0.709407       -19.3039
 130   2.0000      -0.699683       -19.0394
 131   2.0000      -0.694638       -18.9021
 132   2.0000      -0.685574       -18.6554
 133   2.0000      -0.675407       -18.3787
 134   2.0000      -0.672888       -18.3102
 135   2.0000      -0.665890       -18.1198
 136   2.0000      -0.655256       -17.8304
 137   2.0000      -0.649924       -17.6853
 138   2.0000      -0.642282       -17.4774
 139   2.0000      -0.636123       -17.3098
 140   2.0000      -0.634224       -17.2581
 141   2.0000      -0.630484       -17.1564
 142   2.0000      -0.629413       -17.1272
 143   2.0000      -0.625914       -17.0320
 144   2.0000      -0.618600       -16.8330
 145   2.0000      -0.617487       -16.8027
 146   2.0000      -0.615446       -16.7471
 147   2.0000      -0.612575       -16.6690
 148   2.0000      -0.603922       -16.4335
 149   2.0000      -0.590735       -16.0747
 150   2.0000      -0.583926       -15.8894
 151   2.0000      -0.582774       -15.8581
 152   2.0000      -0.568043       -15.4572
 153   2.0000      -0.562821       -15.3151
 154   2.0000      -0.558263       -15.1911
 155   2.0000      -0.556280       -15.1372
 156   2.0000      -0.551353       -15.0031
 157   2.0000      -0.549284       -14.9468
 158   2.0000      -0.545683       -14.8488
 159   2.0000      -0.540638       -14.7115
 160   2.0000      -0.538690       -14.6585
 161   2.0000      -0.536794       -14.6069
 162   2.0000      -0.535205       -14.5637
 163   2.0000      -0.534036       -14.5319
 164   2.0000      -0.530475       -14.4350
 165   2.0000      -0.525308       -14.2944
 166   2.0000      -0.524418       -14.2701
 167   2.0000      -0.521006       -14.1773
 168   2.0000      -0.514038       -13.9877
 169   2.0000      -0.512829       -13.9548
 170   2.0000      -0.510393       -13.8885
 171   2.0000      -0.506982       -13.7957
 172   2.0000      -0.502879       -13.6840
 173   2.0000      -0.499549       -13.5934
 174   2.0000      -0.494983       -13.4692
 175   2.0000      -0.491871       -13.3845
 176   2.0000      -0.487740       -13.2721
 177   2.0000      -0.485563       -13.2128
 178   2.0000      -0.485360       -13.2073
 179   2.0000      -0.482434       -13.1277
 180   2.0000      -0.477696       -12.9988
 181   2.0000      -0.476323       -12.9614
 182   2.0000      -0.471848       -12.8396
 183   2.0000      -0.461517       -12.5585
 184   2.0000      -0.456278       -12.4160
 185   2.0000      -0.452960       -12.3257
 186   2.0000      -0.451943       -12.2980
 187   2.0000      -0.446185       -12.1413
 188   2.0000      -0.443930       -12.0800
 189   2.0000      -0.435081       -11.8392
 190   2.0000      -0.428134       -11.6501
 191   2.0000      -0.423337       -11.5196
 192   2.0000      -0.421941       -11.4816
 193   2.0000      -0.421354       -11.4656
 194   2.0000      -0.414863       -11.2890
 195   2.0000      -0.411970       -11.2103
 196   2.0000      -0.405246       -11.0273
 197   2.0000      -0.401173       -10.9165
 198   2.0000      -0.398261       -10.8372
 199   2.0000      -0.396033       -10.7766
 200   2.0000      -0.395005       -10.7486
 201   2.0000      -0.394649       -10.7389
 202   2.0000      -0.387861       -10.5542
 203   2.0000      -0.385309       -10.4848
 204   2.0000      -0.384427       -10.4608
 205   2.0000      -0.379218       -10.3191
 206   2.0000      -0.377631       -10.2759
 207   2.0000      -0.374576       -10.1927
 208   2.0000      -0.370734       -10.0882
 209   2.0000      -0.369661       -10.0590
 210   2.0000      -0.368687       -10.0325
 211   2.0000      -0.365950        -9.9580
 212   2.0000      -0.362337        -9.8597
 213   2.0000      -0.350916        -9.5489
 214   2.0000      -0.347751        -9.4628
 215   2.0000      -0.346770        -9.4361
 216   2.0000      -0.341884        -9.3031
 217   2.0000      -0.340449        -9.2641
 218   2.0000      -0.335293        -9.1238
 219   2.0000      -0.327734        -8.9181
 220   2.0000      -0.326315        -8.8795
 221   2.0000      -0.314119        -8.5476
 222   2.0000      -0.306633        -8.3439
 223   2.0000      -0.304886        -8.2964
 224   2.0000      -0.269186        -7.3249
 225   0.0000      -0.066991        -1.8229
 226   0.0000      -0.049951        -1.3592
 227   0.0000      -0.049006        -1.3335
 228   0.0000      -0.044970        -1.2237
 229   0.0000      -0.040781        -1.1097

MULLIKEN ATOMIC CHARGES
-----------------------
   0 C :   -0.070006
   1 C :    0.112000
   2 N :    0.261810
   3 O :   -0.241831
   4 O :   -0.234310
   5 C :   -0.112432
   6 C :    0.116917
   7 C :   -0.150706
   8 S :    0.167920
   9 C :   -0.088488
  10 S :    0.101275
  11 C :   -0.084888
  12 C :   -0.028362
  13 C :   -0.034797
  14 S :    0.056530
  15 C :    0.092831
  16 O :   -0.123892
  17 C :    0.077529
  18 O :   -0.128142
  19 S :    0.085862
  20 C :    0.042273
  21 C :   -0.015475
  22 C :    0.256177
  23 C :   -0.105706
  24 N :   -0.265448
  25 S :    0.480747
  26 N :   -0.274642
  27 C :   -0.115251
  28 C :    0.196858
  29 C :   -0.036653
  30 C :   -0.117068
  31 N :   -0.275270
  32 S :    0.466876
  33 N :   -0.282616
  34 C :    0.205726
  35 C :   -0.120497
  36 N :   -0.273879
  37 S :    0.449049
  38 N :   -0.255440
  39 C :   -0.123172
  40 C :    0.326879
  41 C :   -0.094553
  42 C :   -0.057323
  43 N :   -0.284391
  44 S :    0.459479
  45 N :   -0.274676
  46 C :    0.029242
  47 C :   -0.040456
  48 C :    0.048478
  49 C :   -0.000073
  50 C :   -0.011772
  51 N :   -0.010686
  52 C :    0.019618
  53 C :    0.027483
  54 N :   -0.022767
  55 C :   -0.027041
  56 H :    0.048480
  57 H :    0.047943
  58 H :    0.035314
  59 H :    0.033830
  60 H :    0.008212
  61 H :    0.002117
  62 H :    0.038442
  63 H :    0.049995
  64 H :    0.044691
  65 H :    0.024421
  66 H :   -0.024947
  67 H :   -0.006401
  68 H :   -0.023601
  69 H :    0.012361
  70 H :    0.010293
Sum of atomic charges:    0.0000000

LOEWDIN ATOMIC CHARGES
----------------------
   0 C :   -0.153953
   1 C :   -0.077775
   2 N :    0.288344
   3 O :   -0.204110
   4 O :   -0.196366
   5 C :   -0.042050
   6 C :   -0.071711
   7 C :   -0.195674
   8 S :    0.491146
   9 C :   -0.195544
  10 S :    0.492364
  11 C :   -0.186414
  12 C :   -0.217753
  13 C :   -0.225535
  14 S :    0.370712
  15 C :   -0.108164
  16 O :   -0.096852
  17 C :   -0.115034
  18 O :   -0.102667
  19 S :    0.390829
  20 C :   -0.042481
  21 C :    0.001042
  22 C :   -0.024834
  23 C :   -0.051503
  24 N :   -0.264580
  25 S :    0.602547
  26 N :   -0.267200
  27 C :   -0.055874
  28 C :   -0.009602
  29 C :   -0.052798
  30 C :   -0.053480
  31 N :   -0.267516
  32 S :    0.597584
  33 N :   -0.270054
  34 C :   -0.009340
  35 C :   -0.056794
  36 N :   -0.273768
  37 S :    0.594823
  38 N :   -0.259876
  39 C :   -0.045706
  40 C :   -0.022058
  41 C :   -0.045495
  42 C :   -0.059080
  43 N :   -0.273622
  44 S :    0.591066
  45 N :   -0.267265
  46 C :    0.002086
  47 C :   -0.014173
  48 C :   -0.010599
  49 C :   -0.011847
  50 C :   -0.009052
  51 N :   -0.036173
  52 C :    0.001861
  53 C :    0.004756
  54 N :   -0.035635
  55 C :   -0.005823
  56 H :    0.040150
  57 H :    0.037754
  58 H :    0.030090
  59 H :    0.029489
  60 H :    0.031798
  61 H :    0.006276
  62 H :    0.060938
  63 H :    0.059181
  64 H :    0.057433
  65 H :    0.055292
  66 H :    0.027216
  67 H :    0.032942
  68 H :    0.035867
  69 H :    0.026210
  70 H :    0.026040

  Mayer bond orders larger than 0.100000
B(  0-C ,  1-C ) :   1.5209 B(  0-C ,  8-S ) :   1.2069 B(  0-C , 56-H ) :   0.9523
B(  1-C ,  2-N ) :   0.9137 B(  1-C ,  5-C ) :   1.2674 B(  2-N ,  3-O ) :   1.5564
B(  2-N ,  4-O ) :   1.5281 B(  3-O ,  4-O ) :   0.2649 B(  5-C ,  6-C ) :   1.1223
B(  5-C ,  7-C ) :   1.5160 B(  6-C , 57-H ) :   0.9129 B(  6-C , 58-H ) :   0.9259
B(  6-C , 59-H ) :   0.9249 B(  7-C ,  8-S ) :   1.1263 B(  7-C ,  9-C ) :   1.1377
B(  9-C , 10-S ) :   1.1324 B(  9-C , 11-C ) :   0.1086 B(  9-C , 13-C ) :   1.5654
B( 10-S , 11-C ) :   1.1089 B( 11-C , 12-C ) :   1.5803 B( 11-C , 20-C ) :   1.1044
B( 12-C , 13-C ) :   1.2847 B( 12-C , 19-S ) :   0.9658 B( 13-C , 14-S ) :   0.9550
B( 14-S , 15-C ) :   1.0495 B( 14-S , 16-O ) :   0.1347 B( 15-C , 16-O ) :   2.1715
B( 15-C , 17-C ) :   0.7692 B( 17-C , 18-O ) :   2.1559 B( 17-C , 19-S ) :   1.0596
B( 18-O , 19-S ) :   0.1417 B( 20-C , 21-C ) :   1.8055 B( 20-C , 60-H ) :   0.9635
B( 21-C , 22-C ) :   1.0333 B( 21-C , 61-H ) :   0.9599 B( 22-C , 23-C ) :   0.9869
B( 22-C , 30-C ) :   0.9641 B( 22-C , 62-H ) :   0.8447 B( 23-C , 24-N ) :   1.6758
B( 23-C , 27-C ) :   1.2502 B( 24-N , 25-S ) :   1.2173 B( 24-N , 26-N ) :   0.1252
B( 25-S , 26-N ) :   1.2066 B( 26-N , 27-C ) :   1.6745 B( 27-C , 28-C ) :   0.9455
B( 28-C , 29-C ) :   1.0261 B( 28-C , 34-C ) :   1.0862 B( 28-C , 63-H ) :   0.8439
B( 29-C , 30-C ) :   1.2438 B( 29-C , 33-N ) :   1.6642 B( 30-C , 31-N ) :   1.6694
B( 31-N , 32-S ) :   1.2176 B( 31-N , 33-N ) :   0.1254 B( 32-S , 33-N ) :   1.2146
B( 34-C , 35-C ) :   0.9384 B( 34-C , 42-C ) :   1.0181 B( 34-C , 64-H ) :   0.8520
B( 35-C , 36-N ) :   1.6864 B( 35-C , 39-C ) :   1.2164 B( 36-N , 37-S ) :   1.1892
B( 36-N , 38-N ) :   0.1248 B( 37-S , 38-N ) :   1.2145 B( 38-N , 39-C ) :   1.6803
B( 39-C , 40-C ) :   0.9664 B( 40-C , 41-C ) :   0.9758 B( 40-C , 46-C ) :   1.0416
B( 40-C , 65-H ) :   0.8245 B( 41-C , 42-C ) :   1.2265 B( 41-C , 45-N ) :   1.6752
B( 42-C , 43-N ) :   1.6756 B( 43-N , 44-S ) :   1.2093 B( 43-N , 45-N ) :   0.1254
B( 44-S , 45-N ) :   1.2135 B( 46-C , 47-C ) :   1.4991 B( 46-C , 49-C ) :   0.1031
B( 46-C , 55-C ) :   1.2625 B( 47-C , 48-C ) :   1.2430 B( 47-C , 66-H ) :   0.9943
B( 48-C , 49-C ) :   1.4430 B( 48-C , 67-H ) :   0.9901 B( 49-C , 50-C ) :   1.2614
B( 49-C , 68-H ) :   1.0114 B( 50-C , 51-N ) :   1.4232 B( 50-C , 55-C ) :   1.2425
B( 51-N , 52-C ) :   1.6803 B( 52-C , 53-C ) :   1.2219 B( 52-C , 69-H ) :   0.9742
B( 53-C , 54-N ) :   1.6626 B( 53-C , 70-H ) :   0.9741 B( 54-N , 55-C ) :   1.4411

-----------------------------------------------------------------------------
         ABSORPTION SPECTRUM VIA TRANSITION ELECTRIC DIPOLE MOMENTS
-----------------------------------------------------------------------------
State   Energy  Wavelength   fosc         T2         TX        TY        TZ
        (cm-1)    (nm)                  (au**2)     (au)      (au)      (au)
-----------------------------------------------------------------------------
   0   26056.1    383.8   0.105064403   1.32746   0.72419  -0.82407  -0.35203
   1   29560.5    338.3   0.012209363   0.13597   0.04045  -0.15534   0.33197
   2   30238.2    330.7   0.062428925   0.67968  -0.57381   0.47141   0.35805
   3   31286.9    319.6   0.006494082   0.06833  -0.21638   0.01873   0.14547
   4   31762.3    314.8   0.614156822   6.36564   1.62382  -1.81051  -0.67150
   5   32447.6    308.2   0.042942069   0.43569  -0.33782   0.56170   0.07789
   6   32841.0    304.5   0.348035832   3.48886   0.18126  -0.55370   1.77466
   7   35549.7    281.3   0.053024666   0.49104   0.36279  -0.59817  -0.04015
   8   37805.1    264.5   0.035998459   0.31348   0.45330   0.06114  -0.32289
   9   38031.9    262.9   0.016451461   0.14241   0.06551   0.03573   0.36992
  10   38988.8    256.5   0.002629384   0.02220  -0.01765   0.13202  -0.06678
  11   40088.1    249.5   0.158457625   1.30129   0.11057  -1.03168   0.47402

FINAL SINGLE POINT ENERGY     -5351.451654992890

DIPOLE MOMENT
-------------
                                X             Y             Z
Electronic contribution:     -3.79130     -20.94241      15.42160
Nuclear contribution   :      4.45436      20.67696     -16.87393
                        -----------------------------------------
Total Dipole Moment    :      0.66306      -0.26545      -1.45233
                        -----------------------------------------
Magnitude (a.u.)       :      1.61845
Magnitude (Debye)      :      4.11378

Rotational constants in cm-1:     0.001602     0.000832     0.000693
Rotational constants in MHz :    48.026320    24.956562    20.784602

                             ****ORCA TERMINATED NORMALLY****
TOTAL RUN TIME: 0 days 0 hours 9 minutes 13 seconds 580 msec
