                         Program Version 4.2.0 -  RELEASE  -
|  1> # ORCA input file
|  2> # SCF done       -174.385653501709          0.000182564927
|  3> ! CAM-B3LYP def2-SVP def2/J RIJCOSX Grid4 TightSCF
|  4> %maxcore 5000
|  5> %tddft
|  6>     Mode sTDDFT
|  7>     Ethresh 5.0
|  8>     maxcore 5000
|  9> end
| 10>
| 11> %pal
| 12>   nprocs 6
| 13>   end
| 14> * xyz 0 1
| 15>    C       -6.31819         4.75890        -5.28506
| 16>    C       -6.00819         5.11767        -3.97587
| 17>    O       -6.56534         6.28977        -3.54064
| 18>    C       -5.79313         7.19770        -2.77804
| 19>    C       -5.19123         4.27623        -3.19597
| 20>    C       -4.66204         3.13083        -3.80083
| 21>    C       -4.95822         2.79756        -5.10499
| 22>    C       -5.80754         3.60587        -5.84604
| 23>    C       -4.95700         4.54228        -1.79131
| 24>    C       -3.89868         4.11699        -1.07454
| 25>    C       -3.73838         4.43972         0.30447
| 26>    O       -4.63823         5.22778         0.92145
| 27>    C       -4.23178         5.42141         2.20364
| 28>    C       -3.05443         4.74511         2.42093
| 29>    C       -2.72288         4.10195         1.20078
| 30>    C       -1.56433         3.25894         0.91506
| 31>    O       -1.36552         2.76215        -0.17495
| 32>    C       -0.62054         3.04434         2.07475
| 33>    C       -5.04720         6.28140         2.99678
| 34>    S       -6.42246         7.01341         2.22664
| 35>    C       -6.81930         7.89721         3.67271
| 36>    C       -5.91522         7.62157         4.68274
| 37>    C       -4.92624         6.69324         4.30940
| 38>    C       -3.86028         6.21264         5.24591
| 39>    C       -4.18058         6.56145         6.70347
| 40>    C       -5.16138         5.54590         7.27967
| 41>    F       -6.24305         5.31590         6.52770
| 42>    F       -4.56504         4.34854         7.44154
| 43>    F       -5.61071         5.90507         8.49349
| 44>    C       -4.69350         7.99778         6.82607
| 45>    C       -5.99657         8.20738         6.05833
| 46>    C       -7.93749         8.77256         3.71669
| 47>    C       -8.89684         8.82464         2.76603
| 48>    C       -9.99843         9.71910         2.77179
| 49>    S      -10.06922        11.06107         3.87581
| 50>    C      -11.60629        11.59181         3.23718
| 51>    C      -12.03001        10.73296         2.23203
| 52>    C      -11.11948         9.69647         1.96274
| 53>    C      -11.37582         8.64599         0.93007
| 54>    C      -12.44497         9.10410        -0.05606
| 55>    C      -13.67749         9.59439         0.71246
| 56>    O      -14.16174         8.64578         1.64377
| 57>    C      -14.83867         7.55533         1.07809
| 58>    C      -13.32555        10.86162         1.49684
| 59>    C      -12.21200        12.79114         3.71352
| 60>    S      -13.54157        13.51097         2.84390
| 61>    C      -13.60907        14.86247         3.92893
| 62>    C      -12.64611        14.75105         4.90848
| 63>    C      -11.86658        13.58266         4.79906
| 64>    C      -10.77675        13.25253         5.77241
| 65>    C      -10.83418        14.11928         7.03415
| 66>    C      -11.86834        13.56477         8.00743
| 67>    F      -13.06175        13.29107         7.46876
| 68>    F      -11.43856        12.41323         8.55637
| 69>    F      -12.10061        14.40143         9.03471
| 70>    C      -11.09744        15.58335         6.68152
| 71>    C      -12.44998        15.76104         5.99809
| 72>    C      -14.58112        15.90530         3.76193
| 73>    C      -15.49493        15.94396         2.79461
| 74>    H       -6.96583         5.41319        -5.84809
| 75>    H       -5.86650         8.17306        -3.26745
| 76>    H       -4.74415         6.90154        -2.72811
| 77>    H       -6.19482         7.28499        -1.76488
| 78>    H       -4.03834         2.47790        -3.21028
| 79>    H       -4.54234         1.90205        -5.54096
| 80>    H       -6.05980         3.34530        -6.86284
| 81>    H       -5.71650         5.11726        -1.27966
| 82>    H       -3.09464         3.54149        -1.50556
| 83>    H       -2.48884         4.71707         3.32713
| 84>    H       -1.15226         2.58596         2.90561
| 85>    H       -0.21850         3.99959         2.40561
| 86>    H        0.19478         2.39670         1.76399
| 87>    H       -2.90616         6.67520         4.97604
| 88>    H       -3.74499         5.13057         5.14631
| 89>    H       -3.27525         6.44823         7.31093
| 90>    H       -3.92194         8.65610         6.42194
| 91>    H       -4.84037         8.25152         7.87712
| 92>    H       -6.20848         9.27700         5.99703
| 93>    H       -6.82960         7.74548         6.59639
| 94>    H       -8.01545         9.41904         4.58060
| 95>    H       -8.84659         8.13208         1.93590
| 96>    H      -11.71855         7.73924         1.43791
| 97>    H      -10.45472         8.40175         0.39670
| 98>    H      -12.70882         8.28417        -0.72592
| 99>    H      -12.07057         9.92927        -0.66418
|100>    H      -14.48248         9.83513        -0.00417
|101>    H      -15.25805         6.99215         1.90994
|102>    H      -14.17118         6.90146         0.50510
|103>    H      -15.65108         7.89069         0.42049
|104>    H      -14.13309        11.05612         2.20601
|105>    H      -13.27613        11.70687         0.80428
|106>    H       -9.80551        13.40295         5.29115
|107>    H      -10.83528        12.19731         6.05337
|108>    H       -9.88003        14.04024         7.56739
|109>    H      -10.30189        15.90708         6.00760
|110>    H      -11.05378        16.19991         7.58091
|111>    H      -12.51108        16.77010         5.58500
|112>    H      -13.25671        15.66119         6.73043
|113>    H      -14.54150        16.69602         4.49904
|114>    H      -15.56014        15.16510         2.05303
|115>    H      -16.20334        16.74930         2.71873
|116> *
|117>
|118>                          ****END OF INPUT****

CARTESIAN COORDINATES (ANGSTROEM)
---------------------------------
  C     -6.318190    4.758900   -5.285060
  C     -6.008190    5.117670   -3.975870
  O     -6.565340    6.289770   -3.540640
  C     -5.793130    7.197700   -2.778040
  C     -5.191230    4.276230   -3.195970
  C     -4.662040    3.130830   -3.800830
  C     -4.958220    2.797560   -5.104990
  C     -5.807540    3.605870   -5.846040
  C     -4.957000    4.542280   -1.791310
  C     -3.898680    4.116990   -1.074540
  C     -3.738380    4.439720    0.304470
  O     -4.638230    5.227780    0.921450
  C     -4.231780    5.421410    2.203640
  C     -3.054430    4.745110    2.420930
  C     -2.722880    4.101950    1.200780
  C     -1.564330    3.258940    0.915060
  O     -1.365520    2.762150   -0.174950
  C     -0.620540    3.044340    2.074750
  C     -5.047200    6.281400    2.996780
  S     -6.422460    7.013410    2.226640
  C     -6.819300    7.897210    3.672710
  C     -5.915220    7.621570    4.682740
  C     -4.926240    6.693240    4.309400
  C     -3.860280    6.212640    5.245910
  C     -4.180580    6.561450    6.703470
  C     -5.161380    5.545900    7.279670
  F     -6.243050    5.315900    6.527700
  F     -4.565040    4.348540    7.441540
  F     -5.610710    5.905070    8.493490
  C     -4.693500    7.997780    6.826070
  C     -5.996570    8.207380    6.058330
  C     -7.937490    8.772560    3.716690
  C     -8.896840    8.824640    2.766030
  C     -9.998430    9.719100    2.771790
  S    -10.069220   11.061070    3.875810
  C    -11.606290   11.591810    3.237180
  C    -12.030010   10.732960    2.232030
  C    -11.119480    9.696470    1.962740
  C    -11.375820    8.645990    0.930070
  C    -12.444970    9.104100   -0.056060
  C    -13.677490    9.594390    0.712460
  O    -14.161740    8.645780    1.643770
  C    -14.838670    7.555330    1.078090
  C    -13.325550   10.861620    1.496840
  C    -12.212000   12.791140    3.713520
  S    -13.541570   13.510970    2.843900
  C    -13.609070   14.862470    3.928930
  C    -12.646110   14.751050    4.908480
  C    -11.866580   13.582660    4.799060
  C    -10.776750   13.252530    5.772410
  C    -10.834180   14.119280    7.034150
  C    -11.868340   13.564770    8.007430
  F    -13.061750   13.291070    7.468760
  F    -11.438560   12.413230    8.556370
  F    -12.100610   14.401430    9.034710
  C    -11.097440   15.583350    6.681520
  C    -12.449980   15.761040    5.998090
  C    -14.581120   15.905300    3.761930
  C    -15.494930   15.943960    2.794610
  H     -6.965830    5.413190   -5.848090
  H     -5.866500    8.173060   -3.267450
  H     -4.744150    6.901540   -2.728110
  H     -6.194820    7.284990   -1.764880
  H     -4.038340    2.477900   -3.210280
  H     -4.542340    1.902050   -5.540960
  H     -6.059800    3.345300   -6.862840
  H     -5.716500    5.117260   -1.279660
  H     -3.094640    3.541490   -1.505560
  H     -2.488840    4.717070    3.327130
  H     -1.152260    2.585960    2.905610
  H     -0.218500    3.999590    2.405610
  H      0.194780    2.396700    1.763990
  H     -2.906160    6.675200    4.976040
  H     -3.744990    5.130570    5.146310
  H     -3.275250    6.448230    7.310930
  H     -3.921940    8.656100    6.421940
  H     -4.840370    8.251520    7.877120
  H     -6.208480    9.277000    5.997030
  H     -6.829600    7.745480    6.596390
  H     -8.015450    9.419040    4.580600
  H     -8.846590    8.132080    1.935900
  H    -11.718550    7.739240    1.437910
  H    -10.454720    8.401750    0.396700
  H    -12.708820    8.284170   -0.725920
  H    -12.070570    9.929270   -0.664180
  H    -14.482480    9.835130   -0.004170
  H    -15.258050    6.992150    1.909940
  H    -14.171180    6.901460    0.505100
  H    -15.651080    7.890690    0.420490
  H    -14.133090   11.056120    2.206010
  H    -13.276130   11.706870    0.804280
  H     -9.805510   13.402950    5.291150
  H    -10.835280   12.197310    6.053370
  H     -9.880030   14.040240    7.567390
  H    -10.301890   15.907080    6.007600
  H    -11.053780   16.199910    7.580910
  H    -12.511080   16.770100    5.585000
  H    -13.256710   15.661190    6.730430
  H    -14.541500   16.696020    4.499040
  H    -15.560140   15.165100    2.053030
  H    -16.203340   16.749300    2.718730

 Total Charge           Charge          ....    0
 Multiplicity           Mult            ....    1
 Number of Electrons    NEL             ....  452
 Basis Dimension        Dim             .... 1048

ORBITAL ENERGIES
----------------

  NO   OCC          E(Eh)            E(eV)
   0   2.0000     -88.946494     -2420.3571
   1   2.0000     -88.943571     -2420.2776
   2   2.0000     -88.942213     -2420.2406
   3   2.0000     -24.796955      -674.7595
   4   2.0000     -24.794417      -674.6904
   5   2.0000     -24.792421      -674.6361
   6   2.0000     -24.790999      -674.5974
   7   2.0000     -24.790166      -674.5747
   8   2.0000     -24.786460      -674.4739
   9   2.0000     -19.293243      -524.9958
  10   2.0000     -19.228424      -523.2320
  11   2.0000     -19.206924      -522.6470
  12   2.0000     -19.193901      -522.2926
  13   2.0000     -10.505855      -285.8789
  14   2.0000     -10.501174      -285.7515
  15   2.0000     -10.351914      -281.6899
  16   2.0000     -10.337412      -281.2953
  17   2.0000     -10.336900      -281.2813
  18   2.0000     -10.321737      -280.8687
  19   2.0000     -10.312106      -280.6067
  20   2.0000     -10.311978      -280.6032
  21   2.0000     -10.304077      -280.3882
  22   2.0000     -10.299690      -280.2688
  23   2.0000     -10.298294      -280.2308
  24   2.0000     -10.296968      -280.1947
  25   2.0000     -10.296416      -280.1797
  26   2.0000     -10.293963      -280.1130
  27   2.0000     -10.290604      -280.0216
  28   2.0000     -10.287628      -279.9406
  29   2.0000     -10.284574      -279.8575
  30   2.0000     -10.282702      -279.8066
  31   2.0000     -10.279754      -279.7263
  32   2.0000     -10.278145      -279.6825
  33   2.0000     -10.277933      -279.6768
  34   2.0000     -10.275549      -279.6119
  35   2.0000     -10.275404      -279.6080
  36   2.0000     -10.275330      -279.6059
  37   2.0000     -10.275021      -279.5975
  38   2.0000     -10.273892      -279.5668
  39   2.0000     -10.273691      -279.5613
  40   2.0000     -10.273170      -279.5472
  41   2.0000     -10.271370      -279.4982
  42   2.0000     -10.270447      -279.4731
  43   2.0000     -10.270061      -279.4626
  44   2.0000     -10.269900      -279.4582
  45   2.0000     -10.269433      -279.4455
  46   2.0000     -10.267985      -279.4061
  47   2.0000     -10.267548      -279.3942
  48   2.0000     -10.267500      -279.3929
  49   2.0000     -10.266331      -279.3611
  50   2.0000     -10.263722      -279.2901
  51   2.0000     -10.263251      -279.2773
  52   2.0000     -10.262619      -279.2601
  53   2.0000     -10.262466      -279.2559
  54   2.0000     -10.261564      -279.2314
  55   2.0000     -10.260558      -279.2040
  56   2.0000     -10.258204      -279.1399
  57   2.0000     -10.255588      -279.0687
  58   2.0000     -10.255504      -279.0665
  59   2.0000      -8.041805      -218.8286
  60   2.0000      -8.038293      -218.7331
  61   2.0000      -8.037209      -218.7036
  62   2.0000      -6.011084      -163.5699
  63   2.0000      -6.007625      -163.4758
  64   2.0000      -6.007124      -163.4622
  65   2.0000      -6.006551      -163.4466
  66   2.0000      -6.003759      -163.3706
  67   2.0000      -6.003566      -163.3653
  68   2.0000      -6.002409      -163.3339
  69   2.0000      -6.000392      -163.2790
  70   2.0000      -5.999263      -163.2482
  71   2.0000      -1.384485       -37.6737
  72   2.0000      -1.379940       -37.5501
  73   2.0000      -1.288076       -35.0503
  74   2.0000      -1.283481       -34.9253
  75   2.0000      -1.283380       -34.9225
  76   2.0000      -1.279102       -34.8061
  77   2.0000      -1.213893       -33.0317
  78   2.0000      -1.130707       -30.7681
  79   2.0000      -1.110901       -30.2292
  80   2.0000      -1.110400       -30.2155
  81   2.0000      -0.989807       -26.9340
  82   2.0000      -0.987278       -26.8652
  83   2.0000      -0.970440       -26.4070
  84   2.0000      -0.941428       -25.6175
  85   2.0000      -0.936239       -25.4764
  86   2.0000      -0.930345       -25.3160
  87   2.0000      -0.910317       -24.7710
  88   2.0000      -0.906498       -24.6671
  89   2.0000      -0.902688       -24.5634
  90   2.0000      -0.894993       -24.3540
  91   2.0000      -0.880393       -23.9567
  92   2.0000      -0.866701       -23.5841
  93   2.0000      -0.854116       -23.2417
  94   2.0000      -0.850022       -23.1303
  95   2.0000      -0.847870       -23.0717
  96   2.0000      -0.835326       -22.7304
  97   2.0000      -0.832477       -22.6529
  98   2.0000      -0.830207       -22.5911
  99   2.0000      -0.825478       -22.4624
 100   2.0000      -0.815211       -22.1830
 101   2.0000      -0.811556       -22.0836
 102   2.0000      -0.802441       -21.8355
 103   2.0000      -0.786500       -21.4018
 104   2.0000      -0.776805       -21.1379
 105   2.0000      -0.769524       -20.9398
 106   2.0000      -0.763976       -20.7888
 107   2.0000      -0.758520       -20.6404
 108   2.0000      -0.743090       -20.2205
 109   2.0000      -0.728799       -19.8316
 110   2.0000      -0.723760       -19.6945
 111   2.0000      -0.722230       -19.6529
 112   2.0000      -0.720426       -19.6038
 113   2.0000      -0.711038       -19.3483
 114   2.0000      -0.709081       -19.2951
 115   2.0000      -0.696698       -18.9581
 116   2.0000      -0.694536       -18.8993
 117   2.0000      -0.685454       -18.6521
 118   2.0000      -0.674080       -18.3427
 119   2.0000      -0.669567       -18.2198
 120   2.0000      -0.668242       -18.1838
 121   2.0000      -0.665826       -18.1180
 122   2.0000      -0.664755       -18.0889
 123   2.0000      -0.661598       -18.0030
 124   2.0000      -0.653147       -17.7730
 125   2.0000      -0.649065       -17.6620
 126   2.0000      -0.641467       -17.4552
 127   2.0000      -0.628314       -17.0973
 128   2.0000      -0.624737       -17.0000
 129   2.0000      -0.617779       -16.8106
 130   2.0000      -0.608069       -16.5464
 131   2.0000      -0.603764       -16.4293
 132   2.0000      -0.599450       -16.3119
 133   2.0000      -0.593617       -16.1531
 134   2.0000      -0.588730       -16.0202
 135   2.0000      -0.583090       -15.8667
 136   2.0000      -0.573705       -15.6113
 137   2.0000      -0.571046       -15.5389
 138   2.0000      -0.567058       -15.4304
 139   2.0000      -0.563516       -15.3341
 140   2.0000      -0.557678       -15.1752
 141   2.0000      -0.551342       -15.0028
 142   2.0000      -0.547468       -14.8974
 143   2.0000      -0.546096       -14.8600
 144   2.0000      -0.545959       -14.8563
 145   2.0000      -0.543626       -14.7928
 146   2.0000      -0.543001       -14.7758
 147   2.0000      -0.542224       -14.7547
 148   2.0000      -0.541661       -14.7393
 149   2.0000      -0.540420       -14.7056
 150   2.0000      -0.538140       -14.6435
 151   2.0000      -0.537018       -14.6130
 152   2.0000      -0.531849       -14.4723
 153   2.0000      -0.530254       -14.4290
 154   2.0000      -0.528185       -14.3726
 155   2.0000      -0.524011       -14.2591
 156   2.0000      -0.520091       -14.1524
 157   2.0000      -0.518175       -14.1003
 158   2.0000      -0.517026       -14.0690
 159   2.0000      -0.513616       -13.9762
 160   2.0000      -0.512968       -13.9586
 161   2.0000      -0.507968       -13.8225
 162   2.0000      -0.506283       -13.7766
 163   2.0000      -0.504306       -13.7229
 164   2.0000      -0.499087       -13.5808
 165   2.0000      -0.498624       -13.5683
 166   2.0000      -0.497317       -13.5327
 167   2.0000      -0.494437       -13.4543
 168   2.0000      -0.493572       -13.4308
 169   2.0000      -0.491103       -13.3636
 170   2.0000      -0.489435       -13.3182
 171   2.0000      -0.488484       -13.2923
 172   2.0000      -0.486992       -13.2517
 173   2.0000      -0.486299       -13.2329
 174   2.0000      -0.484411       -13.1815
 175   2.0000      -0.481117       -13.0918
 176   2.0000      -0.479731       -13.0542
 177   2.0000      -0.477158       -12.9841
 178   2.0000      -0.475793       -12.9470
 179   2.0000      -0.473231       -12.8773
 180   2.0000      -0.467908       -12.7324
 181   2.0000      -0.466771       -12.7015
 182   2.0000      -0.464266       -12.6333
 183   2.0000      -0.462379       -12.5820
 184   2.0000      -0.457076       -12.4377
 185   2.0000      -0.455458       -12.3937
 186   2.0000      -0.454353       -12.3636
 187   2.0000      -0.450722       -12.2648
 188   2.0000      -0.448652       -12.2084
 189   2.0000      -0.442847       -12.0505
 190   2.0000      -0.442240       -12.0339
 191   2.0000      -0.437826       -11.9138
 192   2.0000      -0.434978       -11.8363
 193   2.0000      -0.430813       -11.7230
 194   2.0000      -0.427929       -11.6445
 195   2.0000      -0.427093       -11.6218
 196   2.0000      -0.421750       -11.4764
 197   2.0000      -0.420715       -11.4482
 198   2.0000      -0.418611       -11.3910
 199   2.0000      -0.415803       -11.3146
 200   2.0000      -0.411773       -11.2049
 201   2.0000      -0.410591       -11.1727
 202   2.0000      -0.407818       -11.0973
 203   2.0000      -0.403774       -10.9873
 204   2.0000      -0.401576       -10.9274
 205   2.0000      -0.400350       -10.8941
 206   2.0000      -0.395685       -10.7671
 207   2.0000      -0.392560       -10.6821
 208   2.0000      -0.386317       -10.5122
 209   2.0000      -0.381086       -10.3699
 210   2.0000      -0.380329       -10.3493
 211   2.0000      -0.370785       -10.0896
 212   2.0000      -0.367993       -10.0136
 213   2.0000      -0.364157        -9.9092
 214   2.0000      -0.357640        -9.7319
 215   2.0000      -0.333009        -9.0616
 216   2.0000      -0.324642        -8.8340
 217   2.0000      -0.318950        -8.6791
 218   2.0000      -0.309027        -8.4091
 219   2.0000      -0.305507        -8.3133
 220   2.0000      -0.302186        -8.2229
 221   2.0000      -0.296411        -8.0657
 222   2.0000      -0.290430        -7.9030
 223   2.0000      -0.275501        -7.4968
 224   2.0000      -0.246222        -6.7000
 225   2.0000      -0.215934        -5.8759
 226   0.0000      -0.050980        -1.3872
 227   0.0000      -0.030928        -0.8416
 228   0.0000      -0.006924        -0.1884
 229   0.0000       0.024114         0.6562
 230   0.0000       0.038489         1.0473

MULLIKEN ATOMIC CHARGES
-----------------------
   0 C :   -0.022254
   1 C :    0.163484
   2 O :   -0.335219
   3 C :    0.176527
   4 C :    0.027804
   5 C :   -0.024746
   6 C :    0.027570
   7 C :    0.035352
   8 C :   -0.022612
   9 C :   -0.027128
  10 C :    0.108163
  11 O :   -0.210100
  12 C :    0.211971
  13 C :   -0.140862
  14 C :    0.032230
  15 C :   -0.021476
  16 O :   -0.187473
  17 C :    0.044853
  18 C :   -0.127928
  19 S :    0.127538
  20 C :   -0.087251
  21 C :   -0.070642
  22 C :   -0.084188
  23 C :    0.126373
  24 C :   -0.150341
  25 C :    0.475329
  26 F :   -0.154818
  27 F :   -0.173031
  28 F :   -0.165523
  29 C :    0.053886
  30 C :    0.099269
  31 C :   -0.018757
  32 C :   -0.014045
  33 C :   -0.078075
  34 S :    0.053927
  35 C :   -0.101731
  36 C :   -0.101866
  37 C :   -0.078543
  38 C :    0.153126
  39 C :    0.017291
  40 C :    0.109994
  41 O :   -0.378815
  42 C :    0.191998
  43 C :    0.165636
  44 C :   -0.100775
  45 S :    0.065297
  46 C :   -0.101010
  47 C :   -0.051754
  48 C :   -0.099304
  49 C :    0.122505
  50 C :   -0.140088
  51 C :    0.477084
  52 F :   -0.155998
  53 F :   -0.171386
  54 F :   -0.169155
  55 C :    0.057178
  56 C :    0.090763
  57 C :   -0.002931
  58 C :   -0.028145
  59 H :   -0.024085
  60 H :    0.024801
  61 H :    0.040069
  62 H :    0.027008
  63 H :   -0.015001
  64 H :   -0.019856
  65 H :   -0.014843
  66 H :    0.010140
  67 H :    0.018375
  68 H :   -0.023974
  69 H :    0.036593
  70 H :    0.033474
  71 H :    0.030553
  72 H :    0.024922
  73 H :    0.037282
  74 H :    0.028584
  75 H :    0.013571
  76 H :    0.018509
  77 H :    0.018347
  78 H :    0.035147
  79 H :   -0.011693
  80 H :   -0.008900
  81 H :    0.019586
  82 H :    0.013153
  83 H :   -0.000586
  84 H :    0.006260
  85 H :   -0.017326
  86 H :    0.029554
  87 H :    0.000849
  88 H :   -0.000589
  89 H :    0.027603
  90 H :    0.021900
  91 H :    0.029874
  92 H :    0.038081
  93 H :    0.025435
  94 H :    0.013167
  95 H :    0.016361
  96 H :    0.017152
  97 H :    0.033379
  98 H :   -0.010358
  99 H :    0.019378
 100 H :    0.020929
Sum of atomic charges:    0.0000000

LOEWDIN ATOMIC CHARGES
----------------------
   0 C :   -0.044839
   1 C :    0.061143
   2 O :   -0.125186
   3 C :    0.078971
   4 C :   -0.067672
   5 C :   -0.002288
   6 C :   -0.041008
   7 C :   -0.014580
   8 C :    0.006630
   9 C :   -0.047541
  10 C :    0.074791
  11 O :    0.012311
  12 C :    0.022142
  13 C :   -0.066924
  14 C :   -0.116707
  15 C :    0.079876
  16 O :   -0.159834
  17 C :   -0.075864
  18 C :   -0.190870
  19 S :    0.436342
  20 C :   -0.168663
  21 C :   -0.062249
  22 C :   -0.058677
  23 C :   -0.019446
  24 C :   -0.064717
  25 C :    0.162651
  26 F :   -0.049581
  27 F :   -0.070943
  28 F :   -0.064067
  29 C :   -0.019593
  30 C :   -0.030329
  31 C :   -0.054151
  32 C :   -0.040607
  33 C :   -0.181742
  34 S :    0.439850
  35 C :   -0.179172
  36 C :   -0.057553
  37 C :   -0.045895
  38 C :   -0.023987
  39 C :   -0.040164
  40 C :    0.069513
  41 O :   -0.169930
  42 C :    0.066877
  43 C :   -0.044736
  44 C :   -0.178083
  45 S :    0.454251
  46 C :   -0.184856
  47 C :   -0.055951
  48 C :   -0.070136
  49 C :   -0.034999
  50 C :   -0.064285
  51 C :    0.163136
  52 F :   -0.050522
  53 F :   -0.069261
  54 F :   -0.067469
  55 C :   -0.019735
  56 C :   -0.031399
  57 C :   -0.038348
  58 C :   -0.055472
  59 H :    0.030917
  60 H :    0.020093
  61 H :    0.021555
  62 H :    0.015859
  63 H :    0.031517
  64 H :    0.027028
  65 H :    0.028330
  66 H :    0.030602
  67 H :    0.037784
  68 H :    0.025546
  69 H :    0.041266
  70 H :    0.040420
  71 H :    0.038356
  72 H :    0.037154
  73 H :    0.034202
  74 H :    0.043852
  75 H :    0.029605
  76 H :    0.029433
  77 H :    0.033576
  78 H :    0.033627
  79 H :    0.023414
  80 H :    0.024459
  81 H :    0.036617
  82 H :    0.029703
  83 H :    0.021654
  84 H :    0.027728
  85 H :    0.007283
  86 H :    0.024535
  87 H :    0.002856
  88 H :    0.006222
  89 H :    0.030403
  90 H :    0.028537
  91 H :    0.031465
  92 H :    0.026680
  93 H :    0.043083
  94 H :    0.029617
  95 H :    0.028271
  96 H :    0.033047
  97 H :    0.032489
  98 H :    0.031889
  99 H :    0.015971
 100 H :    0.024904

  Mayer bond orders larger than 0.100000
B(  0-C ,  1-C ) :   1.3915 B(  0-C ,  7-C ) :   1.3808 B(  0-C , 59-H ) :   0.9922
B(  1-C ,  2-O ) :   1.1357 B(  1-C ,  4-C ) :   1.3043 B(  2-O ,  3-C ) :   0.9423
B(  3-C , 60-H ) :   0.9753 B(  3-C , 61-H ) :   0.9624 B(  3-C , 62-H ) :   0.9780
B(  4-C ,  5-C ) :   1.3565 B(  4-C ,  8-C ) :   1.0247 B(  5-C ,  6-C ) :   1.4060
B(  5-C , 63-H ) :   0.9909 B(  6-C ,  7-C ) :   1.3481 B(  6-C , 64-H ) :   0.9925
B(  7-C , 65-H ) :   0.9922 B(  8-C ,  9-C ) :   1.6671 B(  8-C , 66-H ) :   0.9742
B(  9-C , 10-C ) :   1.1734 B(  9-C , 67-H ) :   0.9449 B( 10-C , 11-O ) :   1.1646
B( 10-C , 14-C ) :   1.4023 B( 11-O , 12-C ) :   1.1385 B( 12-C , 13-C ) :   1.4948
B( 12-C , 18-C ) :   1.0631 B( 13-C , 14-C ) :   1.1732 B( 13-C , 68-H ) :   0.9961
B( 14-C , 15-C ) :   0.9416 B( 15-C , 16-O ) :   2.1551 B( 15-C , 17-C ) :   1.0753
B( 17-C , 69-H ) :   0.9463 B( 17-C , 70-H ) :   0.9458 B( 17-C , 71-H ) :   0.9473
B( 18-C , 19-S ) :   1.1145 B( 18-C , 20-C ) :   0.1160 B( 18-C , 22-C ) :   1.5705
B( 19-S , 20-C ) :   1.0953 B( 20-C , 21-C ) :   1.5103 B( 20-C , 31-C ) :   1.1557
B( 21-C , 22-C ) :   1.2992 B( 21-C , 30-C ) :   1.0511 B( 22-C , 23-C ) :   1.0528
B( 23-C , 24-C ) :   1.0297 B( 23-C , 72-H ) :   0.9011 B( 23-C , 73-H ) :   0.9068
B( 24-C , 25-C ) :   0.9845 B( 24-C , 29-C ) :   1.0427 B( 24-C , 74-H ) :   0.9003
B( 25-C , 26-F ) :   1.1423 B( 25-C , 27-F ) :   1.1336 B( 25-C , 28-F ) :   1.1468
B( 29-C , 30-C ) :   1.0879 B( 29-C , 75-H ) :   0.9428 B( 29-C , 76-H ) :   0.9325
B( 30-C , 77-H ) :   0.9088 B( 30-C , 78-H ) :   0.9064 B( 31-C , 32-C ) :   1.6512
B( 31-C , 79-H ) :   0.9661 B( 32-C , 33-C ) :   1.1619 B( 32-C , 80-H ) :   0.9645
B( 33-C , 34-S ) :   1.0838 B( 33-C , 35-C ) :   0.1013 B( 33-C , 37-C ) :   1.4914
B( 34-S , 35-C ) :   1.1100 B( 35-C , 36-C ) :   1.4994 B( 35-C , 44-C ) :   1.1409
B( 36-C , 37-C ) :   1.3231 B( 36-C , 43-C ) :   1.0527 B( 37-C , 38-C ) :   1.0538
B( 38-C , 39-C ) :   1.0697 B( 38-C , 81-H ) :   0.8994 B( 38-C , 82-H ) :   0.9139
B( 39-C , 40-C ) :   1.0444 B( 39-C , 83-H ) :   0.9277 B( 39-C , 84-H ) :   0.9400
B( 40-C , 41-O ) :   1.0280 B( 40-C , 43-C ) :   1.0358 B( 40-C , 85-H ) :   0.9231
B( 41-O , 42-C ) :   0.9994 B( 42-C , 86-H ) :   0.9825 B( 42-C , 87-H ) :   0.9652
B( 42-C , 88-H ) :   0.9638 B( 43-C , 89-H ) :   0.8965 B( 43-C , 90-H ) :   0.8995
B( 44-C , 45-S ) :   1.1228 B( 44-C , 48-C ) :   1.5103 B( 45-S , 46-C ) :   1.0881
B( 46-C , 47-C ) :   1.5245 B( 46-C , 57-C ) :   1.1281 B( 47-C , 48-C ) :   1.3054
B( 47-C , 56-C ) :   1.0455 B( 48-C , 49-C ) :   1.0540 B( 49-C , 50-C ) :   1.0234
B( 49-C , 91-H ) :   0.9002 B( 49-C , 92-H ) :   0.9043 B( 50-C , 51-C ) :   0.9834
B( 50-C , 55-C ) :   1.0426 B( 50-C , 93-H ) :   0.8998 B( 51-C , 52-F ) :   1.1421
B( 51-C , 53-F ) :   1.1390 B( 51-C , 54-F ) :   1.1420 B( 55-C , 56-C ) :   1.0897
B( 55-C , 94-H ) :   0.9425 B( 55-C , 95-H ) :   0.9320 B( 56-C , 96-H ) :   0.9121
B( 56-C , 97-H ) :   0.9067 B( 57-C , 58-C ) :   1.9170 B( 57-C , 98-H ) :   0.9572
B( 58-C , 99-H ) :   0.9554 B( 58-C ,100-H ) :   0.9481

-----------------------------------------------------------------------------
         ABSORPTION SPECTRUM VIA TRANSITION ELECTRIC DIPOLE MOMENTS
-----------------------------------------------------------------------------
State   Energy  Wavelength   fosc         T2         TX        TY        TZ
        (cm-1)    (nm)                  (au**2)     (au)      (au)      (au)
-----------------------------------------------------------------------------
   0   20818.1    480.4   1.446214558  22.87002  -3.12877   3.27603   1.53246
   1   26396.8    378.8   0.718597755   8.96212   2.05374  -1.33365   1.72210
   2   28171.3    355.0   0.157879613   1.84500  -0.59271   0.37083  -1.16455
   3   30895.0    323.7   0.019601409   0.20887  -0.14519  -0.39832   0.17068
   4   32595.6    306.8   0.278204386   2.80983   1.11517  -0.00065   1.25149
   5   35031.4    285.5   0.047661705   0.44791   0.06247   0.34198   0.57189
   6   35490.6    281.8   0.033744815   0.31302   0.55173  -0.09278  -0.00183
   7   36856.2    271.3   0.057098782   0.51003   0.28206  -0.49127  -0.43488
   8   36995.6    270.3   0.211377287   1.88098   0.54037   0.61305   1.10143
   9   38993.6    256.5   0.144939708   1.22369  -0.81294   0.68218  -0.31217
  10   39464.5    253.4   0.086040999   0.71775  -0.15204   0.40067   0.73082
  11   39959.7    250.3   0.067396112   0.55525  -0.04365  -0.39967  -0.62738

FINAL SINGLE POINT ENERGY     -3869.149358605709

DIPOLE MOMENT
-------------
                                X             Y             Z
Electronic contribution:      3.76972       0.32242      57.00822
Nuclear contribution   :     -3.14702       1.23066     -57.14064
                        -----------------------------------------
Total Dipole Moment    :      0.62270       1.55308      -0.13242
                        -----------------------------------------
Magnitude (a.u.)       :      1.67850
Magnitude (Debye)      :      4.26641

Rotational constants in cm-1:     0.001544     0.000562     0.000440
Rotational constants in MHz :    46.282866    16.848788    13.202555

                             ****ORCA TERMINATED NORMALLY****
TOTAL RUN TIME: 0 days 0 hours 7 minutes 30 seconds 771 msec
