                         Program Version 4.2.0 -  RELEASE  -
|  1> # ORCA input file
|  2> # SCF done       -194.444828369696          0.000380668785
|  3> ! CAM-B3LYP def2-SVP def2/J RIJCOSX Grid4 TightSCF
|  4> %maxcore 5000
|  5> %tddft
|  6>     Mode sTDDFT
|  7>     Ethresh 5.0
|  8>     maxcore 5000
|  9> end
| 10>
| 11> %pal
| 12>   nprocs 6
| 13>   end
| 14> * xyz 0 1
| 15>    C        3.73884         0.60093         0.64906
| 16>    C        4.13428         0.77636         1.90805
| 17>    C        4.18421        -0.25616         2.90357
| 18>    S        3.70805        -1.88455         2.53839
| 19>    C        4.02922        -2.41606         4.16889
| 20>    C        3.88726        -3.79186         4.51814
| 21>    S        4.62300        -4.41938         5.97344
| 22>    C        4.12709        -6.04252         5.59951
| 23>    C        4.44471        -7.13738         6.45296
| 24>    C        4.91635        -7.00494         7.71000
| 25>    C        5.27686        -8.03904         8.62673
| 26>    S        5.46228        -7.56191        10.29421
| 27>    C        5.94815        -9.17664        10.74318
| 28>    N        6.23844        -9.55032        12.05978
| 29>    C        7.27204        -8.78814        12.67985
| 30>    S        6.47623        -7.30260        13.42242
| 31>    C        5.02114        -8.33772        13.83800
| 32>    C        5.06074        -8.90541        15.19725
| 33>    S        5.07240        -8.27289        16.79191
| 34>    C        5.10070        -9.95545        17.37720
| 35>    C        5.10248       -10.21679        18.77750
| 36>    C        5.09580       -11.46949        19.27309
| 37>    C        5.07650       -11.84980        20.66536
| 38>    C        4.99847       -10.92454        21.70717
| 39>    C        4.97161       -11.32377        23.02817
| 40>    C        5.02260       -12.67176        23.33700
| 41>    C        5.10059       -13.61738        22.32854
| 42>    C        5.12831       -13.22599        20.99623
| 43>    O        5.20566       -14.09461        19.95272
| 44>    C        5.25805       -15.47500        20.21477
| 45>    N        5.10206       -10.84441        16.43181
| 46>    C        5.08747       -10.27241        15.21806
| 47>    C        5.01264       -10.87746        13.84853
| 48>    C        3.63590       -11.55894        13.70682
| 49>    C        3.40567       -12.25931        12.37274
| 50>    C        6.17121       -11.85629        13.60343
| 51>    C        6.12049       -13.09029        14.49799
| 52>    C        5.06573        -9.61049        12.92166
| 53>    C        5.95873       -10.00964         9.66101
| 54>    C        5.56047        -9.37924         8.45867
| 55>    C        5.56751       -10.10504         7.14710
| 56>    C        5.86550       -11.59981         7.29092
| 57>    C        6.90929       -11.91111         8.36450
| 58>    C        8.27372       -11.31475         8.04291
| 59>    F        8.68582       -11.65647         6.80831
| 60>    F        8.35043        -9.98180         8.10592
| 61>    F        9.21183       -11.77948         8.88982
| 62>    C        6.40857       -11.43634         9.72982
| 63>    C        3.42451        -6.07786         4.41005
| 64>    C        3.27311        -4.81419         3.81104
| 65>    C        2.49851        -4.62928         2.54547
| 66>    C        1.59222        -5.83477         2.25399
| 67>    O        0.49858        -5.94495         3.14413
| 68>    C       -0.52379        -5.00378         2.95506
| 69>    C        2.41010        -7.11974         2.38060
| 70>    C        2.82604        -7.32244         3.83435
| 71>    C        4.47495        -1.35429         4.93914
| 72>    C        4.57045        -0.14500         4.22128
| 73>    C        5.02826         1.13758         4.84679
| 74>    C        5.72686         0.88778         6.18035
| 75>    C        4.93317        -0.07943         7.05936
| 76>    C        3.54759         0.45592         7.40186
| 77>    F        3.58109         1.74194         7.79487
| 78>    F        2.65424         0.39301         6.40628
| 79>    F        3.00561        -0.23138         8.42371
| 80>    C        4.82203        -1.45390         6.39280
| 81>    H        3.71818         1.41351        -0.05487
| 82>    H        3.42227        -0.36417         0.28943
| 83>    H        4.44210         1.75700         2.24538
| 84>    H        4.25157        -8.11090         6.03336
| 85>    H        5.02059        -6.00088         8.10493
| 86>    H        8.02581        -8.46916        11.96373
| 87>    H        7.73229        -9.34732        13.49570
| 88>    H        4.14545        -7.71160        13.65862
| 89>    H        5.10331        -9.34293        19.41196
| 90>    H        5.10421       -12.28587        18.56590
| 91>    H        4.95333        -9.87296        21.47275
| 92>    H        4.90935       -10.58830        23.81561
| 93>    H        5.00118       -12.99614        24.36664
| 94>    H        5.13842       -14.66189        22.59517
| 95>    H        6.14382       -15.74158        20.80028
| 96>    H        5.31593       -15.95498        19.23888
| 97>    H        4.35909       -15.82193        20.73454
| 98>    H        2.86683       -10.79455        13.84954
| 99>    H        3.52941       -12.27697        14.52015
|100>    H        3.56306       -11.57959        11.53786
|101>    H        2.38174       -12.62334        12.32418
|102>    H        4.07171       -13.10944        12.25536
|103>    H        7.10984       -11.33615        13.79740
|104>    H        6.17177       -12.14995        12.55440
|105>    H        6.00703       -12.79424        15.53722
|106>    H        7.04557       -13.65321        14.39392
|107>    H        5.29554       -13.74453        14.23051
|108>    H        4.18611        -9.61322        12.27377
|109>    H        6.30623        -9.62987         6.49421
|110>    H        4.59389       -10.00802         6.66275
|111>    H        6.19174       -11.99644         6.32783
|112>    H        4.95130       -12.12431         7.57644
|113>    H        7.08289       -12.99324         8.39448
|114>    H        7.19113       -11.53287        10.48527
|115>    H        5.57404       -12.07685        10.02875
|116>    H        3.18529        -4.50141         1.70326
|117>    H        1.89574        -3.72087         2.60762
|118>    H        1.20750        -5.73495         1.22370
|119>    H       -1.34756        -5.31804         3.59384
|120>    H       -0.86001        -4.98628         1.91034
|121>    H       -0.21780        -3.99195         3.24423
|122>    H        3.28905        -7.03999         1.73917
|123>    H        1.81279        -7.97035         2.05121
|124>    H        3.53392        -8.15169         3.90387
|125>    H        1.93871        -7.58265         4.41782
|126>    H        4.16447         1.79322         4.99309
|127>    H        5.71622         1.65461         4.17438
|128>    H        5.87544         1.83459         6.70228
|129>    H        6.70639         0.44003         6.00187
|130>    H        5.43689        -0.18905         8.02628
|131>    H        4.07312        -2.05528         6.91546
|132>    H        5.78038        -1.97051         6.50149
|133> *
|134>
|135>                          ****END OF INPUT****

CARTESIAN COORDINATES (ANGSTROEM)
---------------------------------
  C      3.738840    0.600930    0.649060
  C      4.134280    0.776360    1.908050
  C      4.184210   -0.256160    2.903570
  S      3.708050   -1.884550    2.538390
  C      4.029220   -2.416060    4.168890
  C      3.887260   -3.791860    4.518140
  S      4.623000   -4.419380    5.973440
  C      4.127090   -6.042520    5.599510
  C      4.444710   -7.137380    6.452960
  C      4.916350   -7.004940    7.710000
  C      5.276860   -8.039040    8.626730
  S      5.462280   -7.561910   10.294210
  C      5.948150   -9.176640   10.743180
  N      6.238440   -9.550320   12.059780
  C      7.272040   -8.788140   12.679850
  S      6.476230   -7.302600   13.422420
  C      5.021140   -8.337720   13.838000
  C      5.060740   -8.905410   15.197250
  S      5.072400   -8.272890   16.791910
  C      5.100700   -9.955450   17.377200
  C      5.102480  -10.216790   18.777500
  C      5.095800  -11.469490   19.273090
  C      5.076500  -11.849800   20.665360
  C      4.998470  -10.924540   21.707170
  C      4.971610  -11.323770   23.028170
  C      5.022600  -12.671760   23.337000
  C      5.100590  -13.617380   22.328540
  C      5.128310  -13.225990   20.996230
  O      5.205660  -14.094610   19.952720
  C      5.258050  -15.475000   20.214770
  N      5.102060  -10.844410   16.431810
  C      5.087470  -10.272410   15.218060
  C      5.012640  -10.877460   13.848530
  C      3.635900  -11.558940   13.706820
  C      3.405670  -12.259310   12.372740
  C      6.171210  -11.856290   13.603430
  C      6.120490  -13.090290   14.497990
  C      5.065730   -9.610490   12.921660
  C      5.958730  -10.009640    9.661010
  C      5.560470   -9.379240    8.458670
  C      5.567510  -10.105040    7.147100
  C      5.865500  -11.599810    7.290920
  C      6.909290  -11.911110    8.364500
  C      8.273720  -11.314750    8.042910
  F      8.685820  -11.656470    6.808310
  F      8.350430   -9.981800    8.105920
  F      9.211830  -11.779480    8.889820
  C      6.408570  -11.436340    9.729820
  C      3.424510   -6.077860    4.410050
  C      3.273110   -4.814190    3.811040
  C      2.498510   -4.629280    2.545470
  C      1.592220   -5.834770    2.253990
  O      0.498580   -5.944950    3.144130
  C     -0.523790   -5.003780    2.955060
  C      2.410100   -7.119740    2.380600
  C      2.826040   -7.322440    3.834350
  C      4.474950   -1.354290    4.939140
  C      4.570450   -0.145000    4.221280
  C      5.028260    1.137580    4.846790
  C      5.726860    0.887780    6.180350
  C      4.933170   -0.079430    7.059360
  C      3.547590    0.455920    7.401860
  F      3.581090    1.741940    7.794870
  F      2.654240    0.393010    6.406280
  F      3.005610   -0.231380    8.423710
  C      4.822030   -1.453900    6.392800
  H      3.718180    1.413510   -0.054870
  H      3.422270   -0.364170    0.289430
  H      4.442100    1.757000    2.245380
  H      4.251570   -8.110900    6.033360
  H      5.020590   -6.000880    8.104930
  H      8.025810   -8.469160   11.963730
  H      7.732290   -9.347320   13.495700
  H      4.145450   -7.711600   13.658620
  H      5.103310   -9.342930   19.411960
  H      5.104210  -12.285870   18.565900
  H      4.953330   -9.872960   21.472750
  H      4.909350  -10.588300   23.815610
  H      5.001180  -12.996140   24.366640
  H      5.138420  -14.661890   22.595170
  H      6.143820  -15.741580   20.800280
  H      5.315930  -15.954980   19.238880
  H      4.359090  -15.821930   20.734540
  H      2.866830  -10.794550   13.849540
  H      3.529410  -12.276970   14.520150
  H      3.563060  -11.579590   11.537860
  H      2.381740  -12.623340   12.324180
  H      4.071710  -13.109440   12.255360
  H      7.109840  -11.336150   13.797400
  H      6.171770  -12.149950   12.554400
  H      6.007030  -12.794240   15.537220
  H      7.045570  -13.653210   14.393920
  H      5.295540  -13.744530   14.230510
  H      4.186110   -9.613220   12.273770
  H      6.306230   -9.629870    6.494210
  H      4.593890  -10.008020    6.662750
  H      6.191740  -11.996440    6.327830
  H      4.951300  -12.124310    7.576440
  H      7.082890  -12.993240    8.394480
  H      7.191130  -11.532870   10.485270
  H      5.574040  -12.076850   10.028750
  H      3.185290   -4.501410    1.703260
  H      1.895740   -3.720870    2.607620
  H      1.207500   -5.734950    1.223700
  H     -1.347560   -5.318040    3.593840
  H     -0.860010   -4.986280    1.910340
  H     -0.217800   -3.991950    3.244230
  H      3.289050   -7.039990    1.739170
  H      1.812790   -7.970350    2.051210
  H      3.533920   -8.151690    3.903870
  H      1.938710   -7.582650    4.417820
  H      4.164470    1.793220    4.993090
  H      5.716220    1.654610    4.174380
  H      5.875440    1.834590    6.702280
  H      6.706390    0.440030    6.001870
  H      5.436890   -0.189050    8.026280
  H      4.073120   -2.055280    6.915460
  H      5.780380   -1.970510    6.501490

 Total Charge           Charge          ....    0
 Multiplicity           Mult            ....    1
 Number of Electrons    NEL             ....  522
 Basis Dimension        Dim             .... 1204

ORBITAL ENERGIES
----------------

  NO   OCC          E(Eh)            E(eV)
   0   2.0000     -88.947787     -2420.3923
   1   2.0000     -88.939718     -2420.1728
   2   2.0000     -88.938769     -2420.1469
   3   2.0000     -88.932043     -2419.9639
   4   2.0000     -88.900538     -2419.1066
   5   2.0000     -24.790108      -674.5731
   6   2.0000     -24.789071      -674.5449
   7   2.0000     -24.787289      -674.4964
   8   2.0000     -24.786170      -674.4660
   9   2.0000     -24.784463      -674.4195
  10   2.0000     -24.783496      -674.3932
  11   2.0000     -19.243435      -523.6405
  12   2.0000     -19.205045      -522.5958
  13   2.0000     -14.417582      -392.3223
  14   2.0000     -14.391654      -391.6168
  15   2.0000     -10.498448      -285.6773
  16   2.0000     -10.498200      -285.6705
  17   2.0000     -10.329130      -281.0699
  18   2.0000     -10.321712      -280.8681
  19   2.0000     -10.321534      -280.8632
  20   2.0000     -10.312312      -280.6123
  21   2.0000     -10.309694      -280.5410
  22   2.0000     -10.302971      -280.3581
  23   2.0000     -10.302755      -280.3522
  24   2.0000     -10.301212      -280.3102
  25   2.0000     -10.300966      -280.3035
  26   2.0000     -10.293716      -280.1062
  27   2.0000     -10.291145      -280.0363
  28   2.0000     -10.290314      -280.0137
  29   2.0000     -10.290245      -280.0118
  30   2.0000     -10.280780      -279.7543
  31   2.0000     -10.279908      -279.7305
  32   2.0000     -10.279838      -279.7286
  33   2.0000     -10.279727      -279.7256
  34   2.0000     -10.277762      -279.6721
  35   2.0000     -10.273888      -279.5667
  36   2.0000     -10.272839      -279.5382
  37   2.0000     -10.272707      -279.5346
  38   2.0000     -10.272139      -279.5191
  39   2.0000     -10.271150      -279.4922
  40   2.0000     -10.271131      -279.4917
  41   2.0000     -10.269232      -279.4400
  42   2.0000     -10.268736      -279.4265
  43   2.0000     -10.268698      -279.4255
  44   2.0000     -10.267749      -279.3996
  45   2.0000     -10.267431      -279.3910
  46   2.0000     -10.267333      -279.3883
  47   2.0000     -10.266788      -279.3735
  48   2.0000     -10.266705      -279.3712
  49   2.0000     -10.266376      -279.3623
  50   2.0000     -10.265944      -279.3505
  51   2.0000     -10.265404      -279.3358
  52   2.0000     -10.264233      -279.3040
  53   2.0000     -10.263705      -279.2896
  54   2.0000     -10.262031      -279.2441
  55   2.0000     -10.261141      -279.2198
  56   2.0000     -10.260587      -279.2048
  57   2.0000     -10.260564      -279.2041
  58   2.0000     -10.259082      -279.1638
  59   2.0000     -10.258186      -279.1394
  60   2.0000     -10.256244      -279.0866
  61   2.0000     -10.256018      -279.0804
  62   2.0000     -10.253935      -279.0237
  63   2.0000     -10.250017      -278.9171
  64   2.0000     -10.247341      -278.8443
  65   2.0000     -10.232700      -278.4459
  66   2.0000      -8.043502      -218.8748
  67   2.0000      -8.034630      -218.6334
  68   2.0000      -8.033536      -218.6036
  69   2.0000      -8.027519      -218.4399
  70   2.0000      -7.996748      -217.6026
  71   2.0000      -6.012514      -163.6088
  72   2.0000      -6.008752      -163.5065
  73   2.0000      -6.005766      -163.4252
  74   2.0000      -6.003960      -163.3761
  75   2.0000      -6.002867      -163.3463
  76   2.0000      -5.999877      -163.2650
  77   2.0000      -5.998808      -163.2359
  78   2.0000      -5.996700      -163.1785
  79   2.0000      -5.996538      -163.1741
  80   2.0000      -5.995615      -163.1490
  81   2.0000      -5.992752      -163.0711
  82   2.0000      -5.989774      -162.9900
  83   2.0000      -5.967183      -162.3753
  84   2.0000      -5.963476      -162.2744
  85   2.0000      -5.955910      -162.0685
  86   2.0000      -1.377253       -37.4770
  87   2.0000      -1.376809       -37.4649
  88   2.0000      -1.280594       -34.8467
  89   2.0000      -1.279978       -34.8300
  90   2.0000      -1.276371       -34.7318
  91   2.0000      -1.276204       -34.7273
  92   2.0000      -1.148131       -31.2422
  93   2.0000      -1.108036       -30.1512
  94   2.0000      -1.056438       -28.7471
  95   2.0000      -1.046174       -28.4678
  96   2.0000      -0.985784       -26.8245
  97   2.0000      -0.969817       -26.3901
  98   2.0000      -0.965878       -26.2829
  99   2.0000      -0.945170       -25.7194
 100   2.0000      -0.932565       -25.3764
 101   2.0000      -0.927135       -25.2286
 102   2.0000      -0.922549       -25.1038
 103   2.0000      -0.900584       -24.5061
 104   2.0000      -0.897964       -24.4348
 105   2.0000      -0.890860       -24.2415
 106   2.0000      -0.884065       -24.0566
 107   2.0000      -0.871763       -23.7219
 108   2.0000      -0.859865       -23.3981
 109   2.0000      -0.851442       -23.1689
 110   2.0000      -0.848392       -23.0859
 111   2.0000      -0.841981       -22.9115
 112   2.0000      -0.840288       -22.8654
 113   2.0000      -0.833795       -22.6887
 114   2.0000      -0.828191       -22.5362
 115   2.0000      -0.826457       -22.4890
 116   2.0000      -0.824231       -22.4285
 117   2.0000      -0.821762       -22.3613
 118   2.0000      -0.811504       -22.0821
 119   2.0000      -0.800551       -21.7841
 120   2.0000      -0.787298       -21.4235
 121   2.0000      -0.785220       -21.3669
 122   2.0000      -0.773575       -21.0501
 123   2.0000      -0.770489       -20.9661
 124   2.0000      -0.764089       -20.7919
 125   2.0000      -0.756953       -20.5977
 126   2.0000      -0.753658       -20.5081
 127   2.0000      -0.739626       -20.1263
 128   2.0000      -0.721429       -19.6311
 129   2.0000      -0.718782       -19.5590
 130   2.0000      -0.717664       -19.5286
 131   2.0000      -0.712131       -19.3781
 132   2.0000      -0.702899       -19.1268
 133   2.0000      -0.702020       -19.1029
 134   2.0000      -0.693767       -18.8784
 135   2.0000      -0.691386       -18.8136
 136   2.0000      -0.686597       -18.6833
 137   2.0000      -0.682685       -18.5768
 138   2.0000      -0.670863       -18.2551
 139   2.0000      -0.664720       -18.0879
 140   2.0000      -0.662585       -18.0299
 141   2.0000      -0.661613       -18.0034
 142   2.0000      -0.658604       -17.9215
 143   2.0000      -0.658386       -17.9156
 144   2.0000      -0.657646       -17.8955
 145   2.0000      -0.646594       -17.5947
 146   2.0000      -0.637540       -17.3483
 147   2.0000      -0.634961       -17.2782
 148   2.0000      -0.630150       -17.1473
 149   2.0000      -0.619125       -16.8472
 150   2.0000      -0.615923       -16.7601
 151   2.0000      -0.614515       -16.7218
 152   2.0000      -0.611460       -16.6387
 153   2.0000      -0.605034       -16.4638
 154   2.0000      -0.591318       -16.0906
 155   2.0000      -0.587063       -15.9748
 156   2.0000      -0.585842       -15.9416
 157   2.0000      -0.584111       -15.8945
 158   2.0000      -0.574160       -15.6237
 159   2.0000      -0.570130       -15.5140
 160   2.0000      -0.566094       -15.4042
 161   2.0000      -0.558237       -15.1904
 162   2.0000      -0.552242       -15.0273
 163   2.0000      -0.552124       -15.0241
 164   2.0000      -0.551005       -14.9936
 165   2.0000      -0.542866       -14.7721
 166   2.0000      -0.541945       -14.7471
 167   2.0000      -0.540523       -14.7084
 168   2.0000      -0.540034       -14.6951
 169   2.0000      -0.539170       -14.6716
 170   2.0000      -0.538705       -14.6589
 171   2.0000      -0.537899       -14.6370
 172   2.0000      -0.536742       -14.6055
 173   2.0000      -0.534281       -14.5385
 174   2.0000      -0.532600       -14.4928
 175   2.0000      -0.528041       -14.3687
 176   2.0000      -0.523471       -14.2444
 177   2.0000      -0.520639       -14.1673
 178   2.0000      -0.519785       -14.1441
 179   2.0000      -0.518021       -14.0961
 180   2.0000      -0.515442       -14.0259
 181   2.0000      -0.512674       -13.9506
 182   2.0000      -0.511344       -13.9144
 183   2.0000      -0.506986       -13.7958
 184   2.0000      -0.506032       -13.7698
 185   2.0000      -0.504631       -13.7317
 186   2.0000      -0.502795       -13.6818
 187   2.0000      -0.496684       -13.5155
 188   2.0000      -0.495139       -13.4734
 189   2.0000      -0.493877       -13.4391
 190   2.0000      -0.491224       -13.3669
 191   2.0000      -0.488683       -13.2977
 192   2.0000      -0.487634       -13.2692
 193   2.0000      -0.485287       -13.2053
 194   2.0000      -0.484466       -13.1830
 195   2.0000      -0.484122       -13.1736
 196   2.0000      -0.482486       -13.1291
 197   2.0000      -0.478956       -13.0330
 198   2.0000      -0.477846       -13.0029
 199   2.0000      -0.475769       -12.9463
 200   2.0000      -0.474188       -12.9033
 201   2.0000      -0.473260       -12.8780
 202   2.0000      -0.471537       -12.8312
 203   2.0000      -0.470399       -12.8002
 204   2.0000      -0.467598       -12.7240
 205   2.0000      -0.465362       -12.6631
 206   2.0000      -0.464535       -12.6407
 207   2.0000      -0.463843       -12.6218
 208   2.0000      -0.461825       -12.5669
 209   2.0000      -0.459527       -12.5044
 210   2.0000      -0.456906       -12.4330
 211   2.0000      -0.454784       -12.3753
 212   2.0000      -0.448772       -12.2117
 213   2.0000      -0.446501       -12.1499
 214   2.0000      -0.444982       -12.1086
 215   2.0000      -0.441911       -12.0250
 216   2.0000      -0.438276       -11.9261
 217   2.0000      -0.437993       -11.9184
 218   2.0000      -0.433983       -11.8093
 219   2.0000      -0.431074       -11.7301
 220   2.0000      -0.426799       -11.6138
 221   2.0000      -0.425746       -11.5851
 222   2.0000      -0.419726       -11.4213
 223   2.0000      -0.419460       -11.4141
 224   2.0000      -0.417258       -11.3542
 225   2.0000      -0.416175       -11.3247
 226   2.0000      -0.412316       -11.2197
 227   2.0000      -0.412138       -11.2148
 228   2.0000      -0.411134       -11.1875
 229   2.0000      -0.409257       -11.1364
 230   2.0000      -0.401931       -10.9371
 231   2.0000      -0.399640       -10.8748
 232   2.0000      -0.397842       -10.8258
 233   2.0000      -0.397474       -10.8158
 234   2.0000      -0.396022       -10.7763
 235   2.0000      -0.395179       -10.7534
 236   2.0000      -0.394135       -10.7250
 237   2.0000      -0.390630       -10.6296
 238   2.0000      -0.387175       -10.5356
 239   2.0000      -0.384524       -10.4634
 240   2.0000      -0.381005       -10.3677
 241   2.0000      -0.378864       -10.3094
 242   2.0000      -0.378247       -10.2926
 243   2.0000      -0.374132       -10.1806
 244   2.0000      -0.370296       -10.0763
 245   2.0000      -0.365194        -9.9374
 246   2.0000      -0.355874        -9.6838
 247   2.0000      -0.339172        -9.2293
 248   2.0000      -0.328825        -8.9478
 249   2.0000      -0.320889        -8.7318
 250   2.0000      -0.315008        -8.5718
 251   2.0000      -0.308433        -8.3929
 252   2.0000      -0.300808        -8.1854
 253   2.0000      -0.298733        -8.1289
 254   2.0000      -0.294544        -8.0149
 255   2.0000      -0.293247        -7.9796
 256   2.0000      -0.292075        -7.9478
 257   2.0000      -0.280866        -7.6428
 258   2.0000      -0.263627        -7.1736
 259   2.0000      -0.246111        -6.6970
 260   2.0000      -0.218347        -5.9415
 261   0.0000      -0.035191        -0.9576
 262   0.0000      -0.029384        -0.7996
 263   0.0000       0.004715         0.1283
 264   0.0000       0.041233         1.1220
 265   0.0000       0.045826         1.2470

MULLIKEN ATOMIC CHARGES
-----------------------
   0 C :   -0.028081
   1 C :   -0.001563
   2 C :   -0.106222
   3 S :    0.065988
   4 C :   -0.109286
   5 C :   -0.108915
   6 S :    0.064338
   7 C :   -0.084386
   8 C :   -0.014214
   9 C :    0.035311
  10 C :   -0.132385
  11 S :    0.109568
  12 C :   -0.173416
  13 N :   -0.265214
  14 C :    0.090743
  15 S :   -0.062547
  16 C :   -0.147817
  17 C :   -0.044428
  18 S :    0.107171
  19 C :   -0.105133
  20 C :    0.066564
  21 C :    0.011729
  22 C :    0.035312
  23 C :   -0.029030
  24 C :    0.027249
  25 C :    0.030444
  26 C :   -0.088434
  27 C :    0.207932
  28 O :   -0.311219
  29 C :    0.179798
  30 N :   -0.038738
  31 C :   -0.017908
  32 C :   -0.194434
  33 C :    0.040914
  34 C :    0.039890
  35 C :    0.108730
  36 C :    0.026980
  37 C :    0.127843
  38 C :   -0.025966
  39 C :   -0.058122
  40 C :    0.080556
  41 C :    0.063795
  42 C :   -0.165648
  43 C :    0.478086
  44 F :   -0.170738
  45 F :   -0.152324
  46 F :   -0.172081
  47 C :    0.155466
  48 C :   -0.082129
  49 C :   -0.090046
  50 C :    0.127319
  51 C :    0.111845
  52 O :   -0.380796
  53 C :    0.189700
  54 C :    0.060353
  55 C :    0.135662
  56 C :   -0.098764
  57 C :   -0.052375
  58 C :    0.091234
  59 C :    0.059522
  60 C :   -0.140758
  61 C :    0.476562
  62 F :   -0.170640
  63 F :   -0.158711
  64 F :   -0.170758
  65 C :    0.128760
  66 H :    0.019856
  67 H :    0.017205
  68 H :   -0.012160
  69 H :   -0.036104
  70 H :   -0.015540
  71 H :    0.063475
  72 H :    0.060695
  73 H :    0.049645
  74 H :   -0.024350
  75 H :    0.014295
  76 H :   -0.024838
  77 H :   -0.020838
  78 H :   -0.014859
  79 H :   -0.031765
  80 H :    0.023603
  81 H :    0.038765
  82 H :    0.023371
  83 H :   -0.008961
  84 H :    0.013409
  85 H :    0.008386
  86 H :    0.011596
  87 H :    0.013193
  88 H :   -0.023420
  89 H :   -0.011551
  90 H :    0.032410
  91 H :   -0.000695
  92 H :   -0.001821
  93 H :    0.020776
  94 H :    0.029920
  95 H :    0.031478
  96 H :    0.014084
  97 H :    0.007513
  98 H :    0.028165
  99 H :    0.035372
 100 H :    0.018604
 101 H :    0.021213
 102 H :    0.015723
 103 H :   -0.017613
 104 H :    0.025716
 105 H :   -0.004311
 106 H :    0.012619
 107 H :    0.001536
 108 H :   -0.001614
 109 H :    0.012684
 110 H :    0.027305
 111 H :    0.031866
 112 H :    0.018040
 113 H :    0.014992
 114 H :    0.013713
 115 H :    0.028371
 116 H :    0.036372
 117 H :    0.032330
Sum of atomic charges:   -0.0000000

LOEWDIN ATOMIC CHARGES
----------------------
   0 C :   -0.057850
   1 C :   -0.037576
   2 C :   -0.186575
   3 S :    0.447939
   4 C :   -0.177835
   5 C :   -0.185282
   6 S :    0.441892
   7 C :   -0.177649
   8 C :   -0.044846
   9 C :   -0.049856
  10 C :   -0.176041
  11 S :    0.406011
  12 C :   -0.157317
  13 N :   -0.085757
  14 C :   -0.060671
  15 S :    0.188300
  16 C :   -0.135849
  17 C :   -0.231672
  18 S :    0.400314
  19 C :   -0.110549
  20 C :   -0.068930
  21 C :    0.023590
  22 C :   -0.056464
  23 C :   -0.000203
  24 C :   -0.045803
  25 C :   -0.009645
  26 C :   -0.077422
  27 C :    0.068315
  28 O :   -0.097651
  29 C :    0.077381
  30 N :   -0.096811
  31 C :   -0.036033
  32 C :   -0.046447
  33 C :   -0.021565
  34 C :   -0.058461
  35 C :   -0.022571
  36 C :   -0.061137
  37 C :    0.050272
  38 C :   -0.075056
  39 C :   -0.063588
  40 C :   -0.031764
  41 C :   -0.020630
  42 C :   -0.067288
  43 C :    0.163310
  44 F :   -0.069533
  45 F :   -0.048551
  46 F :   -0.070731
  47 C :   -0.016120
  48 C :   -0.050822
  49 C :   -0.060006
  50 C :   -0.052970
  51 C :    0.069403
  52 O :   -0.170080
  53 C :    0.067548
  54 C :   -0.029222
  55 C :   -0.025904
  56 C :   -0.071432
  57 C :   -0.055185
  58 C :   -0.031703
  59 C :   -0.019440
  60 C :   -0.064127
  61 C :    0.164069
  62 F :   -0.068072
  63 F :   -0.052902
  64 F :   -0.068481
  65 C :   -0.033630
  66 H :    0.024403
  67 H :    0.015267
  68 H :    0.031585
  69 H :    0.027696
  70 H :    0.018990
  71 H :    0.028030
  72 H :    0.012470
  73 H :    0.027731
  74 H :    0.021874
  75 H :    0.035654
  76 H :    0.027115
  77 H :    0.026734
  78 H :    0.028637
  79 H :    0.027023
  80 H :    0.015462
  81 H :    0.029813
  82 H :    0.015284
  83 H :    0.019484
  84 H :    0.026291
  85 H :    0.019114
  86 H :    0.027406
  87 H :    0.020611
  88 H :    0.019653
  89 H :    0.016618
  90 H :    0.024714
  91 H :    0.021309
  92 H :    0.015746
  93 H :    0.027363
  94 H :    0.033757
  95 H :    0.031854
  96 H :    0.028172
  97 H :    0.028568
  98 H :    0.043295
  99 H :    0.034871
 100 H :    0.034427
 101 H :    0.030324
 102 H :    0.020382
 103 H :    0.006605
 104 H :    0.023362
 105 H :    0.005223
 106 H :    0.007237
 107 H :    0.024965
 108 H :    0.025548
 109 H :    0.027423
 110 H :    0.037771
 111 H :    0.032101
 112 H :    0.033172
 113 H :    0.028024
 114 H :    0.029931
 115 H :    0.044293
 116 H :    0.027458
 117 H :    0.032518

  Mayer bond orders larger than 0.100000
B(  0-C ,  1-C ) :   1.9169 B(  0-C , 66-H ) :   0.9484 B(  0-C , 67-H ) :   0.9550
B(  1-C ,  2-C ) :   1.1280 B(  1-C , 68-H ) :   0.9574 B(  2-C ,  3-S ) :   1.0862
B(  2-C ,  4-C ) :   0.1005 B(  2-C , 57-C ) :   1.5269 B(  3-S ,  4-C ) :   1.1238
B(  4-C ,  5-C ) :   1.1298 B(  4-C , 56-C ) :   1.5181 B(  5-C ,  6-S ) :   1.1115
B(  5-C ,  7-C ) :   0.1034 B(  5-C , 49-C ) :   1.5054 B(  6-S ,  7-C ) :   1.0880
B(  7-C ,  8-C ) :   1.1532 B(  7-C , 48-C ) :   1.5016 B(  8-C ,  9-C ) :   1.6824
B(  8-C , 69-H ) :   0.9618 B(  9-C , 10-C ) :   1.1163 B(  9-C , 70-H ) :   0.9476
B( 10-C , 11-S ) :   1.0938 B( 10-C , 12-C ) :   0.1045 B( 10-C , 39-C ) :   1.5455
B( 11-S , 12-C ) :   1.0946 B( 12-C , 13-N ) :   1.0838 B( 12-C , 38-C ) :   1.5953
B( 13-N , 14-C ) :   1.0067 B( 13-N , 37-C ) :   1.0373 B( 14-C , 15-S ) :   0.9746
B( 14-C , 71-H ) :   0.9537 B( 14-C , 72-H ) :   0.9454 B( 15-S , 16-C ) :   1.0732
B( 16-C , 17-C ) :   0.9405 B( 16-C , 37-C ) :   1.0003 B( 16-C , 73-H ) :   0.8997
B( 17-C , 18-S ) :   1.1032 B( 17-C , 31-C ) :   1.6065 B( 18-S , 19-C ) :   1.0928
B( 19-C , 20-C ) :   1.0866 B( 19-C , 30-N ) :   1.6888 B( 20-C , 21-C ) :   1.7133
B( 20-C , 74-H ) :   0.9423 B( 21-C , 22-C ) :   1.0782 B( 21-C , 75-H ) :   0.9839
B( 22-C , 23-C ) :   1.3743 B( 22-C , 27-C ) :   1.3183 B( 23-C , 24-C ) :   1.3888
B( 23-C , 76-H ) :   0.9906 B( 24-C , 25-C ) :   1.3784 B( 24-C , 77-H ) :   0.9899
B( 25-C , 26-C ) :   1.3580 B( 25-C , 78-H ) :   0.9902 B( 26-C , 27-C ) :   1.3309
B( 26-C , 79-H ) :   0.9955 B( 27-C , 28-O ) :   1.1628 B( 28-O , 29-C ) :   0.9631
B( 29-C , 80-H ) :   0.9690 B( 29-C , 81-H ) :   0.9789 B( 29-C , 82-H ) :   0.9690
B( 30-N , 31-C ) :   1.3586 B( 31-C , 32-C ) :   0.9568 B( 32-C , 33-C ) :   1.0363
B( 32-C , 35-C ) :   1.0732 B( 32-C , 37-C ) :   0.9426 B( 33-C , 34-C ) :   1.1110
B( 33-C , 83-H ) :   0.9362 B( 33-C , 84-H ) :   0.9350 B( 34-C , 85-H ) :   0.9594
B( 34-C , 86-H ) :   0.9575 B( 34-C , 87-H ) :   0.9584 B( 35-C , 36-C ) :   1.1040
B( 35-C , 88-H ) :   0.9162 B( 35-C , 89-H ) :   0.9253 B( 36-C , 90-H ) :   0.9535
B( 36-C , 91-H ) :   0.9594 B( 36-C , 92-H ) :   0.9588 B( 37-C , 93-H ) :   0.8924
B( 38-C , 39-C ) :   1.2648 B( 38-C , 47-C ) :   1.0441 B( 39-C , 40-C ) :   1.0547
B( 40-C , 41-C ) :   1.0818 B( 40-C , 94-H ) :   0.9105 B( 40-C , 95-H ) :   0.9050
B( 41-C , 42-C ) :   1.0394 B( 41-C , 96-H ) :   0.9317 B( 41-C , 97-H ) :   0.9377
B( 42-C , 43-C ) :   0.9799 B( 42-C , 47-C ) :   1.0326 B( 42-C , 98-H ) :   0.9023
B( 43-C , 44-F ) :   1.1429 B( 43-C , 45-F ) :   1.1489 B( 43-C , 46-F ) :   1.1391
B( 47-C , 99-H ) :   0.9111 B( 47-C ,100-H ) :   0.8990 B( 48-C , 49-C ) :   1.3193
B( 48-C , 55-C ) :   1.0530 B( 49-C , 50-C ) :   1.0352 B( 50-C , 51-C ) :   1.0367
B( 50-C ,101-H ) :   0.8988 B( 50-C ,102-H ) :   0.9000 B( 51-C , 52-O ) :   1.0188
B( 51-C , 54-C ) :   1.0485 B( 51-C ,103-H ) :   0.9241 B( 52-O , 53-C ) :   0.9989
B( 53-C ,104-H ) :   0.9811 B( 53-C ,105-H ) :   0.9635 B( 53-C ,106-H ) :   0.9667
B( 54-C , 55-C ) :   1.0873 B( 54-C ,107-H ) :   0.9415 B( 54-C ,108-H ) :   0.9243
B( 55-C ,109-H ) :   0.9140 B( 55-C ,110-H ) :   0.8993 B( 56-C , 57-C ) :   1.3002
B( 56-C , 65-C ) :   1.0527 B( 57-C , 58-C ) :   1.0467 B( 58-C , 59-C ) :   1.0894
B( 58-C ,111-H ) :   0.9059 B( 58-C ,112-H ) :   0.9119 B( 59-C , 60-C ) :   1.0413
B( 59-C ,113-H ) :   0.9317 B( 59-C ,114-H ) :   0.9423 B( 60-C , 61-C ) :   0.9842
B( 60-C , 65-C ) :   1.0253 B( 60-C ,115-H ) :   0.8991 B( 61-C , 62-F ) :   1.1401
B( 61-C , 63-F ) :   1.1384 B( 61-C , 64-F ) :   1.1406 B( 65-C ,116-H ) :   0.9056
B( 65-C ,117-H ) :   0.8997

-----------------------------------------------------------------------------
         ABSORPTION SPECTRUM VIA TRANSITION ELECTRIC DIPOLE MOMENTS
-----------------------------------------------------------------------------
State   Energy  Wavelength   fosc         T2         TX        TY        TZ
        (cm-1)    (nm)                  (au**2)     (au)      (au)      (au)
-----------------------------------------------------------------------------
   0   24504.7    408.1   1.658693450  22.28398  -0.62399   3.59507  -2.99501
   1   30158.9    331.6   1.050123306  11.46306   0.04141   1.69174  -2.93247
   2   32118.6    311.3   0.004632163   0.04748  -0.16968  -0.08448  -0.10747
   3   32543.0    307.3   0.000906069   0.00917   0.00142   0.00180   0.09571
   4   35234.1    283.8   0.144836129   1.35328  -0.74695  -0.60914  -0.65138
   5   36637.0    272.9   0.001071371   0.00963   0.09361  -0.02744  -0.01059
   6   36803.6    271.7   0.054005995   0.48309   0.13664  -0.07264  -0.67760
   7   37835.9    264.3   0.051805555   0.45076  -0.09617   0.16443  -0.64380
   8   39673.4    252.1   0.100274689   0.83209  -0.37052  -0.31522  -0.77164
   9   39910.0    250.6   0.013751798   0.11344  -0.18949   0.26909   0.07156

FINAL SINGLE POINT ENERGY     -4820.674099460894

DIPOLE MOMENT
-------------
                                X             Y             Z
Electronic contribution:     24.09685      56.95491     -11.77957
Nuclear contribution   :    -24.54538     -58.41909      12.03384
                        -----------------------------------------
Total Dipole Moment    :     -0.44853      -1.46418       0.25427
                        -----------------------------------------
Magnitude (a.u.)       :      1.55230
Magnitude (Debye)      :      3.94564

Rotational constants in cm-1:     0.001583     0.000326     0.000292
Rotational constants in MHz :    47.461048     9.773777     8.744949

                             ****ORCA TERMINATED NORMALLY****
TOTAL RUN TIME: 0 days 0 hours 11 minutes 30 seconds 772 msec
