                         Program Version 4.2.0 -  RELEASE  -
|  1> # ORCA input file
|  2> # SCF done       -189.347526976442          0.000527665197
|  3> ! CAM-B3LYP def2-SVP def2/J RIJCOSX Grid4 TightSCF
|  4> %maxcore 5000
|  5> %tddft
|  6>     Mode sTDDFT
|  7>     Ethresh 5.0
|  8>     maxcore 5000
|  9> end
| 10>
| 11> %pal
| 12>   nprocs 6
| 13>   end
| 14> * xyz 0 1
| 15>    C        2.77398        -7.63766        -1.23998
| 16>    O        3.28434        -6.56788        -0.99334
| 17>    C        3.19962        -8.96509        -0.75864
| 18>    C        2.63704        -9.96196        -1.57562
| 19>    C        2.86650       -11.29742        -1.28554
| 20>    C        3.64153       -11.61063        -0.17583
| 21>    C        4.20466       -10.61212         0.62177
| 22>    C        3.99879        -9.27335         0.32098
| 23>   Br        5.23661       -11.06739         2.12897
| 24>   Br        3.92624       -13.42700         0.24856
| 25>    C        1.82951        -9.33213        -2.61812
| 26>    C        1.25712        -9.96217        -3.68848
| 27>    C        1.39309       -11.34188        -3.95598
| 28>    N        1.47867       -12.45439        -4.22115
| 29>    C        0.49497        -9.30261        -4.67681
| 30>    N       -0.13431        -8.81049        -5.50027
| 31>    C        1.73357        -7.92491        -2.27759
| 32>    C        0.84374        -6.99679        -2.72959
| 33>    C        0.55248        -5.85583        -1.94293
| 34>    C        0.61123        -5.86603        -0.53898
| 35>    C        0.21453        -4.62084         0.05460
| 36>    N        0.27513        -4.45523         1.37946
| 37>    C        0.69922        -5.47001         2.09616
| 38>    C        0.79193        -5.27011         3.56886
| 39>    O        0.47976        -4.23097         4.10419
| 40>    C        1.27196        -6.44052         4.32785
| 41>    C        1.53791        -7.62863         3.77499
| 42>    C        1.40282        -7.90357         2.33566
| 43>    O        1.64851        -8.98983         1.85107
| 44>    C        0.99713        -6.73963         1.50911
| 45>    N        0.93132        -6.91868         0.20952
| 46>    C       -0.18242        -3.68601        -0.90773
| 47>    S       -0.05845        -4.34439        -2.50173
| 48>    C       -0.59672        -2.33261        -0.74122
| 49>    C       -0.68581        -1.69566         0.51466
| 50>    N       -1.06813        -0.44805         0.61182
| 51>    C       -1.36867         0.21855        -0.51520
| 52>    C       -1.28080        -0.41891        -1.77109
| 53>    N       -0.90513        -1.66836        -1.86758
| 54>    C       -1.76762         1.57724        -0.35369
| 55>    C       -2.12029         2.52061        -1.32511
| 56>    C       -2.40711         3.80315        -0.74841
| 57>    N       -2.85498         4.81182        -1.49189
| 58>    C       -2.90064         4.63175        -2.79217
| 59>    C       -3.35266         5.77643        -3.62154
| 60>    O       -3.69156         6.83660        -3.13540
| 61>    C       -3.30594         5.54934        -5.07477
| 62>    C       -2.93777         4.38972        -5.62951
| 63>    C       -2.55581         3.19346        -4.85535
| 64>    O       -2.30878         2.13103        -5.37886
| 65>    C       -2.51815         3.38502        -3.37915
| 66>    N       -2.18170         2.34736        -2.64894
| 67>    C       -2.23177         3.83732         0.64543
| 68>    S       -1.79059         2.27621         1.22763
| 69>    C       -2.51632         4.98560         1.42363
| 70>    C       -2.38746         6.22678         0.87496
| 71>    C       -1.53913         6.51685        -0.32413
| 72>    O       -0.56051         5.90629        -0.69206
| 73>    C       -2.01214         7.82632        -0.81029
| 74>    C       -2.90450         8.37883         0.12568
| 75>    C       -3.05040         7.46064         1.25325
| 76>    C       -3.71307         7.71541         2.42222
| 77>    C       -3.81798         6.79439         3.48677
| 78>    N       -3.93319         6.07828         4.37569
| 79>    C       -4.33961         8.94483         2.72139
| 80>    N       -4.85857         9.92473         3.01499
| 81>    C       -3.51024         9.59660        -0.13975
| 82>    C       -3.22441        10.23076        -1.34242
| 83>    C       -2.32895         9.67732        -2.26009
| 84>    C       -1.69992         8.47099        -1.98767
| 85>   Br       -1.97556        10.55079        -3.88990
| 86>   Br       -4.07466        11.87044        -1.72818
| 87>    H        2.44906       -12.09475        -1.87953
| 88>    H        4.43347        -8.49490         0.92824
| 89>    H        0.26855        -7.15370        -3.63154
| 90>    H        1.38631        -6.27812         5.39111
| 91>    H        1.87626        -8.46479         4.37221
| 92>    H       -0.44086        -2.21566         1.42925
| 93>    H       -1.51840         0.10320        -2.68637
| 94>    H       -3.59147         6.39836        -5.68138
| 95>    H       -2.91437         4.26378        -6.70355
| 96>    H       -2.93147         4.84152         2.41147
| 97>    H       -4.20579        10.05425         0.54545
| 98>    H       -1.00269         8.03814        -2.68780
| 99> *
|100>
|101>                          ****END OF INPUT****

CARTESIAN COORDINATES (ANGSTROEM)
---------------------------------
  C      2.773980   -7.637660   -1.239980
  O      3.284340   -6.567880   -0.993340
  C      3.199620   -8.965090   -0.758640
  C      2.637040   -9.961960   -1.575620
  C      2.866500  -11.297420   -1.285540
  C      3.641530  -11.610630   -0.175830
  C      4.204660  -10.612120    0.621770
  C      3.998790   -9.273350    0.320980
  Br     5.236610  -11.067390    2.128970
  Br     3.926240  -13.427000    0.248560
  C      1.829510   -9.332130   -2.618120
  C      1.257120   -9.962170   -3.688480
  C      1.393090  -11.341880   -3.955980
  N      1.478670  -12.454390   -4.221150
  C      0.494970   -9.302610   -4.676810
  N     -0.134310   -8.810490   -5.500270
  C      1.733570   -7.924910   -2.277590
  C      0.843740   -6.996790   -2.729590
  C      0.552480   -5.855830   -1.942930
  C      0.611230   -5.866030   -0.538980
  C      0.214530   -4.620840    0.054600
  N      0.275130   -4.455230    1.379460
  C      0.699220   -5.470010    2.096160
  C      0.791930   -5.270110    3.568860
  O      0.479760   -4.230970    4.104190
  C      1.271960   -6.440520    4.327850
  C      1.537910   -7.628630    3.774990
  C      1.402820   -7.903570    2.335660
  O      1.648510   -8.989830    1.851070
  C      0.997130   -6.739630    1.509110
  N      0.931320   -6.918680    0.209520
  C     -0.182420   -3.686010   -0.907730
  S     -0.058450   -4.344390   -2.501730
  C     -0.596720   -2.332610   -0.741220
  C     -0.685810   -1.695660    0.514660
  N     -1.068130   -0.448050    0.611820
  C     -1.368670    0.218550   -0.515200
  C     -1.280800   -0.418910   -1.771090
  N     -0.905130   -1.668360   -1.867580
  C     -1.767620    1.577240   -0.353690
  C     -2.120290    2.520610   -1.325110
  C     -2.407110    3.803150   -0.748410
  N     -2.854980    4.811820   -1.491890
  C     -2.900640    4.631750   -2.792170
  C     -3.352660    5.776430   -3.621540
  O     -3.691560    6.836600   -3.135400
  C     -3.305940    5.549340   -5.074770
  C     -2.937770    4.389720   -5.629510
  C     -2.555810    3.193460   -4.855350
  O     -2.308780    2.131030   -5.378860
  C     -2.518150    3.385020   -3.379150
  N     -2.181700    2.347360   -2.648940
  C     -2.231770    3.837320    0.645430
  S     -1.790590    2.276210    1.227630
  C     -2.516320    4.985600    1.423630
  C     -2.387460    6.226780    0.874960
  C     -1.539130    6.516850   -0.324130
  O     -0.560510    5.906290   -0.692060
  C     -2.012140    7.826320   -0.810290
  C     -2.904500    8.378830    0.125680
  C     -3.050400    7.460640    1.253250
  C     -3.713070    7.715410    2.422220
  C     -3.817980    6.794390    3.486770
  N     -3.933190    6.078280    4.375690
  C     -4.339610    8.944830    2.721390
  N     -4.858570    9.924730    3.014990
  C     -3.510240    9.596600   -0.139750
  C     -3.224410   10.230760   -1.342420
  C     -2.328950    9.677320   -2.260090
  C     -1.699920    8.470990   -1.987670
  Br    -1.975560   10.550790   -3.889900
  Br    -4.074660   11.870440   -1.728180
  H      2.449060  -12.094750   -1.879530
  H      4.433470   -8.494900    0.928240
  H      0.268550   -7.153700   -3.631540
  H      1.386310   -6.278120    5.391110
  H      1.876260   -8.464790    4.372210
  H     -0.440860   -2.215660    1.429250
  H     -1.518400    0.103200   -2.686370
  H     -3.591470    6.398360   -5.681380
  H     -2.914370    4.263780   -6.703550
  H     -2.931470    4.841520    2.411470
  H     -4.205790   10.054250    0.545450
  H     -1.002690    8.038140   -2.687800

 Total Charge           Charge          ....    0
 Multiplicity           Mult            ....    1
 Number of Electrons    NEL             ....  602
 Basis Dimension        Dim             .... 1148

ORBITAL ENERGIES
----------------

  NO   OCC          E(Eh)            E(eV)
   0   2.0000    -482.878150    -13139.7825
   1   2.0000    -482.878094    -13139.7810
   2   2.0000    -482.875248    -13139.7035
   3   2.0000    -482.875240    -13139.7033
   4   2.0000     -89.014074     -2422.1961
   5   2.0000     -89.013871     -2422.1906
   6   2.0000     -62.555828     -1702.2306
   7   2.0000     -62.555770     -1702.2290
   8   2.0000     -62.552884     -1702.1505
   9   2.0000     -62.552878     -1702.1504
  10   2.0000     -56.389758     -1534.4433
  11   2.0000     -56.389702     -1534.4418
  12   2.0000     -56.387144     -1534.3722
  13   2.0000     -56.387085     -1534.3706
  14   2.0000     -56.387040     -1534.3694
  15   2.0000     -56.386983     -1534.3678
  16   2.0000     -56.386843     -1534.3640
  17   2.0000     -56.386836     -1534.3638
  18   2.0000     -56.384181     -1534.2916
  19   2.0000     -56.384176     -1534.2914
  20   2.0000     -56.384082     -1534.2889
  21   2.0000     -56.384075     -1534.2887
  22   2.0000     -19.246620      -523.7272
  23   2.0000     -19.246520      -523.7244
  24   2.0000     -19.243403      -523.6396
  25   2.0000     -19.243309      -523.6371
  26   2.0000     -19.221430      -523.0417
  27   2.0000     -19.221402      -523.0409
  28   2.0000     -14.467332      -393.6761
  29   2.0000     -14.467226      -393.6732
  30   2.0000     -14.465089      -393.6151
  31   2.0000     -14.465004      -393.6128
  32   2.0000     -14.446002      -393.0957
  33   2.0000     -14.445858      -393.0918
  34   2.0000     -14.426316      -392.5600
  35   2.0000     -14.426315      -392.5600
  36   2.0000     -14.422857      -392.4659
  37   2.0000     -14.422854      -392.4658
  38   2.0000     -10.394995      -282.8622
  39   2.0000     -10.394906      -282.8598
  40   2.0000     -10.391934      -282.7789
  41   2.0000     -10.391860      -282.7769
  42   2.0000     -10.379776      -282.4481
  43   2.0000     -10.379750      -282.4474
  44   2.0000     -10.359467      -281.8954
  45   2.0000     -10.359350      -281.8922
  46   2.0000     -10.358278      -281.8631
  47   2.0000     -10.358173      -281.8602
  48   2.0000     -10.354342      -281.7560
  49   2.0000     -10.354293      -281.7546
  50   2.0000     -10.352951      -281.7181
  51   2.0000     -10.352899      -281.7167
  52   2.0000     -10.352851      -281.7154
  53   2.0000     -10.352801      -281.7140
  54   2.0000     -10.352581      -281.7080
  55   2.0000     -10.352530      -281.7067
  56   2.0000     -10.351785      -281.6864
  57   2.0000     -10.351721      -281.6846
  58   2.0000     -10.350968      -281.6642
  59   2.0000     -10.350952      -281.6637
  60   2.0000     -10.349559      -281.6258
  61   2.0000     -10.349422      -281.6221
  62   2.0000     -10.346120      -281.5323
  63   2.0000     -10.345962      -281.5279
  64   2.0000     -10.342931      -281.4455
  65   2.0000     -10.342809      -281.4421
  66   2.0000     -10.334025      -281.2031
  67   2.0000     -10.333889      -281.1994
  68   2.0000     -10.331448      -281.1330
  69   2.0000     -10.331353      -281.1304
  70   2.0000     -10.328014      -281.0395
  71   2.0000     -10.327982      -281.0387
  72   2.0000     -10.324771      -280.9513
  73   2.0000     -10.324757      -280.9509
  74   2.0000     -10.324751      -280.9508
  75   2.0000     -10.324710      -280.9496
  76   2.0000     -10.323909      -280.9279
  77   2.0000     -10.323864      -280.9266
  78   2.0000     -10.318643      -280.7845
  79   2.0000     -10.318622      -280.7840
  80   2.0000     -10.315816      -280.7076
  81   2.0000     -10.315788      -280.7069
  82   2.0000     -10.311426      -280.5882
  83   2.0000     -10.311396      -280.5873
  84   2.0000     -10.310849      -280.5725
  85   2.0000     -10.310801      -280.5712
  86   2.0000     -10.302906      -280.3563
  87   2.0000     -10.302865      -280.3552
  88   2.0000      -8.785189      -239.0572
  89   2.0000      -8.785126      -239.0554
  90   2.0000      -8.782221      -238.9764
  91   2.0000      -8.782219      -238.9763
  92   2.0000      -8.107767      -220.6236
  93   2.0000      -8.107577      -220.6184
  94   2.0000      -6.621211      -180.1723
  95   2.0000      -6.621156      -180.1708
  96   2.0000      -6.618353      -180.0946
  97   2.0000      -6.618345      -180.0943
  98   2.0000      -6.607393      -179.7963
  99   2.0000      -6.607304      -179.7939
 100   2.0000      -6.606577      -179.7741
 101   2.0000      -6.606530      -179.7728
 102   2.0000      -6.604336      -179.7131
 103   2.0000      -6.604335      -179.7131
 104   2.0000      -6.603580      -179.6925
 105   2.0000      -6.603568      -179.6922
 106   2.0000      -6.076534      -165.3509
 107   2.0000      -6.076346      -165.3458
 108   2.0000      -6.072306      -165.2358
 109   2.0000      -6.072109      -165.2305
 110   2.0000      -6.071216      -165.2062
 111   2.0000      -6.071025      -165.2010
 112   2.0000      -2.737153       -74.4817
 113   2.0000      -2.737091       -74.4800
 114   2.0000      -2.734282       -74.4036
 115   2.0000      -2.734268       -74.4032
 116   2.0000      -2.733405       -74.3797
 117   2.0000      -2.733368       -74.3787
 118   2.0000      -2.732845       -74.3645
 119   2.0000      -2.732767       -74.3624
 120   2.0000      -2.730474       -74.3000
 121   2.0000      -2.730459       -74.2996
 122   2.0000      -2.729916       -74.2848
 123   2.0000      -2.729909       -74.2846
 124   2.0000      -2.721810       -74.0642
 125   2.0000      -2.721794       -74.0638
 126   2.0000      -2.721746       -74.0625
 127   2.0000      -2.721732       -74.0621
 128   2.0000      -2.718746       -73.9808
 129   2.0000      -2.718737       -73.9806
 130   2.0000      -2.718732       -73.9805
 131   2.0000      -2.718731       -73.9804
 132   2.0000      -1.162755       -31.6402
 133   2.0000      -1.162669       -31.6378
 134   2.0000      -1.157674       -31.5019
 135   2.0000      -1.157580       -31.4994
 136   2.0000      -1.141416       -31.0595
 137   2.0000      -1.141378       -31.0585
 138   2.0000      -1.117874       -30.4189
 139   2.0000      -1.117270       -30.4025
 140   2.0000      -1.103278       -30.0217
 141   2.0000      -1.045045       -28.4371
 142   2.0000      -1.044353       -28.4183
 143   2.0000      -1.035797       -28.1855
 144   2.0000      -1.029369       -28.0106
 145   2.0000      -1.028969       -27.9997
 146   2.0000      -1.018337       -27.7104
 147   2.0000      -1.012597       -27.5542
 148   2.0000      -1.012250       -27.5447
 149   2.0000      -1.010658       -27.5014
 150   2.0000      -1.002801       -27.2876
 151   2.0000      -1.002762       -27.2865
 152   2.0000      -0.980694       -26.6860
 153   2.0000      -0.980682       -26.6857
 154   2.0000      -0.955289       -25.9947
 155   2.0000      -0.955184       -25.9919
 156   2.0000      -0.935391       -25.4533
 157   2.0000      -0.927597       -25.2412
 158   2.0000      -0.923413       -25.1274
 159   2.0000      -0.922203       -25.0944
 160   2.0000      -0.913966       -24.8703
 161   2.0000      -0.913053       -24.8454
 162   2.0000      -0.904318       -24.6077
 163   2.0000      -0.890108       -24.2211
 164   2.0000      -0.889311       -24.1994
 165   2.0000      -0.883233       -24.0340
 166   2.0000      -0.870462       -23.6865
 167   2.0000      -0.854402       -23.2494
 168   2.0000      -0.853949       -23.2371
 169   2.0000      -0.849163       -23.1069
 170   2.0000      -0.832246       -22.6466
 171   2.0000      -0.817434       -22.2435
 172   2.0000      -0.808002       -21.9868
 173   2.0000      -0.807062       -21.9613
 174   2.0000      -0.804599       -21.8942
 175   2.0000      -0.795512       -21.6470
 176   2.0000      -0.781392       -21.2628
 177   2.0000      -0.778376       -21.1807
 178   2.0000      -0.770072       -20.9547
 179   2.0000      -0.769811       -20.9476
 180   2.0000      -0.762687       -20.7538
 181   2.0000      -0.747682       -20.3455
 182   2.0000      -0.737408       -20.0659
 183   2.0000      -0.721371       -19.6295
 184   2.0000      -0.709460       -19.3054
 185   2.0000      -0.705594       -19.2002
 186   2.0000      -0.704906       -19.1815
 187   2.0000      -0.696826       -18.9616
 188   2.0000      -0.696333       -18.9482
 189   2.0000      -0.690977       -18.8024
 190   2.0000      -0.687162       -18.6986
 191   2.0000      -0.682401       -18.5691
 192   2.0000      -0.682299       -18.5663
 193   2.0000      -0.667458       -18.1624
 194   2.0000      -0.664920       -18.0934
 195   2.0000      -0.662094       -18.0165
 196   2.0000      -0.655605       -17.8399
 197   2.0000      -0.638831       -17.3835
 198   2.0000      -0.630489       -17.1565
 199   2.0000      -0.624946       -17.0057
 200   2.0000      -0.621856       -16.9216
 201   2.0000      -0.620066       -16.8729
 202   2.0000      -0.617827       -16.8119
 203   2.0000      -0.617615       -16.8062
 204   2.0000      -0.604273       -16.4431
 205   2.0000      -0.593596       -16.1526
 206   2.0000      -0.593099       -16.1390
 207   2.0000      -0.587298       -15.9812
 208   2.0000      -0.586846       -15.9689
 209   2.0000      -0.584712       -15.9108
 210   2.0000      -0.576842       -15.6967
 211   2.0000      -0.576240       -15.6803
 212   2.0000      -0.572585       -15.5808
 213   2.0000      -0.572109       -15.5679
 214   2.0000      -0.565954       -15.4004
 215   2.0000      -0.563231       -15.3263
 216   2.0000      -0.556720       -15.1491
 217   2.0000      -0.555055       -15.1038
 218   2.0000      -0.551568       -15.0089
 219   2.0000      -0.551131       -14.9970
 220   2.0000      -0.550382       -14.9767
 221   2.0000      -0.545871       -14.8539
 222   2.0000      -0.541728       -14.7412
 223   2.0000      -0.540610       -14.7108
 224   2.0000      -0.537529       -14.6269
 225   2.0000      -0.535651       -14.5758
 226   2.0000      -0.535238       -14.5646
 227   2.0000      -0.533589       -14.5197
 228   2.0000      -0.529596       -14.4110
 229   2.0000      -0.527150       -14.3445
 230   2.0000      -0.523932       -14.2569
 231   2.0000      -0.523357       -14.2413
 232   2.0000      -0.521152       -14.1813
 233   2.0000      -0.521112       -14.1802
 234   2.0000      -0.516264       -14.0483
 235   2.0000      -0.516071       -14.0430
 236   2.0000      -0.511079       -13.9072
 237   2.0000      -0.506193       -13.7742
 238   2.0000      -0.505041       -13.7429
 239   2.0000      -0.503417       -13.6987
 240   2.0000      -0.501506       -13.6467
 241   2.0000      -0.500955       -13.6317
 242   2.0000      -0.500661       -13.6237
 243   2.0000      -0.496505       -13.5106
 244   2.0000      -0.494175       -13.4472
 245   2.0000      -0.476158       -12.9569
 246   2.0000      -0.473135       -12.8746
 247   2.0000      -0.471039       -12.8176
 248   2.0000      -0.466829       -12.7031
 249   2.0000      -0.466344       -12.6899
 250   2.0000      -0.463207       -12.6045
 251   2.0000      -0.463135       -12.6025
 252   2.0000      -0.461763       -12.5652
 253   2.0000      -0.460291       -12.5252
 254   2.0000      -0.457288       -12.4434
 255   2.0000      -0.457247       -12.4423
 256   2.0000      -0.454903       -12.3785
 257   2.0000      -0.450706       -12.2643
 258   2.0000      -0.450625       -12.2621
 259   2.0000      -0.436280       -11.8718
 260   2.0000      -0.436221       -11.8702
 261   2.0000      -0.435359       -11.8467
 262   2.0000      -0.435076       -11.8390
 263   2.0000      -0.430621       -11.7178
 264   2.0000      -0.430266       -11.7081
 265   2.0000      -0.429891       -11.6979
 266   2.0000      -0.420380       -11.4391
 267   2.0000      -0.419683       -11.4202
 268   2.0000      -0.418703       -11.3935
 269   2.0000      -0.418146       -11.3783
 270   2.0000      -0.406761       -11.0685
 271   2.0000      -0.402654       -10.9568
 272   2.0000      -0.400341       -10.8938
 273   2.0000      -0.398206       -10.8357
 274   2.0000      -0.397027       -10.8037
 275   2.0000      -0.391147       -10.6437
 276   2.0000      -0.391076       -10.6417
 277   2.0000      -0.388877       -10.5819
 278   2.0000      -0.388201       -10.5635
 279   2.0000      -0.386410       -10.5147
 280   2.0000      -0.381833       -10.3902
 281   2.0000      -0.379946       -10.3389
 282   2.0000      -0.365449        -9.9444
 283   2.0000      -0.364605        -9.9214
 284   2.0000      -0.362829        -9.8731
 285   2.0000      -0.362131        -9.8541
 286   2.0000      -0.361135        -9.8270
 287   2.0000      -0.354350        -9.6424
 288   2.0000      -0.353875        -9.6294
 289   2.0000      -0.349418        -9.5082
 290   2.0000      -0.349228        -9.5030
 291   2.0000      -0.348108        -9.4725
 292   2.0000      -0.345228        -9.3941
 293   2.0000      -0.343529        -9.3479
 294   2.0000      -0.343083        -9.3358
 295   2.0000      -0.332324        -9.0430
 296   2.0000      -0.330754        -9.0003
 297   2.0000      -0.313428        -8.5288
 298   2.0000      -0.312066        -8.4917
 299   2.0000      -0.302707        -8.2371
 300   2.0000      -0.271706        -7.3935
 301   0.0000      -0.134298        -3.6544
 302   0.0000      -0.117671        -3.2020
 303   0.0000      -0.107293        -2.9196
 304   0.0000      -0.100739        -2.7413
 305   0.0000      -0.081140        -2.2079

MULLIKEN ATOMIC CHARGES
-----------------------
   0 C :    0.124516
   1 O :   -0.152415
   2 C :    0.024857
   3 C :    0.054547
   4 C :   -0.018729
   5 C :   -0.018497
   6 C :   -0.008523
   7 C :   -0.005041
   8 Br:    0.008579
   9 Br:    0.018349
  10 C :    0.282100
  11 C :   -0.332184
  12 C :   -0.185122
  13 N :    0.163022
  14 C :   -0.181868
  15 N :    0.153152
  16 C :   -0.068116
  17 C :    0.021221
  18 C :   -0.140584
  19 C :    0.040155
  20 C :    0.063363
  21 N :    0.066144
  22 C :   -0.107705
  23 C :    0.139286
  24 O :   -0.097117
  25 C :   -0.011050
  26 C :   -0.013978
  27 C :    0.148433
  28 O :   -0.111311
  29 C :   -0.089951
  30 N :    0.028464
  31 C :   -0.126892
  32 S :    0.305723
  33 C :   -0.054089
  34 C :    0.023951
  35 N :   -0.050272
  36 C :   -0.055302
  37 C :    0.023778
  38 N :   -0.050702
  39 C :   -0.127379
  40 C :    0.065669
  41 C :    0.039764
  42 N :    0.028765
  43 C :   -0.089216
  44 C :    0.147772
  45 O :   -0.111716
  46 C :   -0.014079
  47 C :   -0.014480
  48 C :    0.141958
  49 O :   -0.096726
  50 C :   -0.105885
  51 N :    0.065111
  52 C :   -0.142243
  53 S :    0.305680
  54 C :    0.024911
  55 C :   -0.072087
  56 C :    0.124291
  57 O :   -0.153059
  58 C :    0.028316
  59 C :    0.054606
  60 C :    0.284004
  61 C :   -0.337395
  62 C :   -0.178729
  63 N :    0.153676
  64 C :   -0.185864
  65 N :    0.165426
  66 C :   -0.024806
  67 C :   -0.015399
  68 C :   -0.008432
  69 C :   -0.007504
  70 Br:    0.008528
  71 Br:    0.018537
  72 H :    0.007904
  73 H :   -0.005420
  74 H :    0.028317
  75 H :    0.025537
  76 H :    0.023493
  77 H :    0.028246
  78 H :    0.028434
  79 H :    0.024077
  80 H :    0.025960
  81 H :    0.028200
  82 H :    0.008389
  83 H :   -0.005347
Sum of atomic charges:   -0.0000000

LOEWDIN ATOMIC CHARGES
----------------------
   0 C :    0.083372
   1 O :   -0.152407
   2 C :   -0.030431
   3 C :   -0.008004
   4 C :   -0.005637
   5 C :   -0.117414
   6 C :   -0.117532
   7 C :    0.008914
   8 Br:    0.137935
   9 Br:    0.141051
  10 C :    0.075225
  11 C :   -0.129097
  12 C :   -0.020919
  13 N :   -0.040039
  14 C :   -0.017713
  15 N :   -0.044526
  16 C :   -0.053375
  17 C :    0.032671
  18 C :   -0.183009
  19 C :   -0.020630
  20 C :   -0.036428
  21 N :    0.006261
  22 C :   -0.034257
  23 C :    0.057544
  24 O :   -0.091719
  25 C :   -0.006408
  26 C :   -0.011893
  27 C :    0.062397
  28 O :   -0.097648
  29 C :   -0.032605
  30 N :    0.019703
  31 C :   -0.172219
  32 S :    0.591081
  33 C :   -0.029828
  34 C :    0.031518
  35 N :   -0.054102
  36 C :   -0.030051
  37 C :    0.031591
  38 N :   -0.054295
  39 C :   -0.172129
  40 C :   -0.036214
  41 C :   -0.020524
  42 N :    0.019842
  43 C :   -0.032480
  44 C :    0.062353
  45 O :   -0.097562
  46 C :   -0.011954
  47 C :   -0.006529
  48 C :    0.057630
  49 O :   -0.091744
  50 C :   -0.034087
  51 N :    0.006301
  52 C :   -0.182913
  53 S :    0.590713
  54 C :    0.033066
  55 C :   -0.053722
  56 C :    0.083353
  57 O :   -0.152650
  58 C :   -0.030247
  59 C :   -0.007967
  60 C :    0.075221
  61 C :   -0.129243
  62 C :   -0.017579
  63 N :   -0.044692
  64 C :   -0.020936
  65 N :   -0.039974
  66 C :   -0.005844
  67 C :   -0.117383
  68 C :   -0.117430
  69 C :    0.008597
  70 Br:    0.137921
  71 Br:    0.141086
  72 H :    0.044316
  73 H :    0.040109
  74 H :    0.046296
  75 H :    0.048776
  76 H :    0.048502
  77 H :    0.032283
  78 H :    0.032157
  79 H :    0.048590
  80 H :    0.048879
  81 H :    0.046289
  82 H :    0.044346
  83 H :    0.040099

  Mayer bond orders larger than 0.100000
B(  0-C ,  1-O ) :   2.2467 B(  0-C ,  2-C ) :   0.9288 B(  0-C , 16-C ) :   0.9068
B(  2-C ,  3-C ) :   1.3385 B(  2-C ,  7-C ) :   1.3694 B(  3-C ,  4-C ) :   1.3505
B(  3-C , 10-C ) :   1.0038 B(  4-C ,  5-C ) :   1.3812 B(  4-C , 72-H ) :   0.9790
B(  5-C ,  6-C ) :   1.4180 B(  5-C ,  9-Br) :   1.0535 B(  6-C ,  7-C ) :   1.3643
B(  6-C ,  8-Br) :   1.0312 B(  7-C , 73-H ) :   1.0055 B( 10-C , 11-C ) :   1.6511
B( 10-C , 16-C ) :   1.0808 B( 11-C , 12-C ) :   1.1324 B( 11-C , 14-C ) :   1.1412
B( 12-C , 13-N ) :   2.9816 B( 14-C , 15-N ) :   2.9750 B( 16-C , 17-C ) :   1.6652
B( 17-C , 18-C ) :   1.1371 B( 17-C , 74-H ) :   0.9355 B( 18-C , 19-C ) :   1.3131
B( 18-C , 31-C ) :   0.1275 B( 18-C , 32-S ) :   1.1644 B( 19-C , 20-C ) :   1.2116
B( 19-C , 30-N ) :   1.3986 B( 20-C , 21-N ) :   1.4289 B( 20-C , 31-C ) :   1.3265
B( 21-N , 22-C ) :   1.7171 B( 22-C , 23-C ) :   0.8913 B( 22-C , 29-C ) :   1.1013
B( 23-C , 24-O ) :   2.2410 B( 23-C , 25-C ) :   1.0240 B( 25-C , 26-C ) :   1.6823
B( 25-C , 75-H ) :   0.9976 B( 26-C , 27-C ) :   1.0301 B( 26-C , 76-H ) :   0.9974
B( 27-C , 28-O ) :   2.1948 B( 27-C , 29-C ) :   0.8934 B( 29-C , 30-N ) :   1.6572
B( 31-C , 32-S ) :   1.2187 B( 31-C , 33-C ) :   1.0989 B( 33-C , 34-C ) :   1.3176
B( 33-C , 38-N ) :   1.5211 B( 34-C , 35-N ) :   1.5818 B( 34-C , 77-H ) :   0.9551
B( 35-N , 36-C ) :   1.5222 B( 36-C , 37-C ) :   1.3171 B( 36-C , 39-C ) :   1.0993
B( 37-C , 38-N ) :   1.5824 B( 37-C , 78-H ) :   0.9546 B( 39-C , 40-C ) :   1.3267
B( 39-C , 52-C ) :   0.1268 B( 39-C , 53-S ) :   1.2178 B( 40-C , 41-C ) :   1.2123
B( 40-C , 51-N ) :   1.4279 B( 41-C , 42-N ) :   1.3986 B( 41-C , 52-C ) :   1.3120
B( 42-N , 43-C ) :   1.6568 B( 43-C , 44-C ) :   0.8924 B( 43-C , 50-C ) :   1.1006
B( 44-C , 45-O ) :   2.1949 B( 44-C , 46-C ) :   1.0293 B( 46-C , 47-C ) :   1.6813
B( 46-C , 79-H ) :   0.9982 B( 47-C , 48-C ) :   1.0228 B( 47-C , 80-H ) :   0.9985
B( 48-C , 49-O ) :   2.2407 B( 48-C , 50-C ) :   0.8922 B( 50-C , 51-N ) :   1.7167
B( 52-C , 53-S ) :   1.1640 B( 52-C , 54-C ) :   1.1391 B( 54-C , 55-C ) :   1.6669
B( 54-C , 81-H ) :   0.9337 B( 55-C , 56-C ) :   0.9059 B( 55-C , 60-C ) :   1.0828
B( 56-C , 57-O ) :   2.2462 B( 56-C , 58-C ) :   0.9283 B( 58-C , 59-C ) :   1.3391
B( 58-C , 69-C ) :   1.3678 B( 59-C , 60-C ) :   1.0031 B( 59-C , 66-C ) :   1.3509
B( 60-C , 61-C ) :   1.6531 B( 61-C , 62-C ) :   1.1392 B( 61-C , 64-C ) :   1.1343
B( 62-C , 63-N ) :   2.9754 B( 64-C , 65-N ) :   2.9813 B( 66-C , 67-C ) :   1.3789
B( 66-C , 82-H ) :   0.9794 B( 67-C , 68-C ) :   1.4184 B( 67-C , 71-Br) :   1.0537
B( 68-C , 69-C ) :   1.3635 B( 68-C , 70-Br) :   1.0323 B( 69-C , 83-H ) :   1.0059

-----------------------------------------------------------------------------
         ABSORPTION SPECTRUM VIA TRANSITION ELECTRIC DIPOLE MOMENTS
-----------------------------------------------------------------------------
State   Energy  Wavelength   fosc         T2         TX        TY        TZ
        (cm-1)    (nm)                  (au**2)     (au)      (au)      (au)
-----------------------------------------------------------------------------
   0   14542.8    687.6   1.352562167  30.61862   1.53320  -5.21977  -1.01092
   1   17768.5    562.8   0.003105123   0.05753  -0.23229  -0.05297   0.02770
   2   20260.5    493.6   0.161263756   2.62036  -0.30498   0.57533  -1.48201
   3   21162.2    472.5   0.000822055   0.01279   0.09962   0.04909  -0.02134
   4   22572.8    443.0   0.000122397   0.00179  -0.03097  -0.02631   0.01157
   5   23409.3    427.2   0.203130349   2.85669  -0.49128   1.38164  -0.84048
   6   23809.2    420.0   0.010504240   0.14524   0.36829   0.09079  -0.03688
   7   23907.5    418.3   0.006482862   0.08927   0.24730   0.14601  -0.08243
   8   23969.2    417.2   0.036101206   0.49584   0.24355  -0.49953   0.43243
   9   24392.5    410.0   0.310770504   4.19429  -0.50914   1.83846   0.74507
  10   24997.5    400.0   0.005042219   0.06641  -0.23253  -0.10788   0.02636
  11   25289.6    395.4   0.061029712   0.79447   0.22672  -0.53120   0.67889
  12   25383.6    394.0   0.001570470   0.02037   0.12557   0.06532  -0.01828
  13   25667.5    389.6   0.001798124   0.02306   0.14125   0.04122  -0.03757
  14   25756.8    388.2   0.024925070   0.31858   0.07316  -0.07097   0.55515
  15   25975.5    385.0   0.008423015   0.10675   0.31288   0.09203  -0.01980
  16   26389.2    378.9   0.006462895   0.08063  -0.09124   0.24471  -0.11144
  17   26433.4    378.3   0.000322737   0.00402   0.05478   0.02871  -0.01394
  18   26997.2    370.4   0.079077324   0.96429   0.07653  -0.46466  -0.86170
  19   27754.6    360.3   0.028607149   0.33932   0.13636  -0.36461   0.43335
  20   28000.7    357.1   0.009682930   0.11384   0.32710   0.08128  -0.01565
  21   28463.1    351.3   0.024087506   0.27860  -0.49621  -0.17537   0.04029
  22   28734.2    348.0   0.083121437   0.95233   0.28440  -0.92033  -0.15634
  23   29161.2    342.9   0.009270510   0.10466  -0.06284   0.15396  -0.27750
  24   29338.9    340.8   0.003866844   0.04339   0.20065   0.05494  -0.01045
  25   29934.7    334.1   0.000779595   0.00857   0.08646   0.03059  -0.01276
  26   30502.9    327.8   0.012323497   0.13300   0.11332  -0.29748   0.17795
  27   30551.7    327.3   0.000731493   0.00788  -0.07650  -0.04106   0.01855
  28   30660.8    326.1   0.007361337   0.07904  -0.07548   0.17171  -0.20943
  29   31010.0    322.5   0.007232015   0.07678  -0.07486   0.18615  -0.19111
  30   31311.9    319.4   0.033922802   0.35666  -0.17370   0.57086  -0.02470
  31   32210.8    310.5   0.027629410   0.28239  -0.50660  -0.14651   0.06545
  32   32341.9    309.2   0.077064043   0.78444  -0.10726   0.57423   0.66573
  33   32469.7    308.0   0.001067020   0.01082   0.09896   0.01475  -0.02841
  34   32638.2    306.4   0.059905926   0.60425   0.03599  -0.32868  -0.70351
  35   32795.2    304.9   0.000184226   0.00185  -0.02267  -0.00826   0.03559
  36   32944.3    303.5   0.217827378   2.17674  -0.35248   0.93514  -1.08536
  37   33029.7    302.8   0.001142881   0.01139   0.07707   0.06948  -0.02499
  38   33097.3    302.1   0.041860606   0.41638   0.19288  -0.58829   0.18193
  39   33233.4    300.9   0.064188788   0.63586  -0.77580  -0.18374   0.01496
  40   33451.1    298.9   0.349107804   3.43577  -0.48769   1.28562  -1.24302
  41   33543.4    298.1   0.009024875   0.08857  -0.28679   0.06513  -0.04562
  42   33610.6    297.5   0.054096679   0.52987   0.18913  -0.70182  -0.03945
  43   33811.2    295.8   0.010154826   0.09888   0.28745   0.05062  -0.11697
  44   33863.7    295.3   0.184822154   1.79678   0.02937   0.32401   1.30036
  45   33936.9    294.7   0.010792435   0.10469  -0.30869  -0.09687  -0.00439
  46   34009.2    294.0   0.000113431   0.00110   0.02610   0.00923   0.01821
  47   34184.6    292.5   0.007811768   0.07523  -0.26800  -0.05825   0.00351
  48   34321.5    291.4   0.112421396   1.07835  -0.15280   0.28386  -0.98713
  49   34422.9    290.5   0.015881574   0.15189  -0.09916   0.19724  -0.32117
  50   34457.5    290.2   0.000039423   0.00038   0.00609   0.01820  -0.00289
  51   35264.1    283.6   0.026340673   0.24591   0.45840   0.13857  -0.12874
  52   35339.6    283.0   0.241194543   2.24689  -0.16979   0.01965  -1.48918
  53   35853.1    278.9   0.194423891   1.78525  -0.13113   0.47196   1.24310
  54   35868.3    278.8   0.022953063   0.21067   0.22376   0.22687   0.33035
  55   35969.5    278.0   0.108160242   0.98994  -0.95007  -0.28832   0.06467
  56   36016.7    277.6   0.151961137   1.38900   0.27807  -0.73056   0.88202
  57   36124.8    276.8   0.043340105   0.39497  -0.60652  -0.14881   0.07040
  58   36239.6    275.9   0.050700800   0.46058  -0.01630   0.24111   0.63418
  59   36256.1    275.8   0.125733631   1.14169   0.24428  -0.92417  -0.47740
  60   36410.4    274.6   0.018349933   0.16591   0.38008   0.14631   0.00667
  61   36577.0    273.4   0.088886005   0.80002  -0.00805  -0.19038  -0.87391
  62   36680.0    272.6   0.000102990   0.00092   0.01068  -0.01430  -0.02461
  63   37166.3    269.1   0.130351374   1.15463   0.29130  -0.73700   0.72568
  64   37180.3    269.0   0.006362552   0.05634   0.06008  -0.14215   0.18034
  65   37452.9    267.0   0.043418655   0.38165   0.59138   0.17360  -0.04215
  66   37639.7    265.7   0.162770765   1.42366  -0.29459   1.05941   0.46316
  67   37770.0    264.8   0.001626534   0.01418   0.07108   0.09112   0.02869
  68   38023.4    263.0   0.007138067   0.06180  -0.24614  -0.00481   0.03454
  69   38093.2    262.5   0.039842957   0.34433   0.11873  -0.55381  -0.15339
  70   38256.0    261.4   0.001908143   0.01642  -0.10117  -0.05622  -0.05499
  71   38303.0    261.1   0.014794935   0.12716  -0.00416  -0.02595  -0.35563
  72   38379.7    260.6   0.000319966   0.00274  -0.03061   0.02262   0.03601
  73   38392.3    260.5   0.004791589   0.04109   0.02099  -0.11707  -0.16414
  74   38544.9    259.4   0.003541355   0.03025   0.09688  -0.14429   0.00629
  75   38557.7    259.4   0.039793848   0.33977   0.16625  -0.55799  -0.02772
  76   38935.6    256.8   0.051078949   0.43189  -0.19515   0.56659  -0.26978
  77   38956.3    256.7   0.001001543   0.00846  -0.06168   0.05607  -0.03892
  78   39153.9    255.4   0.000958557   0.00806   0.04212   0.07138  -0.03450
  79   39224.2    254.9   0.008743630   0.07339  -0.25726  -0.08107   0.02510
  80   39335.4    254.2   0.063436152   0.53092   0.22116  -0.64732   0.25097
  81   39519.2    253.0   0.002323244   0.01935  -0.04248  -0.04992  -0.12271
  82   39537.7    252.9   0.100472241   0.83659  -0.10623   0.51705   0.74697
  83   39715.6    251.8   0.318043113   2.63634  -0.49427   1.45548  -0.52308
  84   40042.6    249.7   0.004003522   0.03292  -0.13691  -0.09256   0.07485
  85   40201.8    248.7   0.073903394   0.60519   0.21018  -0.47196   0.58161

FINAL SINGLE POINT ENERGY    -13999.635101654865

DIPOLE MOMENT
-------------
                                X             Y             Z
Electronic contribution:     42.64185      13.05453      -4.15615
Nuclear contribution   :    -42.29659     -12.95650       4.13562
                        -----------------------------------------
Total Dipole Moment    :      0.34526       0.09803      -0.02053
                        -----------------------------------------
Magnitude (a.u.)       :      0.35950
Magnitude (Debye)      :      0.91377

Rotational constants in cm-1:     0.001992     0.000174     0.000165
Rotational constants in MHz :    59.727091     5.229913     4.942317

                             ****ORCA TERMINATED NORMALLY****
TOTAL RUN TIME: 0 days 0 hours 9 minutes 30 seconds 227 msec
