                         Program Version 4.2.0 -  RELEASE  -
|  1> # ORCA input file
|  2> # SCF done       -195.773078880045          0.000877043467
|  3> ! CAM-B3LYP def2-SVP def2/J RIJCOSX Grid4 TightSCF
|  4> %maxcore 5000
|  5> %tddft
|  6>     Mode sTDDFT
|  7>     Ethresh 5.0
|  8>     maxcore 5000
|  9> end
| 10>
| 11> %pal
| 12>   nprocs 6
| 13>   end
| 14> * xyz 0 1
| 15>    C       -3.33893        -0.01090         1.99292
| 16>    O       -3.14975        -0.91633         2.79407
| 17>    C       -3.18581         1.42402         2.30349
| 18>    C       -3.49580         2.18700         1.16600
| 19>    C       -3.40683         3.56693         1.22600
| 20>    C       -3.00978         4.15801         2.42147
| 21>    C       -2.70755         3.38975         3.54594
| 22>    C       -2.79571         2.00470         3.49140
| 23>   Br       -2.17079         4.21506         5.16085
| 24>   Br       -2.88664         6.04456         2.49543
| 25>    C       -3.86857         1.27454         0.08346
| 26>    C       -4.27201         1.67957        -1.16467
| 27>    C       -4.36490         3.03021        -1.56198
| 28>    N       -4.46325         4.10692        -1.94820
| 29>    C       -4.66379         0.84645        -2.23310
| 30>    N       -5.00051         0.25597        -3.15979
| 31>    C       -3.74434        -0.07875         0.58693
| 32>    C       -3.95228        -1.20625        -0.18772
| 33>    C       -3.85665        -2.56393         0.11587
| 34>    N       -3.54624        -3.11111         1.34270
| 35>    C       -3.52447        -4.45082         1.21707
| 36>    C       -3.29624        -5.63560         1.90830
| 37>    C       -3.46113        -6.66726         0.97505
| 38>    N       -3.79226        -6.13589        -0.25433
| 39>    C       -3.83753        -4.78071        -0.14172
| 40>    C       -4.05047        -3.60769        -0.82971
| 41>    C       -3.28997        -8.06517         1.13889
| 42>    C       -2.96947        -8.66621         2.31071
| 43>    C       -2.71215       -10.05005         2.45273
| 44>    S       -2.75632       -11.13355         1.08289
| 45>    C       -2.35641       -10.72693         3.61470
| 46>    C       -2.26137       -10.09134         4.94194
| 47>    O       -2.44969        -8.90326         5.15195
| 48>    C       -1.92378       -11.04207         5.99062
| 49>    C       -1.79828       -10.84512         7.34870
| 50>    N       -1.49241       -12.02911         7.93208
| 51>    C       -1.22925       -12.23117         9.33441
| 52>    C        0.26838       -12.16294         9.62650
| 53>    C       -1.40090       -12.99086         6.98396
| 54>    C       -1.66686       -12.42300         5.75738
| 55>    C       -1.71326       -13.04581         4.45025
| 56>    O       -1.46850       -14.23192         4.26774
| 57>    C       -2.09373       -12.10723         3.38756
| 58>    C       -2.25683       -12.48196         2.05932
| 59>    C       -2.03402       -13.77006         1.50602
| 60>    C       -2.44902       -14.15967         0.28256
| 61>    C       -2.23415       -15.44258        -0.30218
| 62>    C       -1.34477       -16.44663         0.00419
| 63>    C       -1.43682       -17.54966        -0.90546
| 64>    C       -0.70058       -18.73301        -0.89629
| 65>    C       -0.97341       -19.70040        -1.85142
| 66>    C       -1.98040       -19.50764        -2.81431
| 67>    C       -2.71536       -18.34511        -2.82936
| 68>    C       -2.44091       -17.37049        -1.87833
| 69>    S       -3.21723       -15.83787        -1.70359
| 70>    C       -0.23140       -20.90418        -1.85893
| 71>    N        0.37031       -21.87977        -1.86936
| 72>    C       -0.26644       -16.43439         0.98208
| 73>    C       -0.22379       -16.61425         2.31246
| 74>    C        1.11251       -16.46348         2.98091
| 75>    O        2.16964       -16.31236         2.41273
| 76>    C        0.84109       -16.51407         4.41850
| 77>    C       -0.52929       -16.73972         4.63502
| 78>    C       -1.00037       -16.80502         5.93699
| 79>    C       -0.12033       -16.64471         7.00200
| 80>    C        1.24796       -16.42168         6.77490
| 81>    C        1.72182       -16.35633         5.47086
| 82>    C        2.19367       -16.25967         7.92272
| 83>    C       -0.64296       -16.72542         8.40340
| 84>    C       -1.21731       -16.86026         3.35424
| 85>    C       -2.52845       -17.20085         3.18764
| 86>    C       -3.17139       -17.47832         1.96411
| 87>    N       -3.77433       -17.78363         1.03623
| 88>    C       -3.43635       -17.38185         4.25524
| 89>    N       -4.23005       -17.52959         5.07076
| 90>    H       -3.63067         4.19659         0.38068
| 91>    H       -2.56304         1.39761         4.35245
| 92>    H       -4.22005        -1.02764        -1.22008
| 93>    H       -3.35258        -2.52889         2.15923
| 94>    H       -3.03645        -5.75890         2.93920
| 95>    H       -3.96167        -6.67718        -1.08464
| 96>    H       -4.30341        -3.46287        -1.86089
| 97>    H       -3.40470        -8.67489         0.24946
| 98>    H       -2.87104        -8.08706         3.21723
| 99>    H       -1.91961        -9.94451         7.91711
|100>    H       -1.62411       -13.20903         9.62454
|101>    H       -1.75666       -11.46091         9.90178
|102>    H        0.80234       -12.90853         9.04159
|103>    H        0.45131       -12.34594        10.68156
|104>    H        0.66012       -11.18198         9.36933
|105>    H       -1.16982       -14.01084         7.21827
|106>    H       -1.51735       -14.45601         2.15725
|107>    H       -3.03189       -13.47080        -0.31821
|108>    H        0.06867       -18.89482        -0.15553
|109>    H       -2.17018       -20.28500        -3.53868
|110>    H       -3.49350       -18.18848        -3.55944
|111>    H        0.71923       -16.30820         0.53016
|112>    H       -2.04670       -16.96331         6.14095
|113>    H        2.76838       -16.18346         5.26839
|114>    H        1.92130       -15.39842         8.53288
|115>    H        3.21006       -16.11976         7.56523
|116>    H        2.16855       -17.13831         8.56625
|117>    H       -1.72741       -16.79855         8.40744
|118>    H       -0.34361       -15.85488         8.98660
|119>    H       -0.23797       -17.60485         8.90421
|120> *
|121>
|122>                          ****END OF INPUT****

CARTESIAN COORDINATES (ANGSTROEM)
---------------------------------
  C     -3.338930   -0.010900    1.992920
  O     -3.149750   -0.916330    2.794070
  C     -3.185810    1.424020    2.303490
  C     -3.495800    2.187000    1.166000
  C     -3.406830    3.566930    1.226000
  C     -3.009780    4.158010    2.421470
  C     -2.707550    3.389750    3.545940
  C     -2.795710    2.004700    3.491400
  Br    -2.170790    4.215060    5.160850
  Br    -2.886640    6.044560    2.495430
  C     -3.868570    1.274540    0.083460
  C     -4.272010    1.679570   -1.164670
  C     -4.364900    3.030210   -1.561980
  N     -4.463250    4.106920   -1.948200
  C     -4.663790    0.846450   -2.233100
  N     -5.000510    0.255970   -3.159790
  C     -3.744340   -0.078750    0.586930
  C     -3.952280   -1.206250   -0.187720
  C     -3.856650   -2.563930    0.115870
  N     -3.546240   -3.111110    1.342700
  C     -3.524470   -4.450820    1.217070
  C     -3.296240   -5.635600    1.908300
  C     -3.461130   -6.667260    0.975050
  N     -3.792260   -6.135890   -0.254330
  C     -3.837530   -4.780710   -0.141720
  C     -4.050470   -3.607690   -0.829710
  C     -3.289970   -8.065170    1.138890
  C     -2.969470   -8.666210    2.310710
  C     -2.712150  -10.050050    2.452730
  S     -2.756320  -11.133550    1.082890
  C     -2.356410  -10.726930    3.614700
  C     -2.261370  -10.091340    4.941940
  O     -2.449690   -8.903260    5.151950
  C     -1.923780  -11.042070    5.990620
  C     -1.798280  -10.845120    7.348700
  N     -1.492410  -12.029110    7.932080
  C     -1.229250  -12.231170    9.334410
  C      0.268380  -12.162940    9.626500
  C     -1.400900  -12.990860    6.983960
  C     -1.666860  -12.423000    5.757380
  C     -1.713260  -13.045810    4.450250
  O     -1.468500  -14.231920    4.267740
  C     -2.093730  -12.107230    3.387560
  C     -2.256830  -12.481960    2.059320
  C     -2.034020  -13.770060    1.506020
  C     -2.449020  -14.159670    0.282560
  C     -2.234150  -15.442580   -0.302180
  C     -1.344770  -16.446630    0.004190
  C     -1.436820  -17.549660   -0.905460
  C     -0.700580  -18.733010   -0.896290
  C     -0.973410  -19.700400   -1.851420
  C     -1.980400  -19.507640   -2.814310
  C     -2.715360  -18.345110   -2.829360
  C     -2.440910  -17.370490   -1.878330
  S     -3.217230  -15.837870   -1.703590
  C     -0.231400  -20.904180   -1.858930
  N      0.370310  -21.879770   -1.869360
  C     -0.266440  -16.434390    0.982080
  C     -0.223790  -16.614250    2.312460
  C      1.112510  -16.463480    2.980910
  O      2.169640  -16.312360    2.412730
  C      0.841090  -16.514070    4.418500
  C     -0.529290  -16.739720    4.635020
  C     -1.000370  -16.805020    5.936990
  C     -0.120330  -16.644710    7.002000
  C      1.247960  -16.421680    6.774900
  C      1.721820  -16.356330    5.470860
  C      2.193670  -16.259670    7.922720
  C     -0.642960  -16.725420    8.403400
  C     -1.217310  -16.860260    3.354240
  C     -2.528450  -17.200850    3.187640
  C     -3.171390  -17.478320    1.964110
  N     -3.774330  -17.783630    1.036230
  C     -3.436350  -17.381850    4.255240
  N     -4.230050  -17.529590    5.070760
  H     -3.630670    4.196590    0.380680
  H     -2.563040    1.397610    4.352450
  H     -4.220050   -1.027640   -1.220080
  H     -3.352580   -2.528890    2.159230
  H     -3.036450   -5.758900    2.939200
  H     -3.961670   -6.677180   -1.084640
  H     -4.303410   -3.462870   -1.860890
  H     -3.404700   -8.674890    0.249460
  H     -2.871040   -8.087060    3.217230
  H     -1.919610   -9.944510    7.917110
  H     -1.624110  -13.209030    9.624540
  H     -1.756660  -11.460910    9.901780
  H      0.802340  -12.908530    9.041590
  H      0.451310  -12.345940   10.681560
  H      0.660120  -11.181980    9.369330
  H     -1.169820  -14.010840    7.218270
  H     -1.517350  -14.456010    2.157250
  H     -3.031890  -13.470800   -0.318210
  H      0.068670  -18.894820   -0.155530
  H     -2.170180  -20.285000   -3.538680
  H     -3.493500  -18.188480   -3.559440
  H      0.719230  -16.308200    0.530160
  H     -2.046700  -16.963310    6.140950
  H      2.768380  -16.183460    5.268390
  H      1.921300  -15.398420    8.532880
  H      3.210060  -16.119760    7.565230
  H      2.168550  -17.138310    8.566250
  H     -1.727410  -16.798550    8.407440
  H     -0.343610  -15.854880    8.986600
  H     -0.237970  -17.604850    8.904210

 Total Charge           Charge          ....    0
 Multiplicity           Mult            ....    1
 Number of Electrons    NEL             ....  574
 Basis Dimension        Dim             .... 1244

ORBITAL ENERGIES
----------------

  NO   OCC          E(Eh)            E(eV)
   0   2.0000    -482.872545    -13139.6299
   1   2.0000    -482.870138    -13139.5645
   2   2.0000     -88.978087     -2421.2168
   3   2.0000     -88.961508     -2420.7657
   4   2.0000     -62.550130     -1702.0756
   5   2.0000     -62.547738     -1702.0105
   6   2.0000     -56.384073     -1534.2886
   7   2.0000     -56.381694     -1534.2239
   8   2.0000     -56.381433     -1534.2168
   9   2.0000     -56.381340     -1534.2143
  10   2.0000     -56.379036     -1534.1516
  11   2.0000     -56.378936     -1534.1489
  12   2.0000     -19.224340      -523.1209
  13   2.0000     -19.219810      -522.9976
  14   2.0000     -19.213385      -522.8228
  15   2.0000     -19.208766      -522.6971
  16   2.0000     -14.498427      -394.5223
  17   2.0000     -14.475138      -393.8885
  18   2.0000     -14.454463      -393.3259
  19   2.0000     -14.418158      -392.3380
  20   2.0000     -14.415548      -392.2670
  21   2.0000     -14.412828      -392.1930
  22   2.0000     -14.408273      -392.0690
  23   2.0000     -14.396751      -391.7555
  24   2.0000     -10.373337      -282.2729
  25   2.0000     -10.372819      -282.2588
  26   2.0000     -10.369201      -282.1603
  27   2.0000     -10.368204      -282.1332
  28   2.0000     -10.347706      -281.5754
  29   2.0000     -10.347301      -281.5644
  30   2.0000     -10.347225      -281.5623
  31   2.0000     -10.344160      -281.4789
  32   2.0000     -10.343828      -281.4699
  33   2.0000     -10.337790      -281.3056
  34   2.0000     -10.336000      -281.2568
  35   2.0000     -10.333026      -281.1759
  36   2.0000     -10.330653      -281.1114
  37   2.0000     -10.329669      -281.0846
  38   2.0000     -10.322232      -280.8822
  39   2.0000     -10.322226      -280.8820
  40   2.0000     -10.322103      -280.8787
  41   2.0000     -10.320682      -280.8400
  42   2.0000     -10.320156      -280.8257
  43   2.0000     -10.318845      -280.7901
  44   2.0000     -10.317807      -280.7618
  45   2.0000     -10.316808      -280.7346
  46   2.0000     -10.316287      -280.7205
  47   2.0000     -10.315145      -280.6894
  48   2.0000     -10.314966      -280.6845
  49   2.0000     -10.312386      -280.6143
  50   2.0000     -10.311947      -280.6023
  51   2.0000     -10.310523      -280.5636
  52   2.0000     -10.310233      -280.5557
  53   2.0000     -10.307239      -280.4742
  54   2.0000     -10.305908      -280.4380
  55   2.0000     -10.304254      -280.3930
  56   2.0000     -10.304160      -280.3905
  57   2.0000     -10.303273      -280.3663
  58   2.0000     -10.302888      -280.3558
  59   2.0000     -10.302800      -280.3534
  60   2.0000     -10.302481      -280.3448
  61   2.0000     -10.301670      -280.3227
  62   2.0000     -10.297268      -280.2029
  63   2.0000     -10.296948      -280.1942
  64   2.0000     -10.296883      -280.1924
  65   2.0000     -10.296828      -280.1909
  66   2.0000     -10.296493      -280.1818
  67   2.0000     -10.295539      -280.1559
  68   2.0000     -10.294154      -280.1182
  69   2.0000     -10.293895      -280.1111
  70   2.0000     -10.293227      -280.0930
  71   2.0000     -10.292881      -280.0835
  72   2.0000     -10.292769      -280.0805
  73   2.0000     -10.292046      -280.0608
  74   2.0000     -10.290765      -280.0260
  75   2.0000     -10.290631      -280.0223
  76   2.0000     -10.290414      -280.0164
  77   2.0000     -10.289272      -279.9853
  78   2.0000     -10.287340      -279.9328
  79   2.0000     -10.285600      -279.8854
  80   2.0000     -10.278909      -279.7033
  81   2.0000     -10.278558      -279.6938
  82   2.0000     -10.276990      -279.6511
  83   2.0000      -8.779424      -238.9003
  84   2.0000      -8.777041      -238.8354
  85   2.0000      -8.073657      -219.6954
  86   2.0000      -8.057596      -219.2583
  87   2.0000      -6.615494      -180.0167
  88   2.0000      -6.613167      -179.9534
  89   2.0000      -6.601562      -179.6376
  90   2.0000      -6.600821      -179.6175
  91   2.0000      -6.599156      -179.5722
  92   2.0000      -6.598403      -179.5517
  93   2.0000      -6.042740      -164.4313
  94   2.0000      -6.038820      -164.3246
  95   2.0000      -6.035928      -164.2460
  96   2.0000      -6.027082      -164.0052
  97   2.0000      -6.023100      -163.8969
  98   2.0000      -6.018993      -163.7851
  99   2.0000      -2.731415       -74.3256
 100   2.0000      -2.729059       -74.2615
 101   2.0000      -2.727642       -74.2229
 102   2.0000      -2.727098       -74.2081
 103   2.0000      -2.725292       -74.1590
 104   2.0000      -2.724727       -74.1436
 105   2.0000      -2.715996       -73.9060
 106   2.0000      -2.715974       -73.9054
 107   2.0000      -2.713569       -73.8400
 108   2.0000      -2.713548       -73.8394
 109   2.0000      -1.137529       -30.9537
 110   2.0000      -1.134572       -30.8733
 111   2.0000      -1.131077       -30.7782
 112   2.0000      -1.124893       -30.6099
 113   2.0000      -1.117470       -30.4079
 114   2.0000      -1.105037       -30.0696
 115   2.0000      -1.065976       -29.0067
 116   2.0000      -1.020889       -27.7798
 117   2.0000      -1.017954       -27.6999
 118   2.0000      -1.010406       -27.4945
 119   2.0000      -1.007241       -27.4084
 120   2.0000      -1.002934       -27.2912
 121   2.0000      -0.997857       -27.1531
 122   2.0000      -0.994401       -27.0590
 123   2.0000      -0.989128       -26.9155
 124   2.0000      -0.983752       -26.7692
 125   2.0000      -0.970508       -26.4089
 126   2.0000      -0.959711       -26.1151
 127   2.0000      -0.949512       -25.8375
 128   2.0000      -0.947554       -25.7843
 129   2.0000      -0.926937       -25.2232
 130   2.0000      -0.915368       -24.9084
 131   2.0000      -0.909928       -24.7604
 132   2.0000      -0.909681       -24.7537
 133   2.0000      -0.908033       -24.7088
 134   2.0000      -0.905858       -24.6496
 135   2.0000      -0.902384       -24.5551
 136   2.0000      -0.890063       -24.2198
 137   2.0000      -0.879424       -23.9303
 138   2.0000      -0.877268       -23.8717
 139   2.0000      -0.876814       -23.8593
 140   2.0000      -0.871714       -23.7205
 141   2.0000      -0.863454       -23.4958
 142   2.0000      -0.851788       -23.1783
 143   2.0000      -0.849480       -23.1155
 144   2.0000      -0.846999       -23.0480
 145   2.0000      -0.844459       -22.9789
 146   2.0000      -0.838839       -22.8260
 147   2.0000      -0.826699       -22.4956
 148   2.0000      -0.815038       -22.1783
 149   2.0000      -0.805531       -21.9196
 150   2.0000      -0.800371       -21.7792
 151   2.0000      -0.780741       -21.2451
 152   2.0000      -0.777331       -21.1522
 153   2.0000      -0.767347       -20.8806
 154   2.0000      -0.762857       -20.7584
 155   2.0000      -0.761291       -20.7158
 156   2.0000      -0.744519       -20.2594
 157   2.0000      -0.740969       -20.1628
 158   2.0000      -0.728402       -19.8208
 159   2.0000      -0.714849       -19.4520
 160   2.0000      -0.708738       -19.2857
 161   2.0000      -0.707220       -19.2444
 162   2.0000      -0.705324       -19.1928
 163   2.0000      -0.702352       -19.1120
 164   2.0000      -0.698327       -19.0024
 165   2.0000      -0.693954       -18.8834
 166   2.0000      -0.686088       -18.6694
 167   2.0000      -0.681774       -18.5520
 168   2.0000      -0.679635       -18.4938
 169   2.0000      -0.673145       -18.3172
 170   2.0000      -0.665397       -18.1064
 171   2.0000      -0.661015       -17.9871
 172   2.0000      -0.656947       -17.8764
 173   2.0000      -0.653728       -17.7889
 174   2.0000      -0.646786       -17.5999
 175   2.0000      -0.631233       -17.1767
 176   2.0000      -0.630606       -17.1597
 177   2.0000      -0.625231       -17.0134
 178   2.0000      -0.615935       -16.7605
 179   2.0000      -0.614045       -16.7090
 180   2.0000      -0.612224       -16.6595
 181   2.0000      -0.609011       -16.5720
 182   2.0000      -0.590530       -16.0691
 183   2.0000      -0.587343       -15.9824
 184   2.0000      -0.584608       -15.9080
 185   2.0000      -0.582937       -15.8625
 186   2.0000      -0.579563       -15.7707
 187   2.0000      -0.578232       -15.7345
 188   2.0000      -0.572617       -15.5817
 189   2.0000      -0.566806       -15.4236
 190   2.0000      -0.563630       -15.3372
 191   2.0000      -0.562171       -15.2975
 192   2.0000      -0.554745       -15.0954
 193   2.0000      -0.553601       -15.0642
 194   2.0000      -0.551631       -15.0106
 195   2.0000      -0.550328       -14.9752
 196   2.0000      -0.544729       -14.8228
 197   2.0000      -0.543742       -14.7960
 198   2.0000      -0.542883       -14.7726
 199   2.0000      -0.540844       -14.7171
 200   2.0000      -0.539590       -14.6830
 201   2.0000      -0.539161       -14.6713
 202   2.0000      -0.537883       -14.6366
 203   2.0000      -0.534027       -14.5316
 204   2.0000      -0.531649       -14.4669
 205   2.0000      -0.530696       -14.4410
 206   2.0000      -0.528548       -14.3825
 207   2.0000      -0.525996       -14.3131
 208   2.0000      -0.524673       -14.2771
 209   2.0000      -0.520147       -14.1539
 210   2.0000      -0.519522       -14.1369
 211   2.0000      -0.515913       -14.0387
 212   2.0000      -0.513651       -13.9771
 213   2.0000      -0.511465       -13.9177
 214   2.0000      -0.506914       -13.7938
 215   2.0000      -0.506357       -13.7787
 216   2.0000      -0.499755       -13.5990
 217   2.0000      -0.498692       -13.5701
 218   2.0000      -0.497563       -13.5394
 219   2.0000      -0.495279       -13.4772
 220   2.0000      -0.494001       -13.4425
 221   2.0000      -0.493220       -13.4212
 222   2.0000      -0.490962       -13.3598
 223   2.0000      -0.489049       -13.3077
 224   2.0000      -0.487271       -13.2593
 225   2.0000      -0.484924       -13.1955
 226   2.0000      -0.484136       -13.1740
 227   2.0000      -0.482309       -13.1243
 228   2.0000      -0.481517       -13.1027
 229   2.0000      -0.479684       -13.0529
 230   2.0000      -0.478620       -13.0239
 231   2.0000      -0.470144       -12.7933
 232   2.0000      -0.468337       -12.7441
 233   2.0000      -0.462593       -12.5878
 234   2.0000      -0.461246       -12.5511
 235   2.0000      -0.459342       -12.4993
 236   2.0000      -0.457694       -12.4545
 237   2.0000      -0.456445       -12.4205
 238   2.0000      -0.455712       -12.4006
 239   2.0000      -0.453689       -12.3455
 240   2.0000      -0.452094       -12.3021
 241   2.0000      -0.451117       -12.2755
 242   2.0000      -0.448446       -12.2028
 243   2.0000      -0.445003       -12.1091
 244   2.0000      -0.444955       -12.1079
 245   2.0000      -0.442879       -12.0513
 246   2.0000      -0.440088       -11.9754
 247   2.0000      -0.438329       -11.9275
 248   2.0000      -0.434943       -11.8354
 249   2.0000      -0.430999       -11.7281
 250   2.0000      -0.429031       -11.6745
 251   2.0000      -0.426988       -11.6189
 252   2.0000      -0.424481       -11.5507
 253   2.0000      -0.422798       -11.5049
 254   2.0000      -0.422413       -11.4945
 255   2.0000      -0.422226       -11.4893
 256   2.0000      -0.420688       -11.4475
 257   2.0000      -0.412211       -11.2168
 258   2.0000      -0.406582       -11.0637
 259   2.0000      -0.403104       -10.9690
 260   2.0000      -0.402967       -10.9653
 261   2.0000      -0.401521       -10.9260
 262   2.0000      -0.397905       -10.8275
 263   2.0000      -0.394719       -10.7409
 264   2.0000      -0.384825       -10.4716
 265   2.0000      -0.380032       -10.3412
 266   2.0000      -0.367897       -10.0110
 267   2.0000      -0.363480        -9.8908
 268   2.0000      -0.350950        -9.5498
 269   2.0000      -0.350058        -9.5256
 270   2.0000      -0.346928        -9.4404
 271   2.0000      -0.344434        -9.3725
 272   2.0000      -0.342103        -9.3091
 273   2.0000      -0.341929        -9.3044
 274   2.0000      -0.340963        -9.2781
 275   2.0000      -0.336680        -9.1615
 276   2.0000      -0.334750        -9.1090
 277   2.0000      -0.332245        -9.0408
 278   2.0000      -0.330327        -8.9887
 279   2.0000      -0.314828        -8.5669
 280   2.0000      -0.313734        -8.5371
 281   2.0000      -0.307042        -8.3550
 282   2.0000      -0.304986        -8.2991
 283   2.0000      -0.302200        -8.2233
 284   2.0000      -0.295072        -8.0293
 285   2.0000      -0.274622        -7.4729
 286   2.0000      -0.240719        -6.5503
 287   0.0000      -0.096445        -2.6244
 288   0.0000      -0.083388        -2.2691
 289   0.0000      -0.073955        -2.0124
 290   0.0000      -0.069412        -1.8888
 291   0.0000      -0.054556        -1.4846

MULLIKEN ATOMIC CHARGES
-----------------------
   0 C :    0.170319
   1 O :   -0.213502
   2 C :   -0.012819
   3 C :    0.034814
   4 C :   -0.008557
   5 C :   -0.029863
   6 C :   -0.013952
   7 C :   -0.025260
   8 Br:    0.006356
   9 Br:    0.016592
  10 C :    0.318609
  11 C :   -0.366920
  12 C :   -0.186794
  13 N :    0.145616
  14 C :   -0.178398
  15 N :    0.143586
  16 C :   -0.094577
  17 C :    0.014781
  18 C :    0.029149
  19 N :   -0.013860
  20 C :    0.133508
  21 C :   -0.169836
  22 C :    0.119194
  23 N :   -0.036250
  24 C :    0.148898
  25 C :   -0.162589
  26 C :    0.007754
  27 C :   -0.009306
  28 C :   -0.124304
  29 S :    0.125263
  30 C :    0.023805
  31 C :    0.138684
  32 O :   -0.172040
  33 C :   -0.024586
  34 C :    0.015640
  35 N :   -0.132025
  36 C :    0.090625
  37 C :   -0.001460
  38 C :    0.021178
  39 C :   -0.006779
  40 C :    0.153336
  41 O :   -0.193120
  42 C :    0.019615
  43 C :   -0.115984
  44 C :   -0.002671
  45 C :    0.060755
  46 C :   -0.087612
  47 C :    0.057174
  48 C :    0.119252
  49 C :   -0.042315
  50 C :   -0.088123
  51 C :    0.044046
  52 C :    0.006159
  53 C :   -0.037315
  54 S :    0.145433
  55 C :   -0.145350
  56 N :    0.101276
  57 C :   -0.139498
  58 C :   -0.063455
  59 C :    0.135599
  60 O :   -0.134367
  61 C :   -0.014116
  62 C :    0.081541
  63 C :   -0.072791
  64 C :   -0.097900
  65 C :   -0.076733
  66 C :   -0.070609
  67 C :    0.113723
  68 C :    0.107161
  69 C :    0.365283
  70 C :   -0.357103
  71 C :   -0.188643
  72 N :    0.174119
  73 C :   -0.189435
  74 N :    0.153885
  75 H :    0.006240
  76 H :    0.002222
  77 H :   -0.012963
  78 H :    0.144611
  79 H :   -0.010160
  80 H :    0.126740
  81 H :   -0.006846
  82 H :   -0.020346
  83 H :    0.028533
  84 H :    0.008867
  85 H :    0.033910
  86 H :    0.036625
  87 H :    0.027421
  88 H :    0.033564
  89 H :    0.032402
  90 H :   -0.020561
  91 H :    0.018933
  92 H :   -0.012148
  93 H :   -0.000198
  94 H :   -0.000275
  95 H :   -0.012776
  96 H :    0.049628
  97 H :   -0.019677
  98 H :   -0.018814
  99 H :    0.019549
 100 H :    0.019529
 101 H :    0.029169
 102 H :    0.029661
 103 H :    0.008192
 104 H :    0.037058
Sum of atomic charges:   -0.0000000

LOEWDIN ATOMIC CHARGES
----------------------
   0 C :    0.095496
   1 O :   -0.166653
   2 C :   -0.040007
   3 C :   -0.009115
   4 C :   -0.008312
   5 C :   -0.120167
   6 C :   -0.125410
   7 C :    0.003108
   8 Br:    0.131140
   9 Br:    0.136797
  10 C :    0.076808
  11 C :   -0.148521
  12 C :   -0.019724
  13 N :   -0.056741
  14 C :   -0.021770
  15 N :   -0.058826
  16 C :   -0.132366
  17 C :    0.057573
  18 C :   -0.014628
  19 N :    0.081911
  20 C :    0.020288
  21 C :   -0.088938
  22 C :    0.030936
  23 N :    0.066566
  24 C :   -0.020555
  25 C :   -0.041766
  26 C :   -0.033749
  27 C :   -0.020246
  28 C :   -0.125748
  29 S :    0.450651
  30 C :   -0.084175
  31 C :    0.081786
  32 O :   -0.168472
  33 C :   -0.099725
  34 C :    0.032968
  35 N :    0.090810
  36 C :    0.044491
  37 C :   -0.057951
  38 C :    0.031438
  39 C :   -0.099740
  40 C :    0.092019
  41 O :   -0.172623
  42 C :   -0.087679
  43 C :   -0.121962
  44 C :   -0.031968
  45 C :   -0.034287
  46 C :   -0.141374
  47 C :   -0.062974
  48 C :   -0.034603
  49 C :    0.016448
  50 C :   -0.071139
  51 C :    0.008687
  52 C :   -0.027235
  53 C :   -0.134035
  54 S :    0.431632
  55 C :   -0.029400
  56 N :   -0.061042
  57 C :    0.064582
  58 C :   -0.068562
  59 C :    0.087302
  60 O :   -0.136824
  61 C :   -0.047597
  62 C :    0.001795
  63 C :   -0.001913
  64 C :   -0.011655
  65 C :   -0.011103
  66 C :    0.009335
  67 C :   -0.043451
  68 C :   -0.046171
  69 C :    0.075584
  70 C :   -0.120954
  71 C :   -0.016065
  72 N :   -0.042394
  73 C :   -0.011165
  74 N :   -0.051019
  75 H :    0.044348
  76 H :    0.044248
  77 H :    0.050757
  78 H :    0.069647
  79 H :    0.033973
  80 H :    0.092236
  81 H :    0.035387
  82 H :    0.020140
  83 H :    0.041225
  84 H :    0.030513
  85 H :    0.032638
  86 H :    0.035594
  87 H :    0.026908
  88 H :    0.034295
  89 H :    0.032612
  90 H :    0.027439
  91 H :    0.037312
  92 H :    0.021999
  93 H :    0.039714
  94 H :    0.040550
  95 H :    0.035668
  96 H :    0.052927
  97 H :    0.034436
  98 H :    0.036228
  99 H :    0.032638
 100 H :    0.034490
 101 H :    0.038900
 102 H :    0.036307
 103 H :    0.026694
 104 H :    0.042523

  Mayer bond orders larger than 0.100000
B(  0-C ,  1-O ) :   2.0559 B(  0-C ,  2-C ) :   0.9734 B(  0-C , 16-C ) :   0.9985
B(  1-O , 78-H ) :   0.1377 B(  2-C ,  3-C ) :   1.3319 B(  2-C ,  7-C ) :   1.3733
B(  3-C ,  4-C ) :   1.3757 B(  3-C , 10-C ) :   0.9739 B(  4-C ,  5-C ) :   1.3590
B(  4-C , 75-H ) :   0.9782 B(  5-C ,  6-C ) :   1.4345 B(  5-C ,  9-Br) :   1.0559
B(  6-C ,  7-C ) :   1.3427 B(  6-C ,  8-Br) :   1.0274 B(  7-C , 76-H ) :   1.0083
B( 10-C , 11-C ) :   1.6017 B( 10-C , 16-C ) :   1.1264 B( 11-C , 12-C ) :   1.1467
B( 11-C , 14-C ) :   1.1466 B( 12-C , 13-N ) :   2.9637 B( 14-C , 15-N ) :   2.9570
B( 16-C , 17-C ) :   1.3715 B( 17-C , 18-C ) :   1.3384 B( 17-C , 77-H ) :   0.9217
B( 18-C , 19-N ) :   1.2014 B( 18-C , 25-C ) :   1.2185 B( 19-N , 20-C ) :   1.2403
B( 19-N , 78-H ) :   0.8604 B( 20-C , 21-C ) :   1.2529 B( 20-C , 24-C ) :   1.2273
B( 21-C , 22-C ) :   1.4003 B( 21-C , 79-H ) :   1.0359 B( 22-C , 23-N ) :   1.1832
B( 22-C , 26-C ) :   1.1132 B( 23-N , 24-C ) :   1.1406 B( 23-N , 80-H ) :   0.9358
B( 24-C , 25-C ) :   1.3291 B( 25-C , 81-H ) :   1.0455 B( 26-C , 27-C ) :   1.6133
B( 26-C , 82-H ) :   0.9631 B( 27-C , 28-C ) :   1.1805 B( 27-C , 83-H ) :   0.9564
B( 28-C , 29-S ) :   1.1073 B( 28-C , 30-C ) :   1.4826 B( 29-S , 43-C ) :   1.1174
B( 30-C , 31-C ) :   0.9438 B( 30-C , 42-C ) :   1.1731 B( 31-C , 32-O ) :   2.1839
B( 31-C , 33-C ) :   0.9978 B( 33-C , 34-C ) :   1.4317 B( 33-C , 39-C ) :   1.2845
B( 34-C , 35-N ) :   1.2297 B( 34-C , 84-H ) :   0.9920 B( 35-N , 36-C ) :   0.9506
B( 35-N , 38-C ) :   1.2405 B( 36-C , 37-C ) :   1.1090 B( 36-C , 85-H ) :   0.9511
B( 36-C , 86-H ) :   0.9505 B( 37-C , 87-H ) :   0.9677 B( 37-C , 88-H ) :   0.9680
B( 37-C , 89-H ) :   0.9642 B( 38-C , 39-C ) :   1.4224 B( 38-C , 90-H ) :   0.9950
B( 39-C , 40-C ) :   1.0109 B( 40-C , 41-O ) :   2.0935 B( 40-C , 42-C ) :   0.9668
B( 42-C , 43-C ) :   1.4846 B( 43-C , 44-C ) :   1.1838 B( 44-C , 45-C ) :   1.6575
B( 44-C , 91-H ) :   0.9550 B( 45-C , 46-C ) :   1.1257 B( 45-C , 92-H ) :   0.9453
B( 46-C , 47-C ) :   1.5619 B( 46-C , 54-S ) :   1.0788 B( 47-C , 48-C ) :   1.1636
B( 47-C , 57-C ) :   0.9226 B( 48-C , 49-C ) :   1.3050 B( 48-C , 53-C ) :   1.3147
B( 49-C , 50-C ) :   1.4150 B( 49-C , 93-H ) :   0.9876 B( 50-C , 51-C ) :   1.3239
B( 50-C , 55-C ) :   1.0586 B( 51-C , 52-C ) :   1.4325 B( 51-C , 94-H ) :   0.9904
B( 52-C , 53-C ) :   1.3329 B( 52-C , 95-H ) :   0.9955 B( 53-C , 54-S ) :   1.0745
B( 55-C , 56-N ) :   3.0532 B( 57-C , 58-C ) :   1.8466 B( 57-C , 96-H ) :   0.9235
B( 58-C , 59-C ) :   0.9089 B( 58-C , 69-C ) :   0.9842 B( 59-C , 60-O ) :   2.2751
B( 59-C , 61-C ) :   0.9363 B( 61-C , 62-C ) :   1.3405 B( 61-C , 66-C ) :   1.3460
B( 62-C , 63-C ) :   1.3444 B( 62-C , 69-C ) :   0.9991 B( 63-C , 64-C ) :   1.3855
B( 63-C , 97-H ) :   0.9802 B( 64-C , 65-C ) :   1.3649 B( 64-C , 68-C ) :   1.0895
B( 65-C , 66-C ) :   1.3666 B( 65-C , 67-C ) :   1.0905 B( 66-C , 98-H ) :   1.0085
B( 67-C , 99-H ) :   0.9418 B( 67-C ,100-H ) :   0.9503 B( 67-C ,101-H ) :   0.9382
B( 68-C ,102-H ) :   0.9529 B( 68-C ,103-H ) :   0.9387 B( 68-C ,104-H ) :   0.9393
B( 69-C , 70-C ) :   1.6711 B( 70-C , 71-C ) :   1.1779 B( 70-C , 73-C ) :   1.1366
B( 71-C , 72-N ) :   2.9809 B( 73-C , 74-N ) :   2.9712

-----------------------------------------------------------------------------
         ABSORPTION SPECTRUM VIA TRANSITION ELECTRIC DIPOLE MOMENTS
-----------------------------------------------------------------------------
State   Energy  Wavelength   fosc         T2         TX        TY        TZ
        (cm-1)    (nm)                  (au**2)     (au)      (au)      (au)
-----------------------------------------------------------------------------
   0   16549.3    604.3   2.213006817  44.02294   0.72626  -6.54255   0.83098
   1   19996.7    500.1   0.005586979   0.09198   0.13477   0.22192  -0.15675
   2   21554.3    463.9   0.086704418   1.32429   0.06018   0.87986   0.73927
   3   22834.5    437.9   0.235285554   3.39218   0.06030  -0.77473  -1.66983
   4   25517.7    391.9   0.037900823   0.48897  -0.35927   0.59974   0.01441
   5   26012.3    384.4   0.061698300   0.78086   0.35275   0.41009   0.69875
   6   26575.2    376.3   0.067567001   0.83701   0.01955   0.31040   0.86040
   7   27275.2    366.6   0.044135047   0.53271   0.16292  -0.50622   0.49991
   8   27568.4    362.7   0.001591295   0.01900  -0.01663  -0.06520  -0.12031
   9   28646.9    349.1   0.200016296   2.29860  -0.31229   1.06144   1.03654
  10   28783.9    347.4   0.023876046   0.27308  -0.07511  -0.46883  -0.21826
  11   29516.8    338.8   0.018746014   0.20908   0.31075   0.26311   0.20805
  12   30060.0    332.7   0.001109784   0.01215  -0.07719  -0.05763  -0.05361
  13   30637.7    326.4   0.175494989   1.88575  -0.44078  -0.92388  -0.91538
  14   31011.2    322.5   0.029358445   0.31167   0.52823   0.15443   0.09376
  15   31082.8    321.7   0.238200874   2.52289  -0.93379  -0.61632  -1.12742
  16   31904.6    313.4   0.031615652   0.32623  -0.37169  -0.14342  -0.40927
  17   32550.7    307.2   0.041669766   0.42144  -0.48180  -0.17447  -0.39859
  18   32817.9    304.7   0.014666392   0.14713   0.04997   0.29638  -0.23830
  19   32917.6    303.8   0.004777376   0.04778   0.08653   0.06445   0.19010
  20   32951.9    303.5   0.008051188   0.08044  -0.09976  -0.24467  -0.10305
  21   33026.3    302.8   0.018080178   0.18023   0.09746   0.12246   0.39463
  22   33349.7    299.9   0.008344441   0.08237   0.04656  -0.21641  -0.18267
  23   33962.1    294.4   0.021946050   0.21273  -0.04641  -0.40419  -0.21727
  24   34150.1    292.8   0.200463491   1.93250  -0.33075   0.03153  -1.34985
  25   34235.7    292.1   0.172757444   1.66124   0.52528   0.13850   1.16882
  26   34355.8    291.1   0.002427985   0.02327   0.08388   0.09359   0.08644
  27   34596.6    289.0   0.442551187   4.21120  -0.63115  -0.41810  -1.90736
  28   34945.2    286.2   0.009010276   0.08488   0.23169  -0.00383   0.17661
  29   34969.0    286.0   0.005186910   0.04883   0.20444  -0.00079   0.08387
  30   35008.4    285.6   0.025367329   0.23855   0.16644   0.15409  -0.43256
  31   35364.5    282.8   0.123444041   1.14915   0.80591   0.04871   0.70518
  32   35540.9    281.4   0.082185847   0.76128   0.05258  -0.14274   0.85915
  33   35774.8    279.5   0.066509964   0.61205  -0.42937  -0.65339   0.02783
  34   35894.2    278.6   0.010176258   0.09333  -0.12529   0.14954   0.23510
  35   36175.2    276.4   0.093707015   0.85278   0.19743   0.46512   0.77296
  36   36219.8    276.1   0.018122747   0.16472  -0.27715   0.15267   0.25417
  37   36365.1    275.0   0.030941969   0.28012   0.15156   0.03302   0.50602
  38   36432.2    274.5   0.221362782   2.00030  -1.18522   0.34122  -0.69218
  39   36742.2    272.2   0.094460895   0.84637  -0.73115  -0.55172  -0.08598
  40   37141.2    269.2   0.091361474   0.80981   0.40621  -0.28000   0.75260
  41   37287.3    268.2   0.028435523   0.25106   0.14941   0.40541   0.25373
  42   37501.3    266.7   0.071475040   0.62746  -0.21903  -0.62190  -0.43899
  43   37720.7    265.1   0.125312143   1.09368   0.04492   0.88556   0.55447
  44   37911.6    263.8   0.279677696   2.42863   0.07575  -0.73690   1.37108
  45   37983.2    263.3   0.144212460   1.24993   0.98025  -0.49235  -0.21595
  46   38314.3    261.0   0.055742335   0.47896  -0.62255  -0.29041  -0.08400
  47   38333.4    260.9   0.003724541   0.03199   0.14951  -0.08249  -0.05320
  48   38579.0    259.2   0.014913011   0.12726  -0.15878   0.19070  -0.25628
  49   39147.6    255.4   0.262711290   2.20927  -0.19097  -1.21618  -0.83290
  50   39341.4    254.2   0.012500754   0.10461   0.10592   0.22020   0.21190
  51   39568.1    252.7   0.000042323   0.00035  -0.01494  -0.00075   0.01134
  52   39784.9    251.4   0.027222489   0.22526  -0.21393   0.16495  -0.39024
  53   39870.5    250.8   0.002688669   0.02220   0.07048   0.02082   0.12962
  54   40008.2    249.9   0.006576802   0.05412  -0.18834  -0.12853  -0.04610
  55   40103.6    249.4   0.018982962   0.15583   0.05328  -0.23346  -0.31383
  56   40272.1    248.3   0.088650091   0.72469  -0.25045   0.31238  -0.75125

FINAL SINGLE POINT ENERGY     -8945.475483583734

DIPOLE MOMENT
-------------
                                X             Y             Z
Electronic contribution:    -29.90931     343.08225     -23.81093
Nuclear contribution   :     31.10772    -344.25235      28.00838
                        -----------------------------------------
Total Dipole Moment    :      1.19841      -1.17011       4.19746
                        -----------------------------------------
Magnitude (a.u.)       :      4.51929
Magnitude (Debye)      :     11.48712

Rotational constants in cm-1:     0.001340     0.000188     0.000169
Rotational constants in MHz :    40.182741     5.645544     5.081173

                             ****ORCA TERMINATED NORMALLY****
TOTAL RUN TIME: 0 days 0 hours 11 minutes 20 seconds 160 msec
