                         Program Version 4.2.0 -  RELEASE  -
|  1> # ORCA input file
|  2> # SCF done       -229.525323641199          0.000485660951
|  3> ! CAM-B3LYP def2-SVP def2/J RIJCOSX Grid4 TightSCF
|  4> %maxcore 5000
|  5> %tddft
|  6>     Mode sTDDFT
|  7>     Ethresh 5.0
|  8>     maxcore 5000
|  9> end
| 10>
| 11> %pal
| 12>   nprocs 6
| 13>   end
| 14> * xyz 0 1
| 15>    C        1.50572        -0.40628         0.34789
| 16>    O        2.35197        -0.97961         1.00667
| 17>    C        1.62019         0.96334        -0.20790
| 18>    C        0.48538         1.25546        -0.98320
| 19>    C        0.38609         2.47970        -1.62024
| 20>    C        1.42399         3.39412        -1.46882
| 21>    C        2.54503         3.09595        -0.69469
| 22>    C        2.65076         1.86568        -0.05704
| 23>   Br        3.93977         4.35904        -0.49874
| 24>   Br        1.29098         5.06652        -2.34401
| 25>    C       -0.41415         0.10240        -0.94284
| 26>    C       -1.66806         0.05085        -1.49963
| 27>    C       -2.23673         1.09541        -2.25583
| 28>    N       -2.74221         1.91287        -2.88372
| 29>    C       -2.56310        -1.03011        -1.36170
| 30>    N       -3.35155        -1.85980        -1.26736
| 31>    C        0.21987        -0.92088        -0.14811
| 32>    C       -0.19028        -2.23952        -0.07931
| 33>    C        0.28007        -3.23866         0.77064
| 34>    S        0.18127        -4.89198         0.21524
| 35>    C        1.05267        -5.50270         1.57852
| 36>    C        1.32806        -4.46528         2.49840
| 37>    C        0.86435        -3.19523         2.05595
| 38>    C        0.93977        -2.09537         2.91830
| 39>    C        1.56587        -2.23108         4.13308
| 40>    S        1.71328        -0.86703         5.25058
| 41>    C        2.10796        -3.47726         4.54700
| 42>    O        2.73391        -3.62506         5.73118
| 43>    C        1.96191        -4.58329         3.74089
| 44>    C        1.43782        -6.84758         1.68182
| 45>    C        1.09774        -7.80793         0.77273
| 46>    C        1.55006        -9.14945         0.78546
| 47>    C        2.66928        -9.49783         1.68287
| 48>    C        2.53603       -10.51595         2.62922
| 49>    C        3.56452       -10.84003         3.50432
| 50>    C        4.76441       -10.13485         3.45237
| 51>    C        4.92108        -9.11341         2.52022
| 52>    C        3.87948        -8.80498         1.65204
| 53>    F        4.06278        -7.83823         0.74903
| 54>    F        6.06862        -8.43725         2.45954
| 55>    F        5.75626       -10.43996         4.28705
| 56>    F        3.40779       -11.82295         4.39268
| 57>    F        1.39429       -11.20653         2.69551
| 58>    C        0.98062       -10.12453        -0.01886
| 59>    C       -0.32206        -9.85747        -0.65947
| 60>    C       -1.42331        -9.42993         0.08661
| 61>    C       -2.66297        -9.20228        -0.50036
| 62>    C       -2.82849        -9.39937        -1.86887
| 63>    C       -1.74534        -9.82125        -2.63547
| 64>    C       -0.51427       -10.04471        -2.03003
| 65>    F        0.51112       -10.42672        -2.79715
| 66>    F       -1.89099       -10.01150        -3.94756
| 67>    F       -4.01227        -9.19071        -2.43953
| 68>    F       -3.69368        -8.80425         0.24462
| 69>    F       -1.30263        -9.25543         1.40437
| 70>    C        1.56528       -11.38686        -0.30845
| 71>    S        3.30381       -11.65018        -0.21937
| 72>    C        3.10538       -13.23896        -0.82370
| 73>    C        1.76467       -13.56302        -1.06108
| 74>    C        0.90416       -12.51991        -0.77772
| 75>    C        1.64586       -14.97178        -1.59421
| 76>    C        0.85860       -15.86486        -0.63051
| 77>    C        1.01427       -14.98608        -2.98871
| 78>    C        3.10280       -15.37168        -1.64347
| 79>    C        3.91630       -14.33452        -1.17484
| 80>    S        5.58251       -14.73414        -1.22195
| 81>    C        5.19670       -16.30903        -1.88550
| 82>    C        3.82666       -16.48376        -2.04191
| 83>    C        6.26662       -17.18677        -2.19471
| 84>    C        6.14573       -18.42003        -2.73828
| 85>    C        7.25048       -19.25729        -3.05500
| 86>    C        7.20115       -20.50471        -3.61586
| 87>    C        8.47349       -21.08984        -3.82534
| 88>    C        9.52500       -20.23586        -3.39830
| 89>    S        8.90484       -18.74255        -2.75287
| 90>    C       10.85304       -20.58603        -3.50254
| 91>    C       11.15735       -21.82940        -4.05057
| 92>    C       10.10806       -22.68409        -4.47756
| 93>    C        8.77963       -22.33531        -4.37379
| 94>    S       10.73979       -24.17566        -5.12467
| 95>    C       12.36099       -23.64639        -4.82173
| 96>    C       12.43698       -22.41987        -4.26593
| 97>    H       -0.46201         2.74250        -2.23143
| 98>    H        3.51613         1.62110         0.53927
| 99>    H       -0.90209        -2.57142        -0.82648
|100>    H        0.48562        -1.15874         2.63816
|101>    H        1.25956         0.05148         4.40624
|102>    H        2.80048        -2.78027         6.19633
|103>    H        2.33846        -5.52753         4.09674
|104>    H        2.03972        -7.10732         2.54086
|105>    H        0.43539        -7.52276        -0.03432
|106>    H       -0.16569       -12.56285        -0.87815
|107>    H       -0.16613       -15.51201        -0.54687
|108>    H        1.31386       -15.85019         0.35706
|109>    H        0.84877       -16.88880        -0.99524
|110>    H       -0.01459       -14.63931        -2.93612
|111>    H        1.02384       -15.99525        -3.39248
|112>    H        1.56709       -14.33450        -3.66131
|113>    H        3.39667       -17.38685        -2.43382
|114>    H        7.25998       -16.81395        -1.97905
|115>    H        5.17059       -18.82697        -2.96725
|116>    H        6.27916       -20.99447        -3.87556
|117>    H       11.63588       -19.92174        -3.17234
|118>    H        7.99658       -22.99897        -4.70458
|119>    H       13.16803       -24.30207        -5.08526
|120>    H       13.36053       -21.93254        -4.00979
|121> *
|122>
|123>                          ****END OF INPUT****

CARTESIAN COORDINATES (ANGSTROEM)
---------------------------------
  C      1.505720   -0.406280    0.347890
  O      2.351970   -0.979610    1.006670
  C      1.620190    0.963340   -0.207900
  C      0.485380    1.255460   -0.983200
  C      0.386090    2.479700   -1.620240
  C      1.423990    3.394120   -1.468820
  C      2.545030    3.095950   -0.694690
  C      2.650760    1.865680   -0.057040
  Br     3.939770    4.359040   -0.498740
  Br     1.290980    5.066520   -2.344010
  C     -0.414150    0.102400   -0.942840
  C     -1.668060    0.050850   -1.499630
  C     -2.236730    1.095410   -2.255830
  N     -2.742210    1.912870   -2.883720
  C     -2.563100   -1.030110   -1.361700
  N     -3.351550   -1.859800   -1.267360
  C      0.219870   -0.920880   -0.148110
  C     -0.190280   -2.239520   -0.079310
  C      0.280070   -3.238660    0.770640
  S      0.181270   -4.891980    0.215240
  C      1.052670   -5.502700    1.578520
  C      1.328060   -4.465280    2.498400
  C      0.864350   -3.195230    2.055950
  C      0.939770   -2.095370    2.918300
  C      1.565870   -2.231080    4.133080
  S      1.713280   -0.867030    5.250580
  C      2.107960   -3.477260    4.547000
  O      2.733910   -3.625060    5.731180
  C      1.961910   -4.583290    3.740890
  C      1.437820   -6.847580    1.681820
  C      1.097740   -7.807930    0.772730
  C      1.550060   -9.149450    0.785460
  C      2.669280   -9.497830    1.682870
  C      2.536030  -10.515950    2.629220
  C      3.564520  -10.840030    3.504320
  C      4.764410  -10.134850    3.452370
  C      4.921080   -9.113410    2.520220
  C      3.879480   -8.804980    1.652040
  F      4.062780   -7.838230    0.749030
  F      6.068620   -8.437250    2.459540
  F      5.756260  -10.439960    4.287050
  F      3.407790  -11.822950    4.392680
  F      1.394290  -11.206530    2.695510
  C      0.980620  -10.124530   -0.018860
  C     -0.322060   -9.857470   -0.659470
  C     -1.423310   -9.429930    0.086610
  C     -2.662970   -9.202280   -0.500360
  C     -2.828490   -9.399370   -1.868870
  C     -1.745340   -9.821250   -2.635470
  C     -0.514270  -10.044710   -2.030030
  F      0.511120  -10.426720   -2.797150
  F     -1.890990  -10.011500   -3.947560
  F     -4.012270   -9.190710   -2.439530
  F     -3.693680   -8.804250    0.244620
  F     -1.302630   -9.255430    1.404370
  C      1.565280  -11.386860   -0.308450
  S      3.303810  -11.650180   -0.219370
  C      3.105380  -13.238960   -0.823700
  C      1.764670  -13.563020   -1.061080
  C      0.904160  -12.519910   -0.777720
  C      1.645860  -14.971780   -1.594210
  C      0.858600  -15.864860   -0.630510
  C      1.014270  -14.986080   -2.988710
  C      3.102800  -15.371680   -1.643470
  C      3.916300  -14.334520   -1.174840
  S      5.582510  -14.734140   -1.221950
  C      5.196700  -16.309030   -1.885500
  C      3.826660  -16.483760   -2.041910
  C      6.266620  -17.186770   -2.194710
  C      6.145730  -18.420030   -2.738280
  C      7.250480  -19.257290   -3.055000
  C      7.201150  -20.504710   -3.615860
  C      8.473490  -21.089840   -3.825340
  C      9.525000  -20.235860   -3.398300
  S      8.904840  -18.742550   -2.752870
  C     10.853040  -20.586030   -3.502540
  C     11.157350  -21.829400   -4.050570
  C     10.108060  -22.684090   -4.477560
  C      8.779630  -22.335310   -4.373790
  S     10.739790  -24.175660   -5.124670
  C     12.360990  -23.646390   -4.821730
  C     12.436980  -22.419870   -4.265930
  H     -0.462010    2.742500   -2.231430
  H      3.516130    1.621100    0.539270
  H     -0.902090   -2.571420   -0.826480
  H      0.485620   -1.158740    2.638160
  H      1.259560    0.051480    4.406240
  H      2.800480   -2.780270    6.196330
  H      2.338460   -5.527530    4.096740
  H      2.039720   -7.107320    2.540860
  H      0.435390   -7.522760   -0.034320
  H     -0.165690  -12.562850   -0.878150
  H     -0.166130  -15.512010   -0.546870
  H      1.313860  -15.850190    0.357060
  H      0.848770  -16.888800   -0.995240
  H     -0.014590  -14.639310   -2.936120
  H      1.023840  -15.995250   -3.392480
  H      1.567090  -14.334500   -3.661310
  H      3.396670  -17.386850   -2.433820
  H      7.259980  -16.813950   -1.979050
  H      5.170590  -18.826970   -2.967250
  H      6.279160  -20.994470   -3.875560
  H     11.635880  -19.921740   -3.172340
  H      7.996580  -22.998970   -4.704580
  H     13.168030  -24.302070   -5.085260
  H     13.360530  -21.932540   -4.009790

 Total Charge           Charge          ....    0
 Multiplicity           Mult            ....    1
 Number of Electrons    NEL             ....  670
 Basis Dimension        Dim             .... 1328

ORBITAL ENERGIES
----------------

  NO   OCC          E(Eh)            E(eV)
   0   2.0000    -482.870000    -13139.5607
   1   2.0000    -482.867281    -13139.4867
   2   2.0000     -88.976744     -2421.1803
   3   2.0000     -88.975536     -2421.1474
   4   2.0000     -88.971383     -2421.0344
   5   2.0000     -88.951451     -2420.4920
   6   2.0000     -88.946043     -2420.3449
   7   2.0000     -88.945425     -2420.3281
   8   2.0000     -62.547588     -1702.0064
   9   2.0000     -62.544919     -1701.9338
  10   2.0000     -56.381523     -1534.2192
  11   2.0000     -56.378897     -1534.1478
  12   2.0000     -56.378871     -1534.1471
  13   2.0000     -56.378806     -1534.1453
  14   2.0000     -56.376213     -1534.0748
  15   2.0000     -56.376125     -1534.0723
  16   2.0000     -24.819444      -675.3714
  17   2.0000     -24.816145      -675.2816
  18   2.0000     -24.815850      -675.2736
  19   2.0000     -24.815663      -675.2685
  20   2.0000     -24.814612      -675.2399
  21   2.0000     -24.813469      -675.2088
  22   2.0000     -24.811962      -675.1678
  23   2.0000     -24.811495      -675.1551
  24   2.0000     -24.810675      -675.1328
  25   2.0000     -24.810424      -675.1259
  26   2.0000     -19.258290      -524.0447
  27   2.0000     -19.208133      -522.6799
  28   2.0000     -14.407598      -392.0507
  29   2.0000     -14.406587      -392.0232
  30   2.0000     -10.403820      -283.1023
  31   2.0000     -10.400063      -283.0001
  32   2.0000     -10.399803      -282.9930
  33   2.0000     -10.399175      -282.9759
  34   2.0000     -10.396577      -282.9053
  35   2.0000     -10.396341      -282.8988
  36   2.0000     -10.394438      -282.8470
  37   2.0000     -10.393979      -282.8345
  38   2.0000     -10.392198      -282.7861
  39   2.0000     -10.391630      -282.7706
  40   2.0000     -10.359438      -281.8947
  41   2.0000     -10.351351      -281.6746
  42   2.0000     -10.344732      -281.4945
  43   2.0000     -10.343709      -281.4666
  44   2.0000     -10.333700      -281.1943
  45   2.0000     -10.333124      -281.1786
  46   2.0000     -10.331787      -281.1422
  47   2.0000     -10.330171      -281.0982
  48   2.0000     -10.327495      -281.0254
  49   2.0000     -10.324316      -280.9389
  50   2.0000     -10.322543      -280.8907
  51   2.0000     -10.318775      -280.7882
  52   2.0000     -10.316943      -280.7383
  53   2.0000     -10.314781      -280.6795
  54   2.0000     -10.314704      -280.6774
  55   2.0000     -10.313311      -280.6395
  56   2.0000     -10.313258      -280.6380
  57   2.0000     -10.310999      -280.5766
  58   2.0000     -10.310674      -280.5677
  59   2.0000     -10.309878      -280.5460
  60   2.0000     -10.306286      -280.4483
  61   2.0000     -10.306241      -280.4471
  62   2.0000     -10.304844      -280.4091
  63   2.0000     -10.303928      -280.3841
  64   2.0000     -10.301795      -280.3261
  65   2.0000     -10.301406      -280.3155
  66   2.0000     -10.299434      -280.2619
  67   2.0000     -10.298375      -280.2330
  68   2.0000     -10.297317      -280.2042
  69   2.0000     -10.296974      -280.1949
  70   2.0000     -10.296713      -280.1878
  71   2.0000     -10.295900      -280.1657
  72   2.0000     -10.295725      -280.1609
  73   2.0000     -10.292683      -280.0781
  74   2.0000     -10.291894      -280.0567
  75   2.0000     -10.290892      -280.0294
  76   2.0000     -10.290589      -280.0212
  77   2.0000     -10.287036      -279.9245
  78   2.0000     -10.286649      -279.9139
  79   2.0000     -10.286084      -279.8986
  80   2.0000     -10.284716      -279.8613
  81   2.0000     -10.281678      -279.7787
  82   2.0000     -10.281101      -279.7630
  83   2.0000     -10.280597      -279.7493
  84   2.0000     -10.280492      -279.7464
  85   2.0000     -10.279312      -279.7143
  86   2.0000     -10.277018      -279.6519
  87   2.0000     -10.274122      -279.5731
  88   2.0000     -10.273914      -279.5674
  89   2.0000     -10.272160      -279.5197
  90   2.0000      -8.776875      -238.8309
  91   2.0000      -8.774242      -238.7593
  92   2.0000      -8.070976      -219.6224
  93   2.0000      -8.070936      -219.6213
  94   2.0000      -8.066548      -219.5019
  95   2.0000      -8.047173      -218.9747
  96   2.0000      -8.041948      -218.8325
  97   2.0000      -8.041693      -218.8256
  98   2.0000      -6.612909      -179.9464
  99   2.0000      -6.610375      -179.8774
 100   2.0000      -6.599033      -179.5688
 101   2.0000      -6.598285      -179.5485
 102   2.0000      -6.596331      -179.4953
 103   2.0000      -6.595622      -179.4760
 104   2.0000      -6.040329      -164.3657
 105   2.0000      -6.039982      -164.3563
 106   2.0000      -6.036233      -164.2542
 107   2.0000      -6.036097      -164.2506
 108   2.0000      -6.035782      -164.2420
 109   2.0000      -6.033392      -164.1769
 110   2.0000      -6.033005      -164.1664
 111   2.0000      -6.031796      -164.1335
 112   2.0000      -6.028692      -164.0491
 113   2.0000      -6.017481      -163.7440
 114   2.0000      -6.013326      -163.6309
 115   2.0000      -6.011528      -163.5820
 116   2.0000      -6.011337      -163.5768
 117   2.0000      -6.007669      -163.4770
 118   2.0000      -6.007356      -163.4685
 119   2.0000      -6.007139      -163.4626
 120   2.0000      -6.003132      -163.3535
 121   2.0000      -6.003076      -163.3520
 122   2.0000      -2.728877       -74.2565
 123   2.0000      -2.726238       -74.1847
 124   2.0000      -2.725071       -74.1529
 125   2.0000      -2.724505       -74.1376
 126   2.0000      -2.722531       -74.0838
 127   2.0000      -2.721925       -74.0674
 128   2.0000      -2.713465       -73.8371
 129   2.0000      -2.713453       -73.8368
 130   2.0000      -2.710779       -73.7641
 131   2.0000      -2.710762       -73.7636
 132   2.0000      -1.346552       -36.6415
 133   2.0000      -1.342718       -36.5372
 134   2.0000      -1.339295       -36.4441
 135   2.0000      -1.335016       -36.3276
 136   2.0000      -1.334022       -36.3006
 137   2.0000      -1.329787       -36.1854
 138   2.0000      -1.323675       -36.0190
 139   2.0000      -1.319755       -35.9123
 140   2.0000      -1.319616       -35.9086
 141   2.0000      -1.315839       -35.8058
 142   2.0000      -1.158518       -31.5249
 143   2.0000      -1.123032       -30.5593
 144   2.0000      -1.025304       -27.9000
 145   2.0000      -1.014527       -27.6067
 146   2.0000      -1.012321       -27.5466
 147   2.0000      -1.009663       -27.4743
 148   2.0000      -1.003434       -27.3048
 149   2.0000      -0.998675       -27.1753
 150   2.0000      -0.996812       -27.1246
 151   2.0000      -0.986738       -26.8505
 152   2.0000      -0.986099       -26.8331
 153   2.0000      -0.972036       -26.4505
 154   2.0000      -0.967088       -26.3158
 155   2.0000      -0.960380       -26.1333
 156   2.0000      -0.952071       -25.9072
 157   2.0000      -0.934774       -25.4365
 158   2.0000      -0.919314       -25.0158
 159   2.0000      -0.913844       -24.8670
 160   2.0000      -0.909767       -24.7560
 161   2.0000      -0.905563       -24.6416
 162   2.0000      -0.901919       -24.5425
 163   2.0000      -0.892289       -24.2804
 164   2.0000      -0.886732       -24.1292
 165   2.0000      -0.881352       -23.9828
 166   2.0000      -0.873981       -23.7822
 167   2.0000      -0.871904       -23.7257
 168   2.0000      -0.869479       -23.6597
 169   2.0000      -0.865305       -23.5462
 170   2.0000      -0.861126       -23.4324
 171   2.0000      -0.847243       -23.0547
 172   2.0000      -0.844787       -22.9878
 173   2.0000      -0.842744       -22.9322
 174   2.0000      -0.839619       -22.8472
 175   2.0000      -0.833722       -22.6867
 176   2.0000      -0.828699       -22.5501
 177   2.0000      -0.821704       -22.3597
 178   2.0000      -0.811309       -22.0768
 179   2.0000      -0.798519       -21.7288
 180   2.0000      -0.785883       -21.3850
 181   2.0000      -0.785703       -21.3801
 182   2.0000      -0.778571       -21.1860
 183   2.0000      -0.773215       -21.0402
 184   2.0000      -0.763203       -20.7678
 185   2.0000      -0.757540       -20.6137
 186   2.0000      -0.755567       -20.5600
 187   2.0000      -0.754012       -20.5177
 188   2.0000      -0.751059       -20.4374
 189   2.0000      -0.741449       -20.1759
 190   2.0000      -0.722796       -19.6683
 191   2.0000      -0.719885       -19.5891
 192   2.0000      -0.712791       -19.3960
 193   2.0000      -0.711863       -19.3708
 194   2.0000      -0.699868       -19.0444
 195   2.0000      -0.694385       -18.8952
 196   2.0000      -0.690699       -18.7949
 197   2.0000      -0.688954       -18.7474
 198   2.0000      -0.685400       -18.6507
 199   2.0000      -0.684452       -18.6249
 200   2.0000      -0.683658       -18.6033
 201   2.0000      -0.677536       -18.4367
 202   2.0000      -0.671385       -18.2693
 203   2.0000      -0.664073       -18.0704
 204   2.0000      -0.662363       -18.0238
 205   2.0000      -0.656259       -17.8577
 206   2.0000      -0.653606       -17.7855
 207   2.0000      -0.646850       -17.6017
 208   2.0000      -0.642787       -17.4911
 209   2.0000      -0.638923       -17.3860
 210   2.0000      -0.638395       -17.3716
 211   2.0000      -0.637427       -17.3453
 212   2.0000      -0.633618       -17.2416
 213   2.0000      -0.632937       -17.2231
 214   2.0000      -0.628425       -17.1003
 215   2.0000      -0.626892       -17.0586
 216   2.0000      -0.625746       -17.0274
 217   2.0000      -0.621892       -16.9225
 218   2.0000      -0.618199       -16.8220
 219   2.0000      -0.616966       -16.7885
 220   2.0000      -0.614788       -16.7292
 221   2.0000      -0.611176       -16.6309
 222   2.0000      -0.608235       -16.5509
 223   2.0000      -0.605954       -16.4888
 224   2.0000      -0.598506       -16.2862
 225   2.0000      -0.592138       -16.1129
 226   2.0000      -0.590615       -16.0714
 227   2.0000      -0.588236       -16.0067
 228   2.0000      -0.587290       -15.9810
 229   2.0000      -0.583335       -15.8733
 230   2.0000      -0.580474       -15.7955
 231   2.0000      -0.571927       -15.5629
 232   2.0000      -0.570822       -15.5328
 233   2.0000      -0.566545       -15.4165
 234   2.0000      -0.564461       -15.3598
 235   2.0000      -0.562456       -15.3052
 236   2.0000      -0.560935       -15.2638
 237   2.0000      -0.556808       -15.1515
 238   2.0000      -0.554239       -15.0816
 239   2.0000      -0.553431       -15.0596
 240   2.0000      -0.550929       -14.9915
 241   2.0000      -0.548262       -14.9190
 242   2.0000      -0.543836       -14.7985
 243   2.0000      -0.542911       -14.7733
 244   2.0000      -0.540384       -14.7046
 245   2.0000      -0.537945       -14.6382
 246   2.0000      -0.534341       -14.5402
 247   2.0000      -0.533206       -14.5093
 248   2.0000      -0.531591       -14.4653
 249   2.0000      -0.530870       -14.4457
 250   2.0000      -0.529782       -14.4161
 251   2.0000      -0.528840       -14.3905
 252   2.0000      -0.526366       -14.3231
 253   2.0000      -0.525472       -14.2988
 254   2.0000      -0.524092       -14.2613
 255   2.0000      -0.521470       -14.1899
 256   2.0000      -0.515407       -14.0249
 257   2.0000      -0.514845       -14.0096
 258   2.0000      -0.513518       -13.9735
 259   2.0000      -0.509557       -13.8658
 260   2.0000      -0.507286       -13.8040
 261   2.0000      -0.503631       -13.7045
 262   2.0000      -0.501990       -13.6598
 263   2.0000      -0.499982       -13.6052
 264   2.0000      -0.498193       -13.5565
 265   2.0000      -0.497407       -13.5351
 266   2.0000      -0.495872       -13.4934
 267   2.0000      -0.494058       -13.4440
 268   2.0000      -0.491223       -13.3669
 269   2.0000      -0.488966       -13.3055
 270   2.0000      -0.488077       -13.2813
 271   2.0000      -0.485645       -13.2151
 272   2.0000      -0.481378       -13.0990
 273   2.0000      -0.480620       -13.0783
 274   2.0000      -0.479288       -13.0421
 275   2.0000      -0.475805       -12.9473
 276   2.0000      -0.474239       -12.9047
 277   2.0000      -0.472695       -12.8627
 278   2.0000      -0.470943       -12.8150
 279   2.0000      -0.470608       -12.8059
 280   2.0000      -0.466952       -12.7064
 281   2.0000      -0.462234       -12.5780
 282   2.0000      -0.461209       -12.5501
 283   2.0000      -0.454381       -12.3643
 284   2.0000      -0.453724       -12.3465
 285   2.0000      -0.452549       -12.3145
 286   2.0000      -0.452127       -12.3030
 287   2.0000      -0.449572       -12.2335
 288   2.0000      -0.448724       -12.2104
 289   2.0000      -0.444001       -12.0819
 290   2.0000      -0.442603       -12.0438
 291   2.0000      -0.441183       -12.0052
 292   2.0000      -0.440713       -11.9924
 293   2.0000      -0.436050       -11.8655
 294   2.0000      -0.434810       -11.8318
 295   2.0000      -0.433061       -11.7842
 296   2.0000      -0.432887       -11.7795
 297   2.0000      -0.431090       -11.7306
 298   2.0000      -0.420982       -11.4555
 299   2.0000      -0.419662       -11.4196
 300   2.0000      -0.418837       -11.3971
 301   2.0000      -0.416597       -11.3362
 302   2.0000      -0.415650       -11.3104
 303   2.0000      -0.415191       -11.2979
 304   2.0000      -0.413548       -11.2532
 305   2.0000      -0.412149       -11.2151
 306   2.0000      -0.411976       -11.2104
 307   2.0000      -0.403140       -10.9700
 308   2.0000      -0.401376       -10.9220
 309   2.0000      -0.399552       -10.8724
 310   2.0000      -0.391271       -10.6470
 311   2.0000      -0.382715       -10.4142
 312   2.0000      -0.381970       -10.3939
 313   2.0000      -0.374829       -10.1996
 314   2.0000      -0.371801       -10.1172
 315   2.0000      -0.369266       -10.0482
 316   2.0000      -0.355270        -9.6674
 317   2.0000      -0.346413        -9.4264
 318   2.0000      -0.341807        -9.3010
 319   2.0000      -0.341709        -9.2984
 320   2.0000      -0.338349        -9.2069
 321   2.0000      -0.337050        -9.1716
 322   2.0000      -0.336074        -9.1450
 323   2.0000      -0.332825        -9.0566
 324   2.0000      -0.328152        -8.9295
 325   2.0000      -0.324905        -8.8411
 326   2.0000      -0.322084        -8.7643
 327   2.0000      -0.313221        -8.5232
 328   2.0000      -0.307695        -8.3728
 329   2.0000      -0.299583        -8.1521
 330   2.0000      -0.291801        -7.9403
 331   2.0000      -0.283951        -7.7267
 332   2.0000      -0.265914        -7.2359
 333   2.0000      -0.249195        -6.7809
 334   2.0000      -0.226812        -6.1719
 335   0.0000      -0.109216        -2.9719
 336   0.0000      -0.071026        -1.9327
 337   0.0000      -0.062174        -1.6918
 338   0.0000      -0.043666        -1.1882
 339   0.0000      -0.023753        -0.6463

MULLIKEN ATOMIC CHARGES
-----------------------
   0 C :    0.116199
   1 O :   -0.152523
   2 C :   -0.012691
   3 C :    0.036875
   4 C :   -0.016759
   5 C :   -0.023478
   6 C :   -0.015407
   7 C :   -0.033149
   8 Br:    0.003826
   9 Br:    0.012049
  10 C :    0.295240
  11 C :   -0.348138
  12 C :   -0.185860
  13 N :    0.146522
  14 C :   -0.209129
  15 N :    0.157350
  16 C :   -0.127817
  17 C :    0.020451
  18 C :   -0.136634
  19 S :    0.156810
  20 C :   -0.063517
  21 C :    0.128549
  22 C :    0.150256
  23 C :   -0.001320
  24 C :   -0.092546
  25 S :    0.004089
  26 C :    0.140027
  27 O :   -0.166836
  28 C :   -0.115030
  29 C :    0.001429
  30 C :   -0.013304
  31 C :    0.051358
  32 C :   -0.247391
  33 C :    0.244082
  34 C :    0.165342
  35 C :    0.135013
  36 C :    0.168699
  37 C :    0.198095
  38 F :   -0.153219
  39 F :   -0.154790
  40 F :   -0.150826
  41 F :   -0.157389
  42 F :   -0.153369
  43 C :    0.135318
  44 C :   -0.177100
  45 C :    0.182165
  46 C :    0.175231
  47 C :    0.137093
  48 C :    0.169940
  49 C :    0.185320
  50 F :   -0.151833
  51 F :   -0.155047
  52 F :   -0.146405
  53 F :   -0.151696
  54 F :   -0.150270
  55 C :   -0.152559
  56 S :    0.146838
  57 C :   -0.065405
  58 C :    0.018021
  59 C :   -0.021306
  60 C :   -0.107624
  61 C :    0.108889
  62 C :    0.104796
  63 C :    0.010700
  64 C :   -0.093731
  65 S :    0.160003
  66 C :   -0.072112
  67 C :   -0.040274
  68 C :    0.036845
  69 C :    0.013524
  70 C :   -0.019864
  71 C :   -0.039594
  72 C :    0.119294
  73 C :   -0.044848
  74 S :    0.085342
  75 C :   -0.047332
  76 C :    0.087596
  77 C :   -0.070371
  78 C :   -0.051379
  79 S :    0.095940
  80 C :   -0.056462
  81 C :    0.027119
  82 H :    0.006701
  83 H :    0.000211
  84 H :    0.022750
  85 H :   -0.030269
  86 H :    0.083321
  87 H :    0.184919
  88 H :   -0.028316
  89 H :    0.006458
  90 H :    0.009840
  91 H :   -0.010508
  92 H :    0.011600
  93 H :    0.023799
  94 H :    0.012039
  95 H :    0.010629
  96 H :    0.012003
  97 H :    0.026622
  98 H :   -0.025046
  99 H :   -0.003635
 100 H :   -0.014254
 101 H :   -0.027585
 102 H :   -0.034121
 103 H :   -0.034170
 104 H :    0.028999
 105 H :   -0.017890
Sum of atomic charges:   -0.0000000

LOEWDIN ATOMIC CHARGES
----------------------
   0 C :    0.066878
   1 O :   -0.147175
   2 C :   -0.039649
   3 C :   -0.012783
   4 C :   -0.009193
   5 C :   -0.123132
   6 C :   -0.125020
   7 C :   -0.002147
   8 Br:    0.129129
   9 Br:    0.133379
  10 C :    0.072457
  11 C :   -0.148095
  12 C :   -0.020655
  13 N :   -0.056770
  14 C :   -0.025616
  15 N :   -0.057403
  16 C :   -0.127729
  17 C :    0.035569
  18 C :   -0.181790
  19 S :    0.478995
  20 C :   -0.127484
  21 C :   -0.039929
  22 C :   -0.017558
  23 C :   -0.018480
  24 C :   -0.161148
  25 S :    0.228918
  26 C :    0.038563
  27 O :   -0.041751
  28 C :   -0.047191
  29 C :   -0.047655
  30 C :    0.003658
  31 C :   -0.039566
  32 C :   -0.098042
  33 C :    0.063159
  34 C :    0.026112
  35 C :    0.043821
  36 C :    0.024762
  37 C :    0.060202
  38 F :   -0.033591
  39 F :   -0.035547
  40 F :   -0.029324
  41 F :   -0.036803
  42 F :   -0.033480
  43 C :   -0.007226
  44 C :   -0.080291
  45 C :    0.065788
  46 C :    0.026739
  47 C :    0.046135
  48 C :    0.025265
  49 C :    0.066462
  50 F :   -0.032771
  51 F :   -0.035272
  52 F :   -0.025229
  53 F :   -0.032501
  54 F :   -0.029758
  55 C :   -0.178925
  56 S :    0.458476
  57 C :   -0.175321
  58 C :   -0.042605
  59 C :   -0.029856
  60 C :   -0.034760
  61 C :   -0.022967
  62 C :   -0.023405
  63 C :   -0.024232
  64 C :   -0.207159
  65 S :    0.446910
  66 C :   -0.155203
  67 C :   -0.055269
  68 C :   -0.050514
  69 C :   -0.030330
  70 C :   -0.149176
  71 C :   -0.051452
  72 C :   -0.047617
  73 C :   -0.150932
  74 S :    0.382192
  75 C :   -0.038065
  76 C :   -0.044985
  77 C :   -0.157041
  78 C :   -0.034621
  79 S :    0.388427
  80 C :   -0.159786
  81 C :   -0.062770
  82 H :    0.044064
  83 H :    0.043293
  84 H :    0.043248
  85 H :    0.028092
  86 H :   -0.008978
  87 H :    0.078192
  88 H :    0.033768
  89 H :    0.034116
  90 H :    0.025578
  91 H :    0.031730
  92 H :    0.024316
  93 H :    0.031432
  94 H :    0.024475
  95 H :    0.024101
  96 H :    0.024430
  97 H :    0.032017
  98 H :    0.028879
  99 H :    0.023294
 100 H :    0.032538
 101 H :    0.028735
 102 H :    0.030115
 103 H :    0.029797
 104 H :    0.024903
 105 H :    0.030613

  Mayer bond orders larger than 0.100000
B(  0-C ,  1-O ) :   2.2025 B(  0-C ,  2-C ) :   0.9305 B(  0-C , 16-C ) :   0.9866
B(  2-C ,  3-C ) :   1.3307 B(  2-C ,  7-C ) :   1.3806 B(  3-C ,  4-C ) :   1.3749
B(  3-C , 10-C ) :   0.9823 B(  4-C ,  5-C ) :   1.3573 B(  4-C , 82-H ) :   0.9795
B(  5-C ,  6-C ) :   1.4375 B(  5-C ,  9-Br) :   1.0491 B(  6-C ,  7-C ) :   1.3398
B(  6-C ,  8-Br) :   1.0274 B(  7-C , 83-H ) :   1.0083 B( 10-C , 11-C ) :   1.6199
B( 10-C , 16-C ) :   1.1140 B( 11-C , 12-C ) :   1.1424 B( 11-C , 14-C ) :   1.1433
B( 12-C , 13-N ) :   2.9689 B( 14-C , 15-N ) :   2.9967 B( 16-C , 17-C ) :   1.4491
B( 17-C , 18-C ) :   1.3267 B( 17-C , 84-H ) :   0.9293 B( 18-C , 19-S ) :   1.0824
B( 18-C , 22-C ) :   1.2561 B( 19-S , 20-C ) :   1.1768 B( 20-C , 21-C ) :   1.2499
B( 20-C , 29-C ) :   1.2319 B( 21-C , 22-C ) :   1.2407 B( 21-C , 28-C ) :   1.1967
B( 22-C , 23-C ) :   1.2748 B( 23-C , 24-C ) :   1.5067 B( 23-C , 85-H ) :   0.9672
B( 24-C , 25-S ) :   1.0180 B( 24-C , 26-C ) :   1.2161 B( 25-S , 86-H ) :   0.9520
B( 26-C , 27-O ) :   1.2770 B( 26-C , 28-C ) :   1.4883 B( 27-O , 87-H ) :   0.9476
B( 28-C , 88-H ) :   0.9993 B( 29-C , 30-C ) :   1.5705 B( 29-C , 89-H ) :   0.9561
B( 30-C , 31-C ) :   1.2158 B( 30-C , 90-H ) :   0.9512 B( 31-C , 32-C ) :   0.9362
B( 31-C , 43-C ) :   1.5803 B( 32-C , 33-C ) :   1.3358 B( 32-C , 35-C ) :   0.1141
B( 32-C , 37-C ) :   1.3175 B( 33-C , 34-C ) :   1.2878 B( 33-C , 42-F ) :   1.1759
B( 34-C , 35-C ) :   1.2725 B( 34-C , 41-F ) :   1.1747 B( 35-C , 36-C ) :   1.2760
B( 35-C , 40-F ) :   1.1781 B( 36-C , 37-C ) :   1.2715 B( 36-C , 39-F ) :   1.1782
B( 37-C , 38-F ) :   1.1841 B( 43-C , 44-C ) :   0.9481 B( 43-C , 55-C ) :   1.1670
B( 44-C , 45-C ) :   1.3327 B( 44-C , 47-C ) :   0.1079 B( 44-C , 49-C ) :   1.3213
B( 45-C , 46-C ) :   1.2762 B( 45-C , 54-F ) :   1.1702 B( 46-C , 47-C ) :   1.2740
B( 46-C , 53-F ) :   1.1806 B( 47-C , 48-C ) :   1.2715 B( 47-C , 52-F ) :   1.1842
B( 48-C , 49-C ) :   1.2763 B( 48-C , 51-F ) :   1.1766 B( 49-C , 50-F ) :   1.1779
B( 55-C , 56-S ) :   1.0842 B( 55-C , 59-C ) :   1.4150 B( 56-S , 57-C ) :   1.1014
B( 57-C , 58-C ) :   1.4922 B( 57-C , 64-C ) :   1.1892 B( 58-C , 59-C ) :   1.3456
B( 58-C , 60-C ) :   0.9324 B( 59-C , 91-H ) :   0.9915 B( 60-C , 61-C ) :   1.0345
B( 60-C , 62-C ) :   1.0363 B( 60-C , 63-C ) :   0.9409 B( 61-C , 92-H ) :   0.9643
B( 61-C , 93-H ) :   0.9637 B( 61-C , 94-H ) :   0.9645 B( 62-C , 95-H ) :   0.9640
B( 62-C , 96-H ) :   0.9644 B( 62-C , 97-H ) :   0.9647 B( 63-C , 64-C ) :   1.5038
B( 63-C , 67-C ) :   1.3330 B( 64-C , 65-S ) :   1.0789 B( 65-S , 66-C ) :   1.1187
B( 66-C , 67-C ) :   1.4464 B( 66-C , 68-C ) :   1.1264 B( 67-C , 98-H ) :   0.9994
B( 68-C , 69-C ) :   1.6706 B( 68-C , 99-H ) :   0.9547 B( 69-C , 70-C ) :   1.1573
B( 69-C ,100-H ) :   0.9791 B( 70-C , 71-C ) :   1.5406 B( 70-C , 74-S ) :   1.0611
B( 71-C , 72-C ) :   1.1371 B( 71-C ,101-H ) :   1.0067 B( 72-C , 73-C ) :   1.2850
B( 72-C , 78-C ) :   1.3241 B( 73-C , 74-S ) :   1.0382 B( 73-C , 75-C ) :   1.3936
B( 75-C , 76-C ) :   1.3280 B( 75-C , 78-C ) :   0.1033 B( 75-C ,102-H ) :   1.0011
B( 76-C , 77-C ) :   1.2887 B( 76-C , 81-C ) :   1.1599 B( 77-C , 78-C ) :   1.3881
B( 77-C , 79-S ) :   1.0540 B( 78-C ,103-H ) :   1.0027 B( 79-S , 80-C ) :   1.1137
B( 80-C , 81-C ) :   1.6467 B( 80-C ,104-H ) :   0.9678 B( 81-C ,105-H ) :   0.9980

-----------------------------------------------------------------------------
         ABSORPTION SPECTRUM VIA TRANSITION ELECTRIC DIPOLE MOMENTS
-----------------------------------------------------------------------------
State   Energy  Wavelength   fosc         T2         TX        TY        TZ
        (cm-1)    (nm)                  (au**2)     (au)      (au)      (au)
-----------------------------------------------------------------------------
   0   12132.4    824.2   1.903648992  51.65550   1.83759  -6.92402  -0.58031
   1   18380.8    544.0   0.366442335   6.56322   1.05365  -1.00859  -2.10613
   2   20506.5    487.7   0.126424916   2.02963  -0.22369  -0.95008  -1.03776
   3   21972.2    455.1   0.345530387   5.17712   1.46328  -1.24413  -1.21986
   4   23620.9    423.4   0.160750585   2.24044  -0.60833  -0.44626  -1.29276
   5   24150.7    414.1   0.050337781   0.68618  -0.22092  -0.32572  -0.72889
   6   25526.0    391.8   0.425476182   5.48743   1.39817  -1.83382  -0.41188
   7   25803.0    387.6   0.390852438   4.98676   1.74611  -1.31009   0.47068
   8   27243.8    367.1   0.144906519   1.75104  -1.24572   0.05118  -0.44340
   9   27698.7    361.0   0.007358292   0.08746  -0.13811  -0.14431   0.21807
  10   28289.5    353.5   0.055694884   0.64814  -0.57904  -0.55712  -0.04972
  11   29395.1    340.2   0.053336140   0.59734   0.25852   0.01374  -0.72823
  12   29931.8    334.1   0.030460263   0.33502   0.33232  -0.18712   0.43540
  13   30217.7    330.9   0.135599267   1.47731  -0.21992   1.07728   0.51808
  14   30736.7    325.3   0.021612691   0.23149  -0.16602  -0.44725   0.06240
  15   31105.9    321.5   0.017162476   0.18164   0.32981   0.24560   0.11200
  16   31264.3    319.9   0.048674927   0.51255  -0.40325  -0.58735  -0.07039
  17   31673.2    315.7   0.095884121   0.99662  -0.38172   0.91102   0.14473
  18   31967.2    312.8   0.052023774   0.53576  -0.25148  -0.49590   0.47603
  19   32389.8    308.7   0.021043467   0.21389  -0.11398  -0.07070   0.44260
  20   32530.8    307.4   0.041616524   0.42116   0.34580  -0.17700   0.51986
  21   32943.2    303.6   0.045234855   0.45205  -0.33760   0.48042  -0.32753
  22   33262.6    300.6   0.022864896   0.22630   0.00057  -0.47306  -0.05021
  23   33427.4    299.2   0.078386870   0.77200   0.76025  -0.33476  -0.28628
  24   34056.9    293.6   0.052084154   0.50347   0.29304   0.59396  -0.25458
  25   34567.2    289.3   0.493543135   4.70042   2.00667   0.63391   0.52140
  26   34975.8    285.9   0.010748791   0.10117  -0.15511   0.06115  -0.27088
  27   35133.3    284.6   0.005871243   0.05502   0.13450  -0.18652   0.04623
  28   35396.1    282.5   0.154437362   1.43639  -0.96546  -0.53573  -0.46613
  29   35562.9    281.2   0.024668586   0.22836  -0.46957   0.07945   0.03945
  30   35629.9    280.7   0.009827135   0.09080   0.28016  -0.08372  -0.07282
  31   36296.8    275.5   0.054583236   0.49507   0.08203   0.67477   0.18174
  32   36469.0    274.2   0.008839002   0.07979   0.10536  -0.02893  -0.26049
  33   36653.6    272.8   0.013330845   0.11973  -0.10516   0.09183  -0.31661
  34   36968.4    270.5   0.098681984   0.87878   0.44056  -0.78555   0.26001
  35   37278.9    268.2   0.021270882   0.18784  -0.19668   0.28826  -0.25703
  36   37431.4    267.2   0.020768632   0.18266  -0.05035   0.27782   0.32085
  37   37641.6    265.7   0.020629932   0.18043   0.07840  -0.41162  -0.06964
  38   37859.2    264.1   0.016118585   0.14016   0.02148   0.32573   0.18330
  39   38104.2    262.4   0.001420695   0.01227  -0.03981   0.01852  -0.10172
  40   38203.4    261.8   0.012560602   0.10824   0.13735   0.24582   0.17014
  41   38548.7    259.4   0.083919571   0.71669  -0.54152   0.58572  -0.28352
  42   38858.1    257.3   0.076251903   0.64602  -0.15217  -0.20184  -0.76297
  43   39442.2    253.5   0.030217935   0.25222  -0.14620  -0.47775  -0.05097
  44   39684.3    252.0   0.030142350   0.25005   0.44324   0.21833   0.07699
  45   40067.0    249.6   0.079562238   0.65373  -0.58412   0.28182  -0.48281
  46   40221.6    248.6   0.015775618   0.12912   0.02132   0.35554   0.04755

FINAL SINGLE POINT ENERGY    -11091.163071835113

DIPOLE MOMENT
-------------
                                X             Y             Z
Electronic contribution:    -33.20100     308.19758       4.80113
Nuclear contribution   :     35.01673    -312.15742      -4.04879
                        -----------------------------------------
Total Dipole Moment    :      1.81574      -3.95985       0.75235
                        -----------------------------------------
Magnitude (a.u.)       :      4.42078
Magnitude (Debye)      :     11.23674

Rotational constants in cm-1:     0.000908     0.000155     0.000150
Rotational constants in MHz :    27.224493     4.635794     4.488650

                             ****ORCA TERMINATED NORMALLY****
TOTAL RUN TIME: 0 days 0 hours 12 minutes 14 seconds 327 msec
