                         Program Version 4.2.0 -  RELEASE  -
|  1> # ORCA input file
|  2> # SCF done       -172.978226766095          0.000876939945
|  3> ! CAM-B3LYP def2-SVP def2/J RIJCOSX Grid4 TightSCF
|  4> %maxcore 5000
|  5> %tddft
|  6>     Mode sTDDFT
|  7>     Ethresh 5.0
|  8>     maxcore 5000
|  9> end
| 10>
| 11> %pal
| 12>   nprocs 6
| 13>   end
| 14> * xyz 0 1
| 15>    C       -1.07283        -0.15105         1.83286
| 16>    C       -1.31797         1.15246         1.38453
| 17>    C       -1.40252         1.24185         0.01982
| 18>    S       -1.70009         2.70958        -0.87527
| 19>    C       -1.69091         2.08875        -2.58004
| 20>    S       -1.17569        -0.30306        -0.73105
| 21>    C       -0.96598        -1.07732         0.82227
| 22>    C       -0.73079        -2.48289         0.86263
| 23>    C       -0.56537        -3.20163         1.99132
| 24>    C       -0.34022        -4.62357         2.08012
| 25>    C       -0.24779        -5.45334         0.95080
| 26>    C       -0.04195        -6.80163         1.10793
| 27>    C        0.03123        -7.36721         2.39520
| 28>    C       -0.04711        -6.55883         3.52135
| 29>    C       -0.22000        -5.20171         3.35306
| 30>    C        0.13176        -8.80088         2.26657
| 31>    C        0.12693        -9.12894         0.89836
| 32>    C        0.09442        -7.87447         0.05042
| 33>    C        1.45584        -7.78868        -0.67981
| 34>    C        1.72159        -6.49603        -1.43989
| 35>    C       -1.08059        -7.87270        -0.93783
| 36>    C       -2.42244        -8.07223        -0.24236
| 37>    C        0.17812       -10.43796         0.49708
| 38>    C        0.21619       -11.46878         1.45713
| 39>    C        0.22789       -11.11980         2.81944
| 40>    C        0.18996        -9.80476         3.22649
| 41>    C        0.23639       -12.82552         1.00110
| 42>    C        0.17793       -13.94994         1.76791
| 43>    C        0.18710       -15.24605         1.23032
| 44>    C        0.08949       -16.39794         1.97373
| 45>    C        0.08030       -17.72646         1.49078
| 46>    C       -0.05069       -18.67480         2.46235
| 47>    C       -0.15090       -18.14579         3.76583
| 48>    S       -0.06817       -16.40437         3.72532
| 49>    C       -0.31188       -18.85039         4.95092
| 50>    C       -0.38816       -20.24646         5.11542
| 51>    C       -0.59724       -20.64445         6.40530
| 52>    C       -0.69967       -19.58712         7.33114
| 53>    S       -0.46705       -18.05813         6.49798
| 54>    C       -0.87582       -19.56144         8.70236
| 55>    C       -1.31018       -20.55410         9.59367
| 56>    C       -2.04559       -21.73445         9.27461
| 57>    C       -2.44530       -22.68236        10.29475
| 58>    N       -3.05677       -23.82770         9.92874
| 59>    C       -3.37093       -24.01883         8.67431
| 60>    C       -3.10989       -23.01102         7.69184
| 61>    N       -2.43861       -21.92538         8.01785
| 62>    C       -3.53417       -23.16905         6.35424
| 63>    N       -3.86177       -23.32061         5.26532
| 64>    C       -3.98425       -25.23694         8.28762
| 65>    N       -4.47757       -26.20688         7.92894
| 66>    C       -2.17789       -22.47963        11.65567
| 67>    C       -1.53944       -21.27253        11.99268
| 68>    C       -1.11861       -20.32999        10.98664
| 69>    N       -0.53909       -19.25925        11.52109
| 70>    S       -0.53969       -19.40959        13.12535
| 71>    N       -1.26435       -20.84027        13.22474
| 72>    C       -2.59432       -23.43134        12.66953
| 73>    C       -3.89364       -23.99343        12.69568
| 74>    C       -4.12019       -24.77807        13.78582
| 75>    S       -5.62085       -25.59201        14.15066
| 76>    C       -5.16516       -26.50436        15.65246
| 77>    S       -2.72251       -24.85585        14.81403
| 78>    C       -1.81912       -23.82165        13.74561
| 79>    C       -0.42670       -23.61141        14.03874
| 80>    C        0.52405       -23.35887        13.14331
| 81>    H       -0.97764        -0.40303         2.87319
| 82>    H       -1.43160         2.00549         2.02815
| 83>    H       -1.87608         2.94627        -3.21863
| 84>    H       -2.47818         1.35027        -2.70168
| 85>    H       -0.72068         1.65426        -2.80310
| 86>    H       -0.69541        -2.96601        -0.10406
| 87>    H       -0.60821        -2.68491         2.94085
| 88>    H       -0.35618        -5.02980        -0.03466
| 89>    H        0.01713        -6.98568         4.51118
| 90>    H       -0.28353        -4.56176         4.22181
| 91>    H        1.51309        -8.63002        -1.37445
| 92>    H        2.24409        -7.92337         0.06581
| 93>    H        0.95608        -6.31065        -2.18884
| 94>    H        2.67981        -6.56957        -1.95002
| 95>    H        1.76600        -5.64939        -0.76026
| 96>    H       -0.92765        -8.66844        -1.67016
| 97>    H       -1.09680        -6.92297        -1.47396
| 98>    H       -2.44743        -9.02538         0.28130
| 99>    H       -3.22929        -8.05849        -0.97164
|100>    H       -2.59896        -7.27978         0.48179
|101>    H        0.17293       -10.69707        -0.55241
|102>    H        0.27064       -11.89818         3.56500
|103>    H        0.20008        -9.55801         4.27768
|104>    H        0.28693       -12.95607        -0.07386
|105>    H        0.10709       -13.87641         2.84446
|106>    H        0.26699       -15.35727         0.15642
|107>    H        0.16710       -17.94085         0.44021
|108>    H       -0.08345       -19.73251         2.27413
|109>    H       -0.28934       -20.92745         4.28959
|110>    H       -0.65107       -21.67214         6.70690
|111>    H       -0.64172       -18.62163         9.18919
|112>    H       -4.63849       -23.80687        11.94511
|113>    H       -4.34683       -27.18309        15.43019
|114>    H       -6.04711       -27.06207        15.95006
|115>    H       -4.88084       -25.80368        16.43237
|116>    H       -0.15987       -23.72924        15.08171
|117>    H        0.31383       -23.28830        12.08960
|118>    H        1.54928       -23.22435        13.44027
|119> *
|120>
|121>                          ****END OF INPUT****

CARTESIAN COORDINATES (ANGSTROEM)
---------------------------------
  C     -1.072830   -0.151050    1.832860
  C     -1.317970    1.152460    1.384530
  C     -1.402520    1.241850    0.019820
  S     -1.700090    2.709580   -0.875270
  C     -1.690910    2.088750   -2.580040
  S     -1.175690   -0.303060   -0.731050
  C     -0.965980   -1.077320    0.822270
  C     -0.730790   -2.482890    0.862630
  C     -0.565370   -3.201630    1.991320
  C     -0.340220   -4.623570    2.080120
  C     -0.247790   -5.453340    0.950800
  C     -0.041950   -6.801630    1.107930
  C      0.031230   -7.367210    2.395200
  C     -0.047110   -6.558830    3.521350
  C     -0.220000   -5.201710    3.353060
  C      0.131760   -8.800880    2.266570
  C      0.126930   -9.128940    0.898360
  C      0.094420   -7.874470    0.050420
  C      1.455840   -7.788680   -0.679810
  C      1.721590   -6.496030   -1.439890
  C     -1.080590   -7.872700   -0.937830
  C     -2.422440   -8.072230   -0.242360
  C      0.178120  -10.437960    0.497080
  C      0.216190  -11.468780    1.457130
  C      0.227890  -11.119800    2.819440
  C      0.189960   -9.804760    3.226490
  C      0.236390  -12.825520    1.001100
  C      0.177930  -13.949940    1.767910
  C      0.187100  -15.246050    1.230320
  C      0.089490  -16.397940    1.973730
  C      0.080300  -17.726460    1.490780
  C     -0.050690  -18.674800    2.462350
  C     -0.150900  -18.145790    3.765830
  S     -0.068170  -16.404370    3.725320
  C     -0.311880  -18.850390    4.950920
  C     -0.388160  -20.246460    5.115420
  C     -0.597240  -20.644450    6.405300
  C     -0.699670  -19.587120    7.331140
  S     -0.467050  -18.058130    6.497980
  C     -0.875820  -19.561440    8.702360
  C     -1.310180  -20.554100    9.593670
  C     -2.045590  -21.734450    9.274610
  C     -2.445300  -22.682360   10.294750
  N     -3.056770  -23.827700    9.928740
  C     -3.370930  -24.018830    8.674310
  C     -3.109890  -23.011020    7.691840
  N     -2.438610  -21.925380    8.017850
  C     -3.534170  -23.169050    6.354240
  N     -3.861770  -23.320610    5.265320
  C     -3.984250  -25.236940    8.287620
  N     -4.477570  -26.206880    7.928940
  C     -2.177890  -22.479630   11.655670
  C     -1.539440  -21.272530   11.992680
  C     -1.118610  -20.329990   10.986640
  N     -0.539090  -19.259250   11.521090
  S     -0.539690  -19.409590   13.125350
  N     -1.264350  -20.840270   13.224740
  C     -2.594320  -23.431340   12.669530
  C     -3.893640  -23.993430   12.695680
  C     -4.120190  -24.778070   13.785820
  S     -5.620850  -25.592010   14.150660
  C     -5.165160  -26.504360   15.652460
  S     -2.722510  -24.855850   14.814030
  C     -1.819120  -23.821650   13.745610
  C     -0.426700  -23.611410   14.038740
  C      0.524050  -23.358870   13.143310
  H     -0.977640   -0.403030    2.873190
  H     -1.431600    2.005490    2.028150
  H     -1.876080    2.946270   -3.218630
  H     -2.478180    1.350270   -2.701680
  H     -0.720680    1.654260   -2.803100
  H     -0.695410   -2.966010   -0.104060
  H     -0.608210   -2.684910    2.940850
  H     -0.356180   -5.029800   -0.034660
  H      0.017130   -6.985680    4.511180
  H     -0.283530   -4.561760    4.221810
  H      1.513090   -8.630020   -1.374450
  H      2.244090   -7.923370    0.065810
  H      0.956080   -6.310650   -2.188840
  H      2.679810   -6.569570   -1.950020
  H      1.766000   -5.649390   -0.760260
  H     -0.927650   -8.668440   -1.670160
  H     -1.096800   -6.922970   -1.473960
  H     -2.447430   -9.025380    0.281300
  H     -3.229290   -8.058490   -0.971640
  H     -2.598960   -7.279780    0.481790
  H      0.172930  -10.697070   -0.552410
  H      0.270640  -11.898180    3.565000
  H      0.200080   -9.558010    4.277680
  H      0.286930  -12.956070   -0.073860
  H      0.107090  -13.876410    2.844460
  H      0.266990  -15.357270    0.156420
  H      0.167100  -17.940850    0.440210
  H     -0.083450  -19.732510    2.274130
  H     -0.289340  -20.927450    4.289590
  H     -0.651070  -21.672140    6.706900
  H     -0.641720  -18.621630    9.189190
  H     -4.638490  -23.806870   11.945110
  H     -4.346830  -27.183090   15.430190
  H     -6.047110  -27.062070   15.950060
  H     -4.880840  -25.803680   16.432370
  H     -0.159870  -23.729240   15.081710
  H      0.313830  -23.288300   12.089600
  H      1.549280  -23.224350   13.440270

 Total Charge           Charge          ....    0
 Multiplicity           Mult            ....    1
 Number of Electrons    NEL             ....  510
 Basis Dimension        Dim             .... 1142

ORBITAL ENERGIES
----------------

  NO   OCC          E(Eh)            E(eV)
   0   2.0000     -89.020971     -2422.3838
   1   2.0000     -88.956697     -2420.6348
   2   2.0000     -88.955296     -2420.5967
   3   2.0000     -88.951436     -2420.4916
   4   2.0000     -88.943082     -2420.2643
   5   2.0000     -88.933412     -2420.0012
   6   2.0000     -88.920040     -2419.6373
   7   2.0000     -14.442044      -392.9880
   8   2.0000     -14.437134      -392.8544
   9   2.0000     -14.434704      -392.7883
  10   2.0000     -14.427811      -392.6007
  11   2.0000     -14.413473      -392.2105
  12   2.0000     -14.410957      -392.1421
  13   2.0000     -10.361847      -281.9602
  14   2.0000     -10.354596      -281.7629
  15   2.0000     -10.327388      -281.0225
  16   2.0000     -10.327036      -281.0129
  17   2.0000     -10.325536      -280.9721
  18   2.0000     -10.321222      -280.8547
  19   2.0000     -10.318877      -280.7909
  20   2.0000     -10.318331      -280.7761
  21   2.0000     -10.314810      -280.6803
  22   2.0000     -10.314714      -280.6776
  23   2.0000     -10.313197      -280.6364
  24   2.0000     -10.307008      -280.4679
  25   2.0000     -10.306556      -280.4556
  26   2.0000     -10.304089      -280.3885
  27   2.0000     -10.300783      -280.2986
  28   2.0000     -10.299201      -280.2555
  29   2.0000     -10.297808      -280.2176
  30   2.0000     -10.296818      -280.1907
  31   2.0000     -10.294635      -280.1312
  32   2.0000     -10.292074      -280.0616
  33   2.0000     -10.291706      -280.0516
  34   2.0000     -10.290161      -280.0095
  35   2.0000     -10.287482      -279.9366
  36   2.0000     -10.284758      -279.8625
  37   2.0000     -10.283554      -279.8297
  38   2.0000     -10.283392      -279.8253
  39   2.0000     -10.281838      -279.7830
  40   2.0000     -10.281477      -279.7732
  41   2.0000     -10.280070      -279.7349
  42   2.0000     -10.279362      -279.7157
  43   2.0000     -10.278708      -279.6979
  44   2.0000     -10.278119      -279.6818
  45   2.0000     -10.276391      -279.6348
  46   2.0000     -10.275910      -279.6217
  47   2.0000     -10.275786      -279.6184
  48   2.0000     -10.275292      -279.6049
  49   2.0000     -10.271552      -279.5031
  50   2.0000     -10.271415      -279.4994
  51   2.0000     -10.270613      -279.4776
  52   2.0000     -10.270223      -279.4670
  53   2.0000     -10.269366      -279.4437
  54   2.0000     -10.269362      -279.4436
  55   2.0000     -10.269265      -279.4409
  56   2.0000     -10.268433      -279.4183
  57   2.0000     -10.268395      -279.4172
  58   2.0000     -10.266666      -279.3702
  59   2.0000     -10.266468      -279.3648
  60   2.0000     -10.266296      -279.3601
  61   2.0000     -10.265869      -279.3485
  62   2.0000     -10.254311      -279.0340
  63   2.0000     -10.252776      -278.9922
  64   2.0000     -10.250558      -278.9319
  65   2.0000     -10.248769      -278.8832
  66   2.0000      -8.112601      -220.7551
  67   2.0000      -8.052873      -219.1298
  68   2.0000      -8.050729      -219.0715
  69   2.0000      -8.047868      -218.9936
  70   2.0000      -8.038567      -218.7405
  71   2.0000      -8.029047      -218.4815
  72   2.0000      -8.015709      -218.1185
  73   2.0000      -6.083719      -165.5464
  74   2.0000      -6.076023      -165.3370
  75   2.0000      -6.075175      -165.3139
  76   2.0000      -6.022506      -163.8807
  77   2.0000      -6.020178      -163.8174
  78   2.0000      -6.018581      -163.7739
  79   2.0000      -6.017474      -163.7438
  80   2.0000      -6.015951      -163.7023
  81   2.0000      -6.013917      -163.6470
  82   2.0000      -6.013439      -163.6340
  83   2.0000      -6.012699      -163.6139
  84   2.0000      -6.009017      -163.5137
  85   2.0000      -6.008019      -163.4865
  86   2.0000      -6.003758      -163.3706
  87   2.0000      -6.000548      -163.2832
  88   2.0000      -5.999509      -163.2549
  89   2.0000      -5.995440      -163.1442
  90   2.0000      -5.988607      -162.9583
  91   2.0000      -5.986202      -162.8928
  92   2.0000      -5.982146      -162.7825
  93   2.0000      -5.975184      -162.5930
  94   2.0000      -1.118863       -30.4458
  95   2.0000      -1.098890       -29.9023
  96   2.0000      -1.025922       -27.9168
  97   2.0000      -1.003653       -27.3108
  98   2.0000      -0.996422       -27.1140
  99   2.0000      -0.989685       -26.9307
 100   2.0000      -0.987079       -26.8598
 101   2.0000      -0.982307       -26.7299
 102   2.0000      -0.980751       -26.6876
 103   2.0000      -0.978316       -26.6213
 104   2.0000      -0.970261       -26.4021
 105   2.0000      -0.952850       -25.9284
 106   2.0000      -0.949664       -25.8417
 107   2.0000      -0.926825       -25.2202
 108   2.0000      -0.911499       -24.8031
 109   2.0000      -0.903683       -24.5905
 110   2.0000      -0.896967       -24.4077
 111   2.0000      -0.891579       -24.2611
 112   2.0000      -0.887321       -24.1452
 113   2.0000      -0.882329       -24.0094
 114   2.0000      -0.871843       -23.7241
 115   2.0000      -0.860711       -23.4211
 116   2.0000      -0.853913       -23.2361
 117   2.0000      -0.849589       -23.1185
 118   2.0000      -0.843646       -22.9568
 119   2.0000      -0.839606       -22.8468
 120   2.0000      -0.836299       -22.7569
 121   2.0000      -0.832241       -22.6464
 122   2.0000      -0.827995       -22.5309
 123   2.0000      -0.825559       -22.4646
 124   2.0000      -0.818927       -22.2841
 125   2.0000      -0.808501       -22.0004
 126   2.0000      -0.805679       -21.9237
 127   2.0000      -0.793263       -21.5858
 128   2.0000      -0.788809       -21.4646
 129   2.0000      -0.782001       -21.2793
 130   2.0000      -0.767174       -20.8759
 131   2.0000      -0.764383       -20.7999
 132   2.0000      -0.746799       -20.3214
 133   2.0000      -0.731367       -19.9015
 134   2.0000      -0.721786       -19.6408
 135   2.0000      -0.719520       -19.5791
 136   2.0000      -0.716487       -19.4966
 137   2.0000      -0.707489       -19.2518
 138   2.0000      -0.694999       -18.9119
 139   2.0000      -0.692968       -18.8566
 140   2.0000      -0.691537       -18.8177
 141   2.0000      -0.682995       -18.5852
 142   2.0000      -0.678766       -18.4702
 143   2.0000      -0.676898       -18.4193
 144   2.0000      -0.671936       -18.2843
 145   2.0000      -0.661320       -17.9954
 146   2.0000      -0.657328       -17.8868
 147   2.0000      -0.649228       -17.6664
 148   2.0000      -0.640074       -17.4173
 149   2.0000      -0.634125       -17.2554
 150   2.0000      -0.632462       -17.2102
 151   2.0000      -0.621939       -16.9238
 152   2.0000      -0.620511       -16.8850
 153   2.0000      -0.616982       -16.7889
 154   2.0000      -0.615506       -16.7488
 155   2.0000      -0.607272       -16.5247
 156   2.0000      -0.601251       -16.3609
 157   2.0000      -0.594045       -16.1648
 158   2.0000      -0.592013       -16.1095
 159   2.0000      -0.587709       -15.9924
 160   2.0000      -0.583065       -15.8660
 161   2.0000      -0.578693       -15.7470
 162   2.0000      -0.571922       -15.5628
 163   2.0000      -0.564917       -15.3722
 164   2.0000      -0.561637       -15.2829
 165   2.0000      -0.558020       -15.1845
 166   2.0000      -0.551684       -15.0121
 167   2.0000      -0.541977       -14.7479
 168   2.0000      -0.539174       -14.6717
 169   2.0000      -0.536104       -14.5881
 170   2.0000      -0.535592       -14.5742
 171   2.0000      -0.533097       -14.5063
 172   2.0000      -0.526284       -14.3209
 173   2.0000      -0.524062       -14.2604
 174   2.0000      -0.521429       -14.1888
 175   2.0000      -0.520141       -14.1538
 176   2.0000      -0.519653       -14.1405
 177   2.0000      -0.517719       -14.0878
 178   2.0000      -0.515639       -14.0312
 179   2.0000      -0.511753       -13.9255
 180   2.0000      -0.509065       -13.8524
 181   2.0000      -0.507661       -13.8142
 182   2.0000      -0.507112       -13.7992
 183   2.0000      -0.504559       -13.7297
 184   2.0000      -0.502926       -13.6853
 185   2.0000      -0.502223       -13.6662
 186   2.0000      -0.495153       -13.4738
 187   2.0000      -0.489298       -13.3145
 188   2.0000      -0.486237       -13.2312
 189   2.0000      -0.481200       -13.0941
 190   2.0000      -0.478040       -13.0081
 191   2.0000      -0.476078       -12.9547
 192   2.0000      -0.474921       -12.9233
 193   2.0000      -0.473661       -12.8890
 194   2.0000      -0.471288       -12.8244
 195   2.0000      -0.468072       -12.7369
 196   2.0000      -0.465520       -12.6675
 197   2.0000      -0.463422       -12.6103
 198   2.0000      -0.462294       -12.5797
 199   2.0000      -0.460567       -12.5327
 200   2.0000      -0.458809       -12.4848
 201   2.0000      -0.456389       -12.4190
 202   2.0000      -0.453604       -12.3432
 203   2.0000      -0.452925       -12.3247
 204   2.0000      -0.451905       -12.2970
 205   2.0000      -0.450329       -12.2541
 206   2.0000      -0.446926       -12.1615
 207   2.0000      -0.443711       -12.0740
 208   2.0000      -0.440477       -11.9860
 209   2.0000      -0.439353       -11.9554
 210   2.0000      -0.438019       -11.9191
 211   2.0000      -0.437032       -11.8923
 212   2.0000      -0.434063       -11.8115
 213   2.0000      -0.433505       -11.7963
 214   2.0000      -0.431034       -11.7290
 215   2.0000      -0.426503       -11.6057
 216   2.0000      -0.425819       -11.5871
 217   2.0000      -0.425266       -11.5721
 218   2.0000      -0.422957       -11.5092
 219   2.0000      -0.418918       -11.3993
 220   2.0000      -0.417079       -11.3493
 221   2.0000      -0.414293       -11.2735
 222   2.0000      -0.413811       -11.2604
 223   2.0000      -0.412153       -11.2153
 224   2.0000      -0.407859       -11.0984
 225   2.0000      -0.403079       -10.9683
 226   2.0000      -0.397162       -10.8073
 227   2.0000      -0.394986       -10.7481
 228   2.0000      -0.393848       -10.7172
 229   2.0000      -0.393416       -10.7054
 230   2.0000      -0.392794       -10.6885
 231   2.0000      -0.389778       -10.6064
 232   2.0000      -0.386798       -10.5253
 233   2.0000      -0.382095       -10.3973
 234   2.0000      -0.380173       -10.3450
 235   2.0000      -0.378451       -10.2982
 236   2.0000      -0.375585       -10.2202
 237   2.0000      -0.358795        -9.7633
 238   2.0000      -0.354137        -9.6366
 239   2.0000      -0.344436        -9.3726
 240   2.0000      -0.339694        -9.2436
 241   2.0000      -0.336630        -9.1602
 242   2.0000      -0.329221        -8.9586
 243   2.0000      -0.324669        -8.8347
 244   2.0000      -0.323500        -8.8029
 245   2.0000      -0.321478        -8.7479
 246   2.0000      -0.316924        -8.6239
 247   2.0000      -0.316384        -8.6092
 248   2.0000      -0.312123        -8.4933
 249   2.0000      -0.305386        -8.3100
 250   2.0000      -0.284597        -7.7443
 251   2.0000      -0.263196        -7.1619
 252   2.0000      -0.239969        -6.5299
 253   2.0000      -0.233957        -6.3663
 254   2.0000      -0.207384        -5.6432
 255   0.0000      -0.112538        -3.0623
 256   0.0000      -0.071679        -1.9505
 257   0.0000      -0.038856        -1.0573
 258   0.0000      -0.030320        -0.8250
 259   0.0000      -0.017877        -0.4865

MULLIKEN ATOMIC CHARGES
-----------------------
   0 C :    0.009326
   1 C :    0.033404
   2 C :   -0.138895
   3 S :    0.002499
   4 C :   -0.097122
   5 S :    0.091589
   6 C :   -0.089862
   7 C :    0.091083
   8 C :   -0.028052
   9 C :    0.133196
  10 C :   -0.093843
  11 C :    0.020665
  12 C :    0.098047
  13 C :   -0.045614
  14 C :   -0.024860
  15 C :    0.102795
  16 C :    0.020621
  17 C :   -0.136167
  18 C :    0.080339
  19 C :    0.028852
  20 C :    0.049527
  21 C :    0.025613
  22 C :   -0.102643
  23 C :    0.121207
  24 C :   -0.008335
  25 C :   -0.041197
  26 C :    0.000448
  27 C :    0.010210
  28 C :    0.003416
  29 C :   -0.031372
  30 C :    0.049198
  31 C :    0.021088
  32 C :   -0.023220
  33 S :    0.086758
  34 C :   -0.057721
  35 C :    0.012052
  36 C :    0.080090
  37 C :   -0.034143
  38 S :    0.107130
  39 C :   -0.077930
  40 C :    0.116403
  41 C :   -0.091600
  42 C :   -0.039035
  43 N :    0.055366
  44 C :   -0.139520
  45 C :   -0.158444
  46 N :    0.025089
  47 C :   -0.213224
  48 N :    0.218753
  49 C :   -0.203906
  50 N :    0.228812
  51 C :    0.033800
  52 C :   -0.028749
  53 C :   -0.007419
  54 N :   -0.275287
  55 S :    0.511073
  56 N :   -0.242893
  57 C :    0.025830
  58 C :    0.045322
  59 C :   -0.139837
  60 S :   -0.000442
  61 C :   -0.097279
  62 S :    0.087631
  63 C :   -0.127388
  64 C :    0.035827
  65 C :   -0.023381
  66 H :   -0.016878
  67 H :   -0.016188
  68 H :    0.067236
  69 H :    0.071082
  70 H :    0.070148
  71 H :   -0.027199
  72 H :   -0.032334
  73 H :   -0.044529
  74 H :   -0.036451
  75 H :   -0.029342
  76 H :   -0.005052
  77 H :    0.006060
  78 H :    0.002381
  79 H :    0.012585
  80 H :    0.023051
  81 H :   -0.003311
  82 H :    0.006116
  83 H :    0.019176
  84 H :    0.010044
  85 H :    0.022758
  86 H :   -0.040805
  87 H :   -0.028124
  88 H :   -0.033741
  89 H :   -0.019864
  90 H :    0.005167
  91 H :   -0.008648
  92 H :   -0.005213
  93 H :   -0.003890
  94 H :   -0.004439
  95 H :   -0.011472
  96 H :    0.005164
  97 H :   -0.026112
  98 H :    0.070793
  99 H :    0.064206
 100 H :    0.068353
 101 H :   -0.011831
 102 H :    0.021164
 103 H :    0.016258
Sum of atomic charges:   -0.0000000

LOEWDIN ATOMIC CHARGES
----------------------
   0 C :   -0.048361
   1 C :   -0.094548
   2 C :   -0.320822
   3 S :    0.293155
   4 C :   -0.161641
   5 S :    0.413458
   6 C :   -0.184589
   7 C :   -0.037782
   8 C :   -0.025832
   9 C :   -0.018522
  10 C :   -0.021249
  11 C :    0.006795
  12 C :   -0.023277
  13 C :   -0.017420
  14 C :   -0.020803
  15 C :   -0.007742
  16 C :    0.003488
  17 C :   -0.034573
  18 C :   -0.009289
  19 C :   -0.059620
  20 C :   -0.016056
  21 C :   -0.056533
  22 C :   -0.014755
  23 C :   -0.034459
  24 C :   -0.007342
  25 C :   -0.018093
  26 C :    0.009648
  27 C :   -0.041789
  28 C :   -0.022966
  29 C :   -0.157933
  30 C :   -0.015703
  31 C :   -0.037515
  32 C :   -0.151879
  33 S :    0.385400
  34 C :   -0.194581
  35 C :   -0.015463
  36 C :   -0.032817
  37 C :   -0.109029
  38 S :    0.398375
  39 C :   -0.061914
  40 C :   -0.014748
  41 C :   -0.023890
  42 C :   -0.006002
  43 N :   -0.003343
  44 C :   -0.029049
  45 C :   -0.057995
  46 N :    0.007506
  47 C :   -0.040053
  48 N :   -0.030650
  49 C :   -0.033071
  50 N :   -0.014065
  51 C :   -0.046205
  52 C :   -0.042595
  53 C :   -0.047908
  54 N :   -0.284761
  55 S :    0.649804
  56 N :   -0.274529
  57 C :   -0.043411
  58 C :   -0.076284
  59 C :   -0.320483
  60 S :    0.289149
  61 C :   -0.162703
  62 S :    0.419477
  63 C :   -0.173337
  64 C :   -0.035700
  65 C :   -0.052230
  66 H :    0.028330
  67 H :    0.028817
  68 H :    0.035407
  69 H :    0.024165
  70 H :    0.023960
  71 H :    0.022614
  72 H :    0.025186
  73 H :    0.021053
  74 H :    0.026591
  75 H :    0.025639
  76 H :    0.019134
  77 H :    0.027023
  78 H :    0.019342
  79 H :    0.027683
  80 H :    0.025318
  81 H :    0.019423
  82 H :    0.019582
  83 H :    0.024697
  84 H :    0.024022
  85 H :    0.026427
  86 H :    0.023454
  87 H :    0.026873
  88 H :    0.028134
  89 H :    0.029063
  90 H :    0.021734
  91 H :    0.036066
  92 H :    0.036768
  93 H :    0.035561
  94 H :    0.035794
  95 H :    0.031251
  96 H :    0.036255
  97 H :    0.026152
  98 H :    0.024501
  99 H :    0.034198
 100 H :    0.022183
 101 H :    0.026565
 102 H :    0.020655
 103 H :    0.022032

  Mayer bond orders larger than 0.100000
B(  0-C ,  1-C ) :   1.2836 B(  0-C ,  6-C ) :   1.5285 B(  0-C , 66-H ) :   0.9944
B(  1-C ,  2-C ) :   1.5487 B(  1-C , 67-H ) :   0.9933 B(  2-C ,  3-S ) :   1.0207
B(  2-C ,  5-S ) :   1.1221 B(  3-S ,  4-C ) :   1.0159 B(  4-C , 68-H ) :   0.9731
B(  4-C , 69-H ) :   0.9651 B(  4-C , 70-H ) :   0.9654 B(  5-S ,  6-C ) :   1.0969
B(  6-C ,  7-C ) :   1.1086 B(  7-C ,  8-C ) :   1.7151 B(  7-C , 71-H ) :   0.9519
B(  8-C ,  9-C ) :   1.0786 B(  8-C , 72-H ) :   0.9845 B(  9-C , 10-C ) :   1.2909
B(  9-C , 14-C ) :   1.3327 B( 10-C , 11-C ) :   1.4205 B( 10-C , 73-H ) :   0.9917
B( 11-C , 12-C ) :   1.3649 B( 11-C , 17-C ) :   0.9202 B( 12-C , 13-C ) :   1.3362
B( 12-C , 15-C ) :   1.0082 B( 13-C , 14-C ) :   1.3776 B( 13-C , 74-H ) :   0.9913
B( 14-C , 75-H ) :   0.9945 B( 15-C , 16-C ) :   1.3724 B( 15-C , 25-C ) :   1.3159
B( 16-C , 17-C ) :   0.9224 B( 16-C , 22-C ) :   1.3898 B( 17-C , 18-C ) :   1.0131
B( 17-C , 20-C ) :   1.0347 B( 18-C , 19-C ) :   1.1151 B( 18-C , 76-H ) :   0.9370
B( 18-C , 77-H ) :   0.9386 B( 19-C , 78-H ) :   0.9628 B( 19-C , 79-H ) :   0.9596
B( 19-C , 80-H ) :   0.9605 B( 20-C , 21-C ) :   1.1041 B( 20-C , 81-H ) :   0.9387
B( 20-C , 82-H ) :   0.9380 B( 21-C , 83-H ) :   0.9634 B( 21-C , 84-H ) :   0.9647
B( 21-C , 85-H ) :   0.9646 B( 22-C , 23-C ) :   1.2663 B( 22-C , 86-H ) :   1.0109
B( 23-C , 24-C ) :   1.3279 B( 23-C , 26-C ) :   1.0868 B( 24-C , 25-C ) :   1.4156
B( 24-C , 87-H ) :   0.9840 B( 25-C , 88-H ) :   0.9905 B( 26-C , 27-C ) :   1.6179
B( 26-C , 89-H ) :   0.9894 B( 27-C , 28-C ) :   1.1692 B( 27-C , 90-H ) :   0.9641
B( 28-C , 29-C ) :   1.5383 B( 28-C , 91-H ) :   0.9856 B( 29-C , 30-C ) :   1.1582
B( 29-C , 33-S ) :   1.0237 B( 30-C , 31-C ) :   1.5626 B( 30-C , 92-H ) :   0.9999
B( 31-C , 32-C ) :   1.2135 B( 31-C , 93-H ) :   0.9952 B( 32-C , 33-S ) :   1.0767
B( 32-C , 34-C ) :   1.4410 B( 34-C , 35-C ) :   1.2241 B( 34-C , 38-S ) :   1.0510
B( 35-C , 36-C ) :   1.5464 B( 35-C , 94-H ) :   0.9948 B( 36-C , 37-C ) :   1.2130
B( 36-C , 95-H ) :   0.9841 B( 37-C , 38-S ) :   1.0867 B( 37-C , 39-C ) :   1.3982
B( 39-C , 40-C ) :   1.3599 B( 39-C , 96-H ) :   0.9337 B( 40-C , 41-C ) :   1.1643
B( 40-C , 51-C ) :   0.1165 B( 40-C , 53-C ) :   1.1438 B( 41-C , 42-C ) :   1.0782
B( 41-C , 46-N ) :   1.4909 B( 42-C , 43-N ) :   1.4198 B( 42-C , 51-C ) :   1.3582
B( 43-N , 44-C ) :   1.7567 B( 44-C , 45-C ) :   1.2059 B( 44-C , 49-C ) :   1.1489
B( 45-C , 46-N ) :   1.6663 B( 45-C , 47-C ) :   1.1606 B( 47-C , 48-N ) :   3.0414
B( 49-C , 50-N ) :   3.0527 B( 51-C , 52-C ) :   1.2373 B( 51-C , 57-C ) :   0.9824
B( 52-C , 53-C ) :   1.0964 B( 52-C , 56-N ) :   1.5462 B( 53-C , 54-N ) :   1.5670
B( 54-N , 55-S ) :   1.2644 B( 54-N , 56-N ) :   0.1470 B( 55-S , 56-N ) :   1.2669
B( 57-C , 58-C ) :   1.2733 B( 57-C , 63-C ) :   1.5408 B( 58-C , 59-C ) :   1.5638
B( 58-C , 97-H ) :   0.9932 B( 59-C , 60-S ) :   1.0110 B( 59-C , 62-S ) :   1.1081
B( 60-S , 61-C ) :   1.0157 B( 61-C , 98-H ) :   0.9658 B( 61-C , 99-H ) :   0.9735
B( 61-C ,100-H ) :   0.9649 B( 62-S , 63-C ) :   1.0908 B( 63-C , 64-C ) :   1.0909
B( 64-C , 65-C ) :   1.9589 B( 64-C ,101-H ) :   0.9434 B( 65-C ,102-H ) :   0.9485
B( 65-C ,103-H ) :   0.9487

-----------------------------------------------------------------------------
         ABSORPTION SPECTRUM VIA TRANSITION ELECTRIC DIPOLE MOMENTS
-----------------------------------------------------------------------------
State   Energy  Wavelength   fosc         T2         TX        TY        TZ
        (cm-1)    (nm)                  (au**2)     (au)      (au)      (au)
-----------------------------------------------------------------------------
   0    7117.7   1405.0   0.797054984  36.86596  -1.09745  -4.30184   4.14195
   1   12745.8    784.6   0.082710107   2.13632   0.36428   1.22256  -0.71342
   2   16025.2    624.0   0.742607073  15.25571   0.20659   3.40852  -1.89605
   3   17669.0    566.0   0.249825946   4.65479   0.38475  -2.12258  -0.03746
   4   20775.2    481.3   0.049750980   0.78837   0.18454  -0.61656  -0.61170
   5   22626.6    442.0   0.126188165   1.83601   0.49447  -0.94680   0.83371
   6   23960.9    417.3   0.109138027   1.49951   0.06667  -0.56380  -1.08498
   7   24284.4    411.8   0.164065478   2.22415   0.22181  -1.40094  -0.46078
   8   25168.6    397.3   0.169373467   2.21545  -0.11333   1.47502   0.16408
   9   25870.2    386.5   0.524377422   6.67297   0.42642  -2.52171  -0.36347
  10   26275.2    380.6   0.016330902   0.20462   0.20761  -0.36106   0.17650
  11   26454.0    378.0   0.012278891   0.15281   0.09699  -0.32252   0.19844
  12   28048.1    356.5   0.056852859   0.66730   0.20454  -0.78090  -0.12516
  13   28492.3    351.0   0.087958718   1.01631   0.05922  -1.00628   0.01420
  14   28674.2    348.7   0.164684681   1.89077   0.18136  -0.49275   1.27086
  15   28933.9    345.6   0.068576869   0.78027   0.09912   0.62960  -0.61160
  16   29693.3    336.8   0.227967210   2.52749   0.14642  -1.54458   0.34686
  17   30029.4    333.0   0.021441240   0.23506   0.25428  -0.10966   0.39797
  18   30856.8    324.1   0.155093417   1.65469   0.49287   0.43225   1.10677
  19   31209.1    320.4   0.277769236   2.93008   0.61343   1.08694   1.17147
  20   31665.3    315.8   0.141772175   1.47395   0.37219  -1.00516   0.57016
  21   32415.4    308.5   0.028914463   0.29366   0.14440  -0.44289   0.27686
  22   32519.4    307.5   0.012463470   0.12617  -0.17693   0.05601  -0.30287
  23   32724.8    305.6   0.040670945   0.40915   0.09672  -0.58611   0.23721
  24   33089.4    302.2   0.020897004   0.20791   0.05606   0.05340  -0.44935
  25   33469.3    298.8   0.039406094   0.38761  -0.04351   0.24767  -0.56954
  26   33696.9    296.8   0.037273216   0.36415   0.09051  -0.06773   0.59277
  27   34649.6    288.6   0.293935906   2.79273  -0.07489  -1.28320  -1.06795
  28   34998.5    285.7   0.155788733   1.46542   0.06294   0.68195   0.99820
  29   35330.8    283.0   0.067490160   0.62887   0.06735  -0.05947   0.78791
  30   36070.4    277.2   0.326226538   2.97744  -0.50172  -0.55513  -1.55485
  31   36304.3    275.4   0.109724400   0.99499  -0.87045  -0.34274  -0.34618
  32   37043.5    270.0   0.013024724   0.11575   0.32645  -0.09524  -0.01059
  33   37268.9    268.3   0.018822241   0.16626  -0.13916   0.30831  -0.22769
  34   37382.6    267.5   0.018861722   0.16611  -0.10733   0.39283  -0.01656
  35   37735.5    265.0   0.009662299   0.08430   0.18650   0.20884   0.07681
  36   38069.0    262.7   0.231761483   2.00422  -0.96579  -1.03162  -0.08509
  37   38496.2    259.8   0.130132947   1.11287  -0.59797   0.23077   0.83789
  38   38587.6    259.2   0.022204803   0.18944  -0.25390   0.02880  -0.35235
  39   38949.0    256.7   0.147393191   1.24582  -0.91872  -0.59191  -0.22676
  40   39173.3    255.3   0.062014737   0.52117   0.70000  -0.15004  -0.09304
  41   39449.4    253.5   0.035110871   0.29301  -0.09735  -0.51306   0.14246
  42   39695.6    251.9   0.017748734   0.14720   0.35509   0.10188  -0.10358
  43   39806.7    251.2   0.162561179   1.34442   0.89928   0.50578   0.52906
  44   40273.4    248.3   0.014871460   0.12157  -0.13944  -0.30718  -0.08811

FINAL SINGLE POINT ENERGY     -5154.339193163893

DIPOLE MOMENT
-------------
                                X             Y             Z
Electronic contribution:    -16.90212    -112.37683      81.25003
Nuclear contribution   :     18.90829     116.44949     -83.06465
                        -----------------------------------------
Total Dipole Moment    :      2.00618       4.07266      -1.81462
                        -----------------------------------------
Magnitude (a.u.)       :      4.88919
Magnitude (Debye)      :     12.42733

Rotational constants in cm-1:     0.001986     0.000164     0.000156
Rotational constants in MHz :    59.535092     4.907270     4.683343

                             ****ORCA TERMINATED NORMALLY****
TOTAL RUN TIME: 0 days 0 hours 10 minutes 45 seconds 327 msec
