                         Program Version 4.2.0 -  RELEASE  -
|  1> # ORCA input file
|  2> # SCF done       -194.854070275473          0.000288991726
|  3> ! CAM-B3LYP def2-SVP def2/J RIJCOSX Grid4 TightSCF
|  4> %maxcore 5000
|  5> %tddft
|  6>     Mode sTDDFT
|  7>     Ethresh 5.0
|  8>     maxcore 5000
|  9> end
| 10>
| 11> %pal
| 12>   nprocs 6
| 13>   end
| 14> * xyz 0 1
| 15>    C        0.51093         3.36633         3.83848
| 16>    C       -0.67128         4.05760         3.65800
| 17>    C       -1.94503         3.52417         3.89937
| 18>    N       -3.02335         3.12033         3.93752
| 19>    C       -0.72305         5.39003         3.23304
| 20>    N       -0.80222         6.48471         2.88714
| 21>    C        0.64478         2.19902         4.70541
| 22>    C        2.03077         1.97579         4.94588
| 23>    C        2.46068         1.00888         5.80606
| 24>    C        1.50755         0.20096         6.46987
| 25>    C        0.12183         0.40302         6.21385
| 26>    C       -0.29342         1.41828         5.32039
| 27>    C       -0.81704        -0.40892         6.87888
| 28>    C       -0.41122        -1.36633         7.76804
| 29>    C        0.95266        -1.56022         8.02505
| 30>    C        1.89183        -0.79591         7.38661
| 31>    C        2.81234         2.94675         4.15587
| 32>    O        4.02069         3.06196         4.10648
| 33>    C        1.81611         3.74241         3.39541
| 34>    C        2.28314         4.58816         2.40787
| 35>    C        1.64990         5.27125         1.36704
| 36>    C        0.40523         4.97492         0.81137
| 37>    C       -0.13314         5.95478        -0.07577
| 38>    O       -1.36426         5.79507        -0.62897
| 39>    C       -2.16254         4.82701         0.02033
| 40>    C       -1.35694         3.55400         0.24579
| 41>    O       -0.23748         3.81947         1.07056
| 42>    C        0.68220         7.04167        -0.36907
| 43>   Si        2.34140         6.76518         0.46522
| 44>    C        2.80584         8.16986         1.61055
| 45>    C        3.72164         6.31335        -0.72215
| 46>    C        0.25078         8.23066        -0.97996
| 47>    C       -1.00643         8.79716        -0.89011
| 48>    C       -1.39479        10.06876        -1.37511
| 49>    C       -2.61376        10.49937        -0.92777
| 50>    C       -3.23536         9.59286        -0.05022
| 51>    S       -2.27754         8.14167         0.10969
| 52>    C       -4.38923         9.71663         0.71460
| 53>    C       -5.31700        10.76540         0.83345
| 54>    C       -6.27301        10.54530         1.79036
| 55>    C       -6.13370         9.32518         2.48538
| 56>    S       -4.78975         8.42917         1.82716
| 57>    C       -6.88643         8.86651         3.55052
| 58>    C       -6.60404         7.73251         4.31788
| 59>    C       -7.47746         7.32198         5.32835
| 60>    C       -7.06701         6.21082         6.12858
| 61>    O       -7.92491         5.56351         6.93079
| 62>    C       -9.25535         6.03395         6.88284
| 63>    C       -9.26419         7.55470         6.77737
| 64>    O       -8.65667         7.95303         5.56358
| 65>    C       -5.75608         5.79313         5.92242
| 66>   Si       -5.11185         6.58059         4.34050
| 67>    C       -5.18287         5.29197         2.97953
| 68>    C       -3.43949         7.35506         4.65441
| 69>    C       -4.97788         4.93493         6.69772
| 70>    C       -5.05511         4.61917         8.03913
| 71>    C       -4.19200         3.66537         8.68848
| 72>    C       -2.95630         3.23415         8.25478
| 73>    C       -2.20178         2.23338         8.89278
| 74>    N       -1.55251         1.39990         9.34672
| 75>    C       -2.23214         3.81908         7.20295
| 76>    N       -1.53832         4.29979         6.42037
| 77>    C       -4.79356         3.32491         9.97464
| 78>    C       -5.87077         4.22639        10.20693
| 79>    C       -6.00303         5.13209         9.04168
| 80>    O       -6.69593         6.13118         8.98908
| 81>    C       -6.59913         4.19017        11.35782
| 82>    C       -6.29283         3.21762        12.33935
| 83>    C       -5.22618         2.30451        12.10629
| 84>    C       -4.47618         2.37740        10.90820
| 85>    C       -4.93005         1.34133        13.09098
| 86>    C       -5.64961         1.28211        14.25362
| 87>    C       -6.69909         2.18272        14.48302
| 88>    C       -7.01377         3.12914        13.54527
| 89>    H        3.51534         0.86641         5.99118
| 90>    H       -1.34973         1.55591         5.14935
| 91>    H       -1.86760        -0.25321         6.68035
| 92>    H       -1.14055        -1.97399         8.28208
| 93>    H        1.25726        -2.31698         8.73297
| 94>    H        2.94487        -0.94170         7.58087
| 95>    H        3.35789         4.74189         2.46601
| 96>    H       -2.50839         5.22194         0.98486
| 97>    H       -3.01791         4.64485        -0.63129
| 98>    H       -1.01108         3.15709        -0.71809
| 99>    H       -1.94790         2.79730         0.76500
|100>    H        1.99793         8.39803         2.30406
|101>    H        3.03425         9.08619         1.06955
|102>    H        3.68211         7.92989         2.20997
|103>    H        3.43695         5.51578        -1.40598
|104>    H        4.60734         5.97426        -0.18884
|105>    H        4.02588         7.16294        -1.33007
|106>    H        1.01535         8.84501        -1.43988
|107>    H       -0.75420        10.63790        -2.02629
|108>    H       -3.05701        11.44439        -1.18748
|109>    H       -5.25775        11.65318         0.22918
|110>    H       -7.05570        11.24307         2.03232
|111>    H       -7.75084         9.45880         3.82621
|112>    H       -9.76794         5.60002         6.01248
|113>    H       -9.73551         5.69452         7.80165
|114>    H       -8.70757         7.96980         7.62764
|115>    H      -10.27973         7.95209         6.76162
|116>    H       -6.19467         4.92441         2.81351
|117>    H       -4.56937         4.42920         3.23763
|118>    H       -4.81751         5.67213         2.02905
|119>    H       -3.51279         8.29441         5.20122
|120>    H       -2.88089         7.55467         3.74313
|121>    H       -2.81769         6.68977         5.25326
|122>    H       -4.14608         4.49788         6.15690
|123>    H       -7.40279         4.89262        11.52388
|124>    H       -3.66939         1.67678        10.75925
|125>    H       -4.11818         0.65178        12.91010
|126>    H       -5.41254         0.54156        15.00316
|127>    H       -7.25695         2.12422        15.40601
|128>    H       -7.82149         3.82607        13.71769
|129> *
|130>
|131>                          ****END OF INPUT****

CARTESIAN COORDINATES (ANGSTROEM)
---------------------------------
  C      0.510930    3.366330    3.838480
  C     -0.671280    4.057600    3.658000
  C     -1.945030    3.524170    3.899370
  N     -3.023350    3.120330    3.937520
  C     -0.723050    5.390030    3.233040
  N     -0.802220    6.484710    2.887140
  C      0.644780    2.199020    4.705410
  C      2.030770    1.975790    4.945880
  C      2.460680    1.008880    5.806060
  C      1.507550    0.200960    6.469870
  C      0.121830    0.403020    6.213850
  C     -0.293420    1.418280    5.320390
  C     -0.817040   -0.408920    6.878880
  C     -0.411220   -1.366330    7.768040
  C      0.952660   -1.560220    8.025050
  C      1.891830   -0.795910    7.386610
  C      2.812340    2.946750    4.155870
  O      4.020690    3.061960    4.106480
  C      1.816110    3.742410    3.395410
  C      2.283140    4.588160    2.407870
  C      1.649900    5.271250    1.367040
  C      0.405230    4.974920    0.811370
  C     -0.133140    5.954780   -0.075770
  O     -1.364260    5.795070   -0.628970
  C     -2.162540    4.827010    0.020330
  C     -1.356940    3.554000    0.245790
  O     -0.237480    3.819470    1.070560
  C      0.682200    7.041670   -0.369070
  Si     2.341400    6.765180    0.465220
  C      2.805840    8.169860    1.610550
  C      3.721640    6.313350   -0.722150
  C      0.250780    8.230660   -0.979960
  C     -1.006430    8.797160   -0.890110
  C     -1.394790   10.068760   -1.375110
  C     -2.613760   10.499370   -0.927770
  C     -3.235360    9.592860   -0.050220
  S     -2.277540    8.141670    0.109690
  C     -4.389230    9.716630    0.714600
  C     -5.317000   10.765400    0.833450
  C     -6.273010   10.545300    1.790360
  C     -6.133700    9.325180    2.485380
  S     -4.789750    8.429170    1.827160
  C     -6.886430    8.866510    3.550520
  C     -6.604040    7.732510    4.317880
  C     -7.477460    7.321980    5.328350
  C     -7.067010    6.210820    6.128580
  O     -7.924910    5.563510    6.930790
  C     -9.255350    6.033950    6.882840
  C     -9.264190    7.554700    6.777370
  O     -8.656670    7.953030    5.563580
  C     -5.756080    5.793130    5.922420
  Si    -5.111850    6.580590    4.340500
  C     -5.182870    5.291970    2.979530
  C     -3.439490    7.355060    4.654410
  C     -4.977880    4.934930    6.697720
  C     -5.055110    4.619170    8.039130
  C     -4.192000    3.665370    8.688480
  C     -2.956300    3.234150    8.254780
  C     -2.201780    2.233380    8.892780
  N     -1.552510    1.399900    9.346720
  C     -2.232140    3.819080    7.202950
  N     -1.538320    4.299790    6.420370
  C     -4.793560    3.324910    9.974640
  C     -5.870770    4.226390   10.206930
  C     -6.003030    5.132090    9.041680
  O     -6.695930    6.131180    8.989080
  C     -6.599130    4.190170   11.357820
  C     -6.292830    3.217620   12.339350
  C     -5.226180    2.304510   12.106290
  C     -4.476180    2.377400   10.908200
  C     -4.930050    1.341330   13.090980
  C     -5.649610    1.282110   14.253620
  C     -6.699090    2.182720   14.483020
  C     -7.013770    3.129140   13.545270
  H      3.515340    0.866410    5.991180
  H     -1.349730    1.555910    5.149350
  H     -1.867600   -0.253210    6.680350
  H     -1.140550   -1.973990    8.282080
  H      1.257260   -2.316980    8.732970
  H      2.944870   -0.941700    7.580870
  H      3.357890    4.741890    2.466010
  H     -2.508390    5.221940    0.984860
  H     -3.017910    4.644850   -0.631290
  H     -1.011080    3.157090   -0.718090
  H     -1.947900    2.797300    0.765000
  H      1.997930    8.398030    2.304060
  H      3.034250    9.086190    1.069550
  H      3.682110    7.929890    2.209970
  H      3.436950    5.515780   -1.405980
  H      4.607340    5.974260   -0.188840
  H      4.025880    7.162940   -1.330070
  H      1.015350    8.845010   -1.439880
  H     -0.754200   10.637900   -2.026290
  H     -3.057010   11.444390   -1.187480
  H     -5.257750   11.653180    0.229180
  H     -7.055700   11.243070    2.032320
  H     -7.750840    9.458800    3.826210
  H     -9.767940    5.600020    6.012480
  H     -9.735510    5.694520    7.801650
  H     -8.707570    7.969800    7.627640
  H    -10.279730    7.952090    6.761620
  H     -6.194670    4.924410    2.813510
  H     -4.569370    4.429200    3.237630
  H     -4.817510    5.672130    2.029050
  H     -3.512790    8.294410    5.201220
  H     -2.880890    7.554670    3.743130
  H     -2.817690    6.689770    5.253260
  H     -4.146080    4.497880    6.156900
  H     -7.402790    4.892620   11.523880
  H     -3.669390    1.676780   10.759250
  H     -4.118180    0.651780   12.910100
  H     -5.412540    0.541560   15.003160
  H     -7.256950    2.124220   15.406010
  H     -7.821490    3.826070   13.717690

 Total Charge           Charge          ....    0
 Multiplicity           Mult            ....    1
 Number of Electrons    NEL             ....  536
 Basis Dimension        Dim             .... 1252

ORBITAL ENERGIES
----------------

  NO   OCC          E(Eh)            E(eV)
   0   2.0000     -88.944543     -2420.3041
   1   2.0000     -88.939022     -2420.1538
   2   2.0000     -66.187569     -1801.0553
   3   2.0000     -66.179986     -1800.8490
   4   2.0000     -19.277837      -524.5766
   5   2.0000     -19.267096      -524.2843
   6   2.0000     -19.262513      -524.1596
   7   2.0000     -19.261725      -524.1382
   8   2.0000     -19.187439      -522.1168
   9   2.0000     -19.183786      -522.0174
  10   2.0000     -14.396456      -391.7475
  11   2.0000     -14.395008      -391.7081
  12   2.0000     -14.392988      -391.6531
  13   2.0000     -14.390883      -391.5958
  14   2.0000     -10.359399      -281.8936
  15   2.0000     -10.354637      -281.7640
  16   2.0000     -10.342302      -281.4283
  17   2.0000     -10.342162      -281.4245
  18   2.0000     -10.341633      -281.4101
  19   2.0000     -10.339685      -281.3571
  20   2.0000     -10.337773      -281.3051
  21   2.0000     -10.337185      -281.2891
  22   2.0000     -10.336998      -281.2840
  23   2.0000     -10.333443      -281.1873
  24   2.0000     -10.314426      -280.6698
  25   2.0000     -10.310512      -280.5633
  26   2.0000     -10.309668      -280.5403
  27   2.0000     -10.306438      -280.4524
  28   2.0000     -10.305589      -280.4293
  29   2.0000     -10.305272      -280.4207
  30   2.0000     -10.304787      -280.4075
  31   2.0000     -10.304114      -280.3892
  32   2.0000     -10.301999      -280.3317
  33   2.0000     -10.299522      -280.2642
  34   2.0000     -10.299483      -280.2632
  35   2.0000     -10.295401      -280.1521
  36   2.0000     -10.287648      -279.9411
  37   2.0000     -10.287573      -279.9391
  38   2.0000     -10.286837      -279.9191
  39   2.0000     -10.283790      -279.8362
  40   2.0000     -10.283279      -279.8223
  41   2.0000     -10.282117      -279.7906
  42   2.0000     -10.280263      -279.7402
  43   2.0000     -10.280145      -279.7370
  44   2.0000     -10.278971      -279.7050
  45   2.0000     -10.278304      -279.6869
  46   2.0000     -10.276846      -279.6472
  47   2.0000     -10.275762      -279.6177
  48   2.0000     -10.275128      -279.6005
  49   2.0000     -10.270796      -279.4826
  50   2.0000     -10.270778      -279.4821
  51   2.0000     -10.270155      -279.4651
  52   2.0000     -10.269678      -279.4521
  53   2.0000     -10.269180      -279.4386
  54   2.0000     -10.267908      -279.4040
  55   2.0000     -10.267573      -279.3949
  56   2.0000     -10.267294      -279.3873
  57   2.0000     -10.266584      -279.3679
  58   2.0000     -10.265851      -279.3480
  59   2.0000     -10.263012      -279.2708
  60   2.0000     -10.262420      -279.2546
  61   2.0000     -10.262013      -279.2436
  62   2.0000     -10.259507      -279.1754
  63   2.0000     -10.258432      -279.1461
  64   2.0000     -10.258168      -279.1390
  65   2.0000     -10.257908      -279.1319
  66   2.0000     -10.256670      -279.0982
  67   2.0000     -10.256139      -279.0837
  68   2.0000     -10.252995      -278.9982
  69   2.0000     -10.246989      -278.8347
  70   2.0000     -10.245078      -278.7827
  71   2.0000     -10.240360      -278.6544
  72   2.0000     -10.226802      -278.2854
  73   2.0000     -10.221326      -278.1364
  74   2.0000      -8.040302      -218.7877
  75   2.0000      -8.034479      -218.6293
  76   2.0000      -6.010040      -163.5415
  77   2.0000      -6.005902      -163.4289
  78   2.0000      -6.004218      -163.3831
  79   2.0000      -6.001352      -163.3051
  80   2.0000      -5.999923      -163.2662
  81   2.0000      -5.995634      -163.1495
  82   2.0000      -5.354697      -145.7087
  83   2.0000      -5.346436      -145.4839
  84   2.0000      -3.718287      -101.1797
  85   2.0000      -3.716513      -101.1315
  86   2.0000      -3.715698      -101.1093
  87   2.0000      -3.710355      -100.9639
  88   2.0000      -3.708453      -100.9121
  89   2.0000      -3.707044      -100.8738
  90   2.0000      -1.198571       -32.6148
  91   2.0000      -1.193907       -32.4878
  92   2.0000      -1.157386       -31.4941
  93   2.0000      -1.153457       -31.3872
  94   2.0000      -1.099103       -29.9081
  95   2.0000      -1.096807       -29.8456
  96   2.0000      -0.997470       -27.1425
  97   2.0000      -0.994205       -27.0537
  98   2.0000      -0.993503       -27.0346
  99   2.0000      -0.978395       -26.6235
 100   2.0000      -0.975948       -26.5569
 101   2.0000      -0.971117       -26.4254
 102   2.0000      -0.971082       -26.4245
 103   2.0000      -0.969942       -26.3935
 104   2.0000      -0.950639       -25.8682
 105   2.0000      -0.942357       -25.6428
 106   2.0000      -0.935066       -25.4444
 107   2.0000      -0.932613       -25.3777
 108   2.0000      -0.902774       -24.5657
 109   2.0000      -0.895585       -24.3701
 110   2.0000      -0.890401       -24.2290
 111   2.0000      -0.879457       -23.9312
 112   2.0000      -0.873104       -23.7584
 113   2.0000      -0.867278       -23.5998
 114   2.0000      -0.861652       -23.4467
 115   2.0000      -0.854236       -23.2450
 116   2.0000      -0.852746       -23.2044
 117   2.0000      -0.850393       -23.1404
 118   2.0000      -0.848905       -23.0999
 119   2.0000      -0.838550       -22.8181
 120   2.0000      -0.833977       -22.6937
 121   2.0000      -0.819902       -22.3107
 122   2.0000      -0.815010       -22.1776
 123   2.0000      -0.808901       -22.0113
 124   2.0000      -0.805396       -21.9159
 125   2.0000      -0.798923       -21.7398
 126   2.0000      -0.790811       -21.5191
 127   2.0000      -0.785662       -21.3790
 128   2.0000      -0.778209       -21.1761
 129   2.0000      -0.772712       -21.0266
 130   2.0000      -0.770318       -20.9614
 131   2.0000      -0.761866       -20.7314
 132   2.0000      -0.752112       -20.4660
 133   2.0000      -0.745176       -20.2773
 134   2.0000      -0.737231       -20.0611
 135   2.0000      -0.732379       -19.9290
 136   2.0000      -0.720744       -19.6124
 137   2.0000      -0.716781       -19.5046
 138   2.0000      -0.712973       -19.4010
 139   2.0000      -0.684595       -18.6288
 140   2.0000      -0.684295       -18.6206
 141   2.0000      -0.681654       -18.5488
 142   2.0000      -0.679368       -18.4865
 143   2.0000      -0.673555       -18.3284
 144   2.0000      -0.672912       -18.3109
 145   2.0000      -0.669829       -18.2270
 146   2.0000      -0.658247       -17.9118
 147   2.0000      -0.652300       -17.7500
 148   2.0000      -0.650516       -17.7014
 149   2.0000      -0.645022       -17.5519
 150   2.0000      -0.640785       -17.4366
 151   2.0000      -0.636768       -17.3273
 152   2.0000      -0.629728       -17.1358
 153   2.0000      -0.625934       -17.0325
 154   2.0000      -0.619797       -16.8655
 155   2.0000      -0.617832       -16.8121
 156   2.0000      -0.615780       -16.7562
 157   2.0000      -0.604970       -16.4621
 158   2.0000      -0.604484       -16.4488
 159   2.0000      -0.598241       -16.2790
 160   2.0000      -0.593205       -16.1419
 161   2.0000      -0.587388       -15.9836
 162   2.0000      -0.581457       -15.8223
 163   2.0000      -0.577389       -15.7115
 164   2.0000      -0.569344       -15.4926
 165   2.0000      -0.567917       -15.4538
 166   2.0000      -0.566247       -15.4084
 167   2.0000      -0.557178       -15.1616
 168   2.0000      -0.550859       -14.9896
 169   2.0000      -0.546750       -14.8778
 170   2.0000      -0.541447       -14.7335
 171   2.0000      -0.539765       -14.6878
 172   2.0000      -0.537041       -14.6136
 173   2.0000      -0.531023       -14.4499
 174   2.0000      -0.527707       -14.3596
 175   2.0000      -0.526565       -14.3286
 176   2.0000      -0.525064       -14.2877
 177   2.0000      -0.523197       -14.2369
 178   2.0000      -0.522645       -14.2219
 179   2.0000      -0.519461       -14.1352
 180   2.0000      -0.518909       -14.1202
 181   2.0000      -0.512400       -13.9431
 182   2.0000      -0.510635       -13.8951
 183   2.0000      -0.507863       -13.8196
 184   2.0000      -0.505412       -13.7530
 185   2.0000      -0.503529       -13.7017
 186   2.0000      -0.500535       -13.6203
 187   2.0000      -0.499593       -13.5946
 188   2.0000      -0.497459       -13.5366
 189   2.0000      -0.495010       -13.4699
 190   2.0000      -0.492357       -13.3977
 191   2.0000      -0.491907       -13.3855
 192   2.0000      -0.491111       -13.3638
 193   2.0000      -0.489182       -13.3113
 194   2.0000      -0.487468       -13.2647
 195   2.0000      -0.487281       -13.2596
 196   2.0000      -0.484602       -13.1867
 197   2.0000      -0.483220       -13.1491
 198   2.0000      -0.481788       -13.1101
 199   2.0000      -0.480452       -13.0738
 200   2.0000      -0.477810       -13.0019
 201   2.0000      -0.477581       -12.9956
 202   2.0000      -0.475153       -12.9296
 203   2.0000      -0.473819       -12.8933
 204   2.0000      -0.472766       -12.8646
 205   2.0000      -0.471292       -12.8245
 206   2.0000      -0.468898       -12.7594
 207   2.0000      -0.465900       -12.6778
 208   2.0000      -0.463090       -12.6013
 209   2.0000      -0.462935       -12.5971
 210   2.0000      -0.460173       -12.5219
 211   2.0000      -0.457292       -12.4435
 212   2.0000      -0.456248       -12.4151
 213   2.0000      -0.453196       -12.3321
 214   2.0000      -0.451352       -12.2819
 215   2.0000      -0.449479       -12.2309
 216   2.0000      -0.443952       -12.0806
 217   2.0000      -0.436864       -11.8877
 218   2.0000      -0.433549       -11.7975
 219   2.0000      -0.431790       -11.7496
 220   2.0000      -0.428830       -11.6691
 221   2.0000      -0.427223       -11.6253
 222   2.0000      -0.426132       -11.5956
 223   2.0000      -0.425430       -11.5765
 224   2.0000      -0.419608       -11.4181
 225   2.0000      -0.418185       -11.3794
 226   2.0000      -0.416448       -11.3321
 227   2.0000      -0.414714       -11.2849
 228   2.0000      -0.414118       -11.2687
 229   2.0000      -0.410958       -11.1827
 230   2.0000      -0.408642       -11.1197
 231   2.0000      -0.407810       -11.0971
 232   2.0000      -0.405880       -11.0446
 233   2.0000      -0.404603       -11.0098
 234   2.0000      -0.402193       -10.9442
 235   2.0000      -0.398234       -10.8365
 236   2.0000      -0.396804       -10.7976
 237   2.0000      -0.394522       -10.7355
 238   2.0000      -0.392477       -10.6798
 239   2.0000      -0.389671       -10.6035
 240   2.0000      -0.389113       -10.5883
 241   2.0000      -0.388682       -10.5766
 242   2.0000      -0.384758       -10.4698
 243   2.0000      -0.384223       -10.4552
 244   2.0000      -0.380878       -10.3642
 245   2.0000      -0.378319       -10.2946
 246   2.0000      -0.373262       -10.1570
 247   2.0000      -0.371170       -10.1001
 248   2.0000      -0.369136       -10.0447
 249   2.0000      -0.364503        -9.9186
 250   2.0000      -0.354837        -9.6556
 251   2.0000      -0.349842        -9.5197
 252   2.0000      -0.347899        -9.4668
 253   2.0000      -0.336323        -9.1518
 254   2.0000      -0.334904        -9.1132
 255   2.0000      -0.330376        -8.9900
 256   2.0000      -0.321408        -8.7460
 257   2.0000      -0.310567        -8.4509
 258   2.0000      -0.308963        -8.4073
 259   2.0000      -0.305223        -8.3055
 260   2.0000      -0.298448        -8.1212
 261   2.0000      -0.293987        -7.9998
 262   2.0000      -0.284667        -7.7462
 263   2.0000      -0.277497        -7.5511
 264   2.0000      -0.265386        -7.2215
 265   2.0000      -0.263922        -7.1817
 266   2.0000      -0.240598        -6.5470
 267   2.0000      -0.197451        -5.3729
 268   0.0000      -0.098443        -2.6788
 269   0.0000      -0.067620        -1.8400
 270   0.0000      -0.044922        -1.2224
 271   0.0000      -0.035532        -0.9669
 272   0.0000      -0.026695        -0.7264

MULLIKEN ATOMIC CHARGES
-----------------------
   0 C :    0.310202
   1 C :   -0.334763
   2 C :   -0.102448
   3 N :    0.057095
   4 C :   -0.202795
   5 N :    0.149462
   6 C :    0.051070
   7 C :    0.013133
   8 C :   -0.093668
   9 C :    0.103656
  10 C :    0.094193
  11 C :   -0.091121
  12 C :   -0.001111
  13 C :    0.052107
  14 C :    0.034776
  15 C :   -0.022012
  16 C :    0.128969
  17 O :   -0.164777
  18 C :   -0.108905
  19 C :    0.030342
  20 C :   -0.207200
  21 C :    0.103801
  22 C :    0.124189
  23 O :   -0.298226
  24 C :    0.158830
  25 C :    0.187923
  26 O :   -0.264162
  27 C :   -0.198182
  28 Si:    0.505259
  29 C :   -0.192606
  30 C :   -0.182949
  31 C :    0.006233
  32 C :   -0.019884
  33 C :    0.027844
  34 C :    0.027767
  35 C :   -0.038142
  36 S :    0.104726
  37 C :   -0.017773
  38 C :    0.029668
  39 C :    0.029478
  40 C :   -0.001732
  41 S :    0.030796
  42 C :   -0.024576
  43 C :   -0.158805
  44 C :    0.077772
  45 C :    0.184178
  46 O :   -0.248110
  47 C :    0.184352
  48 C :    0.169310
  49 O :   -0.293468
  50 C :   -0.238997
  51 Si:    0.423047
  52 C :   -0.150755
  53 C :   -0.173920
  54 C :    0.021614
  55 C :   -0.081213
  56 C :    0.284701
  57 C :   -0.373276
  58 C :   -0.172019
  59 N :    0.122415
  60 C :   -0.144721
  61 N :    0.109027
  62 C :    0.047567
  63 C :    0.023989
  64 C :    0.130672
  65 O :   -0.176026
  66 C :   -0.105429
  67 C :    0.101770
  68 C :    0.096853
  69 C :   -0.091565
  70 C :   -0.022294
  71 C :    0.032106
  72 C :    0.034382
  73 C :   -0.023217
  74 H :   -0.022186
  75 H :   -0.021480
  76 H :   -0.024010
  77 H :   -0.017674
  78 H :   -0.016405
  79 H :   -0.027151
  80 H :    0.009266
  81 H :    0.052983
  82 H :    0.040250
  83 H :    0.037705
  84 H :    0.053215
  85 H :    0.069589
  86 H :    0.036389
  87 H :    0.046294
  88 H :    0.049885
  89 H :    0.048004
  90 H :    0.040098
  91 H :   -0.017684
  92 H :   -0.012142
  93 H :   -0.016863
  94 H :   -0.013262
  95 H :   -0.011616
  96 H :   -0.009108
  97 H :    0.034758
  98 H :    0.039080
  99 H :    0.052208
 100 H :    0.032667
 101 H :    0.034880
 102 H :    0.048204
 103 H :    0.031674
 104 H :    0.043587
 105 H :    0.061574
 106 H :    0.054041
 107 H :    0.014208
 108 H :   -0.026900
 109 H :   -0.012240
 110 H :   -0.015156
 111 H :   -0.011943
 112 H :   -0.013257
 113 H :   -0.025907
Sum of atomic charges:   -0.0000000

LOEWDIN ATOMIC CHARGES
----------------------
   0 C :    0.074568
   1 C :   -0.155670
   2 C :    0.003060
   3 N :   -0.105327
   4 C :   -0.000250
   5 N :   -0.078889
   6 C :   -0.017468
   7 C :   -0.056689
   8 C :    0.026369
   9 C :   -0.011038
  10 C :   -0.006265
  11 C :    0.009334
  12 C :   -0.002584
  13 C :   -0.009373
  14 C :   -0.017054
  15 C :   -0.013831
  16 C :    0.082093
  17 O :   -0.163107
  18 C :   -0.106449
  19 C :    0.049641
  20 C :   -0.219309
  21 C :    0.067155
  22 C :    0.009636
  23 O :   -0.088406
  24 C :    0.068173
  25 C :    0.077117
  26 O :   -0.040822
  27 C :   -0.189972
  28 Si:    0.681653
  29 C :   -0.243724
  30 C :   -0.241411
  31 C :   -0.056143
  32 C :   -0.145348
  33 C :   -0.030816
  34 C :   -0.041199
  35 C :   -0.178635
  36 S :    0.430458
  37 C :   -0.175988
  38 C :   -0.033698
  39 C :   -0.034360
  40 C :   -0.144617
  41 S :    0.426191
  42 C :   -0.052713
  43 C :   -0.180647
  44 C :    0.018769
  45 C :    0.069509
  46 O :   -0.040652
  47 C :    0.074097
  48 C :    0.072405
  49 O :   -0.090609
  50 C :   -0.212409
  51 Si:    0.647207
  52 C :   -0.249715
  53 C :   -0.249829
  54 C :    0.058103
  55 C :   -0.113824
  56 C :    0.082396
  57 C :   -0.168026
  58 C :   -0.017452
  59 N :   -0.073820
  60 C :   -0.002096
  61 N :   -0.072116
  62 C :   -0.022457
  63 C :   -0.046081
  64 C :    0.074452
  65 O :   -0.169411
  66 C :    0.015002
  67 C :   -0.010234
  68 C :   -0.010083
  69 C :    0.010942
  70 C :   -0.008442
  71 C :   -0.021783
  72 C :   -0.019604
  73 C :   -0.014880
  74 H :    0.035144
  75 H :    0.032782
  76 H :    0.028251
  77 H :    0.029079
  78 H :    0.028398
  79 H :    0.027773
  80 H :    0.037340
  81 H :    0.022793
  82 H :    0.036998
  83 H :    0.026809
  84 H :    0.039762
  85 H :    0.048548
  86 H :    0.034621
  87 H :    0.038944
  88 H :    0.039710
  89 H :    0.039208
  90 H :    0.035621
  91 H :    0.029107
  92 H :    0.032148
  93 H :    0.030359
  94 H :    0.032753
  95 H :    0.033521
  96 H :    0.031308
  97 H :    0.025035
  98 H :    0.036404
  99 H :    0.031691
 100 H :    0.033027
 101 H :    0.036647
 102 H :    0.034546
 103 H :    0.018596
 104 H :    0.040434
 105 H :    0.029112
 106 H :    0.040915
 107 H :    0.040749
 108 H :    0.032414
 109 H :    0.036613
 110 H :    0.032187
 111 H :    0.029989
 112 H :    0.029379
 113 H :    0.028277

  Mayer bond orders larger than 0.100000
B(  0-C ,  1-C ) :   1.5235 B(  0-C ,  6-C ) :   1.0127 B(  0-C , 18-C ) :   1.1326
B(  1-C ,  2-C ) :   1.1536 B(  1-C ,  4-C ) :   1.2495 B(  2-C ,  3-N ) :   2.7463
B(  4-C ,  5-N ) :   2.8523 B(  6-C ,  7-C ) :   1.2141 B(  6-C , 11-C ) :   1.4646
B(  7-C ,  8-C ) :   1.4829 B(  7-C , 16-C ) :   0.9228 B(  8-C ,  9-C ) :   1.1708
B(  8-C , 74-H ) :   1.0150 B(  9-C , 10-C ) :   1.2682 B(  9-C , 15-C ) :   1.2493
B( 10-C , 11-C ) :   1.1966 B( 10-C , 12-C ) :   1.2495 B( 11-C , 75-H ) :   0.9874
B( 12-C , 13-C ) :   1.4835 B( 12-C , 76-H ) :   0.9934 B( 13-C , 14-C ) :   1.2693
B( 13-C , 77-H ) :   0.9860 B( 14-C , 15-C ) :   1.4804 B( 14-C , 78-H ) :   0.9881
B( 15-C , 79-H ) :   0.9956 B( 16-C , 17-O ) :   2.2341 B( 16-C , 18-C ) :   0.9587
B( 18-C , 19-C ) :   1.4798 B( 19-C , 20-C ) :   1.2791 B( 19-C , 80-H ) :   0.9256
B( 20-C , 21-C ) :   1.4730 B( 20-C , 28-Si) :   0.8722 B( 21-C , 22-C ) :   1.0821
B( 21-C , 26-O ) :   1.2024 B( 22-C , 23-O ) :   1.1398 B( 22-C , 27-C ) :   1.5704
B( 23-O , 24-C ) :   0.9278 B( 24-C , 25-C ) :   1.0832 B( 24-C , 81-H ) :   0.9340
B( 24-C , 82-H ) :   0.9503 B( 25-C , 26-O ) :   0.9141 B( 25-C , 83-H ) :   0.9453
B( 25-C , 84-H ) :   0.9497 B( 27-C , 28-Si) :   0.8677 B( 27-C , 31-C ) :   1.2004
B( 28-Si, 29-C ) :   1.0675 B( 28-Si, 30-C ) :   1.0604 B( 29-C , 85-H ) :   0.9475
B( 29-C , 86-H ) :   0.9509 B( 29-C , 87-H ) :   0.9509 B( 30-C , 88-H ) :   0.9483
B( 30-C , 89-H ) :   0.9521 B( 30-C , 90-H ) :   0.9527 B( 31-C , 32-C ) :   1.5262
B( 31-C , 91-H ) :   0.9545 B( 32-C , 33-C ) :   1.1732 B( 32-C , 36-S ) :   1.0755
B( 33-C , 34-C ) :   1.5592 B( 33-C , 92-H ) :   0.9968 B( 34-C , 35-C ) :   1.2118
B( 34-C , 93-H ) :   0.9953 B( 35-C , 36-S ) :   1.0736 B( 35-C , 37-C ) :   1.4407
B( 37-C , 38-C ) :   1.2267 B( 37-C , 41-S ) :   1.0675 B( 38-C , 39-C ) :   1.5406
B( 38-C , 94-H ) :   0.9932 B( 39-C , 40-C ) :   1.1822 B( 39-C , 95-H ) :   0.9987
B( 40-C , 41-S ) :   1.0443 B( 40-C , 42-C ) :   1.4785 B( 42-C , 43-C ) :   1.2130
B( 42-C , 96-H ) :   0.9784 B( 43-C , 44-C ) :   1.5424 B( 43-C , 51-Si) :   0.8522
B( 44-C , 45-C ) :   1.0886 B( 44-C , 49-O ) :   1.1539 B( 45-C , 46-O ) :   1.2133
B( 45-C , 50-C ) :   1.4634 B( 46-O , 47-C ) :   0.9338 B( 47-C , 48-C ) :   1.0762
B( 47-C , 97-H ) :   0.9445 B( 47-C , 98-H ) :   0.9506 B( 48-C , 49-O ) :   0.9467
B( 48-C , 99-H ) :   0.9436 B( 48-C ,100-H ) :   0.9516 B( 50-C , 51-Si) :   0.8605
B( 50-C , 54-C ) :   1.3302 B( 51-Si, 52-C ) :   1.0912 B( 51-Si, 53-C ) :   1.0929
B( 52-C ,101-H ) :   0.9262 B( 52-C ,102-H ) :   0.9285 B( 52-C ,103-H ) :   0.9439
B( 53-C ,104-H ) :   0.9378 B( 53-C ,105-H ) :   0.9353 B( 53-C ,106-H ) :   0.9399
B( 54-C , 55-C ) :   1.4492 B( 54-C ,107-H ) :   0.9214 B( 55-C , 56-C ) :   1.1245
B( 55-C , 64-C ) :   0.9779 B( 56-C , 57-C ) :   1.5553 B( 56-C , 62-C ) :   0.9856
B( 57-C , 58-C ) :   1.1527 B( 57-C , 60-C ) :   1.1778 B( 58-C , 59-N ) :   2.9250
B( 60-C , 61-N ) :   2.8562 B( 62-C , 63-C ) :   1.2161 B( 62-C , 69-C ) :   1.4651
B( 63-C , 64-C ) :   0.9211 B( 63-C , 66-C ) :   1.4858 B( 64-C , 65-O ) :   2.1925
B( 66-C , 67-C ) :   1.1712 B( 66-C ,108-H ) :   1.0147 B( 67-C , 68-C ) :   1.2647
B( 67-C , 73-C ) :   1.2495 B( 68-C , 69-C ) :   1.1921 B( 68-C , 70-C ) :   1.2452
B( 69-C ,109-H ) :   0.9918 B( 70-C , 71-C ) :   1.4838 B( 70-C ,110-H ) :   0.9974
B( 71-C , 72-C ) :   1.2640 B( 71-C ,111-H ) :   0.9885 B( 72-C , 73-C ) :   1.4852
B( 72-C ,112-H ) :   0.9882 B( 73-C ,113-H ) :   0.9970

-----------------------------------------------------------------------------
         ABSORPTION SPECTRUM VIA TRANSITION ELECTRIC DIPOLE MOMENTS
-----------------------------------------------------------------------------
State   Energy  Wavelength   fosc         T2         TX        TY        TZ
        (cm-1)    (nm)                  (au**2)     (au)      (au)      (au)
-----------------------------------------------------------------------------
   0    7162.9   1396.1   0.310832602  14.28617  -2.73346   0.14696   2.60630
   1   13443.2    743.9   0.297470760   7.28477   0.55825  -1.84665   1.88759
   2   16983.7    588.8   1.356983177  26.30377  -1.16944   3.48455  -3.57688
   3   19421.9    514.9   0.208490314   3.53402   1.68667  -0.82366  -0.10366
   4   21197.9    471.7   0.087157915   1.35360   0.33196  -0.72264   0.84923
   5   21913.4    456.3   0.124147971   1.86511   1.26387  -0.16178  -0.49149
   6   22486.8    444.7   0.126715057   1.85513  -0.81698  -0.43583   0.99887
   7   23360.4    428.1   0.317345336   4.47225   1.92534  -0.27709  -0.82979
   8   24093.1    415.1   0.129171856   1.76502  -0.95376  -0.40865   0.82968
   9   25589.6    390.8   0.021741647   0.27971  -0.15296  -0.22764   0.45220
  10   26313.9    380.0   0.018658399   0.23343  -0.38050   0.12916   0.26828
  11   26571.5    376.3   0.010236722   0.12683   0.35247  -0.01656  -0.04814
  12   27163.6    368.1   0.004758868   0.05768  -0.13811  -0.12058   0.15512
  13   27415.4    364.8   0.024840807   0.29829  -0.38160   0.31401  -0.23254
  14   27625.1    362.0   0.043985146   0.52418  -0.13437  -0.31561   0.63758
  15   27847.9    359.1   0.054705985   0.64672   0.25402  -0.75191   0.12971
  16   28425.6    351.8   0.037701246   0.43664  -0.26326   0.57080  -0.20377
  17   28733.4    348.0   0.025957216   0.29740  -0.50616   0.19514  -0.05590
  18   28866.5    346.4   0.059471032   0.67825  -0.24846  -0.39033   0.68129
  19   29164.1    342.9   0.006900276   0.07789  -0.24356   0.12721   0.04886
  20   29536.2    338.6   0.053405257   0.59526   0.17991  -0.53929  -0.52159
  21   29912.3    334.3   0.014326962   0.15768   0.32100  -0.23060  -0.03824
  22   30518.8    327.7   0.056788354   0.61259  -0.23817  -0.46186   0.58527
  23   31234.1    320.2   0.007953741   0.08383  -0.06037  -0.04885   0.27893
  24   31474.7    317.7   0.049324664   0.51591  -0.38220  -0.06424   0.60474
  25   31901.1    313.5   0.084184463   0.86876   0.29904  -0.88101   0.05619
  26   32119.3    311.3   0.247288595   2.53462   0.74874   0.32750  -1.36629
  27   32518.6    307.5   0.264697058   2.67974  -0.46779   1.20691  -1.00214
  28   32808.8    304.8   0.113725638   1.14115  -0.04028  -0.50384   0.94110
  29   33116.8    302.0   0.089231415   0.88704  -0.15870   0.50190  -0.78100
  30   33342.7    299.9   0.018516620   0.18283  -0.41760  -0.00334   0.09178
  31   33472.6    298.8   0.012720253   0.12511   0.01458   0.34535  -0.07500
  32   33961.0    294.5   0.020294273   0.19673  -0.01411   0.03187  -0.44217
  33   34062.4    293.6   0.047524956   0.45933  -0.58523   0.34178  -0.00478
  34   34412.1    290.6   0.071074050   0.67995   0.75150   0.14820  -0.30533
  35   34526.2    289.6   0.017416334   0.16607   0.00006  -0.17380   0.36859
  36   35136.5    284.6   0.090598634   0.84887   0.01719   0.63636  -0.66605
  37   35491.7    281.8   0.022297394   0.20683   0.25039  -0.26124   0.27547
  38   35797.3    279.4   0.131884741   1.21289  -0.73463   0.81016  -0.12981
  39   36159.8    276.6   0.069047224   0.62863  -0.31126  -0.02340   0.72884
  40   36415.2    274.6   0.035766371   0.32335   0.18214  -0.32754   0.42765
  41   36640.7    272.9   0.077800157   0.69902   0.69213  -0.15727  -0.44187
  42   36738.1    272.2   0.330105741   2.95809  -1.27102   0.14780   1.14924
  43   36939.9    270.7   0.054707647   0.48756   0.10509   0.32273  -0.61022
  44   37074.0    269.7   0.031469831   0.27945  -0.38373   0.30469  -0.19840
  45   37123.2    269.4   0.084448798   0.74890   0.61451   0.07815  -0.60429
  46   37410.8    267.3   0.015786489   0.13892   0.25049  -0.15592   0.22774
  47   37627.1    265.8   0.008972544   0.07850   0.17167   0.20204  -0.09063
  48   37751.9    264.9   0.045651097   0.39810  -0.58287   0.16759  -0.17399
  49   38022.7    263.0   0.107944102   0.93461   0.77713   0.37610  -0.43500
  50   38398.1    260.4   0.108276025   0.92832  -0.73225   0.50158  -0.37490
  51   38801.8    257.7   0.007040378   0.05973  -0.21760  -0.10875   0.02361
  52   39005.0    256.4   0.072720087   0.61378   0.01155   0.58309  -0.52312
  53   39280.5    254.6   0.032811063   0.27499  -0.15808   0.45533  -0.20658
  54   39952.6    250.3   0.088465512   0.72896  -0.78222   0.31129   0.14209
  55   40135.4    249.2   0.011535666   0.09462   0.26425   0.12881  -0.09055

FINAL SINGLE POINT ENERGY     -4351.892913646543

DIPOLE MOMENT
-------------
                                X             Y             Z
Electronic contribution:     -2.07876      -3.40045       3.44876
Nuclear contribution   :     -0.77035       4.65204      -5.02555
                        -----------------------------------------
Total Dipole Moment    :     -2.84910       1.25158      -1.57680
                        -----------------------------------------
Magnitude (a.u.)       :      3.48857
Magnitude (Debye)      :      8.86725

Rotational constants in cm-1:     0.001103     0.000695     0.000453
Rotational constants in MHz :    33.077230    20.836160    13.585449

                             ****ORCA TERMINATED NORMALLY****
TOTAL RUN TIME: 0 days 0 hours 16 minutes 34 seconds 437 msec
