                         Program Version 4.2.0 -  RELEASE  -
|  1> # ORCA input file
|  2> # SCF done       -183.281063661051          0.000788061262
|  3> ! CAM-B3LYP def2-SVP def2/J RIJCOSX Grid4 TightSCF
|  4> %maxcore 5000
|  5> %tddft
|  6>     Mode sTDDFT
|  7>     Ethresh 5.0
|  8>     maxcore 5000
|  9> end
| 10>
| 11> %pal
| 12>   nprocs 6
| 13>   end
| 14> * xyz 0 1
| 15>    C       -4.68808         3.61327         4.06704
| 16>    C       -5.66718         4.36077         3.46679
| 17>    C       -6.60103         5.14110         4.17644
| 18>    N       -7.36879         5.80660         4.71073
| 19>    C       -5.90229         4.34508         2.07642
| 20>    N       -6.14661         4.31448         0.95512
| 21>    C       -4.58600         3.34371         5.49607
| 22>    C       -3.84324         2.13936         5.67478
| 23>    C       -3.62565         1.61143         6.91467
| 24>    C       -4.13698         2.28190         8.04906
| 25>    C       -4.86328         3.49583         7.87679
| 26>    C       -5.08257         4.01490         6.58001
| 27>    C       -5.35924         4.15835         9.01782
| 28>    C       -5.15258         3.64664        10.26988
| 29>    C       -4.43962         2.45036        10.43867
| 30>    C       -3.94323         1.78256         9.35216
| 31>    C       -3.39028         1.64448         4.36135
| 32>    O       -2.78755         0.62609         4.11132
| 33>    C       -3.77615         2.71140         3.39371
| 34>    C       -3.19551         2.75642         2.16626
| 35>    C       -3.08525         3.85513         1.27797
| 36>    C       -2.83226         3.78103        -0.07816
| 37>    C       -2.75781         5.03933        -0.66881
| 38>    C       -2.90293         6.09651         0.24091
| 39>    S       -3.15809         5.52259         1.84085
| 40>    C       -2.82599         7.34405        -0.38011
| 41>    C       -2.63447         7.23849        -1.76317
| 42>    S       -2.52775         5.58942        -2.30495
| 43>    C       -2.58675         8.47115        -2.41802
| 44>    C       -2.73586         9.52336        -1.54222
| 45>    S       -2.93323         8.99144         0.11905
| 46>    C       -2.77440        10.91047        -1.84735
| 47>    C       -2.87014        11.96063        -0.96247
| 48>    C       -2.92381        13.19175        -1.61945
| 49>    C       -2.87465        13.08891        -3.01394
| 50>    S       -2.74234        11.44546        -3.51995
| 51>    C       -2.96685        14.33581        -3.64032
| 52>    C       -3.07921        15.38407        -2.72031
| 53>    S       -3.06591        14.83642        -1.06823
| 54>    C       -3.20571        16.64200        -3.31329
| 55>    C       -3.19763        16.56457        -4.68780
| 56>    S       -3.01537        14.91488        -5.26382
| 57>    C       -3.35117        17.62909        -5.61585
| 58>    C       -3.42247        17.54330        -6.98890
| 59>    C       -3.62407        18.79254        -7.57895
| 60>    C       -3.70143        19.84395        -6.65675
| 61>    S       -3.52080        19.27684        -5.03674
| 62>    C       -3.92476        21.07682        -7.27243
| 63>    C       -4.02657        20.95984        -8.67078
| 64>    S       -3.82557        19.31862        -9.22442
| 65>    C       -4.27447        22.15917        -9.32445
| 66>    C       -4.36723        23.22208        -8.44080
| 67>    S       -4.11991        22.70390        -6.76601
| 68>    C       -4.59244        24.60091        -8.62582
| 69>    C       -4.97480        25.31452        -9.72833
| 70>    C       -5.15228        26.75901        -9.72051
| 71>    C       -4.66446        27.64273        -8.79304
| 72>    C       -4.85916        29.03861        -8.85790
| 73>    N       -4.98702        30.17958        -8.84474
| 74>    C       -3.86588        27.31344        -7.67729
| 75>    N       -3.19041        27.14040        -6.76431
| 76>    C       -5.87792        27.12761       -10.92959
| 77>    C       -6.03834        25.96127       -11.72843
| 78>    C       -5.43319        24.80530       -11.04431
| 79>    O       -5.35510        23.67944       -11.49221
| 80>    C       -6.67769        25.99314       -12.93397
| 81>    C       -7.20329        27.21827       -13.40188
| 82>    C       -7.05351        28.38963       -12.60486
| 83>    C       -6.38216        28.32543       -11.36218
| 84>    C       -7.58515        29.60604       -13.07922
| 85>    C       -8.23279        29.66496       -14.28311
| 86>    C       -8.37990        28.51091       -15.06697
| 87>    C       -7.87595        27.31376       -14.63586
| 88>    H       -3.06990         0.69280         7.03064
| 89>    H       -5.62871         4.93954         6.47448
| 90>    H       -5.91073         5.07712         8.88213
| 91>    H       -5.53830         4.16072        11.13750
| 92>    H       -4.28541         2.06075        11.43381
| 93>    H       -3.39341         0.86106         9.47629
| 94>    H       -2.68397         1.84985         1.85675
| 95>    H       -2.74993         2.85079        -0.60931
| 96>    H       -2.45524         8.59841        -3.47685
| 97>    H       -2.90405        11.83283         0.10394
| 98>    H       -3.30926        17.56589        -2.77433
| 99>    H       -3.34099        16.61691        -7.52721
|100>    H       -4.39442        22.26880       -10.38622
|101>    H       -4.46879        25.17065        -7.71143
|102>    H       -6.78381        25.09362       -13.52215
|103>    H       -6.29145        29.22841       -10.77983
|104>    H       -7.46869        30.49185       -12.47218
|105>    H       -8.63586        30.60164       -14.63804
|106>    H       -8.89450        28.57523       -16.01406
|107>    H       -7.98598        26.42190       -15.23539
|108> *
|109>
|110>                          ****END OF INPUT****

CARTESIAN COORDINATES (ANGSTROEM)
---------------------------------
  C     -4.688080    3.613270    4.067040
  C     -5.667180    4.360770    3.466790
  C     -6.601030    5.141100    4.176440
  N     -7.368790    5.806600    4.710730
  C     -5.902290    4.345080    2.076420
  N     -6.146610    4.314480    0.955120
  C     -4.586000    3.343710    5.496070
  C     -3.843240    2.139360    5.674780
  C     -3.625650    1.611430    6.914670
  C     -4.136980    2.281900    8.049060
  C     -4.863280    3.495830    7.876790
  C     -5.082570    4.014900    6.580010
  C     -5.359240    4.158350    9.017820
  C     -5.152580    3.646640   10.269880
  C     -4.439620    2.450360   10.438670
  C     -3.943230    1.782560    9.352160
  C     -3.390280    1.644480    4.361350
  O     -2.787550    0.626090    4.111320
  C     -3.776150    2.711400    3.393710
  C     -3.195510    2.756420    2.166260
  C     -3.085250    3.855130    1.277970
  C     -2.832260    3.781030   -0.078160
  C     -2.757810    5.039330   -0.668810
  C     -2.902930    6.096510    0.240910
  S     -3.158090    5.522590    1.840850
  C     -2.825990    7.344050   -0.380110
  C     -2.634470    7.238490   -1.763170
  S     -2.527750    5.589420   -2.304950
  C     -2.586750    8.471150   -2.418020
  C     -2.735860    9.523360   -1.542220
  S     -2.933230    8.991440    0.119050
  C     -2.774400   10.910470   -1.847350
  C     -2.870140   11.960630   -0.962470
  C     -2.923810   13.191750   -1.619450
  C     -2.874650   13.088910   -3.013940
  S     -2.742340   11.445460   -3.519950
  C     -2.966850   14.335810   -3.640320
  C     -3.079210   15.384070   -2.720310
  S     -3.065910   14.836420   -1.068230
  C     -3.205710   16.642000   -3.313290
  C     -3.197630   16.564570   -4.687800
  S     -3.015370   14.914880   -5.263820
  C     -3.351170   17.629090   -5.615850
  C     -3.422470   17.543300   -6.988900
  C     -3.624070   18.792540   -7.578950
  C     -3.701430   19.843950   -6.656750
  S     -3.520800   19.276840   -5.036740
  C     -3.924760   21.076820   -7.272430
  C     -4.026570   20.959840   -8.670780
  S     -3.825570   19.318620   -9.224420
  C     -4.274470   22.159170   -9.324450
  C     -4.367230   23.222080   -8.440800
  S     -4.119910   22.703900   -6.766010
  C     -4.592440   24.600910   -8.625820
  C     -4.974800   25.314520   -9.728330
  C     -5.152280   26.759010   -9.720510
  C     -4.664460   27.642730   -8.793040
  C     -4.859160   29.038610   -8.857900
  N     -4.987020   30.179580   -8.844740
  C     -3.865880   27.313440   -7.677290
  N     -3.190410   27.140400   -6.764310
  C     -5.877920   27.127610  -10.929590
  C     -6.038340   25.961270  -11.728430
  C     -5.433190   24.805300  -11.044310
  O     -5.355100   23.679440  -11.492210
  C     -6.677690   25.993140  -12.933970
  C     -7.203290   27.218270  -13.401880
  C     -7.053510   28.389630  -12.604860
  C     -6.382160   28.325430  -11.362180
  C     -7.585150   29.606040  -13.079220
  C     -8.232790   29.664960  -14.283110
  C     -8.379900   28.510910  -15.066970
  C     -7.875950   27.313760  -14.635860
  H     -3.069900    0.692800    7.030640
  H     -5.628710    4.939540    6.474480
  H     -5.910730    5.077120    8.882130
  H     -5.538300    4.160720   11.137500
  H     -4.285410    2.060750   11.433810
  H     -3.393410    0.861060    9.476290
  H     -2.683970    1.849850    1.856750
  H     -2.749930    2.850790   -0.609310
  H     -2.455240    8.598410   -3.476850
  H     -2.904050   11.832830    0.103940
  H     -3.309260   17.565890   -2.774330
  H     -3.340990   16.616910   -7.527210
  H     -4.394420   22.268800  -10.386220
  H     -4.468790   25.170650   -7.711430
  H     -6.783810   25.093620  -13.522150
  H     -6.291450   29.228410  -10.779830
  H     -7.468690   30.491850  -12.472180
  H     -8.635860   30.601640  -14.638040
  H     -8.894500   28.575230  -16.014060
  H     -7.985980   26.421900  -15.235390

 Total Charge           Charge          ....    0
 Multiplicity           Mult            ....    1
 Number of Electrons    NEL             ....  556
 Basis Dimension        Dim             .... 1158

ORBITAL ENERGIES
----------------

  NO   OCC          E(Eh)            E(eV)
   0   2.0000     -88.974711     -2421.1250
   1   2.0000     -88.973330     -2421.0874
   2   2.0000     -88.973077     -2421.0805
   3   2.0000     -88.972732     -2421.0711
   4   2.0000     -88.971679     -2421.0425
   5   2.0000     -88.971314     -2421.0325
   6   2.0000     -88.968312     -2420.9509
   7   2.0000     -88.968221     -2420.9484
   8   2.0000     -88.967412     -2420.9263
   9   2.0000     -19.214918      -522.8645
  10   2.0000     -19.210497      -522.7442
  11   2.0000     -14.412140      -392.1743
  12   2.0000     -14.410757      -392.1366
  13   2.0000     -14.408793      -392.0832
  14   2.0000     -14.408493      -392.0750
  15   2.0000     -10.366073      -282.0752
  16   2.0000     -10.362405      -281.9754
  17   2.0000     -10.338914      -281.3361
  18   2.0000     -10.337203      -281.2896
  19   2.0000     -10.335842      -281.2526
  20   2.0000     -10.335262      -281.2368
  21   2.0000     -10.329106      -281.0693
  22   2.0000     -10.326883      -281.0088
  23   2.0000     -10.325687      -280.9762
  24   2.0000     -10.324133      -280.9339
  25   2.0000     -10.323653      -280.9209
  26   2.0000     -10.322561      -280.8912
  27   2.0000     -10.321324      -280.8575
  28   2.0000     -10.319212      -280.8000
  29   2.0000     -10.319139      -280.7980
  30   2.0000     -10.318688      -280.7858
  31   2.0000     -10.317985      -280.7666
  32   2.0000     -10.317943      -280.7655
  33   2.0000     -10.317454      -280.7522
  34   2.0000     -10.317354      -280.7495
  35   2.0000     -10.317123      -280.7432
  36   2.0000     -10.316675      -280.7310
  37   2.0000     -10.314652      -280.6759
  38   2.0000     -10.313862      -280.6545
  39   2.0000     -10.313209      -280.6367
  40   2.0000     -10.313166      -280.6355
  41   2.0000     -10.312909      -280.6285
  42   2.0000     -10.312799      -280.6255
  43   2.0000     -10.312165      -280.6083
  44   2.0000     -10.310807      -280.5713
  45   2.0000     -10.304500      -280.3997
  46   2.0000     -10.300517      -280.2913
  47   2.0000     -10.298270      -280.2302
  48   2.0000     -10.297628      -280.2127
  49   2.0000     -10.296918      -280.1934
  50   2.0000     -10.296405      -280.1794
  51   2.0000     -10.295929      -280.1665
  52   2.0000     -10.295505      -280.1549
  53   2.0000     -10.295450      -280.1534
  54   2.0000     -10.295245      -280.1479
  55   2.0000     -10.295062      -280.1429
  56   2.0000     -10.294392      -280.1246
  57   2.0000     -10.294237      -280.1204
  58   2.0000     -10.293898      -280.1112
  59   2.0000     -10.293852      -280.1100
  60   2.0000     -10.293824      -280.1092
  61   2.0000     -10.292898      -280.0840
  62   2.0000     -10.292583      -280.0754
  63   2.0000     -10.286671      -279.9146
  64   2.0000     -10.284683      -279.8604
  65   2.0000     -10.284372      -279.8520
  66   2.0000     -10.283983      -279.8414
  67   2.0000     -10.283741      -279.8348
  68   2.0000     -10.283625      -279.8317
  69   2.0000     -10.283207      -279.8203
  70   2.0000     -10.283127      -279.8181
  71   2.0000     -10.282874      -279.8112
  72   2.0000     -10.282331      -279.7965
  73   2.0000      -8.069840      -219.5915
  74   2.0000      -8.068454      -219.5538
  75   2.0000      -8.068247      -219.5482
  76   2.0000      -8.067876      -219.5381
  77   2.0000      -8.066633      -219.5042
  78   2.0000      -8.066435      -219.4989
  79   2.0000      -8.063590      -219.4214
  80   2.0000      -8.063491      -219.4187
  81   2.0000      -8.062697      -219.3971
  82   2.0000      -6.039499      -164.3431
  83   2.0000      -6.038097      -164.3050
  84   2.0000      -6.037892      -164.2994
  85   2.0000      -6.037520      -164.2893
  86   2.0000      -6.036095      -164.2505
  87   2.0000      -6.036060      -164.2495
  88   2.0000      -6.035386      -164.2312
  89   2.0000      -6.034009      -164.1937
  90   2.0000      -6.033795      -164.1879
  91   2.0000      -6.033434      -164.1781
  92   2.0000      -6.033338      -164.1755
  93   2.0000      -6.033234      -164.1727
  94   2.0000      -6.032430      -164.1508
  95   2.0000      -6.032070      -164.1410
  96   2.0000      -6.031944      -164.1375
  97   2.0000      -6.031203      -164.1174
  98   2.0000      -6.029830      -164.0800
  99   2.0000      -6.029604      -164.0739
 100   2.0000      -6.029458      -164.0699
 101   2.0000      -6.029366      -164.0674
 102   2.0000      -6.029251      -164.0643
 103   2.0000      -6.028567      -164.0456
 104   2.0000      -6.028252      -164.0371
 105   2.0000      -6.027897      -164.0274
 106   2.0000      -6.024509      -163.9352
 107   2.0000      -6.024417      -163.9327
 108   2.0000      -6.023649      -163.9118
 109   2.0000      -1.129541       -30.7364
 110   2.0000      -1.125706       -30.6320
 111   2.0000      -1.033345       -28.1187
 112   2.0000      -1.031331       -28.0639
 113   2.0000      -1.027269       -27.9534
 114   2.0000      -1.014610       -27.6090
 115   2.0000      -1.013434       -27.5769
 116   2.0000      -1.000352       -27.2210
 117   2.0000      -0.994690       -27.0669
 118   2.0000      -0.994414       -27.0594
 119   2.0000      -0.992378       -27.0040
 120   2.0000      -0.988431       -26.8966
 121   2.0000      -0.987807       -26.8796
 122   2.0000      -0.980570       -26.6827
 123   2.0000      -0.968528       -26.3550
 124   2.0000      -0.967560       -26.3286
 125   2.0000      -0.947821       -25.7915
 126   2.0000      -0.937938       -25.5226
 127   2.0000      -0.926523       -25.2120
 128   2.0000      -0.919681       -25.0258
 129   2.0000      -0.919147       -25.0113
 130   2.0000      -0.898779       -24.4570
 131   2.0000      -0.897039       -24.4097
 132   2.0000      -0.882174       -24.0052
 133   2.0000      -0.881231       -23.9795
 134   2.0000      -0.878850       -23.9147
 135   2.0000      -0.877420       -23.8758
 136   2.0000      -0.875630       -23.8271
 137   2.0000      -0.866311       -23.5735
 138   2.0000      -0.858224       -23.3535
 139   2.0000      -0.852209       -23.1898
 140   2.0000      -0.846319       -23.0295
 141   2.0000      -0.840194       -22.8628
 142   2.0000      -0.831475       -22.6256
 143   2.0000      -0.825679       -22.4679
 144   2.0000      -0.824675       -22.4405
 145   2.0000      -0.816847       -22.2275
 146   2.0000      -0.807925       -21.9848
 147   2.0000      -0.800405       -21.7801
 148   2.0000      -0.797776       -21.7086
 149   2.0000      -0.789302       -21.4780
 150   2.0000      -0.776923       -21.1412
 151   2.0000      -0.760391       -20.6913
 152   2.0000      -0.757829       -20.6216
 153   2.0000      -0.754646       -20.5350
 154   2.0000      -0.738349       -20.0915
 155   2.0000      -0.719897       -19.5894
 156   2.0000      -0.707335       -19.2476
 157   2.0000      -0.700938       -19.0735
 158   2.0000      -0.700203       -19.0535
 159   2.0000      -0.696491       -18.9525
 160   2.0000      -0.693564       -18.8728
 161   2.0000      -0.680127       -18.5072
 162   2.0000      -0.673501       -18.3269
 163   2.0000      -0.671124       -18.2622
 164   2.0000      -0.668890       -18.2014
 165   2.0000      -0.664604       -18.0848
 166   2.0000      -0.658416       -17.9164
 167   2.0000      -0.653664       -17.7871
 168   2.0000      -0.649564       -17.6755
 169   2.0000      -0.641651       -17.4602
 170   2.0000      -0.637927       -17.3589
 171   2.0000      -0.634200       -17.2575
 172   2.0000      -0.630527       -17.1575
 173   2.0000      -0.626549       -17.0493
 174   2.0000      -0.620596       -16.8873
 175   2.0000      -0.616191       -16.7674
 176   2.0000      -0.604831       -16.4583
 177   2.0000      -0.604131       -16.4392
 178   2.0000      -0.602882       -16.4053
 179   2.0000      -0.599568       -16.3151
 180   2.0000      -0.590407       -16.0658
 181   2.0000      -0.585310       -15.9271
 182   2.0000      -0.577215       -15.7068
 183   2.0000      -0.573548       -15.6070
 184   2.0000      -0.567239       -15.4354
 185   2.0000      -0.561107       -15.2685
 186   2.0000      -0.553592       -15.0640
 187   2.0000      -0.548288       -14.9197
 188   2.0000      -0.545104       -14.8330
 189   2.0000      -0.544072       -14.8050
 190   2.0000      -0.543569       -14.7913
 191   2.0000      -0.540544       -14.7090
 192   2.0000      -0.537318       -14.6212
 193   2.0000      -0.535391       -14.5687
 194   2.0000      -0.533812       -14.5258
 195   2.0000      -0.531850       -14.4724
 196   2.0000      -0.529481       -14.4079
 197   2.0000      -0.528530       -14.3820
 198   2.0000      -0.526193       -14.3184
 199   2.0000      -0.523374       -14.2417
 200   2.0000      -0.520401       -14.1608
 201   2.0000      -0.516785       -14.0624
 202   2.0000      -0.515964       -14.0401
 203   2.0000      -0.512594       -13.9484
 204   2.0000      -0.510328       -13.8867
 205   2.0000      -0.509228       -13.8568
 206   2.0000      -0.507505       -13.8099
 207   2.0000      -0.504559       -13.7297
 208   2.0000      -0.501629       -13.6500
 209   2.0000      -0.499070       -13.5804
 210   2.0000      -0.495490       -13.4830
 211   2.0000      -0.493389       -13.4258
 212   2.0000      -0.492449       -13.4002
 213   2.0000      -0.491446       -13.3729
 214   2.0000      -0.486144       -13.2286
 215   2.0000      -0.483892       -13.1674
 216   2.0000      -0.482727       -13.1357
 217   2.0000      -0.482238       -13.1224
 218   2.0000      -0.479579       -13.0500
 219   2.0000      -0.476576       -12.9683
 220   2.0000      -0.474226       -12.9044
 221   2.0000      -0.473544       -12.8858
 222   2.0000      -0.466241       -12.6871
 223   2.0000      -0.462468       -12.5844
 224   2.0000      -0.461793       -12.5660
 225   2.0000      -0.461225       -12.5506
 226   2.0000      -0.456840       -12.4312
 227   2.0000      -0.452233       -12.3059
 228   2.0000      -0.448818       -12.2130
 229   2.0000      -0.445857       -12.1324
 230   2.0000      -0.443333       -12.0637
 231   2.0000      -0.439987       -11.9726
 232   2.0000      -0.439556       -11.9609
 233   2.0000      -0.437173       -11.8961
 234   2.0000      -0.436914       -11.8890
 235   2.0000      -0.436435       -11.8760
 236   2.0000      -0.433538       -11.7972
 237   2.0000      -0.431173       -11.7328
 238   2.0000      -0.430114       -11.7040
 239   2.0000      -0.429398       -11.6845
 240   2.0000      -0.428928       -11.6717
 241   2.0000      -0.427236       -11.6257
 242   2.0000      -0.426706       -11.6113
 243   2.0000      -0.423508       -11.5242
 244   2.0000      -0.422075       -11.4852
 245   2.0000      -0.421208       -11.4617
 246   2.0000      -0.419969       -11.4279
 247   2.0000      -0.419398       -11.4124
 248   2.0000      -0.418218       -11.3803
 249   2.0000      -0.414477       -11.2785
 250   2.0000      -0.413144       -11.2422
 251   2.0000      -0.406703       -11.0670
 252   2.0000      -0.402247       -10.9457
 253   2.0000      -0.401274       -10.9192
 254   2.0000      -0.397963       -10.8291
 255   2.0000      -0.393140       -10.6979
 256   2.0000      -0.385638       -10.4937
 257   2.0000      -0.380232       -10.3467
 258   2.0000      -0.375112       -10.2073
 259   2.0000      -0.370349       -10.0777
 260   2.0000      -0.361380        -9.8337
 261   2.0000      -0.347397        -9.4532
 262   2.0000      -0.346027        -9.4159
 263   2.0000      -0.343765        -9.3543
 264   2.0000      -0.340025        -9.2525
 265   2.0000      -0.336307        -9.1514
 266   2.0000      -0.332211        -9.0399
 267   2.0000      -0.323072        -8.7912
 268   2.0000      -0.313751        -8.5376
 269   2.0000      -0.312272        -8.4973
 270   2.0000      -0.297324        -8.0906
 271   2.0000      -0.296351        -8.0641
 272   2.0000      -0.294239        -8.0067
 273   2.0000      -0.292745        -7.9660
 274   2.0000      -0.290873        -7.9151
 275   2.0000      -0.285613        -7.7719
 276   2.0000      -0.263049        -7.1579
 277   2.0000      -0.237913        -6.4739
 278   0.0000      -0.096544        -2.6271
 279   0.0000      -0.091552        -2.4913
 280   0.0000      -0.060414        -1.6440
 281   0.0000      -0.053896        -1.4666
 282   0.0000      -0.048659        -1.3241

MULLIKEN ATOMIC CHARGES
-----------------------
   0 C :    0.247383
   1 C :   -0.321956
   2 C :   -0.174481
   3 N :    0.152385
   4 C :   -0.204905
   5 N :    0.171844
   6 C :    0.036996
   7 C :    0.010262
   8 C :   -0.079993
   9 C :    0.091975
  10 C :    0.092405
  11 C :   -0.078322
  12 C :   -0.017073
  13 C :    0.036982
  14 C :    0.033195
  15 C :   -0.012819
  16 C :    0.142294
  17 O :   -0.144987
  18 C :   -0.141765
  19 C :    0.053208
  20 C :   -0.099714
  21 C :    0.015843
  22 C :   -0.019899
  23 C :   -0.063240
  24 S :    0.166563
  25 C :   -0.074654
  26 C :   -0.018457
  27 S :    0.169632
  28 C :   -0.067790
  29 C :   -0.035353
  30 S :    0.155101
  31 C :   -0.041536
  32 C :   -0.063921
  33 C :   -0.024771
  34 C :   -0.075184
  35 S :    0.149895
  36 C :   -0.072718
  37 C :   -0.026308
  38 S :    0.163118
  39 C :   -0.060497
  40 C :   -0.044545
  41 S :    0.148967
  42 C :   -0.032872
  43 C :   -0.069078
  44 C :   -0.013579
  45 C :   -0.081934
  46 S :    0.156169
  47 C :   -0.054499
  48 C :   -0.043415
  49 S :    0.171025
  50 C :   -0.000781
  51 C :   -0.112828
  52 S :    0.163558
  53 C :    0.043916
  54 C :   -0.096714
  55 C :    0.305714
  56 C :   -0.352678
  57 C :   -0.182245
  58 N :    0.143068
  59 C :   -0.200964
  60 N :    0.155113
  61 C :    0.048248
  62 C :    0.002926
  63 C :    0.161318
  64 O :   -0.163951
  65 C :   -0.087962
  66 C :    0.100646
  67 C :    0.097243
  68 C :   -0.085526
  69 C :   -0.021590
  70 C :    0.037562
  71 C :    0.037002
  72 C :   -0.018326
  73 H :   -0.012852
  74 H :   -0.006644
  75 H :   -0.012250
  76 H :   -0.005847
  77 H :   -0.006346
  78 H :   -0.018030
  79 H :    0.026480
  80 H :   -0.001147
  81 H :   -0.003490
  82 H :   -0.001792
  83 H :   -0.002692
  84 H :   -0.003399
  85 H :    0.019674
  86 H :    0.014872
  87 H :   -0.015519
  88 H :   -0.007605
  89 H :   -0.009421
  90 H :   -0.006494
  91 H :   -0.006451
  92 H :   -0.018771
Sum of atomic charges:   -0.0000000

LOEWDIN ATOMIC CHARGES
----------------------
   0 C :    0.059995
   1 C :   -0.142116
   2 C :   -0.018920
   3 N :   -0.053956
   4 C :   -0.034500
   5 N :   -0.049639
   6 C :   -0.021884
   7 C :   -0.056715
   8 C :    0.031716
   9 C :   -0.009724
  10 C :   -0.005583
  11 C :    0.014436
  12 C :   -0.007120
  13 C :   -0.013458
  14 C :   -0.014310
  15 C :   -0.009329
  16 C :    0.083216
  17 O :   -0.145788
  18 C :   -0.099554
  19 C :    0.051050
  20 C :   -0.175741
  21 C :   -0.016284
  22 C :   -0.194677
  23 C :   -0.192613
  24 S :    0.455255
  25 C :   -0.220000
  26 C :   -0.178191
  27 S :    0.417708
  28 C :   -0.074216
  29 C :   -0.162914
  30 S :    0.434498
  31 C :   -0.174832
  32 C :   -0.067234
  33 C :   -0.189628
  34 C :   -0.215196
  35 S :    0.429730
  36 C :   -0.213662
  37 C :   -0.190979
  38 S :    0.413188
  39 C :   -0.064976
  40 C :   -0.177010
  41 S :    0.429682
  42 C :   -0.160162
  43 C :   -0.076230
  44 C :   -0.175730
  45 C :   -0.224407
  46 S :    0.434914
  47 C :   -0.194894
  48 C :   -0.196963
  49 S :    0.417070
  50 C :   -0.012375
  51 C :   -0.175053
  52 S :    0.443084
  53 C :    0.047022
  54 C :   -0.099552
  55 C :    0.077218
  56 C :   -0.145380
  57 C :   -0.017087
  58 N :   -0.058195
  59 C :   -0.026342
  60 N :   -0.054389
  61 C :   -0.025645
  62 C :   -0.054043
  63 C :    0.087928
  64 O :   -0.148009
  65 C :    0.029664
  66 C :   -0.008732
  67 C :   -0.006596
  68 C :    0.018433
  69 C :   -0.005798
  70 C :   -0.014341
  71 C :   -0.013494
  72 C :   -0.010499
  73 H :    0.038975
  74 H :    0.038324
  75 H :    0.033795
  76 H :    0.032708
  77 H :    0.032258
  78 H :    0.031588
  79 H :    0.051651
  80 H :    0.040985
  81 H :    0.032015
  82 H :    0.032285
  83 H :    0.032228
  84 H :    0.031905
  85 H :    0.039189
  86 H :    0.043604
  87 H :    0.037798
  88 H :    0.038881
  89 H :    0.034578
  90 H :    0.032571
  91 H :    0.032274
  92 H :    0.031249

  Mayer bond orders larger than 0.100000
B(  0-C ,  1-C ) :   1.6588 B(  0-C ,  6-C ) :   1.0024 B(  0-C , 18-C ) :   1.0328
B(  1-C ,  2-C ) :   1.1381 B(  1-C ,  4-C ) :   1.1518 B(  2-C ,  3-N ) :   2.9900
B(  4-C ,  5-N ) :   3.0252 B(  6-C ,  7-C ) :   1.2148 B(  6-C , 11-C ) :   1.4605
B(  7-C ,  8-C ) :   1.4775 B(  7-C , 16-C ) :   0.9197 B(  8-C ,  9-C ) :   1.1847
B(  8-C , 73-H ) :   1.0151 B(  9-C , 10-C ) :   1.2575 B(  9-C , 15-C ) :   1.2457
B( 10-C , 11-C ) :   1.2026 B( 10-C , 12-C ) :   1.2419 B( 11-C , 74-H ) :   0.9940
B( 12-C , 13-C ) :   1.4893 B( 12-C , 75-H ) :   0.9970 B( 13-C , 14-C ) :   1.2603
B( 13-C , 76-H ) :   0.9891 B( 14-C , 15-C ) :   1.4882 B( 14-C , 77-H ) :   0.9893
B( 15-C , 78-H ) :   0.9973 B( 16-C , 17-O ) :   2.2721 B( 16-C , 18-C ) :   0.9388
B( 18-C , 19-C ) :   1.6459 B( 19-C , 20-C ) :   1.1393 B( 19-C , 79-H ) :   0.9480
B( 20-C , 21-C ) :   1.4508 B( 20-C , 24-S ) :   1.0807 B( 21-C , 22-C ) :   1.2917
B( 21-C , 80-H ) :   1.0047 B( 22-C , 23-C ) :   1.4269 B( 22-C , 27-S ) :   1.0422
B( 23-C , 24-S ) :   1.0911 B( 23-C , 25-C ) :   1.3245 B( 25-C , 26-C ) :   1.4559
B( 25-C , 30-S ) :   1.0626 B( 26-C , 27-S ) :   1.0630 B( 26-C , 28-C ) :   1.2677
B( 28-C , 29-C ) :   1.5145 B( 28-C , 81-H ) :   0.9956 B( 29-C , 30-S ) :   1.1025
B( 29-C , 31-C ) :   1.1737 B( 31-C , 32-C ) :   1.5168 B( 31-C , 35-S ) :   1.0931
B( 32-C , 33-C ) :   1.2674 B( 32-C , 82-H ) :   0.9950 B( 33-C , 34-C ) :   1.4675
B( 33-C , 38-S ) :   1.0533 B( 34-C , 35-S ) :   1.0688 B( 34-C , 36-C ) :   1.3064
B( 36-C , 37-C ) :   1.4670 B( 36-C , 41-S ) :   1.0693 B( 37-C , 38-S ) :   1.0523
B( 37-C , 39-C ) :   1.2693 B( 39-C , 40-C ) :   1.5157 B( 39-C , 83-H ) :   0.9948
B( 40-C , 41-S ) :   1.0926 B( 40-C , 42-C ) :   1.1748 B( 42-C , 43-C ) :   1.5100
B( 42-C , 46-S ) :   1.1055 B( 43-C , 44-C ) :   1.2697 B( 43-C , 84-H ) :   0.9959
B( 44-C , 45-C ) :   1.4583 B( 44-C , 49-S ) :   1.0597 B( 45-C , 46-S ) :   1.0606
B( 45-C , 47-C ) :   1.3156 B( 47-C , 48-C ) :   1.4048 B( 47-C , 52-S ) :   1.1059
B( 48-C , 49-S ) :   1.0424 B( 48-C , 50-C ) :   1.2984 B( 50-C , 51-C ) :   1.4443
B( 50-C , 85-H ) :   0.9783 B( 51-C , 52-S ) :   1.0606 B( 51-C , 53-C ) :   1.2302
B( 53-C , 54-C ) :   1.5820 B( 53-C , 86-H ) :   0.9178 B( 54-C , 55-C ) :   1.0777
B( 54-C , 63-C ) :   0.9442 B( 55-C , 56-C ) :   1.6236 B( 55-C , 61-C ) :   0.9839
B( 56-C , 57-C ) :   1.1468 B( 56-C , 59-C ) :   1.1378 B( 57-C , 58-N ) :   2.9660
B( 59-C , 60-N ) :   2.9892 B( 61-C , 62-C ) :   1.2172 B( 61-C , 68-C ) :   1.4516
B( 62-C , 63-C ) :   0.9523 B( 62-C , 65-C ) :   1.4720 B( 63-C , 64-O ) :   2.1627
B( 65-C , 66-C ) :   1.1757 B( 65-C , 87-H ) :   1.0163 B( 66-C , 67-C ) :   1.2588
B( 66-C , 72-C ) :   1.2454 B( 67-C , 68-C ) :   1.2040 B( 67-C , 69-C ) :   1.2397
B( 68-C , 88-H ) :   0.9899 B( 69-C , 70-C ) :   1.4896 B( 69-C , 89-H ) :   0.9971
B( 70-C , 71-C ) :   1.2617 B( 70-C , 90-H ) :   0.9881 B( 71-C , 72-C ) :   1.4872
B( 71-C , 91-H ) :   0.9883 B( 72-C , 92-H ) :   0.9975

-----------------------------------------------------------------------------
         ABSORPTION SPECTRUM VIA TRANSITION ELECTRIC DIPOLE MOMENTS
-----------------------------------------------------------------------------
State   Energy  Wavelength   fosc         T2         TX        TY        TZ
        (cm-1)    (nm)                  (au**2)     (au)      (au)      (au)
-----------------------------------------------------------------------------
   0   17176.2    582.2   2.776959135  53.22527  -0.16866  -6.04788   4.07676
   1   19266.1    519.0   0.566444472   9.67921   1.43597  -2.72663   0.42743
   2   24781.6    403.5   0.154227491   2.04884  -0.68655   1.10848  -0.59056
   3   25191.3    397.0   0.063573875   0.83081  -0.00120  -0.73304   0.54173
   4   26130.3    382.7   0.173837831   2.19016   0.16686  -1.46761  -0.09192
   5   26819.7    372.9   0.035832494   0.43984   0.08333  -0.08583  -0.65233
   6   27011.0    370.2   0.054292133   0.66172   0.54345  -0.60229  -0.06016
   7   27554.0    362.9   0.330972601   3.95442  -0.11515  -1.18596   1.59206
   8   27882.6    358.6   0.262761363   3.10244  -0.51008   0.80705  -1.48018
   9   28018.0    356.9   0.046667408   0.54834   0.26246   0.68796   0.07851
  10   28694.9    348.5   0.095550210   1.09623   0.02159   1.03987   0.12013
  11   29171.8    342.8   0.042183238   0.47605   0.28509  -0.32410   0.53827
  12   29497.1    339.0   0.091012124   1.01577  -0.34445   0.24857  -0.91397
  13   30112.4    332.1   0.032740299   0.35794   0.32009   0.08281   0.49863
  14   30460.6    328.3   0.034365674   0.37142   0.11531  -0.02695   0.59782
  15   31103.5    321.5   0.031796526   0.33655   0.21364  -0.06839   0.53500
  16   32107.8    311.5   0.007585218   0.07777  -0.10324  -0.00733   0.25896
  17   32298.5    309.6   0.203522119   2.07446   0.20730  -0.96962  -1.04466
  18   32784.3    305.0   0.056931185   0.57169  -0.27294   0.62963   0.31742
  19   33742.9    296.4   0.126541019   1.23459  -0.46089   0.40607  -0.92589
  20   33852.3    295.4   0.073586736   0.71563   0.58825  -0.57543   0.19612
  21   34133.0    293.0   1.031676445   9.95049   1.44171  -0.65304   2.72864
  22   34405.3    290.7   0.161637748   1.54665  -0.18053  -0.30447   1.19221
  23   34820.8    287.2   0.077954780   0.73702  -0.32913   0.22333  -0.76080
  24   35010.2    285.6   0.140361004   1.31986  -0.56840  -0.05197  -0.99703
  25   35253.9    283.7   0.357165760   3.33533  -0.18646   0.18138  -1.80767
  26   35661.9    280.4   0.056346688   0.52016   0.24613  -0.09393   0.67139
  27   35790.7    279.4   0.012852558   0.11822  -0.05714   0.33668  -0.04007
  28   36496.9    274.0   0.010047878   0.09063  -0.05687  -0.28865  -0.06391
  29   36680.3    272.6   0.048978211   0.43959   0.45136   0.41400   0.25389
  30   37019.4    270.1   0.080509960   0.71597   0.09396  -0.39441  -0.74269
  31   37505.9    266.6   0.008385092   0.07360   0.19072  -0.05755  -0.18416
  32   37875.3    264.0   0.006126087   0.05325  -0.00577  -0.21433  -0.08531
  33   38072.3    262.7   0.020693457   0.17894  -0.06634  -0.05443  -0.41421
  34   38304.6    261.1   0.003253614   0.02796   0.06640   0.13199  -0.07832
  35   38441.7    260.1   0.028965713   0.24806   0.04310   0.26647   0.41856
  36   38624.0    258.9   0.024517980   0.20898  -0.03006   0.15317   0.42967
  37   38726.3    258.2   0.115082700   0.97832   0.19085  -0.63558  -0.73343
  38   39052.1    256.1   0.150908792   1.27217  -0.20235  -0.37987  -1.04256
  39   39220.4    255.0   0.049798536   0.41800   0.09223  -0.12201  -0.62818
  40   39258.0    254.7   0.051503412   0.43190  -0.00579   0.62617   0.19943
  41   39900.4    250.6   0.060075205   0.49567  -0.01720  -0.05084  -0.70199
  42   39968.1    250.2   0.032501088   0.26771  -0.27521   0.26555  -0.34850
  43   40203.4    248.7   0.253346917   2.07457   0.48652  -1.18036  -0.66680

FINAL SINGLE POINT ENERGY     -6170.961415539733

DIPOLE MOMENT
-------------
                                X             Y             Z
Electronic contribution:     15.95140      -9.48645      -4.72706
Nuclear contribution   :    -15.58740       7.95716       4.42191
                        -----------------------------------------
Total Dipole Moment    :      0.36400      -1.52929      -0.30515
                        -----------------------------------------
Magnitude (a.u.)       :      1.60135
Magnitude (Debye)      :      4.07031

Rotational constants in cm-1:     0.002500     0.000121     0.000119
Rotational constants in MHz :    74.946424     3.638291     3.562021

                             ****ORCA TERMINATED NORMALLY****
TOTAL RUN TIME: 0 days 0 hours 9 minutes 0 seconds 140 msec
