                         Program Version 4.2.0 -  RELEASE  -
|  1> # ORCA input file
|  2> # SCF done       -206.500879251289          0.000581470392
|  3> ! CAM-B3LYP def2-SVP def2/J RIJCOSX Grid4 TightSCF
|  4> %maxcore 5000
|  5> %tddft
|  6>     Mode sTDDFT
|  7>     Ethresh 5.0
|  8>     maxcore 5000
|  9> end
| 10>
| 11> %pal
| 12>   nprocs 6
| 13>   end
| 14> * xyz 0 1
| 15>    C       -0.81694        -0.46640        -3.75316
| 16>    C        0.30769        -0.72554        -4.49089
| 17>    C        0.70431        -2.01887        -4.89199
| 18>    N        1.08700        -3.04245        -5.24404
| 19>    C        1.20669         0.23734        -4.99844
| 20>    N        1.97685         0.94516        -5.47348
| 21>    C       -1.79734        -1.46130        -3.34273
| 22>    C       -2.91346        -0.78096        -2.78253
| 23>    C       -4.00593        -1.45004        -2.31081
| 24>    C       -4.02811        -2.86100        -2.37304
| 25>    C       -2.91109        -3.55102        -2.92671
| 26>    C       -1.79642        -2.82967        -3.41168
| 27>    C       -2.94192        -4.95955        -2.98000
| 28>    C       -4.02250        -5.65446        -2.50949
| 29>    C       -5.12157        -4.97392        -1.96411
| 30>    C       -5.12470        -3.60710        -1.89830
| 31>    C       -2.67594         0.67297        -2.80737
| 32>    O       -3.47341         1.51624        -2.44948
| 33>    C       -1.29237         0.84550        -3.32247
| 34>    C       -0.47061         1.93264        -3.26429
| 35>    C       -0.68880         3.30462        -2.91525
| 36>    C       -1.95022         3.90642        -2.87479
| 37>    C       -2.03177         5.24477        -2.54405
| 38>    C       -0.87115         6.01787        -2.27612
| 39>    C        0.38484         5.41623        -2.33355
| 40>    C        0.46492         4.08468        -2.65370
| 41>    C       -1.32413         7.34452        -2.01127
| 42>    C       -2.73863         7.31489        -2.12582
| 43>    N       -3.14473         6.04228        -2.43180
| 44>    C       -4.50312         5.61209        -2.60952
| 45>    C       -3.49471         8.46327        -1.94507
| 46>    C       -2.83889         9.64989        -1.64043
| 47>    C       -1.43890         9.67199        -1.51987
| 48>    C       -0.68059         8.53927        -1.70396
| 49>    C       -3.59950        10.89473        -1.46826
| 50>    C       -4.65986        11.18324        -2.31927
| 51>    C       -5.33425        12.38313        -2.15849
| 52>    C       -4.95165        13.30722        -1.15109
| 53>    C       -3.90007        12.99749        -0.29236
| 54>    C       -3.23914        11.80325        -0.45812
| 55>    C       -5.81135        14.43592        -1.28950
| 56>    C       -6.68364        14.14263        -2.37373
| 57>    N       -6.38878        12.89852        -2.87095
| 58>    C       -7.06749        12.27013        -3.96942
| 59>    C       -7.63934        15.04292        -2.79628
| 60>    C       -7.74540        16.27337        -2.13365
| 61>    C       -6.86378        16.55993        -1.06192
| 62>    C       -5.91753        15.66241        -0.63620
| 63>    C       -8.69653        17.27429        -2.49319
| 64>    C       -9.75963        17.22232        -3.35087
| 65>    C      -10.62823        18.31673        -3.61965
| 66>    C      -11.64943        18.03915        -4.47290
| 67>    C      -11.66015        16.70134        -4.93132
| 68>    S      -10.32010        15.81860        -4.25603
| 69>    C      -12.56874        16.09754        -5.78331
| 70>    C      -13.69403        16.67051        -6.40668
| 71>    C      -14.40245        15.79042        -7.17478
| 72>    C      -13.87351        14.48285        -7.19020
| 73>    S      -12.43164        14.40452        -6.21450
| 74>    C      -14.39538        13.39080        -7.86651
| 75>    C      -13.84571        12.12222        -7.80192
| 76>    C      -14.29058        10.96119        -8.41062
| 77>    C      -13.84335         9.66027        -7.88118
| 78>    O      -12.95741         9.45537        -7.07876
| 79>    C      -14.73734         8.65213        -8.50817
| 80>    C      -15.59922         9.30540        -9.40665
| 81>    C      -16.58803         8.58991       -10.05822
| 82>    C      -16.69428         7.21743        -9.83361
| 83>    C      -15.81303         6.57175        -8.95220
| 84>    C      -14.82312         7.29771        -8.27935
| 85>    C      -15.87313         5.17331        -8.72791
| 86>    N      -15.80897         4.05213        -8.50145
| 87>    C      -17.78177         6.40641       -10.47215
| 88>    O      -18.24491         5.43302        -9.94824
| 89>    O      -18.22190         6.82965       -11.66417
| 90>    C      -15.23429        10.72621        -9.46162
| 91>    C      -15.58649        11.56819       -10.49421
| 92>    C      -15.04151        12.84751       -10.71267
| 93>    N      -14.60958        13.88011       -10.97101
| 94>    C      -16.44158        11.17671       -11.54026
| 95>    N      -17.13433        10.87722       -12.40726
| 96>    H       -4.84221        -0.90905        -1.89315
| 97>    H       -0.96429        -3.38150        -3.81909
| 98>    H       -2.09396        -5.47880        -3.40229
| 99>    H       -4.03651        -6.73314        -2.55496
|100>    H       -5.96562        -5.53817        -1.59655
|101>    H       -5.96837        -3.07759        -1.47988
|102>    H        0.56971         1.72736        -3.49379
|103>    H       -2.83032         3.33433        -3.10559
|104>    H        1.27572         5.99312        -2.13778
|105>    H        1.43234         3.60755        -2.70705
|106>    H       -5.15087         6.13783        -1.90775
|107>    H       -4.57323         4.54342        -2.41424
|108>    H       -4.85134         5.80921        -3.62815
|109>    H       -4.57131         8.44045        -2.02007
|110>    H       -0.95132        10.61130        -1.30776
|111>    H        0.39485         8.57379        -1.61937
|112>    H       -4.91815        10.49605        -3.11041
|113>    H       -3.61082        13.68712         0.48590
|114>    H       -2.43231        11.54254         0.20958
|115>    H       -8.13874        12.46272        -3.90186
|116>    H       -6.90587        11.19499        -3.93086
|117>    H       -6.70211        12.64810        -4.92889
|118>    H       -8.26850        14.81545        -3.63979
|119>    H       -6.95362        17.51506        -0.56590
|120>    H       -5.25931        15.90076         0.18513
|121>    H       -8.56943        18.22738        -1.99208
|122>    H      -10.46309        19.27860        -3.16682
|123>    H      -12.39485        18.75063        -4.77856
|124>    H      -13.95573        17.70510        -6.27636
|125>    H      -15.28651        16.04270        -7.73235
|126>    H      -15.29581        13.56697        -8.43558
|127>    H      -13.01579        11.97489        -7.11644
|128>    H      -17.30077         9.09386       -10.69372
|129>    H      -14.14865         6.80764        -7.59379
|130>    H      -17.76397         7.61232       -12.00210
|131> *
|132>
|133>                          ****END OF INPUT****

CARTESIAN COORDINATES (ANGSTROEM)
---------------------------------
  C     -0.816940   -0.466400   -3.753160
  C      0.307690   -0.725540   -4.490890
  C      0.704310   -2.018870   -4.891990
  N      1.087000   -3.042450   -5.244040
  C      1.206690    0.237340   -4.998440
  N      1.976850    0.945160   -5.473480
  C     -1.797340   -1.461300   -3.342730
  C     -2.913460   -0.780960   -2.782530
  C     -4.005930   -1.450040   -2.310810
  C     -4.028110   -2.861000   -2.373040
  C     -2.911090   -3.551020   -2.926710
  C     -1.796420   -2.829670   -3.411680
  C     -2.941920   -4.959550   -2.980000
  C     -4.022500   -5.654460   -2.509490
  C     -5.121570   -4.973920   -1.964110
  C     -5.124700   -3.607100   -1.898300
  C     -2.675940    0.672970   -2.807370
  O     -3.473410    1.516240   -2.449480
  C     -1.292370    0.845500   -3.322470
  C     -0.470610    1.932640   -3.264290
  C     -0.688800    3.304620   -2.915250
  C     -1.950220    3.906420   -2.874790
  C     -2.031770    5.244770   -2.544050
  C     -0.871150    6.017870   -2.276120
  C      0.384840    5.416230   -2.333550
  C      0.464920    4.084680   -2.653700
  C     -1.324130    7.344520   -2.011270
  C     -2.738630    7.314890   -2.125820
  N     -3.144730    6.042280   -2.431800
  C     -4.503120    5.612090   -2.609520
  C     -3.494710    8.463270   -1.945070
  C     -2.838890    9.649890   -1.640430
  C     -1.438900    9.671990   -1.519870
  C     -0.680590    8.539270   -1.703960
  C     -3.599500   10.894730   -1.468260
  C     -4.659860   11.183240   -2.319270
  C     -5.334250   12.383130   -2.158490
  C     -4.951650   13.307220   -1.151090
  C     -3.900070   12.997490   -0.292360
  C     -3.239140   11.803250   -0.458120
  C     -5.811350   14.435920   -1.289500
  C     -6.683640   14.142630   -2.373730
  N     -6.388780   12.898520   -2.870950
  C     -7.067490   12.270130   -3.969420
  C     -7.639340   15.042920   -2.796280
  C     -7.745400   16.273370   -2.133650
  C     -6.863780   16.559930   -1.061920
  C     -5.917530   15.662410   -0.636200
  C     -8.696530   17.274290   -2.493190
  C     -9.759630   17.222320   -3.350870
  C    -10.628230   18.316730   -3.619650
  C    -11.649430   18.039150   -4.472900
  C    -11.660150   16.701340   -4.931320
  S    -10.320100   15.818600   -4.256030
  C    -12.568740   16.097540   -5.783310
  C    -13.694030   16.670510   -6.406680
  C    -14.402450   15.790420   -7.174780
  C    -13.873510   14.482850   -7.190200
  S    -12.431640   14.404520   -6.214500
  C    -14.395380   13.390800   -7.866510
  C    -13.845710   12.122220   -7.801920
  C    -14.290580   10.961190   -8.410620
  C    -13.843350    9.660270   -7.881180
  O    -12.957410    9.455370   -7.078760
  C    -14.737340    8.652130   -8.508170
  C    -15.599220    9.305400   -9.406650
  C    -16.588030    8.589910  -10.058220
  C    -16.694280    7.217430   -9.833610
  C    -15.813030    6.571750   -8.952200
  C    -14.823120    7.297710   -8.279350
  C    -15.873130    5.173310   -8.727910
  N    -15.808970    4.052130   -8.501450
  C    -17.781770    6.406410  -10.472150
  O    -18.244910    5.433020   -9.948240
  O    -18.221900    6.829650  -11.664170
  C    -15.234290   10.726210   -9.461620
  C    -15.586490   11.568190  -10.494210
  C    -15.041510   12.847510  -10.712670
  N    -14.609580   13.880110  -10.971010
  C    -16.441580   11.176710  -11.540260
  N    -17.134330   10.877220  -12.407260
  H     -4.842210   -0.909050   -1.893150
  H     -0.964290   -3.381500   -3.819090
  H     -2.093960   -5.478800   -3.402290
  H     -4.036510   -6.733140   -2.554960
  H     -5.965620   -5.538170   -1.596550
  H     -5.968370   -3.077590   -1.479880
  H      0.569710    1.727360   -3.493790
  H     -2.830320    3.334330   -3.105590
  H      1.275720    5.993120   -2.137780
  H      1.432340    3.607550   -2.707050
  H     -5.150870    6.137830   -1.907750
  H     -4.573230    4.543420   -2.414240
  H     -4.851340    5.809210   -3.628150
  H     -4.571310    8.440450   -2.020070
  H     -0.951320   10.611300   -1.307760
  H      0.394850    8.573790   -1.619370
  H     -4.918150   10.496050   -3.110410
  H     -3.610820   13.687120    0.485900
  H     -2.432310   11.542540    0.209580
  H     -8.138740   12.462720   -3.901860
  H     -6.905870   11.194990   -3.930860
  H     -6.702110   12.648100   -4.928890
  H     -8.268500   14.815450   -3.639790
  H     -6.953620   17.515060   -0.565900
  H     -5.259310   15.900760    0.185130
  H     -8.569430   18.227380   -1.992080
  H    -10.463090   19.278600   -3.166820
  H    -12.394850   18.750630   -4.778560
  H    -13.955730   17.705100   -6.276360
  H    -15.286510   16.042700   -7.732350
  H    -15.295810   13.566970   -8.435580
  H    -13.015790   11.974890   -7.116440
  H    -17.300770    9.093860  -10.693720
  H    -14.148650    6.807640   -7.593790
  H    -17.763970    7.612320  -12.002100

 Total Charge           Charge          ....    0
 Multiplicity           Mult            ....    1
 Number of Electrons    NEL             ....  556
 Basis Dimension        Dim             .... 1317

ORBITAL ENERGIES
----------------

  NO   OCC          E(Eh)            E(eV)
   0   2.0000     -88.979188     -2421.2468
   1   2.0000     -88.972566     -2421.0666
   2   2.0000     -19.262851      -524.1688
   3   2.0000     -19.216403      -522.9049
   4   2.0000     -19.211928      -522.7831
   5   2.0000     -19.202148      -522.5170
   6   2.0000     -14.468011      -393.6946
   7   2.0000     -14.458930      -393.4475
   8   2.0000     -14.415572      -392.2677
   9   2.0000     -14.410791      -392.1376
  10   2.0000     -14.410352      -392.1256
  11   2.0000     -14.410200      -392.1215
  12   2.0000     -14.398906      -391.8141
  13   2.0000     -10.407653      -283.2066
  14   2.0000     -10.368399      -282.1385
  15   2.0000     -10.363204      -281.9971
  16   2.0000     -10.351072      -281.6670
  17   2.0000     -10.340249      -281.3725
  18   2.0000     -10.339245      -281.3452
  19   2.0000     -10.338401      -281.3222
  20   2.0000     -10.337091      -281.2865
  21   2.0000     -10.336040      -281.2579
  22   2.0000     -10.333628      -281.1923
  23   2.0000     -10.333309      -281.1836
  24   2.0000     -10.331666      -281.1389
  25   2.0000     -10.326433      -280.9965
  26   2.0000     -10.322908      -280.9006
  27   2.0000     -10.320808      -280.8435
  28   2.0000     -10.320190      -280.8266
  29   2.0000     -10.320044      -280.8227
  30   2.0000     -10.319930      -280.8196
  31   2.0000     -10.318890      -280.7913
  32   2.0000     -10.318350      -280.7766
  33   2.0000     -10.316574      -280.7283
  34   2.0000     -10.315970      -280.7118
  35   2.0000     -10.313983      -280.6577
  36   2.0000     -10.313893      -280.6553
  37   2.0000     -10.313485      -280.6442
  38   2.0000     -10.313476      -280.6440
  39   2.0000     -10.313445      -280.6431
  40   2.0000     -10.313274      -280.6385
  41   2.0000     -10.312227      -280.6100
  42   2.0000     -10.311621      -280.5935
  43   2.0000     -10.310442      -280.5614
  44   2.0000     -10.310103      -280.5522
  45   2.0000     -10.302396      -280.3424
  46   2.0000     -10.302127      -280.3351
  47   2.0000     -10.300700      -280.2963
  48   2.0000     -10.299359      -280.2598
  49   2.0000     -10.299290      -280.2579
  50   2.0000     -10.295674      -280.1595
  51   2.0000     -10.295456      -280.1536
  52   2.0000     -10.295135      -280.1449
  53   2.0000     -10.294312      -280.1225
  54   2.0000     -10.293889      -280.1110
  55   2.0000     -10.293397      -280.0976
  56   2.0000     -10.289373      -279.9881
  57   2.0000     -10.288691      -279.9695
  58   2.0000     -10.288674      -279.9691
  59   2.0000     -10.288311      -279.9592
  60   2.0000     -10.287943      -279.9492
  61   2.0000     -10.286852      -279.9195
  62   2.0000     -10.285885      -279.8931
  63   2.0000     -10.285880      -279.8930
  64   2.0000     -10.285268      -279.8764
  65   2.0000     -10.284587      -279.8578
  66   2.0000     -10.284075      -279.8439
  67   2.0000     -10.283717      -279.8342
  68   2.0000     -10.283325      -279.8235
  69   2.0000     -10.283183      -279.8196
  70   2.0000     -10.280333      -279.7421
  71   2.0000     -10.280140      -279.7368
  72   2.0000     -10.279399      -279.7167
  73   2.0000     -10.278900      -279.7031
  74   2.0000     -10.277372      -279.6615
  75   2.0000     -10.276625      -279.6412
  76   2.0000     -10.275748      -279.6173
  77   2.0000     -10.275596      -279.6132
  78   2.0000     -10.273431      -279.5543
  79   2.0000     -10.271713      -279.5075
  80   2.0000     -10.268368      -279.4165
  81   2.0000      -8.074938      -219.7302
  82   2.0000      -8.068799      -219.5632
  83   2.0000      -6.044619      -164.4825
  84   2.0000      -6.040548      -164.3717
  85   2.0000      -6.038359      -164.3121
  86   2.0000      -6.036028      -164.2487
  87   2.0000      -6.034358      -164.2032
  88   2.0000      -6.030011      -164.0849
  89   2.0000      -1.186463       -32.2853
  90   2.0000      -1.130872       -30.7726
  91   2.0000      -1.126047       -30.6413
  92   2.0000      -1.101486       -29.9730
  93   2.0000      -1.099269       -29.9126
  94   2.0000      -1.090343       -29.6697
  95   2.0000      -1.024770       -27.8854
  96   2.0000      -1.019840       -27.7513
  97   2.0000      -1.014204       -27.5979
  98   2.0000      -1.003831       -27.3156
  99   2.0000      -1.001668       -27.2568
 100   2.0000      -0.995142       -27.0792
 101   2.0000      -0.991709       -26.9858
 102   2.0000      -0.988995       -26.9119
 103   2.0000      -0.984049       -26.7773
 104   2.0000      -0.969540       -26.3825
 105   2.0000      -0.968093       -26.3432
 106   2.0000      -0.966294       -26.2942
 107   2.0000      -0.956928       -26.0393
 108   2.0000      -0.955848       -26.0099
 109   2.0000      -0.945445       -25.7269
 110   2.0000      -0.925461       -25.1831
 111   2.0000      -0.921682       -25.0802
 112   2.0000      -0.913553       -24.8590
 113   2.0000      -0.904655       -24.6169
 114   2.0000      -0.903149       -24.5759
 115   2.0000      -0.893068       -24.3016
 116   2.0000      -0.885740       -24.1022
 117   2.0000      -0.881246       -23.9799
 118   2.0000      -0.878322       -23.9004
 119   2.0000      -0.874386       -23.7932
 120   2.0000      -0.866063       -23.5668
 121   2.0000      -0.861977       -23.4556
 122   2.0000      -0.858624       -23.3643
 123   2.0000      -0.851404       -23.1679
 124   2.0000      -0.849625       -23.1195
 125   2.0000      -0.848626       -23.0923
 126   2.0000      -0.842518       -22.9261
 127   2.0000      -0.834576       -22.7100
 128   2.0000      -0.825719       -22.4689
 129   2.0000      -0.822874       -22.3915
 130   2.0000      -0.809132       -22.0176
 131   2.0000      -0.799752       -21.7624
 132   2.0000      -0.787616       -21.4321
 133   2.0000      -0.784504       -21.3475
 134   2.0000      -0.781274       -21.2595
 135   2.0000      -0.774360       -21.0714
 136   2.0000      -0.758802       -20.6480
 137   2.0000      -0.753138       -20.4939
 138   2.0000      -0.736285       -20.0353
 139   2.0000      -0.732867       -19.9423
 140   2.0000      -0.723051       -19.6752
 141   2.0000      -0.718460       -19.5503
 142   2.0000      -0.712691       -19.3933
 143   2.0000      -0.706119       -19.2145
 144   2.0000      -0.704164       -19.1613
 145   2.0000      -0.700499       -19.0616
 146   2.0000      -0.698545       -19.0084
 147   2.0000      -0.693969       -18.8839
 148   2.0000      -0.690659       -18.7938
 149   2.0000      -0.686136       -18.6707
 150   2.0000      -0.684087       -18.6150
 151   2.0000      -0.680443       -18.5158
 152   2.0000      -0.673726       -18.3330
 153   2.0000      -0.667667       -18.1681
 154   2.0000      -0.666001       -18.1228
 155   2.0000      -0.661017       -17.9872
 156   2.0000      -0.650309       -17.6958
 157   2.0000      -0.645551       -17.5663
 158   2.0000      -0.636134       -17.3101
 159   2.0000      -0.634524       -17.2663
 160   2.0000      -0.631100       -17.1731
 161   2.0000      -0.629770       -17.1369
 162   2.0000      -0.622101       -16.9282
 163   2.0000      -0.618994       -16.8437
 164   2.0000      -0.612457       -16.6658
 165   2.0000      -0.610908       -16.6236
 166   2.0000      -0.604297       -16.4438
 167   2.0000      -0.603883       -16.4325
 168   2.0000      -0.597013       -16.2456
 169   2.0000      -0.593402       -16.1473
 170   2.0000      -0.589258       -16.0345
 171   2.0000      -0.583566       -15.8796
 172   2.0000      -0.578529       -15.7426
 173   2.0000      -0.572898       -15.5893
 174   2.0000      -0.571984       -15.5645
 175   2.0000      -0.566586       -15.4176
 176   2.0000      -0.562870       -15.3165
 177   2.0000      -0.556290       -15.1374
 178   2.0000      -0.554831       -15.0977
 179   2.0000      -0.553499       -15.0615
 180   2.0000      -0.552267       -15.0280
 181   2.0000      -0.548597       -14.9281
 182   2.0000      -0.547400       -14.8955
 183   2.0000      -0.545166       -14.8347
 184   2.0000      -0.544018       -14.8035
 185   2.0000      -0.541099       -14.7240
 186   2.0000      -0.536375       -14.5955
 187   2.0000      -0.533873       -14.5274
 188   2.0000      -0.533466       -14.5164
 189   2.0000      -0.533054       -14.5051
 190   2.0000      -0.530256       -14.4290
 191   2.0000      -0.529368       -14.4048
 192   2.0000      -0.528474       -14.3805
 193   2.0000      -0.525010       -14.2863
 194   2.0000      -0.524731       -14.2787
 195   2.0000      -0.522541       -14.2191
 196   2.0000      -0.522237       -14.2108
 197   2.0000      -0.520388       -14.1605
 198   2.0000      -0.518790       -14.1170
 199   2.0000      -0.516294       -14.0491
 200   2.0000      -0.512992       -13.9592
 201   2.0000      -0.509525       -13.8649
 202   2.0000      -0.506645       -13.7865
 203   2.0000      -0.506274       -13.7764
 204   2.0000      -0.502251       -13.6670
 205   2.0000      -0.501368       -13.6429
 206   2.0000      -0.496692       -13.5157
 207   2.0000      -0.495598       -13.4859
 208   2.0000      -0.494727       -13.4622
 209   2.0000      -0.493300       -13.4234
 210   2.0000      -0.492078       -13.3901
 211   2.0000      -0.491812       -13.3829
 212   2.0000      -0.488389       -13.2897
 213   2.0000      -0.487854       -13.2752
 214   2.0000      -0.482784       -13.1372
 215   2.0000      -0.481728       -13.1085
 216   2.0000      -0.481431       -13.1004
 217   2.0000      -0.479412       -13.0455
 218   2.0000      -0.476740       -12.9728
 219   2.0000      -0.466182       -12.6855
 220   2.0000      -0.465449       -12.6655
 221   2.0000      -0.464953       -12.6520
 222   2.0000      -0.461268       -12.5517
 223   2.0000      -0.458694       -12.4817
 224   2.0000      -0.456205       -12.4140
 225   2.0000      -0.455776       -12.4023
 226   2.0000      -0.453745       -12.3470
 227   2.0000      -0.450494       -12.2586
 228   2.0000      -0.450268       -12.2524
 229   2.0000      -0.447422       -12.1750
 230   2.0000      -0.443831       -12.0773
 231   2.0000      -0.441921       -12.0253
 232   2.0000      -0.440417       -11.9843
 233   2.0000      -0.436843       -11.8871
 234   2.0000      -0.435989       -11.8639
 235   2.0000      -0.434425       -11.8213
 236   2.0000      -0.433364       -11.7924
 237   2.0000      -0.431364       -11.7380
 238   2.0000      -0.430238       -11.7074
 239   2.0000      -0.428448       -11.6587
 240   2.0000      -0.426615       -11.6088
 241   2.0000      -0.425164       -11.5693
 242   2.0000      -0.424056       -11.5391
 243   2.0000      -0.422382       -11.4936
 244   2.0000      -0.421579       -11.4718
 245   2.0000      -0.420909       -11.4535
 246   2.0000      -0.419216       -11.4074
 247   2.0000      -0.417166       -11.3517
 248   2.0000      -0.413084       -11.2406
 249   2.0000      -0.411286       -11.1917
 250   2.0000      -0.410162       -11.1611
 251   2.0000      -0.405964       -11.0468
 252   2.0000      -0.402722       -10.9586
 253   2.0000      -0.400020       -10.8851
 254   2.0000      -0.395915       -10.7734
 255   2.0000      -0.391993       -10.6667
 256   2.0000      -0.382959       -10.4209
 257   2.0000      -0.377487       -10.2720
 258   2.0000      -0.369299       -10.0491
 259   2.0000      -0.365589        -9.9482
 260   2.0000      -0.358868        -9.7653
 261   2.0000      -0.357776        -9.7356
 262   2.0000      -0.349669        -9.5150
 263   2.0000      -0.348162        -9.4740
 264   2.0000      -0.342939        -9.3319
 265   2.0000      -0.339699        -9.2437
 266   2.0000      -0.337540        -9.1849
 267   2.0000      -0.335346        -9.1252
 268   2.0000      -0.330394        -8.9905
 269   2.0000      -0.322625        -8.7791
 270   2.0000      -0.314576        -8.5601
 271   2.0000      -0.310260        -8.4426
 272   2.0000      -0.293744        -7.9932
 273   2.0000      -0.287048        -7.8110
 274   2.0000      -0.280905        -7.6438
 275   2.0000      -0.271809        -7.3963
 276   2.0000      -0.266069        -7.2401
 277   2.0000      -0.238010        -6.4766
 278   0.0000      -0.119326        -3.2470
 279   0.0000      -0.086970        -2.3666
 280   0.0000      -0.078094        -2.1251
 281   0.0000      -0.058565        -1.5936
 282   0.0000      -0.054975        -1.4960

MULLIKEN ATOMIC CHARGES
-----------------------
   0 C :    0.301778
   1 C :   -0.349197
   2 C :   -0.181882
   3 N :    0.145689
   4 C :   -0.209066
   5 N :    0.160223
   6 C :    0.046945
   7 C :    0.004012
   8 C :   -0.086249
   9 C :    0.100357
  10 C :    0.096911
  11 C :   -0.083248
  12 C :   -0.018962
  13 C :    0.033841
  14 C :    0.037354
  15 C :   -0.016620
  16 C :    0.161815
  17 O :   -0.165612
  18 C :   -0.068085
  19 C :   -0.030335
  20 C :    0.069778
  21 C :   -0.082692
  22 C :    0.145319
  23 C :    0.067928
  24 C :   -0.037680
  25 C :   -0.007296
  26 C :    0.052508
  27 C :    0.170471
  28 N :   -0.186534
  29 C :    0.116263
  30 C :   -0.141220
  31 C :    0.086913
  32 C :   -0.015345
  33 C :   -0.038790
  34 C :    0.083191
  35 C :   -0.138675
  36 C :    0.171280
  37 C :    0.050405
  38 C :   -0.036446
  39 C :   -0.016168
  40 C :    0.065151
  41 C :    0.152715
  42 N :   -0.189290
  43 C :    0.121175
  44 C :   -0.126282
  45 C :    0.099344
  46 C :   -0.012678
  47 C :   -0.036857
  48 C :   -0.002979
  49 C :   -0.027795
  50 C :    0.059245
  51 C :    0.020487
  52 C :   -0.006315
  53 S :    0.077351
  54 C :   -0.065251
  55 C :    0.045691
  56 C :    0.029704
  57 C :   -0.012875
  58 S :    0.109083
  59 C :   -0.002488
  60 C :    0.026564
  61 C :   -0.139444
  62 C :    0.143401
  63 O :   -0.152544
  64 C :    0.008773
  65 C :    0.028783
  66 C :   -0.089648
  67 C :    0.008358
  68 C :   -0.078460
  69 C :   -0.041706
  70 C :   -0.156935
  71 N :    0.132380
  72 C :    0.176172
  73 O :   -0.152485
  74 O :   -0.145425
  75 C :    0.284185
  76 C :   -0.338704
  77 C :   -0.209906
  78 N :    0.163194
  79 C :   -0.179765
  80 N :    0.122782
  81 H :   -0.016018
  82 H :   -0.007321
  83 H :   -0.009359
  84 H :   -0.003644
  85 H :   -0.005429
  86 H :   -0.018245
  87 H :    0.017620
  88 H :   -0.020981
  89 H :   -0.028447
  90 H :   -0.012797
  91 H :    0.038173
  92 H :    0.060427
  93 H :    0.036193
  94 H :   -0.046301
  95 H :   -0.026129
  96 H :   -0.028048
  97 H :   -0.041305
  98 H :   -0.030215
  99 H :   -0.021933
 100 H :    0.045882
 101 H :    0.042678
 102 H :    0.042551
 103 H :   -0.031165
 104 H :   -0.025289
 105 H :   -0.026499
 106 H :   -0.006488
 107 H :    0.001659
 108 H :   -0.003504
 109 H :   -0.000900
 110 H :    0.004025
 111 H :    0.005155
 112 H :    0.012589
 113 H :    0.002100
 114 H :    0.010086
 115 H :    0.191296
Sum of atomic charges:   -0.0000000

LOEWDIN ATOMIC CHARGES
----------------------
   0 C :    0.078480
   1 C :   -0.142040
   2 C :   -0.016606
   3 N :   -0.056410
   4 C :   -0.027445
   5 N :   -0.052374
   6 C :   -0.026497
   7 C :   -0.054784
   8 C :    0.030746
   9 C :   -0.008557
  10 C :   -0.006164
  11 C :    0.019134
  12 C :   -0.005479
  13 C :   -0.013806
  14 C :   -0.012659
  15 C :   -0.010068
  16 C :    0.089305
  17 O :   -0.149522
  18 C :   -0.098559
  19 C :    0.086707
  20 C :   -0.043940
  21 C :   -0.012023
  22 C :    0.025531
  23 C :   -0.019955
  24 C :   -0.017038
  25 C :   -0.014225
  26 C :   -0.049059
  27 C :    0.038792
  28 N :    0.017046
  29 C :    0.037024
  30 C :   -0.057838
  31 C :   -0.004812
  32 C :   -0.040691
  33 C :   -0.002297
  34 C :   -0.000429
  35 C :   -0.056832
  36 C :    0.039239
  37 C :   -0.050869
  38 C :   -0.003552
  39 C :   -0.038295
  40 C :   -0.023716
  41 C :    0.032188
  42 N :    0.015369
  43 C :    0.037752
  44 C :   -0.049023
  45 C :   -0.039510
  46 C :   -0.024462
  47 C :   -0.011415
  48 C :    0.006681
  49 C :   -0.163348
  50 C :    0.004243
  51 C :   -0.047944
  52 C :   -0.135739
  53 S :    0.405357
  54 C :   -0.201273
  55 C :    0.000595
  56 C :   -0.043554
  57 C :   -0.093666
  58 S :    0.406448
  59 C :   -0.078053
  60 C :    0.054926
  61 C :   -0.121992
  62 C :    0.077307
  63 O :   -0.153214
  64 C :   -0.030327
  65 C :    0.006087
  66 C :   -0.008349
  67 C :   -0.041184
  68 C :   -0.030196
  69 C :    0.043188
  70 C :   -0.032908
  71 N :   -0.034745
  72 C :    0.080208
  73 O :   -0.124955
  74 O :   -0.017699
  75 C :    0.064887
  76 C :   -0.153971
  77 C :   -0.024783
  78 N :   -0.056081
  79 C :   -0.016586
  80 N :   -0.073161
  81 H :    0.037602
  82 H :    0.039023
  83 H :    0.034748
  84 H :    0.033383
  85 H :    0.032735
  86 H :    0.031544
  87 H :    0.046271
  88 H :    0.027048
  89 H :    0.030857
  90 H :    0.031306
  91 H :    0.032064
  92 H :    0.042167
  93 H :    0.027341
  94 H :    0.024214
  95 H :    0.026450
  96 H :    0.030404
  97 H :    0.025131
  98 H :    0.029683
  99 H :    0.027996
 100 H :    0.034322
 101 H :    0.035992
 102 H :    0.030005
 103 H :    0.009083
 104 H :    0.026823
 105 H :    0.031773
 106 H :    0.041003
 107 H :    0.039710
 108 H :    0.036055
 109 H :    0.037375
 110 H :    0.040896
 111 H :    0.037355
 112 H :    0.033381
 113 H :    0.034510
 114 H :    0.050302
 115 H :    0.098891

  Mayer bond orders larger than 0.100000
B(  0-C ,  1-C ) :   1.6373 B(  0-C ,  6-C ) :   0.9867 B(  0-C , 18-C ) :   1.0605
B(  1-C ,  2-C ) :   1.1454 B(  1-C ,  4-C ) :   1.1355 B(  2-C ,  3-N ) :   2.9682
B(  4-C ,  5-N ) :   3.0021 B(  6-C ,  7-C ) :   1.2154 B(  6-C , 11-C ) :   1.4485
B(  7-C ,  8-C ) :   1.4680 B(  7-C , 16-C ) :   0.9565 B(  8-C ,  9-C ) :   1.1795
B(  8-C , 81-H ) :   1.0162 B(  9-C , 10-C ) :   1.2552 B(  9-C , 15-C ) :   1.2442
B( 10-C , 11-C ) :   1.2063 B( 10-C , 12-C ) :   1.2403 B( 11-C , 82-H ) :   0.9902
B( 12-C , 13-C ) :   1.4891 B( 12-C , 83-H ) :   0.9969 B( 13-C , 14-C ) :   1.2591
B( 13-C , 84-H ) :   0.9892 B( 14-C , 15-C ) :   1.4901 B( 14-C , 85-H ) :   0.9880
B( 15-C , 86-H ) :   0.9971 B( 16-C , 17-O ) :   2.1720 B( 16-C , 18-C ) :   0.9316
B( 18-C , 19-C ) :   1.5689 B( 19-C , 20-C ) :   1.1445 B( 19-C , 87-H ) :   0.9497
B( 20-C , 21-C ) :   1.3300 B( 20-C , 25-C ) :   1.2447 B( 21-C , 22-C ) :   1.3190
B( 21-C , 88-H ) :   0.9826 B( 22-C , 23-C ) :   1.2746 B( 22-C , 28-N ) :   1.1185
B( 23-C , 24-C ) :   1.3045 B( 23-C , 26-C ) :   1.1090 B( 24-C , 25-C ) :   1.4325
B( 24-C , 89-H ) :   0.9985 B( 25-C , 90-H ) :   0.9940 B( 26-C , 27-C ) :   1.2870
B( 26-C , 33-C ) :   1.3124 B( 27-C , 28-N ) :   1.1393 B( 27-C , 30-C ) :   1.2768
B( 28-N , 29-C ) :   0.9737 B( 29-C , 91-H ) :   0.9663 B( 29-C , 92-H ) :   0.9668
B( 29-C , 93-H ) :   0.9741 B( 30-C , 31-C ) :   1.3785 B( 30-C , 94-H ) :   1.0051
B( 31-C , 32-C ) :   1.3336 B( 31-C , 34-C ) :   0.9587 B( 32-C , 33-C ) :   1.4164
B( 32-C , 95-H ) :   0.9872 B( 33-C , 96-H ) :   0.9991 B( 34-C , 35-C ) :   1.3870
B( 34-C , 39-C ) :   1.3320 B( 35-C , 36-C ) :   1.2804 B( 35-C , 97-H ) :   1.0025
B( 36-C , 37-C ) :   1.2914 B( 36-C , 42-N ) :   1.1223 B( 37-C , 38-C ) :   1.3101
B( 37-C , 40-C ) :   1.1081 B( 38-C , 39-C ) :   1.4164 B( 38-C , 98-H ) :   0.9989
B( 39-C , 99-H ) :   0.9888 B( 40-C , 41-C ) :   1.2693 B( 40-C , 47-C ) :   1.3113
B( 41-C , 42-N ) :   1.1342 B( 41-C , 44-C ) :   1.3599 B( 42-N , 43-C ) :   0.9742
B( 43-C ,100-H ) :   0.9654 B( 43-C ,101-H ) :   0.9673 B( 43-C ,102-H ) :   0.9741
B( 44-C , 45-C ) :   1.2946 B( 44-C ,103-H ) :   0.9719 B( 45-C , 46-C ) :   1.2652
B( 45-C , 48-C ) :   1.1279 B( 46-C , 47-C ) :   1.4260 B( 46-C ,104-H ) :   0.9940
B( 47-C ,105-H ) :   0.9981 B( 48-C , 49-C ) :   1.5783 B( 48-C ,106-H ) :   0.9711
B( 49-C , 50-C ) :   1.1447 B( 49-C , 53-S ) :   1.0123 B( 50-C , 51-C ) :   1.5814
B( 50-C ,107-H ) :   0.9989 B( 51-C , 52-C ) :   1.1960 B( 51-C ,108-H ) :   0.9934
B( 52-C , 53-S ) :   1.0897 B( 52-C , 54-C ) :   1.4527 B( 54-C , 55-C ) :   1.2349
B( 54-C , 58-S ) :   1.0372 B( 55-C , 56-C ) :   1.5201 B( 55-C ,109-H ) :   0.9945
B( 56-C , 57-C ) :   1.2049 B( 56-C ,110-H ) :   1.0017 B( 57-C , 58-S ) :   1.1033
B( 57-C , 59-C ) :   1.4451 B( 59-C , 60-C ) :   1.2774 B( 59-C ,111-H ) :   0.9638
B( 60-C , 61-C ) :   1.4658 B( 60-C ,112-H ) :   0.9405 B( 61-C , 62-C ) :   0.9853
B( 61-C , 75-C ) :   1.1179 B( 62-C , 63-O ) :   2.2417 B( 62-C , 64-C ) :   0.8975
B( 64-C , 65-C ) :   1.3475 B( 64-C , 69-C ) :   1.3665 B( 65-C , 66-C ) :   1.3983
B( 65-C , 75-C ) :   0.9766 B( 66-C , 67-C ) :   1.3087 B( 66-C ,113-H ) :   0.9653
B( 67-C , 68-C ) :   1.4064 B( 67-C , 72-C ) :   0.8715 B( 68-C , 69-C ) :   1.3535
B( 68-C , 70-C ) :   1.0675 B( 69-C ,114-H ) :   1.0161 B( 70-C , 71-N ) :   3.0382
B( 72-C , 73-O ) :   2.1664 B( 72-C , 74-O ) :   1.2573 B( 74-O ,115-H ) :   0.9449
B( 75-C , 76-C ) :   1.5898 B( 76-C , 77-C ) :   1.1673 B( 76-C , 79-C ) :   1.1381
B( 77-C , 78-N ) :   3.0074 B( 79-C , 80-N ) :   2.9748

-----------------------------------------------------------------------------
         ABSORPTION SPECTRUM VIA TRANSITION ELECTRIC DIPOLE MOMENTS
-----------------------------------------------------------------------------
State   Energy  Wavelength   fosc         T2         TX        TY        TZ
        (cm-1)    (nm)                  (au**2)     (au)      (au)      (au)
-----------------------------------------------------------------------------
   0   11873.9    842.2   1.308272242  36.27259   4.25233   2.04463   3.74296
   1   19821.0    504.5   0.047245202   0.78471   0.70880  -0.49240  -0.19963
   2   21179.2    472.2   0.256078917   3.98053   0.29612  -1.88615  -0.57904
   3   21749.1    459.8   0.631618078   9.56066  -1.01505   2.91007   0.24862
   4   23018.0    434.4   0.909011152  13.00101   0.76418  -3.46885  -0.61977
   5   23934.0    417.8   0.354676997   4.87859  -0.08044  -2.18081  -0.34089
   6   24597.2    406.6   0.099548419   1.33237  -0.96690   0.27988  -0.56492
   7   25146.9    397.7   0.014946394   0.19567   0.38300  -0.16392   0.14870
   8   26094.2    383.2   0.137988369   1.74090   1.06555  -0.71324   0.31112
   9   26934.2    371.3   0.056826005   0.69457   0.40152  -0.72061  -0.11867
  10   27817.6    359.5   0.141532558   1.67499   0.08134  -1.27659   0.19672
  11   27988.8    357.3   0.101196117   1.19030  -0.34218  -1.03372   0.06811
  12   28965.2    345.2   0.035591544   0.40453  -0.46949  -0.38266   0.19409
  13   29729.2    336.4   0.038698170   0.42853   0.27060   0.57511  -0.15671
  14   29839.2    335.1   0.079714696   0.87948   0.03177   0.93714  -0.01576
  15   30281.7    330.2   0.000115510   0.00126  -0.00834  -0.03373   0.00697
  16   30408.8    328.9   0.057834216   0.62612  -0.25792   0.58810  -0.46232
  17   30691.9    325.8   0.203677217   2.18471   0.69457   1.25238  -0.36584
  18   31606.9    316.4   0.013048055   0.13591  -0.34574   0.08964   0.09130
  19   31875.0    313.7   0.036441509   0.37638  -0.20517   0.46560  -0.34277
  20   31928.3    313.2   0.012218294   0.12598  -0.13768  -0.32523   0.03539
  21   32275.4    309.8   0.059906204   0.61105   0.08642  -0.70111  -0.33470
  22   32444.5    308.2   0.133193798   1.35151   0.68991  -0.86351   0.36039
  23   32739.6    305.4   0.328414064   3.30236  -0.77656   1.64277  -0.02492
  24   33774.5    296.1   0.096534107   0.94095   0.76941   0.43206  -0.40285
  25   33892.6    295.0   0.059920231   0.58203  -0.21722  -0.68525  -0.25549
  26   34088.3    293.4   0.009556774   0.09230   0.03296   0.30183  -0.01029
  27   34179.1    292.6   0.004147367   0.03995   0.08972  -0.13087   0.12154
  28   34406.7    290.6   0.252606937   2.41700  -0.30502  -1.29592   0.80285
  29   34579.0    289.2   0.823980437   7.84476  -2.11298  -1.63566   0.83947
  30   34704.4    288.1   0.009829041   0.09324   0.22042  -0.11285   0.17866
  31   34769.8    287.6   0.028611740   0.27091   0.18496  -0.48627   0.01531
  32   34997.8    285.7   0.048226054   0.45365  -0.24176   0.59955  -0.18906
  33   35124.1    284.7   0.214435730   2.00987   0.36239  -1.36666   0.10379
  34   35605.1    280.9   0.018510627   0.17115  -0.24215   0.24216  -0.23211
  35   35814.6    279.2   0.040173398   0.36928   0.25349  -0.55186   0.02165
  36   36101.4    277.0   0.021513027   0.19618  -0.22928   0.36143   0.11392
  37   36206.1    276.2   0.045697957   0.41552  -0.53466  -0.35814   0.03739
  38   36367.8    275.0   0.020753184   0.18786  -0.17713  -0.36359  -0.15586
  39   36442.4    274.4   0.010270538   0.09278  -0.17402  -0.15120  -0.19909
  40   36881.4    271.1   0.140832999   1.25711   0.23687  -1.08727  -0.13731
  41   37377.0    267.5   0.072950139   0.64254  -0.34307   0.21111   0.69302
  42   37727.2    265.1   0.012164423   0.10615  -0.17972   0.25929   0.08134
  43   37737.1    265.0   0.025129733   0.21923  -0.42293   0.16748   0.11093
  44   38273.5    261.3   0.031117480   0.26766  -0.31742   0.24097  -0.32990
  45   38460.7    260.0   0.058462956   0.50042   0.09802  -0.57676   0.39771
  46   38680.8    258.5   0.168477775   1.43391  -0.29405  -0.89338   0.74116
  47   38898.3    257.1   0.060271600   0.51010   0.33296   0.56232  -0.28817
  48   39022.5    256.3   0.080034282   0.67521  -0.50280   0.61711  -0.20390
  49   39277.6    254.6   0.216244512   1.81249   1.02138  -0.87677   0.02334
  50   39359.4    254.1   0.117752968   0.98492  -0.06797   0.81385   0.56387
  51   39920.9    250.5   0.181080323   1.49330   0.72748  -0.94102  -0.28028
  52   40065.8    249.6   0.038773820   0.31860  -0.06854   0.43190  -0.35688
  53   40127.4    249.2   0.109688642   0.89990   0.30320  -0.80530   0.39934
  54   40317.4    248.0   0.011543910   0.09426   0.12041  -0.28230  -0.00827

FINAL SINGLE POINT ENERGY     -4088.403602076080

DIPOLE MOMENT
-------------
                                X             Y             Z
Electronic contribution:    -34.64395      -4.66412     -33.74742
Nuclear contribution   :     36.01138      10.31871      38.79443
                        -----------------------------------------
Total Dipole Moment    :      1.36743       5.65459       5.04700
                        -----------------------------------------
Magnitude (a.u.)       :      7.70172
Magnitude (Debye)      :     19.57621

Rotational constants in cm-1:     0.000574     0.000241     0.000176
Rotational constants in MHz :    17.201497     7.213354     5.284639

                             ****ORCA TERMINATED NORMALLY****
TOTAL RUN TIME: 0 days 0 hours 12 minutes 58 seconds 574 msec
