                         Program Version 4.2.0 -  RELEASE  -
|  1> # ORCA input file
|  2> # SCF done       -204.435046427287          0.000768720967
|  3> ! CAM-B3LYP def2-SVP def2/J RIJCOSX Grid4 TightSCF
|  4> %maxcore 5000
|  5> %tddft
|  6>     Mode sTDDFT
|  7>     Ethresh 5.0
|  8>     maxcore 5000
|  9> end
| 10>
| 11> %pal
| 12>   nprocs 6
| 13>   end
| 14> * xyz 0 1
| 15>    C        2.89923         3.69353        -2.99366
| 16>    C        3.54895         4.64661        -2.25642
| 17>    C        4.68228         5.34701        -2.71463
| 18>    N        5.59906         5.94681        -3.05642
| 19>    C        3.18264         4.94653        -0.92872
| 20>    N        2.92001         5.17032         0.16691
| 21>    C        3.36378         3.10192        -4.23996
| 22>    C        2.77244         1.80963        -4.37126
| 23>    C        3.05466         0.99963        -5.43380
| 24>    C        3.94326         1.45821        -6.43222
| 25>    C        4.52144         2.75600        -6.31466
| 26>    C        4.21952         3.57029        -5.19871
| 27>    C        5.39739         3.20229        -7.32474
| 28>    C        5.69327         2.40603        -8.39765
| 29>    C        5.12644         1.12774        -8.51091
| 30>    C        4.27045         0.66398        -7.54912
| 31>    C        1.86391         1.56700        -3.23737
| 32>    O        1.23924         0.56751        -2.97078
| 33>    C        1.80458         2.87556        -2.51474
| 34>    C        0.75076         3.14934        -1.70450
| 35>    C        0.19453         4.40816        -1.33125
| 36>    C       -0.66057         4.50500        -0.27780
| 37>    C       -1.34189         5.69998         0.05793
| 38>    C       -1.38875         6.77151        -0.77898
| 39>    C       -0.71806         6.64900        -2.12939
| 40>    C        0.47029         5.66634        -2.13844
| 41>    N        0.85147         5.31117        -3.48651
| 42>    C       -0.04599         5.26622        -4.36743
| 43>    C       -1.44593         5.64804        -4.09196
| 44>    N       -1.76946         6.28989        -3.05953
| 45>    F       -2.37691         5.28640        -4.96312
| 46>    F        0.27623         4.89879        -5.60094
| 47>    C       -2.21508         7.90206        -0.48988
| 48>    S       -3.52521         7.67256         0.63613
| 49>    C       -4.06851         9.30781         0.47059
| 50>    C       -3.24415         9.99858        -0.41404
| 51>    C       -2.21380         9.21481        -0.95758
| 52>    S       -0.95808         9.83956        -2.02469
| 53>    C       -1.22133        11.55937        -2.36333
| 54>    O       -0.38842        12.09361        -3.03841
| 55>    C       -2.41712        12.34249        -1.87511
| 56>    O       -2.57235        13.47570        -2.23559
| 57>    S       -3.60989        11.68543        -0.75396
| 58>    C       -5.21023         9.81346         1.13561
| 59>    C       -6.02076         9.05843         1.91877
| 60>    C       -7.21921         9.49506         2.54587
| 61>    C       -8.08190         8.59872         3.10114
| 62>    C       -9.36015         8.96529         3.58811
| 63>    C       -9.73735        10.26342         3.72564
| 64>    C       -8.70772        11.35546         3.48901
| 65>    C       -7.60514        10.96012         2.47896
| 66>    N       -7.94289        11.22560         1.09629
| 67>    C       -8.81965        12.08697         0.83692
| 68>    C       -9.50811        12.85335         1.89417
| 69>    N       -9.42175        12.55413         3.11180
| 70>    F      -10.21082        13.91982         1.53429
| 71>    F       -9.14437        12.33251        -0.42553
| 72>    C      -11.00859        10.69081         4.21204
| 73>    C      -12.21270        10.10182         3.97433
| 74>    C      -13.48244        10.54014         4.52988
| 75>    C      -13.64106        11.25430         5.68730
| 76>    C      -14.89438        11.63194         6.21264
| 77>    N      -15.88809        11.96817         6.67811
| 78>    C      -12.57705        11.64938         6.52627
| 79>    N      -11.75945        11.96858         7.26628
| 80>    C      -14.54546         9.99911         3.69579
| 81>    C      -13.95816         9.15741         2.70757
| 82>    C      -12.49625         9.12908         2.87999
| 83>    O      -11.70273         8.48869         2.22512
| 84>    C      -14.71332         8.50422         1.77597
| 85>    C      -16.11650         8.66627         1.79083
| 86>    C      -16.71123         9.51037         2.77345
| 87>    C      -15.90374        10.17441         3.72523
| 88>    C      -18.11222         9.66684         2.77507
| 89>    C      -18.88987         9.02103         1.85262
| 90>    C      -18.30339         8.19020         0.88618
| 91>    C      -16.94628         8.01594         0.85638
| 92>    H        2.60493         0.02105        -5.51395
| 93>    H        4.65988         4.55324        -5.13360
| 94>    H        5.83379         4.18585        -7.23202
| 95>    H        6.36649         2.75684        -9.16539
| 96>    H        5.37063         0.51283        -9.36416
| 97>    H        3.83041        -0.31911        -7.63130
| 98>    H        0.18375         2.28009        -1.38360
| 99>    H       -0.82010         3.63971         0.34806
|100>    H       -1.86669         5.73503         1.00138
|101>    H       -0.34364         7.62548        -2.45503
|102>    H        1.33457         6.17559        -1.69422
|103>    H       -5.44556        10.84809         0.93552
|104>    H       -5.77076         8.01265         2.05250
|105>    H       -7.81671         7.55206         3.11537
|106>    H      -10.04001         8.17843         3.87014
|107>    H       -8.24404        11.57952         4.45998
|108>    H       -6.71147        11.56485         2.68842
|109>    H      -10.99410        11.62429         4.76280
|110>    H      -14.24488         7.87094         1.03717
|111>    H      -16.38033        10.81404         4.45131
|112>    H      -18.55953        10.30649         3.52158
|113>    H      -19.96205         9.14709         1.86251
|114>    H      -18.93201         7.68943         0.16525
|115>    H      -16.48875         7.37783         0.11458
|116> *
|117>
|118>                          ****END OF INPUT****

CARTESIAN COORDINATES (ANGSTROEM)
---------------------------------
  C      2.899230    3.693530   -2.993660
  C      3.548950    4.646610   -2.256420
  C      4.682280    5.347010   -2.714630
  N      5.599060    5.946810   -3.056420
  C      3.182640    4.946530   -0.928720
  N      2.920010    5.170320    0.166910
  C      3.363780    3.101920   -4.239960
  C      2.772440    1.809630   -4.371260
  C      3.054660    0.999630   -5.433800
  C      3.943260    1.458210   -6.432220
  C      4.521440    2.756000   -6.314660
  C      4.219520    3.570290   -5.198710
  C      5.397390    3.202290   -7.324740
  C      5.693270    2.406030   -8.397650
  C      5.126440    1.127740   -8.510910
  C      4.270450    0.663980   -7.549120
  C      1.863910    1.567000   -3.237370
  O      1.239240    0.567510   -2.970780
  C      1.804580    2.875560   -2.514740
  C      0.750760    3.149340   -1.704500
  C      0.194530    4.408160   -1.331250
  C     -0.660570    4.505000   -0.277800
  C     -1.341890    5.699980    0.057930
  C     -1.388750    6.771510   -0.778980
  C     -0.718060    6.649000   -2.129390
  C      0.470290    5.666340   -2.138440
  N      0.851470    5.311170   -3.486510
  C     -0.045990    5.266220   -4.367430
  C     -1.445930    5.648040   -4.091960
  N     -1.769460    6.289890   -3.059530
  F     -2.376910    5.286400   -4.963120
  F      0.276230    4.898790   -5.600940
  C     -2.215080    7.902060   -0.489880
  S     -3.525210    7.672560    0.636130
  C     -4.068510    9.307810    0.470590
  C     -3.244150    9.998580   -0.414040
  C     -2.213800    9.214810   -0.957580
  S     -0.958080    9.839560   -2.024690
  C     -1.221330   11.559370   -2.363330
  O     -0.388420   12.093610   -3.038410
  C     -2.417120   12.342490   -1.875110
  O     -2.572350   13.475700   -2.235590
  S     -3.609890   11.685430   -0.753960
  C     -5.210230    9.813460    1.135610
  C     -6.020760    9.058430    1.918770
  C     -7.219210    9.495060    2.545870
  C     -8.081900    8.598720    3.101140
  C     -9.360150    8.965290    3.588110
  C     -9.737350   10.263420    3.725640
  C     -8.707720   11.355460    3.489010
  C     -7.605140   10.960120    2.478960
  N     -7.942890   11.225600    1.096290
  C     -8.819650   12.086970    0.836920
  C     -9.508110   12.853350    1.894170
  N     -9.421750   12.554130    3.111800
  F    -10.210820   13.919820    1.534290
  F     -9.144370   12.332510   -0.425530
  C    -11.008590   10.690810    4.212040
  C    -12.212700   10.101820    3.974330
  C    -13.482440   10.540140    4.529880
  C    -13.641060   11.254300    5.687300
  C    -14.894380   11.631940    6.212640
  N    -15.888090   11.968170    6.678110
  C    -12.577050   11.649380    6.526270
  N    -11.759450   11.968580    7.266280
  C    -14.545460    9.999110    3.695790
  C    -13.958160    9.157410    2.707570
  C    -12.496250    9.129080    2.879990
  O    -11.702730    8.488690    2.225120
  C    -14.713320    8.504220    1.775970
  C    -16.116500    8.666270    1.790830
  C    -16.711230    9.510370    2.773450
  C    -15.903740   10.174410    3.725230
  C    -18.112220    9.666840    2.775070
  C    -18.889870    9.021030    1.852620
  C    -18.303390    8.190200    0.886180
  C    -16.946280    8.015940    0.856380
  H      2.604930    0.021050   -5.513950
  H      4.659880    4.553240   -5.133600
  H      5.833790    4.185850   -7.232020
  H      6.366490    2.756840   -9.165390
  H      5.370630    0.512830   -9.364160
  H      3.830410   -0.319110   -7.631300
  H      0.183750    2.280090   -1.383600
  H     -0.820100    3.639710    0.348060
  H     -1.866690    5.735030    1.001380
  H     -0.343640    7.625480   -2.455030
  H      1.334570    6.175590   -1.694220
  H     -5.445560   10.848090    0.935520
  H     -5.770760    8.012650    2.052500
  H     -7.816710    7.552060    3.115370
  H    -10.040010    8.178430    3.870140
  H     -8.244040   11.579520    4.459980
  H     -6.711470   11.564850    2.688420
  H    -10.994100   11.624290    4.762800
  H    -14.244880    7.870940    1.037170
  H    -16.380330   10.814040    4.451310
  H    -18.559530   10.306490    3.521580
  H    -19.962050    9.147090    1.862510
  H    -18.932010    7.689430    0.165250
  H    -16.488750    7.377830    0.114580

 Total Charge           Charge          ....    0
 Multiplicity           Mult            ....    1
 Number of Electrons    NEL             ....  544
 Basis Dimension        Dim             .... 1210

ORBITAL ENERGIES
----------------

  NO   OCC          E(Eh)            E(eV)
   0   2.0000     -88.987274     -2421.4668
   1   2.0000     -88.982058     -2421.3249
   2   2.0000     -88.980411     -2421.2801
   3   2.0000     -24.819170      -675.3640
   4   2.0000     -24.816656      -675.2955
   5   2.0000     -24.814979      -675.2499
   6   2.0000     -24.814315      -675.2318
   7   2.0000     -19.252819      -523.8958
   8   2.0000     -19.249931      -523.8172
   9   2.0000     -19.219957      -523.0016
  10   2.0000     -19.215309      -522.8751
  11   2.0000     -14.445869      -393.0921
  12   2.0000     -14.445271      -393.0758
  13   2.0000     -14.444408      -393.0523
  14   2.0000     -14.443723      -393.0337
  15   2.0000     -14.416225      -392.2854
  16   2.0000     -14.415158      -392.2564
  17   2.0000     -14.413824      -392.2201
  18   2.0000     -14.412765      -392.1913
  19   2.0000     -10.433181      -283.9013
  20   2.0000     -10.430883      -283.8388
  21   2.0000     -10.430712      -283.8341
  22   2.0000     -10.430056      -283.8163
  23   2.0000     -10.417101      -283.4637
  24   2.0000     -10.415337      -283.4157
  25   2.0000     -10.372087      -282.2388
  26   2.0000     -10.366969      -282.0996
  27   2.0000     -10.348119      -281.5866
  28   2.0000     -10.345892      -281.5260
  29   2.0000     -10.345311      -281.5102
  30   2.0000     -10.343880      -281.4713
  31   2.0000     -10.343043      -281.4485
  32   2.0000     -10.342862      -281.4436
  33   2.0000     -10.342529      -281.4345
  34   2.0000     -10.341422      -281.4044
  35   2.0000     -10.341015      -281.3933
  36   2.0000     -10.340359      -281.3755
  37   2.0000     -10.338170      -281.3159
  38   2.0000     -10.337978      -281.3107
  39   2.0000     -10.326125      -280.9882
  40   2.0000     -10.319154      -280.7984
  41   2.0000     -10.318699      -280.7861
  42   2.0000     -10.317983      -280.7666
  43   2.0000     -10.316725      -280.7324
  44   2.0000     -10.315484      -280.6986
  45   2.0000     -10.315283      -280.6931
  46   2.0000     -10.315070      -280.6873
  47   2.0000     -10.312157      -280.6081
  48   2.0000     -10.309720      -280.5417
  49   2.0000     -10.309556      -280.5373
  50   2.0000     -10.305218      -280.4192
  51   2.0000     -10.305112      -280.4164
  52   2.0000     -10.304898      -280.4105
  53   2.0000     -10.304855      -280.4094
  54   2.0000     -10.304075      -280.3881
  55   2.0000     -10.302906      -280.3563
  56   2.0000     -10.301671      -280.3227
  57   2.0000     -10.300783      -280.2986
  58   2.0000     -10.300424      -280.2888
  59   2.0000     -10.300183      -280.2822
  60   2.0000     -10.299654      -280.2678
  61   2.0000     -10.299304      -280.2583
  62   2.0000     -10.299296      -280.2581
  63   2.0000     -10.296959      -280.1945
  64   2.0000     -10.296722      -280.1881
  65   2.0000     -10.296422      -280.1799
  66   2.0000     -10.295258      -280.1482
  67   2.0000     -10.291824      -280.0548
  68   2.0000     -10.289259      -279.9850
  69   2.0000     -10.289116      -279.9811
  70   2.0000     -10.288610      -279.9673
  71   2.0000     -10.288240      -279.9572
  72   2.0000     -10.287711      -279.9429
  73   2.0000     -10.285645      -279.8866
  74   2.0000     -10.285206      -279.8747
  75   2.0000     -10.284937      -279.8674
  76   2.0000     -10.284256      -279.8488
  77   2.0000      -8.082605      -219.9389
  78   2.0000      -8.078383      -219.8240
  79   2.0000      -8.076909      -219.7839
  80   2.0000      -6.051882      -164.6801
  81   2.0000      -6.048311      -164.5829
  82   2.0000      -6.047906      -164.5719
  83   2.0000      -6.046784      -164.5414
  84   2.0000      -6.044507      -164.4794
  85   2.0000      -6.043666      -164.4565
  86   2.0000      -6.042148      -164.4152
  87   2.0000      -6.039185      -164.3346
  88   2.0000      -6.037792      -164.2967
  89   2.0000      -1.348146       -36.6849
  90   2.0000      -1.345103       -36.6021
  91   2.0000      -1.333786       -36.2942
  92   2.0000      -1.330461       -36.2037
  93   2.0000      -1.189766       -32.3752
  94   2.0000      -1.157766       -31.5044
  95   2.0000      -1.135523       -30.8991
  96   2.0000      -1.130687       -30.7676
  97   2.0000      -1.099916       -29.9302
  98   2.0000      -1.096636       -29.8410
  99   2.0000      -1.036346       -28.2004
 100   2.0000      -1.029958       -28.0266
 101   2.0000      -1.028983       -28.0000
 102   2.0000      -1.019146       -27.7324
 103   2.0000      -1.015786       -27.6410
 104   2.0000      -1.000033       -27.2123
 105   2.0000      -0.997083       -27.1320
 106   2.0000      -0.994301       -27.0563
 107   2.0000      -0.992364       -27.0036
 108   2.0000      -0.978010       -26.6130
 109   2.0000      -0.976391       -26.5689
 110   2.0000      -0.970889       -26.4192
 111   2.0000      -0.969144       -26.3718
 112   2.0000      -0.947946       -25.7949
 113   2.0000      -0.940034       -25.5796
 114   2.0000      -0.928828       -25.2747
 115   2.0000      -0.922726       -25.1087
 116   2.0000      -0.918027       -24.9808
 117   2.0000      -0.906774       -24.6746
 118   2.0000      -0.897680       -24.4271
 119   2.0000      -0.888354       -24.1733
 120   2.0000      -0.884073       -24.0568
 121   2.0000      -0.881179       -23.9781
 122   2.0000      -0.879551       -23.9338
 123   2.0000      -0.877069       -23.8663
 124   2.0000      -0.875599       -23.8263
 125   2.0000      -0.857167       -23.3247
 126   2.0000      -0.849330       -23.1114
 127   2.0000      -0.841434       -22.8966
 128   2.0000      -0.830689       -22.6042
 129   2.0000      -0.827275       -22.5113
 130   2.0000      -0.817843       -22.2546
 131   2.0000      -0.799943       -21.7676
 132   2.0000      -0.789339       -21.4790
 133   2.0000      -0.788618       -21.4594
 134   2.0000      -0.786984       -21.4149
 135   2.0000      -0.780967       -21.2512
 136   2.0000      -0.774415       -21.0729
 137   2.0000      -0.763191       -20.7675
 138   2.0000      -0.762877       -20.7589
 139   2.0000      -0.759446       -20.6656
 140   2.0000      -0.750306       -20.4169
 141   2.0000      -0.733719       -19.9655
 142   2.0000      -0.714012       -19.4292
 143   2.0000      -0.707807       -19.2604
 144   2.0000      -0.706322       -19.2200
 145   2.0000      -0.701596       -19.0914
 146   2.0000      -0.700487       -19.0612
 147   2.0000      -0.692778       -18.8514
 148   2.0000      -0.689968       -18.7750
 149   2.0000      -0.684187       -18.6177
 150   2.0000      -0.683503       -18.5991
 151   2.0000      -0.680122       -18.5071
 152   2.0000      -0.676547       -18.4098
 153   2.0000      -0.675627       -18.3847
 154   2.0000      -0.670077       -18.2337
 155   2.0000      -0.668502       -18.1909
 156   2.0000      -0.653665       -17.7871
 157   2.0000      -0.652691       -17.7606
 158   2.0000      -0.646404       -17.5896
 159   2.0000      -0.643465       -17.5096
 160   2.0000      -0.637259       -17.3407
 161   2.0000      -0.636742       -17.3266
 162   2.0000      -0.630371       -17.1533
 163   2.0000      -0.625633       -17.0243
 164   2.0000      -0.621198       -16.9036
 165   2.0000      -0.613562       -16.6959
 166   2.0000      -0.609866       -16.5953
 167   2.0000      -0.609063       -16.5734
 168   2.0000      -0.607757       -16.5379
 169   2.0000      -0.606368       -16.5001
 170   2.0000      -0.602890       -16.4055
 171   2.0000      -0.597147       -16.2492
 172   2.0000      -0.591426       -16.0935
 173   2.0000      -0.585318       -15.9273
 174   2.0000      -0.580846       -15.8056
 175   2.0000      -0.577229       -15.7072
 176   2.0000      -0.574857       -15.6426
 177   2.0000      -0.570954       -15.5364
 178   2.0000      -0.566864       -15.4252
 179   2.0000      -0.564976       -15.3738
 180   2.0000      -0.562018       -15.2933
 181   2.0000      -0.560464       -15.2510
 182   2.0000      -0.559485       -15.2243
 183   2.0000      -0.556559       -15.1447
 184   2.0000      -0.551002       -14.9935
 185   2.0000      -0.548893       -14.9361
 186   2.0000      -0.548322       -14.9206
 187   2.0000      -0.547974       -14.9111
 188   2.0000      -0.545935       -14.8556
 189   2.0000      -0.544621       -14.8199
 190   2.0000      -0.540994       -14.7212
 191   2.0000      -0.536980       -14.6120
 192   2.0000      -0.535875       -14.5819
 193   2.0000      -0.533335       -14.5128
 194   2.0000      -0.530899       -14.4465
 195   2.0000      -0.528330       -14.3766
 196   2.0000      -0.526833       -14.3359
 197   2.0000      -0.525721       -14.3056
 198   2.0000      -0.522549       -14.2193
 199   2.0000      -0.521151       -14.1812
 200   2.0000      -0.518469       -14.1083
 201   2.0000      -0.518114       -14.0986
 202   2.0000      -0.514021       -13.9872
 203   2.0000      -0.512114       -13.9353
 204   2.0000      -0.511445       -13.9171
 205   2.0000      -0.510222       -13.8838
 206   2.0000      -0.509012       -13.8509
 207   2.0000      -0.505932       -13.7671
 208   2.0000      -0.502816       -13.6823
 209   2.0000      -0.497089       -13.5265
 210   2.0000      -0.495589       -13.4857
 211   2.0000      -0.492303       -13.3962
 212   2.0000      -0.491618       -13.3776
 213   2.0000      -0.491262       -13.3679
 214   2.0000      -0.486548       -13.2397
 215   2.0000      -0.482675       -13.1342
 216   2.0000      -0.479244       -13.0409
 217   2.0000      -0.478121       -13.0103
 218   2.0000      -0.472520       -12.8579
 219   2.0000      -0.466702       -12.6996
 220   2.0000      -0.465432       -12.6650
 221   2.0000      -0.463620       -12.6157
 222   2.0000      -0.462333       -12.5807
 223   2.0000      -0.454783       -12.3753
 224   2.0000      -0.449334       -12.2270
 225   2.0000      -0.448848       -12.2138
 226   2.0000      -0.447643       -12.1810
 227   2.0000      -0.447203       -12.1690
 228   2.0000      -0.445154       -12.1132
 229   2.0000      -0.442893       -12.0517
 230   2.0000      -0.441372       -12.0103
 231   2.0000      -0.438515       -11.9326
 232   2.0000      -0.436111       -11.8672
 233   2.0000      -0.435665       -11.8550
 234   2.0000      -0.434448       -11.8219
 235   2.0000      -0.433000       -11.7825
 236   2.0000      -0.432599       -11.7716
 237   2.0000      -0.431587       -11.7441
 238   2.0000      -0.428960       -11.6726
 239   2.0000      -0.427609       -11.6358
 240   2.0000      -0.425212       -11.5706
 241   2.0000      -0.423128       -11.5139
 242   2.0000      -0.421748       -11.4763
 243   2.0000      -0.419374       -11.4118
 244   2.0000      -0.416027       -11.3207
 245   2.0000      -0.412663       -11.2291
 246   2.0000      -0.411209       -11.1896
 247   2.0000      -0.407949       -11.1009
 248   2.0000      -0.405579       -11.0364
 249   2.0000      -0.402484       -10.9522
 250   2.0000      -0.400917       -10.9095
 251   2.0000      -0.392054       -10.6683
 252   2.0000      -0.384756       -10.4697
 253   2.0000      -0.377860       -10.2821
 254   2.0000      -0.377588       -10.2747
 255   2.0000      -0.372619       -10.1395
 256   2.0000      -0.371685       -10.1141
 257   2.0000      -0.363764        -9.8985
 258   2.0000      -0.361331        -9.8323
 259   2.0000      -0.353682        -9.6242
 260   2.0000      -0.349687        -9.5155
 261   2.0000      -0.347216        -9.4482
 262   2.0000      -0.342840        -9.3291
 263   2.0000      -0.335217        -9.1217
 264   2.0000      -0.322688        -8.7808
 265   2.0000      -0.318077        -8.6553
 266   2.0000      -0.314694        -8.5633
 267   2.0000      -0.312821        -8.5123
 268   2.0000      -0.298541        -8.1237
 269   2.0000      -0.293918        -7.9979
 270   2.0000      -0.288323        -7.8457
 271   2.0000      -0.258258        -7.0276
 272   0.0000      -0.112965        -3.0739
 273   0.0000      -0.095992        -2.6121
 274   0.0000      -0.070642        -1.9223
 275   0.0000      -0.064692        -1.7603
 276   0.0000      -0.058640        -1.5957

MULLIKEN ATOMIC CHARGES
-----------------------
   0 C :    0.325166
   1 C :   -0.329496
   2 C :   -0.177910
   3 N :    0.155891
   4 C :   -0.214665
   5 N :    0.155860
   6 C :    0.031273
   7 C :    0.016586
   8 C :   -0.085322
   9 C :    0.094802
  10 C :    0.094239
  11 C :   -0.073228
  12 C :   -0.015061
  13 C :    0.034350
  14 C :    0.036424
  15 C :   -0.014824
  16 C :    0.141292
  17 O :   -0.139044
  18 C :   -0.135170
  19 C :    0.018979
  20 C :   -0.024830
  21 C :    0.048514
  22 C :   -0.052822
  23 C :    0.053138
  24 C :    0.046162
  25 C :    0.104671
  26 N :   -0.102491
  27 C :    0.132521
  28 C :    0.121071
  29 N :   -0.068625
  30 F :   -0.136175
  31 F :   -0.137301
  32 C :   -0.108047
  33 S :    0.146512
  34 C :   -0.082126
  35 C :   -0.035617
  36 C :    0.009942
  37 S :    0.057864
  38 C :    0.090557
  39 O :   -0.119539
  40 C :    0.082807
  41 O :   -0.124508
  42 S :    0.081225
  43 C :    0.022655
  44 C :   -0.028223
  45 C :    0.070074
  46 C :   -0.047012
  47 C :    0.098426
  48 C :   -0.090297
  49 C :    0.129421
  50 C :    0.087849
  51 N :   -0.091415
  52 C :    0.126329
  53 C :    0.112437
  54 N :   -0.095340
  55 F :   -0.137380
  56 F :   -0.136890
  57 C :    0.012629
  58 C :   -0.084656
  59 C :    0.289501
  60 C :   -0.331282
  61 C :   -0.179888
  62 N :    0.150591
  63 C :   -0.210085
  64 N :    0.162410
  65 C :    0.053013
  66 C :   -0.007144
  67 C :    0.144922
  68 O :   -0.148181
  69 C :   -0.078970
  70 C :    0.096888
  71 C :    0.096388
  72 C :   -0.083828
  73 C :   -0.018123
  74 C :    0.036289
  75 C :    0.036074
  76 C :   -0.016235
  77 H :   -0.012940
  78 H :   -0.006360
  79 H :   -0.011553
  80 H :   -0.004698
  81 H :   -0.005636
  82 H :   -0.018629
  83 H :    0.019664
  84 H :   -0.000342
  85 H :    0.004322
  86 H :    0.049018
  87 H :    0.059592
  88 H :    0.022626
  89 H :   -0.009486
  90 H :   -0.008161
  91 H :    0.001846
  92 H :    0.046317
  93 H :    0.036215
  94 H :    0.046296
  95 H :   -0.013403
  96 H :   -0.006276
  97 H :   -0.008301
  98 H :   -0.002559
  99 H :   -0.004188
 100 H :   -0.017353
Sum of atomic charges:   -0.0000000

LOEWDIN ATOMIC CHARGES
----------------------
   0 C :    0.083737
   1 C :   -0.141397
   2 C :   -0.019762
   3 N :   -0.052886
   4 C :   -0.025431
   5 N :   -0.060634
   6 C :   -0.018408
   7 C :   -0.056728
   8 C :    0.032673
   9 C :   -0.008978
  10 C :   -0.004296
  11 C :    0.019650
  12 C :   -0.006058
  13 C :   -0.012651
  14 C :   -0.013473
  15 C :   -0.009091
  16 C :    0.084546
  17 O :   -0.141683
  18 C :   -0.077446
  19 C :    0.050870
  20 C :   -0.035550
  21 C :    0.022613
  22 C :   -0.028035
  23 C :   -0.020209
  24 C :    0.014031
  25 C :    0.020349
  26 N :   -0.060073
  27 C :    0.056996
  28 C :    0.047941
  29 N :   -0.067254
  30 F :   -0.025617
  31 F :   -0.025756
  32 C :   -0.171099
  33 S :    0.477351
  34 C :   -0.177877
  35 C :   -0.214403
  36 C :   -0.204617
  37 S :    0.393597
  38 C :   -0.107318
  39 O :   -0.093330
  40 C :   -0.112972
  41 O :   -0.098287
  42 S :    0.394287
  43 C :   -0.034458
  44 C :   -0.012111
  45 C :    0.000892
  46 C :   -0.015919
  47 C :    0.036777
  48 C :   -0.046950
  49 C :    0.022947
  50 C :    0.020035
  51 N :   -0.069356
  52 C :    0.050179
  53 C :    0.052894
  54 N :   -0.068732
  55 F :   -0.026464
  56 F :   -0.026196
  57 C :    0.070284
  58 C :   -0.087304
  59 C :    0.074162
  60 C :   -0.134994
  61 C :   -0.017415
  62 N :   -0.051433
  63 C :   -0.024610
  64 N :   -0.049954
  65 C :   -0.025793
  66 C :   -0.056157
  67 C :    0.080998
  68 O :   -0.141156
  69 C :    0.032314
  70 C :   -0.008417
  71 C :   -0.005706
  72 C :    0.019915
  73 C :   -0.005123
  74 C :   -0.012546
  75 C :   -0.011817
  76 C :   -0.009479
  77 H :    0.039057
  78 H :    0.039304
  79 H :    0.034258
  80 H :    0.033137
  81 H :    0.032581
  82 H :    0.031552
  83 H :    0.047462
  84 H :    0.040799
  85 H :    0.027199
  86 H :    0.018978
  87 H :    0.049062
  88 H :    0.028267
  89 H :    0.026094
  90 H :    0.035353
  91 H :    0.039535
  92 H :    0.049310
  93 H :    0.041096
  94 H :    0.048260
  95 H :    0.038706
  96 H :    0.039381
  97 H :    0.035087
  98 H :    0.033827
  99 H :    0.033150
 100 H :    0.031916

  Mayer bond orders larger than 0.100000
B(  0-C ,  1-C ) :   1.6630 B(  0-C ,  6-C ) :   1.0005 B(  0-C , 18-C ) :   1.0111
B(  1-C ,  2-C ) :   1.1360 B(  1-C ,  4-C ) :   1.1603 B(  2-C ,  3-N ) :   2.9974
B(  4-C ,  5-N ) :   2.9910 B(  6-C ,  7-C ) :   1.2151 B(  6-C , 11-C ) :   1.4644
B(  7-C ,  8-C ) :   1.4693 B(  7-C , 16-C ) :   0.9191 B(  8-C ,  9-C ) :   1.1872
B(  8-C , 77-H ) :   1.0153 B(  9-C , 10-C ) :   1.2569 B(  9-C , 15-C ) :   1.2443
B( 10-C , 11-C ) :   1.1999 B( 10-C , 12-C ) :   1.2408 B( 11-C , 78-H ) :   0.9966
B( 12-C , 13-C ) :   1.4889 B( 12-C , 79-H ) :   0.9975 B( 13-C , 14-C ) :   1.2604
B( 13-C , 80-H ) :   0.9891 B( 14-C , 15-C ) :   1.4906 B( 14-C , 81-H ) :   0.9886
B( 15-C , 82-H ) :   0.9970 B( 16-C , 17-O ) :   2.2743 B( 16-C , 18-C ) :   0.9342
B( 18-C , 19-C ) :   1.6570 B( 19-C , 20-C ) :   1.1370 B( 19-C , 83-H ) :   0.9477
B( 20-C , 21-C ) :   1.6518 B( 20-C , 25-C ) :   0.9402 B( 21-C , 22-C ) :   1.1222
B( 21-C , 84-H ) :   0.9836 B( 22-C , 23-C ) :   1.6501 B( 22-C , 85-H ) :   0.9738
B( 23-C , 24-C ) :   0.9950 B( 23-C , 32-C ) :   1.1438 B( 24-C , 25-C ) :   0.9986
B( 24-C , 29-N ) :   1.0287 B( 24-C , 86-H ) :   0.8793 B( 25-C , 26-N ) :   1.0025
B( 25-C , 87-H ) :   0.8635 B( 26-N , 27-C ) :   1.9150 B( 27-C , 28-C ) :   0.9299
B( 27-C , 31-F ) :   1.1702 B( 28-C , 29-N ) :   1.9443 B( 28-C , 30-F ) :   1.1748
B( 32-C , 33-S ) :   1.1312 B( 32-C , 34-C ) :   0.1076 B( 32-C , 36-C ) :   1.5363
B( 33-S , 34-C ) :   1.1206 B( 34-C , 35-C ) :   1.5314 B( 34-C , 43-C ) :   1.1712
B( 35-C , 36-C ) :   1.2982 B( 35-C , 42-S ) :   0.9724 B( 36-C , 37-S ) :   0.9610
B( 37-S , 38-C ) :   1.0418 B( 37-S , 39-O ) :   0.1379 B( 38-C , 39-O ) :   2.1724
B( 38-C , 40-C ) :   0.7722 B( 40-C , 41-O ) :   2.1612 B( 40-C , 42-S ) :   1.0547
B( 41-O , 42-S ) :   0.1411 B( 43-C , 44-C ) :   1.6394 B( 43-C , 88-H ) :   0.9415
B( 44-C , 45-C ) :   1.1604 B( 44-C , 89-H ) :   0.9848 B( 45-C , 46-C ) :   1.6297
B( 45-C , 50-C ) :   0.9699 B( 46-C , 47-C ) :   1.1246 B( 46-C , 90-H ) :   0.9903
B( 47-C , 48-C ) :   1.6749 B( 47-C , 91-H ) :   0.9698 B( 48-C , 49-C ) :   0.9393
B( 48-C , 57-C ) :   1.1463 B( 49-C , 50-C ) :   0.9845 B( 49-C , 54-N ) :   1.0215
B( 49-C , 92-H ) :   0.8789 B( 50-C , 51-N ) :   1.0188 B( 50-C , 93-H ) :   0.8910
B( 51-N , 52-C ) :   1.9515 B( 52-C , 53-C ) :   0.9295 B( 52-C , 56-F ) :   1.1723
B( 53-C , 54-N ) :   1.9362 B( 53-C , 55-F ) :   1.1715 B( 57-C , 58-C ) :   1.6221
B( 57-C , 94-H ) :   0.9407 B( 58-C , 59-C ) :   1.0462 B( 58-C , 67-C ) :   0.9383
B( 59-C , 60-C ) :   1.6583 B( 59-C , 65-C ) :   0.9957 B( 60-C , 61-C ) :   1.1383
B( 60-C , 63-C ) :   1.1391 B( 61-C , 62-N ) :   2.9728 B( 63-C , 64-N ) :   3.0046
B( 65-C , 66-C ) :   1.2110 B( 65-C , 72-C ) :   1.4507 B( 66-C , 67-C ) :   0.9468
B( 66-C , 69-C ) :   1.4711 B( 67-C , 68-O ) :   2.2177 B( 69-C , 70-C ) :   1.1810
B( 69-C , 95-H ) :   1.0164 B( 70-C , 71-C ) :   1.2567 B( 70-C , 76-C ) :   1.2441
B( 71-C , 72-C ) :   1.2050 B( 71-C , 73-C ) :   1.2402 B( 72-C , 96-H ) :   0.9916
B( 73-C , 74-C ) :   1.4894 B( 73-C , 97-H ) :   0.9974 B( 74-C , 75-C ) :   1.2602
B( 74-C , 98-H ) :   0.9882 B( 75-C , 76-C ) :   1.4900 B( 75-C , 99-H ) :   0.9884
B( 76-C ,100-H ) :   0.9976

-----------------------------------------------------------------------------
         ABSORPTION SPECTRUM VIA TRANSITION ELECTRIC DIPOLE MOMENTS
-----------------------------------------------------------------------------
State   Energy  Wavelength   fosc         T2         TX        TY        TZ
        (cm-1)    (nm)                  (au**2)     (au)      (au)      (au)
-----------------------------------------------------------------------------
   0   16681.5    599.5   1.931888003  38.12618   5.32483  -1.97892  -2.41998
   1   20910.9    478.2   0.130344886   2.05209   0.12728   1.42226   0.11432
   2   24281.9    411.8   0.011427714   0.15494  -0.35154   0.00954  -0.17683
   3   25104.4    398.3   0.035780684   0.46922  -0.24524   0.18463   0.61236
   4   25481.7    392.4   0.003202539   0.04138   0.07365   0.08417  -0.16990
   5   25955.9    385.3   0.038165863   0.48408  -0.41903  -0.27444  -0.48288
   6   26583.2    376.2   0.018692868   0.23150   0.43990   0.01647  -0.19420
   7   26706.6    374.4   0.013588987   0.16751  -0.23664   0.13260   0.30648
   8   26981.1    370.6   0.032663503   0.39855   0.31814  -0.52953   0.13013
   9   27399.2    365.0   0.005447260   0.06545   0.23862  -0.02993   0.08726
  10   27465.2    364.1   0.055043316   0.65978  -0.34812  -0.73388  -0.00401
  11   28769.6    347.6   0.013562161   0.15519   0.17800   0.22294  -0.27167
  12   28837.7    346.8   0.083525206   0.95353  -0.15553  -0.95004  -0.16360
  13   29002.9    344.8   0.059985330   0.68089  -0.20953  -0.57441   0.55411
  14   29636.0    337.4   0.207707465   2.30732  -0.11523  -0.94017  -1.18748
  15   30900.6    323.6   0.388560238   4.13968   1.82618   0.88746  -0.13095
  16   31281.3    319.7   0.170629881   1.79575  -1.01792   0.76556   0.41654
  17   32429.6    308.4   0.072730269   0.73833   0.15839  -0.18229  -0.82463
  18   32631.0    306.5   0.219407640   2.21359   0.02176   0.80348   1.25201
  19   32964.3    303.4   0.200131164   1.99870   1.37883  -0.31059  -0.03234
  20   33290.1    300.4   0.518555538   5.12808   1.41808   1.18346   1.31017
  21   33518.6    298.3   0.097550953   0.95812  -0.60921   0.36539   0.67340
  22   33717.2    296.6   0.123844402   1.20921   0.05253  -0.31879  -1.05110
  23   34157.0    292.8   0.047336878   0.45624  -0.24146  -0.36065   0.51756
  24   34190.4    292.5   0.077479720   0.74604   0.06231   0.20636  -0.83640
  25   34464.0    290.2   0.034507512   0.32963  -0.34558  -0.35504   0.29008
  26   34822.5    287.2   0.006087516   0.05755  -0.15307  -0.00429  -0.18467
  27   35027.2    285.5   0.073052769   0.68661  -0.12345  -0.52993   0.62493
  28   35185.5    284.2   0.005818148   0.05444   0.06413   0.17897   0.13526
  29   35303.8    283.3   0.013001847   0.12124   0.15056   0.31361   0.01497
  30   35631.6    280.6   0.017468914   0.16140  -0.38355   0.10871  -0.04977
  31   36244.8    275.9   0.023785229   0.21604   0.31209   0.27021   0.21361
  32   36510.8    273.9   0.302454057   2.72718  -0.11537   0.05269   1.64654
  33   36662.1    272.8   0.062840363   0.56428   0.05133   0.25059  -0.70629
  34   36958.4    270.6   0.044532592   0.39668  -0.09807  -0.18669   0.59347
  35   37058.9    269.8   0.122946640   1.09219   0.22403   1.01700  -0.08789
  36   37219.3    268.7   0.024592353   0.21752  -0.22428   0.19409   0.35993
  37   37333.1    267.9   0.059262236   0.52259  -0.65451  -0.05400   0.30213
  38   37426.4    267.2   0.028054842   0.24678   0.09014  -0.43268  -0.22680
  39   37635.7    265.7   0.158129806   1.38321   0.34042   0.76020   0.83032
  40   37827.7    264.4   0.023799968   0.20713   0.33083   0.30483   0.06897
  41   38095.8    262.5   0.356380261   3.07973   0.06617  -0.71564  -1.60101
  42   38637.5    258.8   0.005337772   0.04548   0.12842  -0.13183  -0.10775
  43   38799.9    257.7   0.030411311   0.25804  -0.06543  -0.36415  -0.34807
  44   39063.5    256.0   0.018886657   0.15917  -0.17566   0.17686   0.31150
  45   39302.9    254.4   0.037665853   0.31550  -0.25544   0.40275   0.29671
  46   39370.1    254.0   0.054451321   0.45532   0.42682   0.08696  -0.51534
  47   39700.9    251.9   0.107222557   0.88912  -0.59952  -0.64423  -0.33861
  48   39942.7    250.4   0.030076683   0.24790   0.07899   0.27597  -0.40681
  49   39973.4    250.2   0.058715150   0.48356   0.15127  -0.56328  -0.37868
  50   40258.0    248.4   0.085995614   0.70323   0.34705   0.73475  -0.20721
  51   40295.9    248.2   0.024703931   0.20183  -0.35679  -0.23084   0.14574

FINAL SINGLE POINT ENERGY     -4552.785628768595

DIPOLE MOMENT
-------------
                                X             Y             Z
Electronic contribution:     13.68965      28.94332      -4.57424
Nuclear contribution   :    -15.24288     -31.66841       2.79065
                        -----------------------------------------
Total Dipole Moment    :     -1.55322      -2.72509      -1.78360
                        -----------------------------------------
Magnitude (a.u.)       :      3.60830
Magnitude (Debye)      :      9.17157

Rotational constants in cm-1:     0.001724     0.000231     0.000220
Rotational constants in MHz :    51.697421     6.928576     6.589506

                             ****ORCA TERMINATED NORMALLY****
TOTAL RUN TIME: 0 days 0 hours 17 minutes 5 seconds 591 msec
