                         Program Version 4.2.0 -  RELEASE  -
|  1> # ORCA input file
|  2> # SCF done       -200.455464241774          0.000289240149
|  3> ! CAM-B3LYP def2-SVP def2/J RIJCOSX Grid4 TightSCF
|  4> %maxcore 5000
|  5> %tddft
|  6>     Mode sTDDFT
|  7>     Ethresh 5.0
|  8>     maxcore 5000
|  9> end
| 10>
| 11> %pal
| 12>   nprocs 6
| 13>   end
| 14> * xyz 0 1
| 15>    C        2.31400         0.69811         1.12241
| 16>    C        1.61895        -0.46388         1.32314
| 17>    C        2.22113        -1.70007         1.63966
| 18>    N        2.65331        -2.73272         1.89379
| 19>    C        0.21286        -0.58370         1.28639
| 20>    N       -0.92161        -0.75840         1.30446
| 21>    C        3.75305         0.86754         1.26949
| 22>    C        4.06414         2.25078         1.13725
| 23>    C        5.34482         2.71298         1.23750
| 24>    C        6.39208         1.79766         1.48524
| 25>    C        6.08944         0.41111         1.61232
| 26>    C        4.75473        -0.03935         1.49835
| 27>    C        7.14297        -0.49477         1.85227
| 28>    C        8.43342        -0.05416         1.96373
| 29>    C        8.73030         1.31142         1.83904
| 30>    C        7.73157         2.21731         1.60544
| 31>    C        2.83395         3.01471         0.86061
| 32>    O        2.76412         4.19534         0.60255
| 33>    C        1.73798         2.00238         0.83381
| 34>    C        0.46937         2.24621         0.42429
| 35>    C       -0.12366         3.55058         0.30876
| 36>    C       -1.02860         3.85879        -0.69695
| 37>    F       -1.32877         2.91787        -1.60697
| 38>    C       -1.61840         5.12513        -0.85266
| 39>    F       -2.49840         5.25930        -1.85585
| 40>    C       -1.37374         6.17706         0.01350
| 41>    C       -0.52520         5.86726         1.09628
| 42>    C        0.09260         4.58861         1.24117
| 43>    N        0.79752         4.61117         2.37858
| 44>    N        0.62310         5.81718         2.83979
| 45>    N       -0.13917         6.61202         2.14451
| 46>    C        1.24961         6.25467         4.04838
| 47>    C       -1.93162         7.51405        -0.15967
| 48>    C       -2.45537         8.21509         0.90743
| 49>    C       -3.03139         9.47275         0.73734
| 50>    C       -3.09965        10.06925        -0.50483
| 51>    C       -2.49558         9.41375        -1.60886
| 52>    C       -1.91315         8.13231        -1.43707
| 53>    N       -1.29535         7.52908        -2.47075
| 54>    C       -1.29026         8.11507        -3.63735
| 55>    C       -1.87357         9.40728        -3.80946
| 56>    N       -2.42680        10.03051        -2.80450
| 57>    C       -1.84211        10.11147        -5.12301
| 58>    C       -0.62105         7.40281        -4.76286
| 59>    C       -3.73980        11.36835        -0.68744
| 60>    C       -4.59111        11.66925        -1.73509
| 61>    F       -4.96051        10.71813        -2.60370
| 62>    C       -5.15600        12.94553        -1.92847
| 63>    F       -5.88599        13.12108        -3.03773
| 64>    C       -4.91477        14.01847        -1.08549
| 65>    C       -4.03969        13.73691        -0.01361
| 66>    C       -3.48702        12.43861         0.19552
| 67>    N       -2.71980        12.50947         1.29471
| 68>    N       -2.82731        13.74835         1.68496
| 69>    N       -3.58878        14.52871         0.96791
| 70>    C       -2.15368        14.22586         2.85276
| 71>    C       -5.42261        15.35238        -1.28039
| 72>    C       -6.67741        15.66469        -1.67964
| 73>    C       -7.18139        16.98235        -2.03827
| 74>    C       -6.44479        18.12986        -2.16102
| 75>    C       -6.98308        19.38116        -2.53035
| 76>    N       -7.35504        20.42855        -2.81764
| 77>    C       -5.05442        18.23819        -1.94508
| 78>    N       -3.92905        18.41533        -1.80039
| 79>    C       -8.60707        16.85272        -2.30844
| 80>    C       -8.99432        15.49759        -2.10212
| 81>    C       -7.82782        14.70989        -1.67049
| 82>    O       -7.82434        13.56410        -1.28337
| 83>    C      -10.27888        15.07676        -2.29268
| 84>    C      -11.25330        16.00739        -2.71695
| 85>    C      -10.87599        17.36631        -2.92120
| 86>    C       -9.54020        17.77438        -2.70783
| 87>    C      -11.85716        18.28783        -3.34156
| 88>    C      -13.14803        17.88755        -3.55369
| 89>    C      -13.51792        16.54880        -3.35434
| 90>    C      -12.59104        15.62902        -2.94487
| 91>    H        5.55651         3.76654         1.12955
| 92>    H        4.55871        -1.09602         1.58854
| 93>    H        6.90906        -1.54490         1.94807
| 94>    H        9.23328        -0.75555         2.14819
| 95>    H        9.75449         1.64158         1.92838
| 96>    H        7.95466         3.26979         1.50749
| 97>    H       -0.16764         1.41978         0.13220
| 98>    H        1.02325         5.55598         4.85346
| 99>    H        0.87119         7.24633         4.28413
|100>    H        2.33087         6.29097         3.90968
|101>    H       -2.44364         7.76448         1.88734
|102>    H       -3.45981         9.98003         1.58745
|103>    H       -0.81523        10.26069        -5.45392
|104>    H       -2.33493        11.07442        -5.02591
|105>    H       -2.35712         9.51885        -5.87741
|106>    H       -0.23332         6.45305        -4.40633
|107>    H        0.19566         8.00123        -5.16410
|108>    H       -1.33311         7.22138        -5.56647
|109>    H       -1.35332        13.53013         3.09343
|110>    H       -2.85086        14.28639         3.69048
|111>    H       -1.75622        15.21976         2.65426
|112>    H       -4.71404        16.13621        -1.04576
|113>    H      -10.54553        14.04310        -2.12977
|114>    H       -9.28787        18.81068        -2.86719
|115>    H      -11.56690        19.31693        -3.49484
|116>    H      -13.89184        18.60023        -3.87717
|117>    H      -14.54115        16.25032        -3.52708
|118>    H      -12.87003        14.59706        -2.78998
|119> *
|120>
|121>                          ****END OF INPUT****

CARTESIAN COORDINATES (ANGSTROEM)
---------------------------------
  C      2.314000    0.698110    1.122410
  C      1.618950   -0.463880    1.323140
  C      2.221130   -1.700070    1.639660
  N      2.653310   -2.732720    1.893790
  C      0.212860   -0.583700    1.286390
  N     -0.921610   -0.758400    1.304460
  C      3.753050    0.867540    1.269490
  C      4.064140    2.250780    1.137250
  C      5.344820    2.712980    1.237500
  C      6.392080    1.797660    1.485240
  C      6.089440    0.411110    1.612320
  C      4.754730   -0.039350    1.498350
  C      7.142970   -0.494770    1.852270
  C      8.433420   -0.054160    1.963730
  C      8.730300    1.311420    1.839040
  C      7.731570    2.217310    1.605440
  C      2.833950    3.014710    0.860610
  O      2.764120    4.195340    0.602550
  C      1.737980    2.002380    0.833810
  C      0.469370    2.246210    0.424290
  C     -0.123660    3.550580    0.308760
  C     -1.028600    3.858790   -0.696950
  F     -1.328770    2.917870   -1.606970
  C     -1.618400    5.125130   -0.852660
  F     -2.498400    5.259300   -1.855850
  C     -1.373740    6.177060    0.013500
  C     -0.525200    5.867260    1.096280
  C      0.092600    4.588610    1.241170
  N      0.797520    4.611170    2.378580
  N      0.623100    5.817180    2.839790
  N     -0.139170    6.612020    2.144510
  C      1.249610    6.254670    4.048380
  C     -1.931620    7.514050   -0.159670
  C     -2.455370    8.215090    0.907430
  C     -3.031390    9.472750    0.737340
  C     -3.099650   10.069250   -0.504830
  C     -2.495580    9.413750   -1.608860
  C     -1.913150    8.132310   -1.437070
  N     -1.295350    7.529080   -2.470750
  C     -1.290260    8.115070   -3.637350
  C     -1.873570    9.407280   -3.809460
  N     -2.426800   10.030510   -2.804500
  C     -1.842110   10.111470   -5.123010
  C     -0.621050    7.402810   -4.762860
  C     -3.739800   11.368350   -0.687440
  C     -4.591110   11.669250   -1.735090
  F     -4.960510   10.718130   -2.603700
  C     -5.156000   12.945530   -1.928470
  F     -5.885990   13.121080   -3.037730
  C     -4.914770   14.018470   -1.085490
  C     -4.039690   13.736910   -0.013610
  C     -3.487020   12.438610    0.195520
  N     -2.719800   12.509470    1.294710
  N     -2.827310   13.748350    1.684960
  N     -3.588780   14.528710    0.967910
  C     -2.153680   14.225860    2.852760
  C     -5.422610   15.352380   -1.280390
  C     -6.677410   15.664690   -1.679640
  C     -7.181390   16.982350   -2.038270
  C     -6.444790   18.129860   -2.161020
  C     -6.983080   19.381160   -2.530350
  N     -7.355040   20.428550   -2.817640
  C     -5.054420   18.238190   -1.945080
  N     -3.929050   18.415330   -1.800390
  C     -8.607070   16.852720   -2.308440
  C     -8.994320   15.497590   -2.102120
  C     -7.827820   14.709890   -1.670490
  O     -7.824340   13.564100   -1.283370
  C    -10.278880   15.076760   -2.292680
  C    -11.253300   16.007390   -2.716950
  C    -10.875990   17.366310   -2.921200
  C     -9.540200   17.774380   -2.707830
  C    -11.857160   18.287830   -3.341560
  C    -13.148030   17.887550   -3.553690
  C    -13.517920   16.548800   -3.354340
  C    -12.591040   15.629020   -2.944870
  H      5.556510    3.766540    1.129550
  H      4.558710   -1.096020    1.588540
  H      6.909060   -1.544900    1.948070
  H      9.233280   -0.755550    2.148190
  H      9.754490    1.641580    1.928380
  H      7.954660    3.269790    1.507490
  H     -0.167640    1.419780    0.132200
  H      1.023250    5.555980    4.853460
  H      0.871190    7.246330    4.284130
  H      2.330870    6.290970    3.909680
  H     -2.443640    7.764480    1.887340
  H     -3.459810    9.980030    1.587450
  H     -0.815230   10.260690   -5.453920
  H     -2.334930   11.074420   -5.025910
  H     -2.357120    9.518850   -5.877410
  H     -0.233320    6.453050   -4.406330
  H      0.195660    8.001230   -5.164100
  H     -1.333110    7.221380   -5.566470
  H     -1.353320   13.530130    3.093430
  H     -2.850860   14.286390    3.690480
  H     -1.756220   15.219760    2.654260
  H     -4.714040   16.136210   -1.045760
  H    -10.545530   14.043100   -2.129770
  H     -9.287870   18.810680   -2.867190
  H    -11.566900   19.316930   -3.494840
  H    -13.891840   18.600230   -3.877170
  H    -14.541150   16.250320   -3.527080
  H    -12.870030   14.597060   -2.789980

 Total Charge           Charge          ....    0
 Multiplicity           Mult            ....    1
 Number of Electrons    NEL             ....  512
 Basis Dimension        Dim             .... 1204

ORBITAL ENERGIES
----------------

  NO   OCC          E(Eh)            E(eV)
   0   2.0000     -24.796552      -674.7485
   1   2.0000     -24.792039      -674.6257
   2   2.0000     -24.783042      -674.3809
   3   2.0000     -24.781870      -674.3490
   4   2.0000     -19.212134      -522.7887
   5   2.0000     -19.210824      -522.7531
   6   2.0000     -14.545193      -395.7948
   7   2.0000     -14.543511      -395.7490
   8   2.0000     -14.446796      -393.1173
   9   2.0000     -14.444898      -393.0657
  10   2.0000     -14.444243      -393.0478
  11   2.0000     -14.440261      -392.9395
  12   2.0000     -14.413753      -392.2182
  13   2.0000     -14.413620      -392.2145
  14   2.0000     -14.413496      -392.2112
  15   2.0000     -14.412561      -392.1857
  16   2.0000     -14.410453      -392.1284
  17   2.0000     -14.410319      -392.1247
  18   2.0000     -10.378049      -282.4011
  19   2.0000     -10.376460      -282.3578
  20   2.0000     -10.368814      -282.1498
  21   2.0000     -10.367841      -282.1233
  22   2.0000     -10.362969      -281.9907
  23   2.0000     -10.362373      -281.9745
  24   2.0000     -10.341022      -281.3935
  25   2.0000     -10.340982      -281.3924
  26   2.0000     -10.338476      -281.3242
  27   2.0000     -10.337911      -281.3089
  28   2.0000     -10.325013      -280.9579
  29   2.0000     -10.323933      -280.9285
  30   2.0000     -10.317191      -280.7450
  31   2.0000     -10.316580      -280.7284
  32   2.0000     -10.316356      -280.7223
  33   2.0000     -10.316226      -280.7188
  34   2.0000     -10.316202      -280.7181
  35   2.0000     -10.316143      -280.7165
  36   2.0000     -10.316041      -280.7137
  37   2.0000     -10.315020      -280.6860
  38   2.0000     -10.311158      -280.5809
  39   2.0000     -10.310002      -280.5494
  40   2.0000     -10.309374      -280.5323
  41   2.0000     -10.308965      -280.5212
  42   2.0000     -10.308631      -280.5121
  43   2.0000     -10.308135      -280.4986
  44   2.0000     -10.306676      -280.4589
  45   2.0000     -10.304828      -280.4086
  46   2.0000     -10.303393      -280.3696
  47   2.0000     -10.302359      -280.3414
  48   2.0000     -10.300925      -280.3024
  49   2.0000     -10.300873      -280.3010
  50   2.0000     -10.298223      -280.2289
  51   2.0000     -10.297902      -280.2202
  52   2.0000     -10.296770      -280.1893
  53   2.0000     -10.296380      -280.1787
  54   2.0000     -10.295992      -280.1682
  55   2.0000     -10.295735      -280.1612
  56   2.0000     -10.295355      -280.1508
  57   2.0000     -10.294911      -280.1388
  58   2.0000     -10.294581      -280.1298
  59   2.0000     -10.294073      -280.1160
  60   2.0000     -10.291764      -280.0531
  61   2.0000     -10.291669      -280.0505
  62   2.0000     -10.286474      -279.9092
  63   2.0000     -10.286133      -279.8999
  64   2.0000     -10.286032      -279.8972
  65   2.0000     -10.285499      -279.8826
  66   2.0000     -10.285167      -279.8736
  67   2.0000     -10.285157      -279.8733
  68   2.0000     -10.284657      -279.8598
  69   2.0000     -10.284456      -279.8543
  70   2.0000     -10.284276      -279.8494
  71   2.0000     -10.283810      -279.8367
  72   2.0000     -10.280457      -279.7455
  73   2.0000     -10.280102      -279.7358
  74   2.0000     -10.265189      -279.3300
  75   2.0000     -10.265103      -279.3276
  76   2.0000      -1.315186       -35.7880
  77   2.0000      -1.312541       -35.7161
  78   2.0000      -1.294008       -35.2118
  79   2.0000      -1.292286       -35.1649
  80   2.0000      -1.223123       -33.2829
  81   2.0000      -1.221242       -33.2317
  82   2.0000      -1.127552       -30.6822
  83   2.0000      -1.126154       -30.6442
  84   2.0000      -1.073429       -29.2095
  85   2.0000      -1.016081       -27.6490
  86   2.0000      -1.015897       -27.6440
  87   2.0000      -0.999606       -27.2007
  88   2.0000      -0.997106       -27.1326
  89   2.0000      -0.996363       -27.1124
  90   2.0000      -0.995966       -27.1016
  91   2.0000      -0.994407       -27.0592
  92   2.0000      -0.992584       -27.0096
  93   2.0000      -0.991721       -26.9861
  94   2.0000      -0.991180       -26.9714
  95   2.0000      -0.988394       -26.8956
  96   2.0000      -0.969566       -26.3832
  97   2.0000      -0.969049       -26.3692
  98   2.0000      -0.956009       -26.0143
  99   2.0000      -0.931106       -25.3367
 100   2.0000      -0.930624       -25.3236
 101   2.0000      -0.923291       -25.1240
 102   2.0000      -0.921113       -25.0648
 103   2.0000      -0.911544       -24.8044
 104   2.0000      -0.902767       -24.5655
 105   2.0000      -0.889493       -24.2043
 106   2.0000      -0.883495       -24.0411
 107   2.0000      -0.880132       -23.9496
 108   2.0000      -0.879331       -23.9278
 109   2.0000      -0.877659       -23.8823
 110   2.0000      -0.864826       -23.5331
 111   2.0000      -0.844714       -22.9858
 112   2.0000      -0.828766       -22.5519
 113   2.0000      -0.826786       -22.4980
 114   2.0000      -0.826339       -22.4858
 115   2.0000      -0.817972       -22.2581
 116   2.0000      -0.817129       -22.2352
 117   2.0000      -0.804773       -21.8990
 118   2.0000      -0.801770       -21.8173
 119   2.0000      -0.791319       -21.5329
 120   2.0000      -0.781875       -21.2759
 121   2.0000      -0.759291       -20.6614
 122   2.0000      -0.759114       -20.6566
 123   2.0000      -0.750216       -20.4144
 124   2.0000      -0.739546       -20.1241
 125   2.0000      -0.737995       -20.0819
 126   2.0000      -0.734376       -19.9834
 127   2.0000      -0.712613       -19.3912
 128   2.0000      -0.712066       -19.3763
 129   2.0000      -0.710796       -19.3418
 130   2.0000      -0.709415       -19.3042
 131   2.0000      -0.703080       -19.1318
 132   2.0000      -0.702061       -19.1041
 133   2.0000      -0.701635       -19.0924
 134   2.0000      -0.693479       -18.8705
 135   2.0000      -0.691194       -18.8083
 136   2.0000      -0.676598       -18.4112
 137   2.0000      -0.674178       -18.3453
 138   2.0000      -0.666156       -18.1270
 139   2.0000      -0.658119       -17.9083
 140   2.0000      -0.650419       -17.6988
 141   2.0000      -0.648359       -17.6427
 142   2.0000      -0.647177       -17.6106
 143   2.0000      -0.640827       -17.4378
 144   2.0000      -0.633495       -17.2383
 145   2.0000      -0.631731       -17.1903
 146   2.0000      -0.623367       -16.9627
 147   2.0000      -0.620382       -16.8814
 148   2.0000      -0.619330       -16.8528
 149   2.0000      -0.613125       -16.6840
 150   2.0000      -0.611785       -16.6475
 151   2.0000      -0.607264       -16.5245
 152   2.0000      -0.606915       -16.5150
 153   2.0000      -0.604971       -16.4621
 154   2.0000      -0.604631       -16.4529
 155   2.0000      -0.602355       -16.3909
 156   2.0000      -0.590896       -16.0791
 157   2.0000      -0.588024       -16.0010
 158   2.0000      -0.587074       -15.9751
 159   2.0000      -0.577002       -15.7010
 160   2.0000      -0.574200       -15.6248
 161   2.0000      -0.569712       -15.5027
 162   2.0000      -0.566491       -15.4150
 163   2.0000      -0.565153       -15.3786
 164   2.0000      -0.556476       -15.1425
 165   2.0000      -0.550305       -14.9746
 166   2.0000      -0.548244       -14.9185
 167   2.0000      -0.547078       -14.8867
 168   2.0000      -0.546608       -14.8740
 169   2.0000      -0.544327       -14.8119
 170   2.0000      -0.544286       -14.8108
 171   2.0000      -0.542520       -14.7627
 172   2.0000      -0.537973       -14.6390
 173   2.0000      -0.535454       -14.5704
 174   2.0000      -0.533019       -14.5042
 175   2.0000      -0.531996       -14.4763
 176   2.0000      -0.531145       -14.4532
 177   2.0000      -0.529740       -14.4149
 178   2.0000      -0.526238       -14.3197
 179   2.0000      -0.521000       -14.1771
 180   2.0000      -0.516169       -14.0457
 181   2.0000      -0.516096       -14.0437
 182   2.0000      -0.512366       -13.9422
 183   2.0000      -0.510845       -13.9008
 184   2.0000      -0.510639       -13.8952
 185   2.0000      -0.508569       -13.8389
 186   2.0000      -0.507666       -13.8143
 187   2.0000      -0.505805       -13.7637
 188   2.0000      -0.503428       -13.6990
 189   2.0000      -0.501115       -13.6360
 190   2.0000      -0.500533       -13.6202
 191   2.0000      -0.495921       -13.4947
 192   2.0000      -0.494719       -13.4620
 193   2.0000      -0.493599       -13.4315
 194   2.0000      -0.492269       -13.3953
 195   2.0000      -0.488885       -13.3032
 196   2.0000      -0.488543       -13.2939
 197   2.0000      -0.486455       -13.2371
 198   2.0000      -0.486074       -13.2268
 199   2.0000      -0.484161       -13.1747
 200   2.0000      -0.482374       -13.1261
 201   2.0000      -0.479440       -13.0462
 202   2.0000      -0.474423       -12.9097
 203   2.0000      -0.471705       -12.8357
 204   2.0000      -0.469257       -12.7691
 205   2.0000      -0.464714       -12.6455
 206   2.0000      -0.463360       -12.6087
 207   2.0000      -0.460145       -12.5212
 208   2.0000      -0.453811       -12.3488
 209   2.0000      -0.447000       -12.1635
 210   2.0000      -0.446798       -12.1580
 211   2.0000      -0.442494       -12.0409
 212   2.0000      -0.442253       -12.0343
 213   2.0000      -0.441952       -12.0261
 214   2.0000      -0.440155       -11.9772
 215   2.0000      -0.439066       -11.9476
 216   2.0000      -0.432841       -11.7782
 217   2.0000      -0.432572       -11.7709
 218   2.0000      -0.431814       -11.7503
 219   2.0000      -0.430896       -11.7253
 220   2.0000      -0.429992       -11.7007
 221   2.0000      -0.428349       -11.6560
 222   2.0000      -0.424884       -11.5617
 223   2.0000      -0.424761       -11.5583
 224   2.0000      -0.421071       -11.4579
 225   2.0000      -0.419144       -11.4055
 226   2.0000      -0.417344       -11.3565
 227   2.0000      -0.416934       -11.3453
 228   2.0000      -0.407051       -11.0764
 229   2.0000      -0.405763       -11.0414
 230   2.0000      -0.401749       -10.9321
 231   2.0000      -0.398699       -10.8492
 232   2.0000      -0.397293       -10.8109
 233   2.0000      -0.393696       -10.7130
 234   2.0000      -0.390364       -10.6223
 235   2.0000      -0.389310       -10.5937
 236   2.0000      -0.378757       -10.3065
 237   2.0000      -0.375202       -10.2098
 238   2.0000      -0.374051       -10.1785
 239   2.0000      -0.372216       -10.1285
 240   2.0000      -0.369039       -10.0421
 241   2.0000      -0.345218        -9.3939
 242   2.0000      -0.342695        -9.3252
 243   2.0000      -0.336350        -9.1525
 244   2.0000      -0.330654        -8.9976
 245   2.0000      -0.320779        -8.7288
 246   2.0000      -0.316077        -8.6009
 247   2.0000      -0.314858        -8.5677
 248   2.0000      -0.313176        -8.5219
 249   2.0000      -0.312779        -8.5112
 250   2.0000      -0.312458        -8.5024
 251   2.0000      -0.310865        -8.4591
 252   2.0000      -0.295793        -8.0489
 253   2.0000      -0.292498        -7.9593
 254   2.0000      -0.285370        -7.7653
 255   2.0000      -0.267803        -7.2873
 256   0.0000      -0.094618        -2.5747
 257   0.0000      -0.089471        -2.4346
 258   0.0000      -0.057902        -1.5756
 259   0.0000      -0.053962        -1.4684
 260   0.0000      -0.042459        -1.1554

MULLIKEN ATOMIC CHARGES
-----------------------
   0 C :    0.305287
   1 C :   -0.336406
   2 C :   -0.184479
   3 N :    0.151119
   4 C :   -0.206254
   5 N :    0.165267
   6 C :    0.046345
   7 C :   -0.007578
   8 C :   -0.081675
   9 C :    0.098836
  10 C :    0.095611
  11 C :   -0.083381
  12 C :   -0.019074
  13 C :    0.034133
  14 C :    0.036853
  15 C :   -0.017165
  16 C :    0.156706
  17 O :   -0.139962
  18 C :   -0.066809
  19 C :   -0.061941
  20 C :   -0.019876
  21 C :    0.173036
  22 F :   -0.165208
  23 C :    0.175994
  24 F :   -0.167966
  25 C :   -0.028506
  26 C :   -0.011522
  27 C :    0.015569
  28 N :   -0.053240
  29 N :   -0.075583
  30 N :   -0.045073
  31 C :    0.148033
  32 C :    0.048540
  33 C :   -0.016053
  34 C :   -0.009906
  35 C :    0.047675
  36 C :   -0.050615
  37 C :   -0.054790
  38 N :    0.029641
  39 C :   -0.175927
  40 C :   -0.177633
  41 N :    0.026999
  42 C :    0.132885
  43 C :    0.131090
  44 C :   -0.029325
  45 C :    0.181483
  46 F :   -0.165933
  47 C :    0.195627
  48 F :   -0.164238
  49 C :   -0.018909
  50 C :   -0.031006
  51 C :   -0.015563
  52 N :   -0.043779
  53 N :   -0.078205
  54 N :   -0.054243
  55 C :    0.146137
  56 C :   -0.046992
  57 C :   -0.076584
  58 C :    0.317826
  59 C :   -0.345644
  60 C :   -0.185082
  61 N :    0.150421
  62 C :   -0.195688
  63 N :    0.159357
  64 C :    0.049498
  65 C :   -0.006589
  66 C :    0.147861
  67 O :   -0.137951
  68 C :   -0.078071
  69 C :    0.098333
  70 C :    0.097974
  71 C :   -0.087050
  72 C :   -0.019180
  73 C :    0.036191
  74 C :    0.037769
  75 C :   -0.016804
  76 H :   -0.016801
  77 H :   -0.007642
  78 H :   -0.009229
  79 H :   -0.004470
  80 H :   -0.006239
  81 H :   -0.018659
  82 H :    0.042745
  83 H :    0.052869
  84 H :    0.049331
  85 H :    0.057984
  86 H :   -0.017404
  87 H :   -0.018097
  88 H :    0.024492
  89 H :    0.028255
  90 H :    0.025525
  91 H :    0.028774
  92 H :    0.024090
  93 H :    0.026394
  94 H :    0.053081
  95 H :    0.054943
  96 H :    0.057130
  97 H :    0.046645
  98 H :   -0.012606
  99 H :   -0.008423
 100 H :   -0.009784
 101 H :   -0.004633
 102 H :   -0.005620
 103 H :   -0.017290
Sum of atomic charges:   -0.0000000

LOEWDIN ATOMIC CHARGES
----------------------
   0 C :    0.075815
   1 C :   -0.132990
   2 C :   -0.016507
   3 N :   -0.052398
   4 C :   -0.024199
   5 N :   -0.046239
   6 C :   -0.026365
   7 C :   -0.052367
   8 C :    0.028815
   9 C :   -0.008002
  10 C :   -0.006904
  11 C :    0.019271
  12 C :   -0.005234
  13 C :   -0.014738
  14 C :   -0.012818
  15 C :   -0.010992
  16 C :    0.083133
  17 O :   -0.133614
  18 C :   -0.074706
  19 C :    0.081060
  20 C :   -0.069330
  21 C :    0.090121
  22 F :   -0.045683
  23 C :    0.063213
  24 F :   -0.044980
  25 C :   -0.020346
  26 C :   -0.048289
  27 C :   -0.034724
  28 N :   -0.085336
  29 N :    0.159669
  30 N :   -0.089781
  31 C :    0.033592
  32 C :   -0.016037
  33 C :    0.005627
  34 C :    0.004816
  35 C :   -0.014244
  36 C :   -0.006143
  37 C :   -0.005819
  38 N :   -0.043103
  39 C :    0.001633
  40 C :    0.001166
  41 N :   -0.043362
  42 C :   -0.052002
  43 C :   -0.052146
  44 C :   -0.027141
  45 C :    0.069888
  46 F :   -0.042640
  47 C :    0.094894
  48 F :   -0.036987
  49 C :   -0.070340
  50 C :   -0.043551
  51 C :   -0.049732
  52 N :   -0.088381
  53 N :    0.154820
  54 N :   -0.094518
  55 C :    0.033673
  56 C :    0.083744
  57 C :   -0.078940
  58 C :    0.075973
  59 C :   -0.133680
  60 C :   -0.016317
  61 N :   -0.052903
  62 C :   -0.021356
  63 N :   -0.047391
  64 C :   -0.026310
  65 C :   -0.053985
  66 C :    0.080970
  67 O :   -0.132447
  68 C :    0.032513
  69 C :   -0.007421
  70 C :   -0.006286
  71 C :    0.019697
  72 C :   -0.005233
  73 C :   -0.014054
  74 C :   -0.012032
  75 C :   -0.009489
  76 H :    0.037361
  77 H :    0.038845
  78 H :    0.034689
  79 H :    0.033123
  80 H :    0.032347
  81 H :    0.031180
  82 H :    0.048240
  83 H :    0.041150
  84 H :    0.041182
  85 H :    0.042766
  86 H :    0.032974
  87 H :    0.033305
  88 H :    0.037157
  89 H :    0.039628
  90 H :    0.038878
  91 H :    0.039667
  92 H :    0.037112
  93 H :    0.039104
  94 H :    0.042242
  95 H :    0.040830
  96 H :    0.043780
  97 H :    0.050349
  98 H :    0.039348
  99 H :    0.038793
 100 H :    0.034561
 101 H :    0.033201
 102 H :    0.032632
 103 H :    0.031985

  Mayer bond orders larger than 0.100000
B(  0-C ,  1-C ) :   1.6525 B(  0-C ,  6-C ) :   0.9964 B(  0-C , 18-C ) :   1.0481
B(  1-C ,  2-C ) :   1.1427 B(  1-C ,  4-C ) :   1.1401 B(  2-C ,  3-N ) :   2.9692
B(  4-C ,  5-N ) :   2.9940 B(  6-C ,  7-C ) :   1.2175 B(  6-C , 11-C ) :   1.4436
B(  7-C ,  8-C ) :   1.4758 B(  7-C , 16-C ) :   0.9436 B(  8-C ,  9-C ) :   1.1785
B(  8-C , 76-H ) :   1.0160 B(  9-C , 10-C ) :   1.2577 B(  9-C , 15-C ) :   1.2434
B( 10-C , 11-C ) :   1.2096 B( 10-C , 12-C ) :   1.2368 B( 11-C , 77-H ) :   0.9901
B( 12-C , 13-C ) :   1.4920 B( 12-C , 78-H ) :   0.9974 B( 13-C , 14-C ) :   1.2590
B( 13-C , 79-H ) :   0.9879 B( 14-C , 15-C ) :   1.4897 B( 14-C , 80-H ) :   0.9888
B( 15-C , 81-H ) :   0.9976 B( 16-C , 17-O ) :   2.2326 B( 16-C , 18-C ) :   0.9274
B( 18-C , 19-C ) :   1.6769 B( 19-C , 20-C ) :   1.0733 B( 19-C , 82-H ) :   0.9440
B( 20-C , 21-C ) :   1.3743 B( 20-C , 25-C ) :   0.1273 B( 20-C , 27-C ) :   1.1794
B( 21-C , 22-F ) :   1.1769 B( 21-C , 23-C ) :   1.1493 B( 23-C , 24-F ) :   1.1631
B( 23-C , 25-C ) :   1.4185 B( 25-C , 26-C ) :   1.2334 B( 25-C , 32-C ) :   0.9409
B( 26-C , 27-C ) :   1.2228 B( 26-C , 30-N ) :   1.4759 B( 27-C , 28-N ) :   1.4713
B( 28-N , 29-N ) :   1.2199 B( 28-N , 30-N ) :   0.1637 B( 29-N , 30-N ) :   1.2404
B( 29-N , 31-C ) :   0.9538 B( 31-C , 83-H ) :   0.9692 B( 31-C , 84-H ) :   0.9669
B( 31-C , 85-H ) :   0.9696 B( 32-C , 33-C ) :   1.4691 B( 32-C , 35-C ) :   0.1213
B( 32-C , 37-C ) :   1.2662 B( 33-C , 34-C ) :   1.2161 B( 33-C , 86-H ) :   1.0007
B( 34-C , 35-C ) :   1.4739 B( 34-C , 87-H ) :   1.0012 B( 35-C , 36-C ) :   1.2675
B( 35-C , 44-C ) :   0.9341 B( 36-C , 37-C ) :   1.2707 B( 36-C , 41-N ) :   1.4343
B( 37-C , 38-N ) :   1.4368 B( 38-N , 39-C ) :   1.7079 B( 39-C , 40-C ) :   1.1560
B( 39-C , 43-C ) :   1.0957 B( 40-C , 41-N ) :   1.7092 B( 40-C , 42-C ) :   1.0949
B( 42-C , 88-H ) :   0.9420 B( 42-C , 89-H ) :   0.9409 B( 42-C , 90-H ) :   0.9392
B( 43-C , 91-H ) :   0.9412 B( 43-C , 92-H ) :   0.9415 B( 43-C , 93-H ) :   0.9395
B( 44-C , 45-C ) :   1.4302 B( 44-C , 49-C ) :   0.1273 B( 44-C , 51-C ) :   1.2283
B( 45-C , 46-F ) :   1.1642 B( 45-C , 47-C ) :   1.1478 B( 47-C , 48-F ) :   1.1569
B( 47-C , 49-C ) :   1.3854 B( 49-C , 50-C ) :   1.1784 B( 49-C , 56-C ) :   1.0670
B( 50-C , 51-C ) :   1.2162 B( 50-C , 54-N ) :   1.5040 B( 51-C , 52-N ) :   1.4839
B( 52-N , 53-N ) :   1.2349 B( 52-N , 54-N ) :   0.1623 B( 53-N , 54-N ) :   1.2118
B( 53-N , 55-C ) :   0.9515 B( 55-C , 94-H ) :   0.9675 B( 55-C , 95-H ) :   0.9701
B( 55-C , 96-H ) :   0.9688 B( 56-C , 57-C ) :   1.6880 B( 56-C , 97-H ) :   0.9385
B( 57-C , 58-C ) :   1.0445 B( 57-C , 66-C ) :   0.9247 B( 58-C , 59-C ) :   1.6471
B( 58-C , 64-C ) :   0.9970 B( 59-C , 60-C ) :   1.1457 B( 59-C , 62-C ) :   1.1432
B( 60-C , 61-N ) :   2.9649 B( 62-C , 63-N ) :   2.9752 B( 64-C , 65-C ) :   1.2156
B( 64-C , 71-C ) :   1.4423 B( 65-C , 66-C ) :   0.9416 B( 65-C , 68-C ) :   1.4736
B( 66-C , 67-O ) :   2.2387 B( 68-C , 69-C ) :   1.1798 B( 68-C , 98-H ) :   1.0160
B( 69-C , 70-C ) :   1.2576 B( 69-C , 75-C ) :   1.2425 B( 70-C , 71-C ) :   1.2110
B( 70-C , 72-C ) :   1.2372 B( 71-C , 99-H ) :   0.9887 B( 72-C , 73-C ) :   1.4924
B( 72-C ,100-H ) :   0.9970 B( 73-C , 74-C ) :   1.2588 B( 73-C ,101-H ) :   0.9873
B( 74-C , 75-C ) :   1.4917 B( 74-C ,102-H ) :   0.9880 B( 75-C ,103-H ) :   0.9975

-----------------------------------------------------------------------------
         ABSORPTION SPECTRUM VIA TRANSITION ELECTRIC DIPOLE MOMENTS
-----------------------------------------------------------------------------
State   Energy  Wavelength   fosc         T2         TX        TY        TZ
        (cm-1)    (nm)                  (au**2)     (au)      (au)      (au)
-----------------------------------------------------------------------------
   0   21704.6    460.7   1.680318887  25.48681  -2.73223   4.15406  -0.87495
   1   23241.7    430.3   0.036042179   0.51053  -0.35504   0.60874  -0.11793
   2   26679.2    374.8   0.026618979   0.32847  -0.39761   0.25106  -0.32763
   3   26976.5    370.7   0.058682618   0.71614   0.83400   0.01148   0.14301
   4   27205.6    367.6   0.142773050   1.72768  -1.24870   0.36828  -0.18109
   5   27785.0    359.9   0.056436837   0.66870  -0.48292   0.60682  -0.25932
   6   29106.7    343.6   0.018076345   0.20445  -0.23065   0.38485  -0.05609
   7   29378.6    340.4   0.000633542   0.00710  -0.01486   0.08274  -0.00576
   8   29645.2    337.3   0.003946163   0.04382   0.04435  -0.18350  -0.09046
   9   29955.4    333.8   0.027773893   0.30524   0.37714   0.18580  -0.35844
  10   30070.7    332.5   0.098684231   1.08039   0.94732   0.38323   0.19003
  11   30740.8    325.3   0.023909837   0.25606  -0.46376   0.19009   0.06967
  12   30777.9    324.9   0.038769918   0.41470   0.05337   0.14333   0.62554
  13   31105.9    321.5   0.129692804   1.37261  -0.94911  -0.43403  -0.53237
  14   31696.7    315.5   0.279341177   2.90133  -1.69212   0.19036  -0.04255
  15   32665.2    306.1   0.071706842   0.72269  -0.34358   0.11312   0.76932
  16   32710.7    305.7   0.149289480   1.50250   0.51957  -1.06278   0.32100
  17   33337.4    300.0   0.017767097   0.17545   0.37949   0.05873   0.16731
  18   34077.7    293.4   0.253175910   2.44584  -1.48566  -0.38722  -0.29784
  19   34320.4    291.4   0.945749308   9.07191   2.84831   0.95811   0.20263
  20   34877.0    286.7   0.155561751   1.46838  -1.11365  -0.45211  -0.15413
  21   35020.8    285.5   0.004042407   0.03800  -0.17305   0.06083  -0.06600
  22   35394.7    282.5   0.001268226   0.01180   0.05700  -0.08715  -0.03086
  23   35639.6    280.6   0.044657723   0.41251  -0.08178   0.59183  -0.23573
  24   35903.9    278.5   0.004542053   0.04165  -0.11810   0.16598  -0.01220
  25   36186.2    276.3   0.053371550   0.48556  -0.24450  -0.46489  -0.45789
  26   36957.4    270.6   0.314296354   2.79972   1.37460  -0.89325   0.33510
  27   37265.6    268.3   0.018960043   0.16750   0.40612  -0.02081  -0.04620
  28   37465.2    266.9   0.008094219   0.07113  -0.01502   0.21595  -0.15578
  29   37870.0    264.1   0.023364639   0.20311   0.43178  -0.02936  -0.12578
  30   37971.8    263.4   0.046879158   0.40644   0.58343   0.08164   0.24368
  31   38015.5    263.1   0.006302600   0.05458  -0.01060   0.15932  -0.17054
  32   38491.1    259.8   0.066784281   0.57120   0.58381   0.19615   0.43806
  33   38742.0    258.1   0.368934090   3.13503   1.31456   1.18096  -0.11085
  34   39172.9    255.3   0.012365564   0.10392   0.06807   0.11562   0.29312
  35   39214.4    255.0   0.042002112   0.35262  -0.55561   0.19366  -0.08005
  36   39365.7    254.0   0.050865266   0.42538  -0.00423   0.04607  -0.65057
  37   39590.1    252.6   0.048100632   0.39998   0.19149  -0.59034   0.12170
  38   39983.7    250.1   0.124773742   1.02735   0.59675  -0.68424   0.45060
  39   40195.7    248.8   0.163659973   1.34041  -0.36750   1.08645  -0.15808
  40   40226.8    248.6   0.215107846   1.76042  -0.32642   1.27908  -0.13350

FINAL SINGLE POINT ENERGY     -3429.549521974419

DIPOLE MOMENT
-------------
                                X             Y             Z
Electronic contribution:    -19.44869     -10.00842      -5.92005
Nuclear contribution   :     20.72244      10.91495       7.09638
                        -----------------------------------------
Total Dipole Moment    :      1.27375       0.90653       1.17633
                        -----------------------------------------
Magnitude (a.u.)       :      1.95652
Magnitude (Debye)      :      4.97309

Rotational constants in cm-1:     0.002507     0.000256     0.000247
Rotational constants in MHz :    75.163540     7.669115     7.390362

                             ****ORCA TERMINATED NORMALLY****
TOTAL RUN TIME: 0 days 0 hours 10 minutes 2 seconds 342 msec
