                         Program Version 4.2.0 -  RELEASE  -
|  1> # ORCA input file
|  2> # SCF done       -166.021261133655          0.000427883239
|  3> ! CAM-B3LYP def2-SVP def2/J RIJCOSX Grid4 TightSCF
|  4> %maxcore 5000
|  5> %tddft
|  6>     Mode sTDDFT
|  7>     Ethresh 5.0
|  8>     maxcore 5000
|  9> end
| 10>
| 11> %pal
| 12>   nprocs 6
| 13>   end
| 14> * xyz 0 1
| 15>    C       -2.67904        -2.10796        -1.54827
| 16>    S       -3.90013        -1.00463        -2.00312
| 17>    C       -3.41666         0.11991        -0.81747
| 18>    C       -2.34396        -0.33721        -0.08921
| 19>    C       -1.90510        -1.63859        -0.51432
| 20>    C       -0.77016        -2.24938         0.11337
| 21>    C       -0.18084        -1.56088         1.14794
| 22>    C       -0.62090        -0.29764         1.58211
| 23>    C       -1.67564         0.33327         0.97868
| 24>    O       -2.16578         1.56164         1.29411
| 25>    C       -1.56024         2.26628         2.34986
| 26>    C       -0.27671        -3.51172        -0.37545
| 27>    C        0.94475        -4.00868        -0.11904
| 28>    N        1.39589        -5.18661        -0.65249
| 29>    C        2.64417        -5.69309        -0.49806
| 30>    S        3.78214        -4.92347         0.55108
| 31>    C        4.97052        -6.10481         0.10377
| 32>    N        6.21309        -5.96326         0.70279
| 33>    O        7.08343        -6.77906         0.45160
| 34>    O        6.33899        -5.01347         1.47057
| 35>    C        4.50396        -7.03838        -0.78875
| 36>    C        3.16054        -6.82938        -1.14179
| 37>    C        2.37253        -7.61639        -2.05498
| 38>    C        2.80483        -8.58982        -2.87567
| 39>    N        1.93751        -9.21537        -3.72765
| 40>    C        2.24513       -10.00270        -4.82244
| 41>    C        3.21805       -10.95455        -4.88883
| 42>    S        3.17615       -11.82749        -6.36964
| 43>    C        1.83935       -10.90668        -6.92766
| 44>    C        1.45391        -9.95819        -6.02690
| 45>    N        0.43751        -9.02906        -6.22318
| 46>    C        0.56180        -7.73994        -5.80115
| 47>    C       -0.40454        -6.79361        -5.82865
| 48>    C       -0.25839        -5.47758        -5.29045
| 49>    C        0.89209        -4.95852        -4.65457
| 50>    C        0.90916        -3.64595        -4.03044
| 51>    N        2.00135        -3.23946        -3.39360
| 52>    C        3.09035        -3.98512        -3.36229
| 53>    C        3.09848        -5.23739        -4.03965
| 54>    N        2.01972        -5.69118        -4.63203
| 55>    C        4.26929        -6.03259        -4.08889
| 56>    N        5.21523        -6.67806        -4.13255
| 57>    C        4.23818        -3.56009        -2.66254
| 58>    N        5.21028        -3.29772        -2.11208
| 59>    C       -0.19791        -2.75796        -4.08472
| 60>    C       -1.32316        -3.25713        -4.80188
| 61>    C       -1.35791        -4.58392        -5.35993
| 62>    N       -2.53001        -4.84687        -5.93774
| 63>    S       -3.48605        -3.55546        -5.80222
| 64>    N       -2.46451        -2.60503        -4.99420
| 65>    C       -0.27739        -1.48087        -3.51032
| 66>    C        0.52556        -0.83974        -2.58937
| 67>    C        0.19613         0.42099        -2.02832
| 68>    C        0.99585         0.81541        -0.99757
| 69>    C        2.00128        -0.12457        -0.69811
| 70>    S        1.96282        -1.46398        -1.82989
| 71>    C        2.92378        -0.15338         0.32869
| 72>    C        3.13947         0.78506         1.37426
| 73>    C        4.09657         0.41642         2.25788
| 74>    C        4.70807        -0.85071         1.97209
| 75>    S        3.99250        -1.52075         0.49954
| 76>    C        5.66188        -1.49688         2.65885
| 77>    H       -2.60558        -3.03370        -2.08041
| 78>    H       -3.93388         1.05012        -0.70303
| 79>    H        0.65713        -1.99658         1.66914
| 80>    H       -0.09227         0.16191         2.40218
| 81>    H       -2.10429         3.20594         2.43013
| 82>    H       -0.50569         2.47427         2.14106
| 83>    H       -1.63895         1.71909         3.29449
| 84>    H       -0.92867        -4.06213        -1.04062
| 85>    H        1.66376        -3.49841         0.50162
| 86>    H        0.76157        -5.68671        -1.26201
| 87>    H        5.12198        -7.83097        -1.16628
| 88>    H        1.31643        -7.37224        -2.10614
| 89>    H        3.83358        -8.90490        -2.92722
| 90>    H        1.00324        -8.82614        -3.74461
| 91>    H        3.94555       -11.20652        -4.14539
| 92>    H        1.42395       -11.09992        -7.89603
| 93>    H       -0.32735        -9.27793        -6.83458
| 94>    H        1.53242        -7.48149        -5.40823
| 95>    H       -1.37710        -7.00850        -6.25059
| 96>    H       -1.17134        -0.93759        -3.79513
| 97>    H       -0.64568         0.98613        -2.38946
| 98>    H        0.87180         1.73549        -0.45404
| 99>    H        2.57605         1.70028         1.42939
|100>    H        4.39894         0.99267         3.11460
|101>    H        6.08365        -1.06900         3.55198
|102>    H        6.03032        -2.45730         2.34143
|103> *
|104>
|105>                          ****END OF INPUT****

CARTESIAN COORDINATES (ANGSTROEM)
---------------------------------
  C     -2.679040   -2.107960   -1.548270
  S     -3.900130   -1.004630   -2.003120
  C     -3.416660    0.119910   -0.817470
  C     -2.343960   -0.337210   -0.089210
  C     -1.905100   -1.638590   -0.514320
  C     -0.770160   -2.249380    0.113370
  C     -0.180840   -1.560880    1.147940
  C     -0.620900   -0.297640    1.582110
  C     -1.675640    0.333270    0.978680
  O     -2.165780    1.561640    1.294110
  C     -1.560240    2.266280    2.349860
  C     -0.276710   -3.511720   -0.375450
  C      0.944750   -4.008680   -0.119040
  N      1.395890   -5.186610   -0.652490
  C      2.644170   -5.693090   -0.498060
  S      3.782140   -4.923470    0.551080
  C      4.970520   -6.104810    0.103770
  N      6.213090   -5.963260    0.702790
  O      7.083430   -6.779060    0.451600
  O      6.338990   -5.013470    1.470570
  C      4.503960   -7.038380   -0.788750
  C      3.160540   -6.829380   -1.141790
  C      2.372530   -7.616390   -2.054980
  C      2.804830   -8.589820   -2.875670
  N      1.937510   -9.215370   -3.727650
  C      2.245130  -10.002700   -4.822440
  C      3.218050  -10.954550   -4.888830
  S      3.176150  -11.827490   -6.369640
  C      1.839350  -10.906680   -6.927660
  C      1.453910   -9.958190   -6.026900
  N      0.437510   -9.029060   -6.223180
  C      0.561800   -7.739940   -5.801150
  C     -0.404540   -6.793610   -5.828650
  C     -0.258390   -5.477580   -5.290450
  C      0.892090   -4.958520   -4.654570
  C      0.909160   -3.645950   -4.030440
  N      2.001350   -3.239460   -3.393600
  C      3.090350   -3.985120   -3.362290
  C      3.098480   -5.237390   -4.039650
  N      2.019720   -5.691180   -4.632030
  C      4.269290   -6.032590   -4.088890
  N      5.215230   -6.678060   -4.132550
  C      4.238180   -3.560090   -2.662540
  N      5.210280   -3.297720   -2.112080
  C     -0.197910   -2.757960   -4.084720
  C     -1.323160   -3.257130   -4.801880
  C     -1.357910   -4.583920   -5.359930
  N     -2.530010   -4.846870   -5.937740
  S     -3.486050   -3.555460   -5.802220
  N     -2.464510   -2.605030   -4.994200
  C     -0.277390   -1.480870   -3.510320
  C      0.525560   -0.839740   -2.589370
  C      0.196130    0.420990   -2.028320
  C      0.995850    0.815410   -0.997570
  C      2.001280   -0.124570   -0.698110
  S      1.962820   -1.463980   -1.829890
  C      2.923780   -0.153380    0.328690
  C      3.139470    0.785060    1.374260
  C      4.096570    0.416420    2.257880
  C      4.708070   -0.850710    1.972090
  S      3.992500   -1.520750    0.499540
  C      5.661880   -1.496880    2.658850
  H     -2.605580   -3.033700   -2.080410
  H     -3.933880    1.050120   -0.703030
  H      0.657130   -1.996580    1.669140
  H     -0.092270    0.161910    2.402180
  H     -2.104290    3.205940    2.430130
  H     -0.505690    2.474270    2.141060
  H     -1.638950    1.719090    3.294490
  H     -0.928670   -4.062130   -1.040620
  H      1.663760   -3.498410    0.501620
  H      0.761570   -5.686710   -1.262010
  H      5.121980   -7.830970   -1.166280
  H      1.316430   -7.372240   -2.106140
  H      3.833580   -8.904900   -2.927220
  H      1.003240   -8.826140   -3.744610
  H      3.945550  -11.206520   -4.145390
  H      1.423950  -11.099920   -7.896030
  H     -0.327350   -9.277930   -6.834580
  H      1.532420   -7.481490   -5.408230
  H     -1.377100   -7.008500   -6.250590
  H     -1.171340   -0.937590   -3.795130
  H     -0.645680    0.986130   -2.389460
  H      0.871800    1.735490   -0.454040
  H      2.576050    1.700280    1.429390
  H      4.398940    0.992670    3.114600
  H      6.083650   -1.069000    3.551980
  H      6.030320   -2.457300    2.341430

 Total Charge           Charge          ....    0
 Multiplicity           Mult            ....    1
 Number of Electrons    NEL             ....  474
 Basis Dimension        Dim             .... 1022

ORBITAL ENERGIES
----------------

  NO   OCC          E(Eh)            E(eV)
   0   2.0000     -89.024972     -2422.4926
   1   2.0000     -88.961123     -2420.7552
   2   2.0000     -88.959640     -2420.7149
   3   2.0000     -88.950294     -2420.4606
   4   2.0000     -88.946673     -2420.3620
   5   2.0000     -88.943477     -2420.2751
   6   2.0000     -19.250352      -523.8287
   7   2.0000     -19.213901      -522.8368
   8   2.0000     -19.213524      -522.8266
   9   2.0000     -14.625309      -397.9749
  10   2.0000     -14.466429      -393.6515
  11   2.0000     -14.451625      -393.2487
  12   2.0000     -14.449260      -393.1844
  13   2.0000     -14.440498      -392.9459
  14   2.0000     -14.440096      -392.9350
  15   2.0000     -14.440048      -392.9337
  16   2.0000     -14.436341      -392.8328
  17   2.0000     -14.418113      -392.3368
  18   2.0000     -14.410891      -392.1403
  19   2.0000     -10.364419      -282.0302
  20   2.0000     -10.355841      -281.7968
  21   2.0000     -10.347103      -281.5590
  22   2.0000     -10.333348      -281.1847
  23   2.0000     -10.330345      -281.1030
  24   2.0000     -10.327760      -281.0326
  25   2.0000     -10.326519      -280.9989
  26   2.0000     -10.325978      -280.9842
  27   2.0000     -10.324104      -280.9332
  28   2.0000     -10.318832      -280.7897
  29   2.0000     -10.316642      -280.7301
  30   2.0000     -10.316146      -280.7166
  31   2.0000     -10.315055      -280.6869
  32   2.0000     -10.313940      -280.6566
  33   2.0000     -10.313420      -280.6424
  34   2.0000     -10.312715      -280.6232
  35   2.0000     -10.310464      -280.5620
  36   2.0000     -10.308325      -280.5038
  37   2.0000     -10.306522      -280.4547
  38   2.0000     -10.305822      -280.4357
  39   2.0000     -10.299433      -280.2618
  40   2.0000     -10.295680      -280.1597
  41   2.0000     -10.294846      -280.1370
  42   2.0000     -10.293600      -280.1031
  43   2.0000     -10.291400      -280.0432
  44   2.0000     -10.288605      -279.9672
  45   2.0000     -10.287767      -279.9444
  46   2.0000     -10.286275      -279.9038
  47   2.0000     -10.284545      -279.8567
  48   2.0000     -10.283848      -279.8377
  49   2.0000     -10.283598      -279.8309
  50   2.0000     -10.281542      -279.7750
  51   2.0000     -10.278603      -279.6950
  52   2.0000     -10.277925      -279.6766
  53   2.0000     -10.277209      -279.6571
  54   2.0000     -10.272791      -279.5368
  55   2.0000     -10.271791      -279.5096
  56   2.0000     -10.270053      -279.4624
  57   2.0000     -10.264951      -279.3235
  58   2.0000     -10.264545      -279.3125
  59   2.0000     -10.263615      -279.2871
  60   2.0000     -10.261231      -279.2223
  61   2.0000     -10.260264      -279.1960
  62   2.0000      -8.116596      -220.8638
  63   2.0000      -8.056066      -219.2167
  64   2.0000      -8.055131      -219.1913
  65   2.0000      -8.046236      -218.9492
  66   2.0000      -8.039465      -218.7650
  67   2.0000      -8.038769      -218.7460
  68   2.0000      -6.087804      -165.6576
  69   2.0000      -6.080170      -165.4498
  70   2.0000      -6.078958      -165.4169
  71   2.0000      -6.025795      -163.9702
  72   2.0000      -6.024050      -163.9227
  73   2.0000      -6.021451      -163.8520
  74   2.0000      -6.019628      -163.8024
  75   2.0000      -6.018386      -163.7686
  76   2.0000      -6.017385      -163.7414
  77   2.0000      -6.015688      -163.6952
  78   2.0000      -6.011419      -163.5790
  79   2.0000      -6.009191      -163.5184
  80   2.0000      -6.008784      -163.5073
  81   2.0000      -6.008146      -163.4900
  82   2.0000      -6.005050      -163.4057
  83   2.0000      -6.004096      -163.3798
  84   2.0000      -6.000337      -163.2775
  85   2.0000      -6.000232      -163.2746
  86   2.0000      -1.292086       -35.1595
  87   2.0000      -1.152805       -31.3694
  88   2.0000      -1.123930       -30.5837
  89   2.0000      -1.110840       -30.2275
  90   2.0000      -1.103774       -30.0352
  91   2.0000      -1.072883       -29.1946
  92   2.0000      -1.064735       -28.9729
  93   2.0000      -1.032956       -28.1082
  94   2.0000      -1.031093       -28.0575
  95   2.0000      -1.000189       -27.2165
  96   2.0000      -0.994659       -27.0660
  97   2.0000      -0.989459       -26.9245
  98   2.0000      -0.985169       -26.8078
  99   2.0000      -0.981753       -26.7149
 100   2.0000      -0.979963       -26.6661
 101   2.0000      -0.970533       -26.4096
 102   2.0000      -0.965620       -26.2759
 103   2.0000      -0.957895       -26.0657
 104   2.0000      -0.924194       -25.1486
 105   2.0000      -0.898072       -24.4378
 106   2.0000      -0.897847       -24.4317
 107   2.0000      -0.891457       -24.2578
 108   2.0000      -0.881122       -23.9765
 109   2.0000      -0.878510       -23.9055
 110   2.0000      -0.861803       -23.4509
 111   2.0000      -0.856361       -23.3028
 112   2.0000      -0.849070       -23.1044
 113   2.0000      -0.836343       -22.7580
 114   2.0000      -0.832974       -22.6664
 115   2.0000      -0.831355       -22.6223
 116   2.0000      -0.823577       -22.4107
 117   2.0000      -0.820170       -22.3179
 118   2.0000      -0.813257       -22.1298
 119   2.0000      -0.797566       -21.7029
 120   2.0000      -0.793440       -21.5906
 121   2.0000      -0.792633       -21.5686
 122   2.0000      -0.789453       -21.4821
 123   2.0000      -0.780629       -21.2420
 124   2.0000      -0.766397       -20.8547
 125   2.0000      -0.747308       -20.3353
 126   2.0000      -0.737209       -20.0605
 127   2.0000      -0.718812       -19.5599
 128   2.0000      -0.716536       -19.4979
 129   2.0000      -0.711610       -19.3639
 130   2.0000      -0.700456       -19.0604
 131   2.0000      -0.695867       -18.9355
 132   2.0000      -0.685421       -18.6512
 133   2.0000      -0.684728       -18.6324
 134   2.0000      -0.677993       -18.4491
 135   2.0000      -0.673666       -18.3314
 136   2.0000      -0.667494       -18.1634
 137   2.0000      -0.661607       -18.0032
 138   2.0000      -0.659048       -17.9336
 139   2.0000      -0.648617       -17.6498
 140   2.0000      -0.640091       -17.4178
 141   2.0000      -0.637103       -17.3365
 142   2.0000      -0.633841       -17.2477
 143   2.0000      -0.630660       -17.1611
 144   2.0000      -0.620724       -16.8908
 145   2.0000      -0.617394       -16.8002
 146   2.0000      -0.614581       -16.7236
 147   2.0000      -0.612697       -16.6723
 148   2.0000      -0.605709       -16.4822
 149   2.0000      -0.603271       -16.4158
 150   2.0000      -0.600531       -16.3413
 151   2.0000      -0.597133       -16.2488
 152   2.0000      -0.588982       -16.0270
 153   2.0000      -0.588272       -16.0077
 154   2.0000      -0.577066       -15.7028
 155   2.0000      -0.569311       -15.4917
 156   2.0000      -0.567817       -15.4511
 157   2.0000      -0.566193       -15.4069
 158   2.0000      -0.563371       -15.3301
 159   2.0000      -0.558827       -15.2065
 160   2.0000      -0.556568       -15.1450
 161   2.0000      -0.554703       -15.0942
 162   2.0000      -0.547647       -14.9022
 163   2.0000      -0.544753       -14.8235
 164   2.0000      -0.537566       -14.6279
 165   2.0000      -0.532183       -14.4814
 166   2.0000      -0.527806       -14.3623
 167   2.0000      -0.524916       -14.2837
 168   2.0000      -0.519840       -14.1456
 169   2.0000      -0.516996       -14.0682
 170   2.0000      -0.513978       -13.9861
 171   2.0000      -0.512641       -13.9497
 172   2.0000      -0.508137       -13.8271
 173   2.0000      -0.506780       -13.7902
 174   2.0000      -0.504310       -13.7230
 175   2.0000      -0.500865       -13.6292
 176   2.0000      -0.495716       -13.4891
 177   2.0000      -0.492416       -13.3993
 178   2.0000      -0.485455       -13.2099
 179   2.0000      -0.483635       -13.1604
 180   2.0000      -0.481485       -13.1019
 181   2.0000      -0.479302       -13.0425
 182   2.0000      -0.478062       -13.0087
 183   2.0000      -0.472719       -12.8633
 184   2.0000      -0.472096       -12.8464
 185   2.0000      -0.470157       -12.7936
 186   2.0000      -0.467963       -12.7339
 187   2.0000      -0.467226       -12.7139
 188   2.0000      -0.465002       -12.6533
 189   2.0000      -0.461487       -12.5577
 190   2.0000      -0.458485       -12.4760
 191   2.0000      -0.455272       -12.3886
 192   2.0000      -0.451988       -12.2992
 193   2.0000      -0.447081       -12.1657
 194   2.0000      -0.445549       -12.1240
 195   2.0000      -0.444230       -12.0881
 196   2.0000      -0.442336       -12.0366
 197   2.0000      -0.439376       -11.9560
 198   2.0000      -0.438129       -11.9221
 199   2.0000      -0.436137       -11.8679
 200   2.0000      -0.432108       -11.7583
 201   2.0000      -0.430054       -11.7024
 202   2.0000      -0.428006       -11.6466
 203   2.0000      -0.424071       -11.5396
 204   2.0000      -0.422095       -11.4858
 205   2.0000      -0.418647       -11.3920
 206   2.0000      -0.416135       -11.3236
 207   2.0000      -0.411272       -11.1913
 208   2.0000      -0.406617       -11.0646
 209   2.0000      -0.405632       -11.0378
 210   2.0000      -0.403750       -10.9866
 211   2.0000      -0.401650       -10.9295
 212   2.0000      -0.400352       -10.8941
 213   2.0000      -0.399657       -10.8752
 214   2.0000      -0.384203       -10.4547
 215   2.0000      -0.368539       -10.0285
 216   2.0000      -0.368340       -10.0230
 217   2.0000      -0.363489        -9.8910
 218   2.0000      -0.360567        -9.8115
 219   2.0000      -0.354893        -9.6571
 220   2.0000      -0.352559        -9.5936
 221   2.0000      -0.347347        -9.4518
 222   2.0000      -0.342390        -9.3169
 223   2.0000      -0.338676        -9.2158
 224   2.0000      -0.335015        -9.1162
 225   2.0000      -0.328383        -8.9358
 226   2.0000      -0.322890        -8.7863
 227   2.0000      -0.316932        -8.6241
 228   2.0000      -0.313317        -8.5258
 229   2.0000      -0.309455        -8.4207
 230   2.0000      -0.307066        -8.3557
 231   2.0000      -0.289442        -7.8761
 232   2.0000      -0.278562        -7.5801
 233   2.0000      -0.257906        -7.0180
 234   2.0000      -0.245139        -6.6706
 235   2.0000      -0.218710        -5.9514
 236   2.0000      -0.203873        -5.5477
 237   0.0000      -0.108642        -2.9563
 238   0.0000      -0.056508        -1.5377
 239   0.0000      -0.040216        -1.0943
 240   0.0000      -0.033399        -0.9088
 241   0.0000      -0.022714        -0.6181

MULLIKEN ATOMIC CHARGES
-----------------------
   0 C :   -0.179653
   1 S :    0.148963
   2 C :   -0.165871
   3 C :    0.060755
   4 C :    0.094884
   5 C :    0.125165
   6 C :   -0.043648
   7 C :   -0.127199
   8 C :    0.219262
   9 O :   -0.307004
  10 C :    0.185232
  11 C :   -0.041355
  12 C :    0.082095
  13 N :   -0.038124
  14 C :   -0.134514
  15 S :    0.138628
  16 C :    0.005173
  17 N :    0.295484
  18 O :   -0.258500
  19 O :   -0.296594
  20 C :    0.004592
  21 C :    0.117213
  22 C :   -0.075110
  23 C :    0.080700
  24 N :   -0.067919
  25 C :    0.099215
  26 C :   -0.186076
  27 S :    0.116742
  28 C :   -0.174653
  29 C :    0.119170
  30 N :   -0.054988
  31 C :    0.043295
  32 C :   -0.101507
  33 C :    0.050952
  34 C :   -0.059627
  35 C :   -0.020101
  36 N :   -0.016243
  37 C :   -0.073884
  38 C :   -0.127511
  39 N :    0.008603
  40 C :   -0.231036
  41 N :    0.238177
  42 C :   -0.253560
  43 N :    0.225473
  44 C :    0.083321
  45 C :   -0.009894
  46 C :   -0.006571
  47 N :   -0.287197
  48 S :    0.499402
  49 N :   -0.282081
  50 C :   -0.089496
  51 C :    0.011075
  52 C :    0.045954
  53 C :    0.062479
  54 C :   -0.024365
  55 S :    0.103427
  56 C :   -0.069272
  57 C :    0.030904
  58 C :    0.063330
  59 C :   -0.084944
  60 S :    0.119832
  61 C :   -0.005827
  62 H :    0.008518
  63 H :    0.016873
  64 H :   -0.030067
  65 H :   -0.043233
  66 H :    0.036795
  67 H :    0.010720
  68 H :    0.026857
  69 H :   -0.042089
  70 H :    0.023910
  71 H :    0.130492
  72 H :    0.001425
  73 H :   -0.053440
  74 H :    0.016214
  75 H :    0.126191
  76 H :    0.015271
  77 H :    0.003087
  78 H :    0.125157
  79 H :    0.055052
  80 H :   -0.029425
  81 H :   -0.005727
  82 H :   -0.012395
  83 H :   -0.024134
  84 H :   -0.015520
  85 H :   -0.007064
  86 H :    0.025610
  87 H :    0.055747
Sum of atomic charges:   -0.0000000

LOEWDIN ATOMIC CHARGES
----------------------
   0 C :   -0.206749
   1 S :    0.489911
   2 C :   -0.199777
   3 C :   -0.067462
   4 C :   -0.042717
   5 C :   -0.038188
   6 C :   -0.018077
   7 C :   -0.096867
   8 C :    0.058519
   9 O :   -0.098830
  10 C :    0.077489
  11 C :   -0.078370
  12 C :    0.020521
  13 N :    0.036021
  14 C :   -0.113889
  15 S :    0.460684
  16 C :   -0.213239
  17 N :    0.280270
  18 O :   -0.223033
  19 O :   -0.262008
  20 C :    0.002949
  21 C :   -0.106589
  22 C :   -0.121531
  23 C :    0.052531
  24 N :    0.021127
  25 C :   -0.029745
  26 C :   -0.221391
  27 S :    0.439696
  28 C :   -0.219848
  29 C :   -0.037917
  30 N :    0.024426
  31 C :    0.034494
  32 C :   -0.106122
  33 C :   -0.046256
  34 C :   -0.028179
  35 C :   -0.009885
  36 N :   -0.023270
  37 C :   -0.058667
  38 C :   -0.022510
  39 N :   -0.012912
  40 C :   -0.023143
  41 N :   -0.026907
  42 C :   -0.055704
  43 N :   -0.027197
  44 C :   -0.042775
  45 C :   -0.050151
  46 C :   -0.047603
  47 N :   -0.293038
  48 S :    0.632858
  49 N :   -0.285340
  50 C :   -0.043954
  51 C :   -0.123633
  52 C :   -0.029953
  53 C :   -0.019130
  54 C :   -0.204140
  55 S :    0.482178
  56 C :   -0.153557
  57 C :   -0.035875
  58 C :   -0.012857
  59 C :   -0.152405
  60 S :    0.404480
  61 C :   -0.031279
  62 H :    0.013683
  63 H :    0.023445
  64 H :    0.024216
  65 H :    0.023754
  66 H :    0.028567
  67 H :    0.009745
  68 H :    0.017081
  69 H :    0.019163
  70 H :    0.010998
  71 H :    0.088497
  72 H :    0.042731
  73 H :    0.011840
  74 H :    0.031107
  75 H :    0.080877
  76 H :    0.023555
  77 H :    0.021119
  78 H :    0.088132
  79 H :    0.024892
  80 H :    0.025882
  81 H :    0.038568
  82 H :    0.033258
  83 H :    0.026494
  84 H :    0.031135
  85 H :    0.035364
  86 H :    0.031843
  87 H :    0.038575

  Mayer bond orders larger than 0.100000
B(  0-C ,  1-S ) :   1.2032 B(  0-C ,  4-C ) :   1.4706 B(  0-C , 62-H ) :   0.9488
B(  1-S ,  2-C ) :   1.2159 B(  2-C ,  3-C ) :   1.4289 B(  2-C , 63-H ) :   0.9709
B(  3-C ,  4-C ) :   1.2298 B(  3-C ,  8-C ) :   1.1668 B(  4-C ,  5-C ) :   1.1219
B(  5-C ,  6-C ) :   1.5275 B(  5-C , 11-C ) :   1.1078 B(  6-C ,  7-C ) :   1.1756
B(  6-C , 64-H ) :   0.9809 B(  7-C ,  8-C ) :   1.4354 B(  7-C , 65-H ) :   1.0002
B(  8-C ,  9-O ) :   1.2022 B(  9-O , 10-C ) :   0.9683 B( 10-C , 66-H ) :   0.9788
B( 10-C , 67-H ) :   0.9670 B( 10-C , 68-H ) :   0.9686 B( 11-C , 12-C ) :   1.6977
B( 11-C , 69-H ) :   0.9620 B( 12-C , 13-N ) :   1.1066 B( 12-C , 70-H ) :   0.9518
B( 13-N , 14-C ) :   1.2249 B( 13-N , 71-H ) :   0.9144 B( 14-C , 15-S ) :   1.1385
B( 14-C , 21-C ) :   1.3484 B( 15-S , 16-C ) :   1.0706 B( 16-C , 17-N ) :   0.9995
B( 16-C , 20-C ) :   1.4611 B( 17-N , 18-O ) :   1.5267 B( 17-N , 19-O ) :   1.4528
B( 18-O , 19-O ) :   0.2418 B( 20-C , 21-C ) :   1.2535 B( 20-C , 72-H ) :   1.0031
B( 21-C , 22-C ) :   1.0775 B( 22-C , 23-C ) :   1.7082 B( 22-C , 73-H ) :   0.9518
B( 23-C , 24-N ) :   1.1507 B( 23-C , 74-H ) :   0.9635 B( 24-N , 25-C ) :   1.1065
B( 24-N , 75-H ) :   0.9227 B( 25-C , 26-C ) :   1.5408 B( 25-C , 29-C ) :   1.2443
B( 26-C , 27-S ) :   1.1478 B( 26-C , 76-H ) :   0.9749 B( 27-S , 28-C ) :   1.1605
B( 28-C , 29-C ) :   1.5313 B( 28-C , 77-H ) :   0.9789 B( 29-C , 30-N ) :   1.0662
B( 30-N , 31-C ) :   1.1573 B( 30-N , 78-H ) :   0.9237 B( 31-C , 32-C ) :   1.5797
B( 31-C , 79-H ) :   0.9197 B( 32-C , 33-C ) :   1.2287 B( 32-C , 80-H ) :   0.9635
B( 33-C , 34-C ) :   1.2522 B( 33-C , 44-C ) :   0.1049 B( 33-C , 46-C ) :   1.1599
B( 34-C , 35-C ) :   1.0866 B( 34-C , 39-N ) :   1.3918 B( 35-C , 36-N ) :   1.4519
B( 35-C , 44-C ) :   1.1658 B( 36-N , 37-C ) :   1.5710 B( 36-N , 55-S ) :   0.1042
B( 37-C , 38-C ) :   1.2560 B( 37-C , 42-C ) :   1.1740 B( 38-C , 39-N ) :   1.7045
B( 38-C , 40-C ) :   1.1779 B( 40-C , 41-N ) :   3.0058 B( 42-C , 43-N ) :   2.9513
B( 44-C , 45-C ) :   1.1408 B( 44-C , 50-C ) :   1.3268 B( 45-C , 46-C ) :   1.1172
B( 45-C , 49-N ) :   1.5563 B( 46-C , 47-N ) :   1.5530 B( 47-N , 48-S ) :   1.2495
B( 47-N , 49-N ) :   0.1453 B( 48-S , 49-N ) :   1.2510 B( 50-C , 51-C ) :   1.4293
B( 50-C , 81-H ) :   0.9387 B( 51-C , 52-C ) :   1.1759 B( 51-C , 55-S ) :   1.0956
B( 52-C , 53-C ) :   1.5612 B( 52-C , 82-H ) :   0.9955 B( 53-C , 54-C ) :   1.2005
B( 53-C , 83-H ) :   0.9872 B( 54-C , 55-S ) :   0.9983 B( 54-C , 56-C ) :   1.4863
B( 56-C , 57-C ) :   1.1621 B( 56-C , 60-S ) :   1.0859 B( 57-C , 58-C ) :   1.6389
B( 57-C , 84-H ) :   0.9937 B( 58-C , 59-C ) :   1.0792 B( 58-C , 85-H ) :   0.9938
B( 59-C , 60-S ) :   1.0083 B( 59-C , 61-C ) :   1.8512 B( 61-C , 86-H ) :   0.9532
B( 61-C , 87-H ) :   0.9321

-----------------------------------------------------------------------------
         ABSORPTION SPECTRUM VIA TRANSITION ELECTRIC DIPOLE MOMENTS
-----------------------------------------------------------------------------
State   Energy  Wavelength   fosc         T2         TX        TY        TZ
        (cm-1)    (nm)                  (au**2)     (au)      (au)      (au)
-----------------------------------------------------------------------------
   0    5204.5   1921.4   0.166078952  10.50545   0.79503   2.25916   2.18393
   1    7245.5   1380.2   0.015982064   0.72617  -0.02586  -0.78669   0.32652
   2   13299.4    751.9   0.013956175   0.34547  -0.50442   0.17670  -0.24456
   3   15978.6    625.8   0.145558394   2.99898  -0.64298  -0.63285  -1.47819
   4   16925.1    590.8   0.062775489   1.22105  -0.67521   0.52189  -0.70198
   5   18177.8    550.1   0.009139012   0.16551   0.29465   0.18043   0.21481
   6   19620.9    509.7   0.076326280   1.28065   0.77415   0.48009   0.67146
   7   20148.2    496.3   0.036523373   0.59678   0.58663  -0.39662   0.30876
   8   20725.5    482.5   0.190695618   3.02908   1.04073   0.90654   1.06026
   9   21241.2    470.8   0.055744518   0.86397   0.00948  -0.54438  -0.75335
  10   21794.7    458.8   0.126615541   1.91254  -1.09636   0.81698  -0.20756
  11   22534.2    443.8   0.266168820   3.88857   1.68998  -1.01605   0.01367
  12   23628.7    423.2   0.109236275   1.52196  -1.10506  -0.14432  -0.52911
  13   24063.7    415.6   0.032864786   0.44962  -0.36628  -0.07250  -0.55696
  14   24683.8    405.1   0.068976479   0.91995   0.88342  -0.37339  -0.01039
  15   24992.5    400.1   0.014224860   0.18738   0.13101  -0.16634  -0.37755
  16   26708.0    374.4   0.008485692   0.10460   0.25491  -0.19690   0.02916
  17   27124.2    368.7   0.019141845   0.23233   0.00600   0.42872   0.22022
  18   27577.4    362.6   0.020295723   0.24228  -0.03376   0.32545   0.36774
  19   27679.4    361.3   0.300330965   3.57206  -0.02920  -1.51657  -1.12749
  20   28045.5    356.6   0.012346264   0.14493   0.22843  -0.29985   0.05328
  21   28472.7    351.2   0.028960536   0.33485  -0.36879   0.43588  -0.09410
  22   28895.3    346.1   0.108805883   1.23966   0.84032  -0.72436  -0.09391
  23   29106.7    343.6   0.070277854   0.79488  -0.62074  -0.48489  -0.41766
  24   29546.2    338.5   0.266629955   2.97086  -1.08370   1.31304  -0.26904
  25   29797.2    335.6   0.017032347   0.18818  -0.26840   0.22853  -0.25282
  26   31058.4    322.0   0.190975690   2.02430  -1.13010   0.74224  -0.44301
  27   31408.4    318.4   0.007953834   0.08337   0.20707  -0.17394   0.10118
  28   31499.9    317.5   0.010352913   0.10820  -0.07972  -0.16623  -0.27242
  29   31710.3    315.4   0.083205368   0.86383   0.53780  -0.73745  -0.17541
  30   32089.2    311.6   0.299487262   3.07252   1.66124  -0.23310   0.50840
  31   32429.2    308.4   0.064916694   0.65902  -0.54816  -0.50970  -0.31422
  32   32632.9    306.4   0.001889981   0.01907   0.10779   0.01705   0.08460
  33   32732.0    305.5   0.200954263   2.02116  -0.40868  -1.17321  -0.69118
  34   33113.8    302.0   0.067921206   0.67526  -0.43670   0.60833   0.33836
  35   33756.1    296.2   0.058028164   0.56593   0.11531   0.07312   0.73979
  36   33862.9    295.3   0.075722846   0.73617   0.28484   0.24572   0.77114
  37   34039.1    293.8   0.017283889   0.16716   0.02262   0.24600  -0.32579
  38   34065.3    293.6   0.470446319   4.54646  -0.56056   1.90603   0.77415
  39   34327.3    291.3   0.198160575   1.90044   1.16492   0.19108   0.71197
  40   34924.3    286.3   0.066756818   0.62928   0.30620  -0.54540  -0.48792
  41   35059.7    285.2   0.231239501   2.17135   1.29403   0.00802   0.70481
  42   35633.0    280.6   0.013802014   0.12752  -0.29026   0.12734   0.16448
  43   35855.8    278.9   0.097228739   0.89271  -0.61005   0.70969  -0.13001
  44   36073.2    277.2   0.010035890   0.09159  -0.13874   0.07925   0.25702
  45   36247.2    275.9   0.006505518   0.05909  -0.19207  -0.11578  -0.09375
  46   36504.4    273.9   0.000154041   0.00139  -0.00451  -0.02992   0.02176
  47   36613.3    273.1   0.066292005   0.59607   0.76347  -0.11096  -0.02953
  48   36820.8    271.6   0.109538518   0.97938   0.95112  -0.27308   0.01292
  49   37115.1    269.4   0.017948615   0.15920  -0.28296   0.10975  -0.25902
  50   37602.4    265.9   0.147690120   1.29304   0.83005  -0.71857   0.29616
  51   37730.5    265.0   0.027784269   0.24243  -0.47914   0.09449  -0.06266
  52   38160.5    262.1   0.000911372   0.00786  -0.06858  -0.05618  -0.00146
  53   38241.7    261.5   0.041240112   0.35502  -0.46741   0.25010  -0.27203
  54   38316.9    261.0   0.008558418   0.07353  -0.21488  -0.04980  -0.15773
  55   38506.2    259.7   0.037984949   0.32476  -0.55515  -0.12327   0.03699
  56   38663.8    258.6   0.026092954   0.22217  -0.12351  -0.45215  -0.04977
  57   38699.4    258.4   0.034491140   0.29341   0.37567  -0.33151   0.20587
  58   38842.8    257.4   0.074878976   0.63464   0.38413  -0.69661   0.04256
  59   39098.1    255.8   0.084223868   0.70918  -0.73055  -0.20144  -0.36728
  60   39393.1    253.9   0.010399215   0.08691   0.13514  -0.26162   0.01421
  61   39530.8    253.0   0.008064406   0.06716   0.23323   0.02874   0.10927
  62   39925.0    250.5   0.005305884   0.04375   0.16797   0.09125   0.08491
  63   39978.1    250.1   0.003531962   0.02909  -0.02548  -0.16829   0.01076
  64   40274.0    248.3   0.055669557   0.45506  -0.59841   0.30852   0.04221

FINAL SINGLE POINT ENERGY     -4812.518229156566

DIPOLE MOMENT
-------------
                                X             Y             Z
Electronic contribution:      5.73709     -14.04918     -23.84223
Nuclear contribution   :     -9.39214      15.42713      23.86753
                        -----------------------------------------
Total Dipole Moment    :     -3.65505       1.37796       0.02530
                        -----------------------------------------
Magnitude (a.u.)       :      3.90625
Magnitude (Debye)      :      9.92890

Rotational constants in cm-1:     0.001662     0.001021     0.000702
Rotational constants in MHz :    49.828039    30.610172    21.039666

                             ****ORCA TERMINATED NORMALLY****
TOTAL RUN TIME: 0 days 0 hours 10 minutes 52 seconds 941 msec
