                         Program Version 4.2.0 -  RELEASE  -
|  1> # ORCA input file
|  2> # SCF done       -173.745926640377          0.000719478999
|  3> ! CAM-B3LYP def2-SVP def2/J RIJCOSX Grid4 TightSCF
|  4> %maxcore 5000
|  5> %tddft
|  6>     Mode sTDDFT
|  7>     Ethresh 5.0
|  8>     maxcore 5000
|  9> end
| 10>
| 11> %pal
| 12>   nprocs 6
| 13>   end
| 14> * xyz 0 1
| 15>    C       -0.39341         7.30891         1.76103
| 16>    C       -0.98405         7.62638         0.56878
| 17>    C       -2.16101         8.39811         0.46127
| 18>    N       -3.12569         9.00339         0.31892
| 19>    C       -0.46757         7.29277        -0.70103
| 20>    N       -0.09272         7.09168        -1.76708
| 21>    C       -0.78183         7.84148         3.06248
| 22>    C        0.30612         7.67285         3.96885
| 23>    C        0.24322         8.11778         5.25819
| 24>    C       -0.93455         8.75209         5.71210
| 25>    C       -2.03404         8.90521         4.81805
| 26>    C       -1.93836         8.44135         3.48630
| 27>    C       -3.20820         9.52962         5.28693
| 28>    C       -3.29251         9.98497         6.57438
| 29>    C       -2.20833         9.83645         7.45280
| 30>    C       -1.05454         9.23360         7.03081
| 31>    C        1.40212         6.95920         3.29200
| 32>    O        2.48701         6.66480         3.73304
| 33>    C        0.85684         6.59052         1.94770
| 34>    C        1.48381         5.64170         1.22246
| 35>    C        0.98822         4.90793         0.09422
| 36>    C       -0.28660         4.48095        -0.18132
| 37>    O       -0.32100         3.78514        -1.32183
| 38>    C        0.92102         3.74471        -1.81213
| 39>    C        1.79329         4.39298        -0.98085
| 40>    C        3.23296         4.65444        -1.12608
| 41>    O        3.75859         5.64585        -0.65343
| 42>    C        4.01819         3.65199        -1.83273
| 43>    C        3.74857         2.34304        -2.16713
| 44>    C        4.82997         1.69149        -2.75551
| 45>    C        5.94871         2.49693        -2.87244
| 46>    S        5.64941         4.08345        -2.23376
| 47>    C        7.21205         2.13777        -3.40439
| 48>    S        7.52978         0.53496        -4.00906
| 49>    C        9.19687         0.86334        -4.41681
| 50>    C        9.48935         2.19046        -4.09446
| 51>    C        8.36884         2.88600        -3.52697
| 52>    N        8.74848         4.15507        -3.23207
| 53>    C       10.06896         4.28214        -3.58892
| 54>    N       10.73061         5.51186        -3.39175
| 55>    O       10.06727         6.41365        -2.90971
| 56>    O       11.89831         5.58756        -3.71200
| 57>    C       10.56309         3.11210        -4.11705
| 58>    C        9.98870        -0.19414        -4.96237
| 59>    C        9.48584        -1.48741        -5.03494
| 60>    C       10.21782        -2.55551        -5.54688
| 61>    F        9.60405        -3.75288        -5.52084
| 62>    C       11.51493        -2.45970        -6.02285
| 63>    C       12.05932        -1.15389        -5.96638
| 64>    C       11.31300        -0.02771        -5.45786
| 65>    N       12.01581         1.09744        -5.54100
| 66>    S       13.45385         0.78685        -6.18277
| 67>    N       13.26957        -0.79122        -6.39269
| 68>    C       12.28420        -3.59166        -6.53717
| 69>    C       13.65606        -3.67991        -6.28383
| 70>    C       14.37216        -4.74997        -6.76273
| 71>    C       13.74422        -5.75642        -7.49730
| 72>    C       12.37329        -5.68613        -7.78050
| 73>    C       11.67273        -4.59425        -7.28901
| 74>    C       11.62210        -6.72616        -8.58659
| 75>    O       11.36205        -7.89257        -7.85406
| 76>    N       14.58001        -6.83312        -7.94647
| 77>    O       15.77681        -6.64078        -7.97670
| 78>    O       14.05627        -7.88623        -8.26458
| 79>    H        1.08336         7.98727         5.92404
| 80>    H       -2.78947         8.56277         2.83445
| 81>    H       -4.03875         9.64545         4.60606
| 82>    H       -4.19532        10.46343         6.92338
| 83>    H       -2.29238        10.20170         8.46538
| 84>    H       -0.21649         9.11619         7.70222
| 85>    H        2.48058         5.37594         1.55956
| 86>    H       -1.20215         4.57612         0.36932
| 87>    H        1.05753         3.27647        -2.76683
| 88>    H        2.80766         1.86607        -1.96409
| 89>    H        4.81685         0.66723        -3.08326
| 90>    H        8.20402         4.89813        -2.82097
| 91>    H       11.55542         2.94710        -4.47839
| 92>    H        8.49126        -1.70099        -4.67375
| 93>    H       14.14668        -2.91335        -5.70792
| 94>    H       15.43093        -4.83907        -6.57155
| 95>    H       10.62022        -4.52533        -7.51416
| 96>    H       12.17817        -6.95714        -9.50663
| 97>    H       10.64530        -6.32145        -8.86291
| 98>    H       12.19482        -8.38389        -7.78274
| 99> *
|100>
|101>                          ****END OF INPUT****

CARTESIAN COORDINATES (ANGSTROEM)
---------------------------------
  C     -0.393410    7.308910    1.761030
  C     -0.984050    7.626380    0.568780
  C     -2.161010    8.398110    0.461270
  N     -3.125690    9.003390    0.318920
  C     -0.467570    7.292770   -0.701030
  N     -0.092720    7.091680   -1.767080
  C     -0.781830    7.841480    3.062480
  C      0.306120    7.672850    3.968850
  C      0.243220    8.117780    5.258190
  C     -0.934550    8.752090    5.712100
  C     -2.034040    8.905210    4.818050
  C     -1.938360    8.441350    3.486300
  C     -3.208200    9.529620    5.286930
  C     -3.292510    9.984970    6.574380
  C     -2.208330    9.836450    7.452800
  C     -1.054540    9.233600    7.030810
  C      1.402120    6.959200    3.292000
  O      2.487010    6.664800    3.733040
  C      0.856840    6.590520    1.947700
  C      1.483810    5.641700    1.222460
  C      0.988220    4.907930    0.094220
  C     -0.286600    4.480950   -0.181320
  O     -0.321000    3.785140   -1.321830
  C      0.921020    3.744710   -1.812130
  C      1.793290    4.392980   -0.980850
  C      3.232960    4.654440   -1.126080
  O      3.758590    5.645850   -0.653430
  C      4.018190    3.651990   -1.832730
  C      3.748570    2.343040   -2.167130
  C      4.829970    1.691490   -2.755510
  C      5.948710    2.496930   -2.872440
  S      5.649410    4.083450   -2.233760
  C      7.212050    2.137770   -3.404390
  S      7.529780    0.534960   -4.009060
  C      9.196870    0.863340   -4.416810
  C      9.489350    2.190460   -4.094460
  C      8.368840    2.886000   -3.526970
  N      8.748480    4.155070   -3.232070
  C     10.068960    4.282140   -3.588920
  N     10.730610    5.511860   -3.391750
  O     10.067270    6.413650   -2.909710
  O     11.898310    5.587560   -3.712000
  C     10.563090    3.112100   -4.117050
  C      9.988700   -0.194140   -4.962370
  C      9.485840   -1.487410   -5.034940
  C     10.217820   -2.555510   -5.546880
  F      9.604050   -3.752880   -5.520840
  C     11.514930   -2.459700   -6.022850
  C     12.059320   -1.153890   -5.966380
  C     11.313000   -0.027710   -5.457860
  N     12.015810    1.097440   -5.541000
  S     13.453850    0.786850   -6.182770
  N     13.269570   -0.791220   -6.392690
  C     12.284200   -3.591660   -6.537170
  C     13.656060   -3.679910   -6.283830
  C     14.372160   -4.749970   -6.762730
  C     13.744220   -5.756420   -7.497300
  C     12.373290   -5.686130   -7.780500
  C     11.672730   -4.594250   -7.289010
  C     11.622100   -6.726160   -8.586590
  O     11.362050   -7.892570   -7.854060
  N     14.580010   -6.833120   -7.946470
  O     15.776810   -6.640780   -7.976700
  O     14.056270   -7.886230   -8.264580
  H      1.083360    7.987270    5.924040
  H     -2.789470    8.562770    2.834450
  H     -4.038750    9.645450    4.606060
  H     -4.195320   10.463430    6.923380
  H     -2.292380   10.201700    8.465380
  H     -0.216490    9.116190    7.702220
  H      2.480580    5.375940    1.559560
  H     -1.202150    4.576120    0.369320
  H      1.057530    3.276470   -2.766830
  H      2.807660    1.866070   -1.964090
  H      4.816850    0.667230   -3.083260
  H      8.204020    4.898130   -2.820970
  H     11.555420    2.947100   -4.478390
  H      8.491260   -1.700990   -4.673750
  H     14.146680   -2.913350   -5.707920
  H     15.430930   -4.839070   -6.571550
  H     10.620220   -4.525330   -7.514160
  H     12.178170   -6.957140   -9.506630
  H     10.645300   -6.321450   -8.862910
  H     12.194820   -8.383890   -7.782740

 Total Charge           Charge          ....    0
 Multiplicity           Mult            ....    1
 Number of Electrons    NEL             ....  460
 Basis Dimension        Dim             .... 1008

ORBITAL ENERGIES
----------------

  NO   OCC          E(Eh)            E(eV)
   0   2.0000     -89.042133     -2422.9596
   1   2.0000     -88.986764     -2421.4530
   2   2.0000     -88.978901     -2421.2390
   3   2.0000     -24.805030      -674.9792
   4   2.0000     -19.317550      -525.6573
   5   2.0000     -19.250958      -523.8452
   6   2.0000     -19.250822      -523.8415
   7   2.0000     -19.250083      -523.8214
   8   2.0000     -19.248670      -523.7829
   9   2.0000     -19.213781      -522.8336
  10   2.0000     -19.213742      -522.8325
  11   2.0000     -19.190625      -522.2035
  12   2.0000     -14.660591      -398.9350
  13   2.0000     -14.654371      -398.7657
  14   2.0000     -14.486443      -394.1962
  15   2.0000     -14.457773      -393.4160
  16   2.0000     -14.453129      -393.2896
  17   2.0000     -14.417257      -392.3135
  18   2.0000     -14.415234      -392.2584
  19   2.0000     -10.388640      -282.6893
  20   2.0000     -10.376870      -282.3690
  21   2.0000     -10.367578      -282.1161
  22   2.0000     -10.364684      -282.0374
  23   2.0000     -10.350887      -281.6620
  24   2.0000     -10.349024      -281.6113
  25   2.0000     -10.346876      -281.5528
  26   2.0000     -10.345772      -281.5228
  27   2.0000     -10.345103      -281.5046
  28   2.0000     -10.343439      -281.4593
  29   2.0000     -10.341521      -281.4071
  30   2.0000     -10.337192      -281.2893
  31   2.0000     -10.335786      -281.2510
  32   2.0000     -10.333241      -281.1818
  33   2.0000     -10.333196      -281.1806
  34   2.0000     -10.330640      -281.1110
  35   2.0000     -10.319731      -280.8142
  36   2.0000     -10.318501      -280.7807
  37   2.0000     -10.317327      -280.7487
  38   2.0000     -10.314421      -280.6697
  39   2.0000     -10.313468      -280.6437
  40   2.0000     -10.313075      -280.6330
  41   2.0000     -10.310492      -280.5628
  42   2.0000     -10.310080      -280.5515
  43   2.0000     -10.308033      -280.4958
  44   2.0000     -10.305048      -280.4146
  45   2.0000     -10.303775      -280.3800
  46   2.0000     -10.301694      -280.3234
  47   2.0000     -10.299549      -280.2650
  48   2.0000     -10.299267      -280.2573
  49   2.0000     -10.298871      -280.2465
  50   2.0000     -10.298531      -280.2373
  51   2.0000     -10.297857      -280.2189
  52   2.0000     -10.297539      -280.2103
  53   2.0000     -10.296881      -280.1924
  54   2.0000     -10.295469      -280.1540
  55   2.0000     -10.294407      -280.1251
  56   2.0000     -10.293955      -280.1128
  57   2.0000     -10.289972      -280.0044
  58   2.0000     -10.289562      -279.9932
  59   2.0000     -10.288716      -279.9702
  60   2.0000     -10.287752      -279.9440
  61   2.0000     -10.287350      -279.9330
  62   2.0000     -10.287132      -279.9271
  63   2.0000     -10.286744      -279.9165
  64   2.0000      -8.133717      -221.3297
  65   2.0000      -8.081253      -219.9021
  66   2.0000      -8.073946      -219.7032
  67   2.0000      -6.104942      -166.1239
  68   2.0000      -6.097125      -165.9112
  69   2.0000      -6.096163      -165.8850
  70   2.0000      -6.050676      -164.6473
  71   2.0000      -6.046471      -164.5328
  72   2.0000      -6.043369      -164.4484
  73   2.0000      -6.043339      -164.4476
  74   2.0000      -6.038960      -164.3284
  75   2.0000      -6.036152      -164.2520
  76   2.0000      -1.331700       -36.2374
  77   2.0000      -1.329205       -36.1695
  78   2.0000      -1.320135       -35.9227
  79   2.0000      -1.238782       -33.7090
  80   2.0000      -1.151634       -31.3375
  81   2.0000      -1.147584       -31.2274
  82   2.0000      -1.143973       -31.1291
  83   2.0000      -1.133220       -30.8365
  84   2.0000      -1.129523       -30.7359
  85   2.0000      -1.113122       -30.2896
  86   2.0000      -1.083642       -29.4874
  87   2.0000      -1.019285       -27.7362
  88   2.0000      -1.015459       -27.6320
  89   2.0000      -1.002700       -27.2849
  90   2.0000      -0.999432       -27.1959
  91   2.0000      -0.999143       -27.1881
  92   2.0000      -0.994723       -27.0678
  93   2.0000      -0.985688       -26.8219
  94   2.0000      -0.975839       -26.5539
  95   2.0000      -0.972831       -26.4721
  96   2.0000      -0.940939       -25.6043
  97   2.0000      -0.926597       -25.2140
  98   2.0000      -0.922497       -25.1024
  99   2.0000      -0.917443       -24.9649
 100   2.0000      -0.901326       -24.5263
 101   2.0000      -0.896226       -24.3875
 102   2.0000      -0.888905       -24.1883
 103   2.0000      -0.882703       -24.0196
 104   2.0000      -0.879584       -23.9347
 105   2.0000      -0.876299       -23.8453
 106   2.0000      -0.869159       -23.6510
 107   2.0000      -0.858449       -23.3596
 108   2.0000      -0.853556       -23.2264
 109   2.0000      -0.850290       -23.1376
 110   2.0000      -0.829490       -22.5716
 111   2.0000      -0.826216       -22.4825
 112   2.0000      -0.800546       -21.7840
 113   2.0000      -0.797446       -21.6996
 114   2.0000      -0.789328       -21.4787
 115   2.0000      -0.770005       -20.9529
 116   2.0000      -0.762003       -20.7352
 117   2.0000      -0.758757       -20.6468
 118   2.0000      -0.753229       -20.4964
 119   2.0000      -0.730962       -19.8905
 120   2.0000      -0.724819       -19.7233
 121   2.0000      -0.722628       -19.6637
 122   2.0000      -0.711685       -19.3659
 123   2.0000      -0.707007       -19.2386
 124   2.0000      -0.705447       -19.1962
 125   2.0000      -0.701869       -19.0988
 126   2.0000      -0.698674       -19.0119
 127   2.0000      -0.682525       -18.5724
 128   2.0000      -0.678929       -18.4746
 129   2.0000      -0.675077       -18.3698
 130   2.0000      -0.673189       -18.3184
 131   2.0000      -0.659963       -17.9585
 132   2.0000      -0.657100       -17.8806
 133   2.0000      -0.653506       -17.7828
 134   2.0000      -0.646159       -17.5829
 135   2.0000      -0.643406       -17.5080
 136   2.0000      -0.641504       -17.4562
 137   2.0000      -0.637489       -17.3470
 138   2.0000      -0.633945       -17.2505
 139   2.0000      -0.632883       -17.2216
 140   2.0000      -0.630821       -17.1655
 141   2.0000      -0.615547       -16.7499
 142   2.0000      -0.612131       -16.6569
 143   2.0000      -0.610302       -16.6072
 144   2.0000      -0.608653       -16.5623
 145   2.0000      -0.600874       -16.3506
 146   2.0000      -0.595653       -16.2085
 147   2.0000      -0.594133       -16.1672
 148   2.0000      -0.586843       -15.9688
 149   2.0000      -0.582825       -15.8595
 150   2.0000      -0.580468       -15.7953
 151   2.0000      -0.577320       -15.7097
 152   2.0000      -0.570223       -15.5166
 153   2.0000      -0.563340       -15.3292
 154   2.0000      -0.561550       -15.2806
 155   2.0000      -0.554738       -15.0952
 156   2.0000      -0.554193       -15.0804
 157   2.0000      -0.552239       -15.0272
 158   2.0000      -0.550668       -14.9844
 159   2.0000      -0.547762       -14.9054
 160   2.0000      -0.546455       -14.8698
 161   2.0000      -0.542592       -14.7647
 162   2.0000      -0.536794       -14.6069
 163   2.0000      -0.533580       -14.5194
 164   2.0000      -0.532331       -14.4855
 165   2.0000      -0.529921       -14.4199
 166   2.0000      -0.528037       -14.3686
 167   2.0000      -0.524524       -14.2730
 168   2.0000      -0.520349       -14.1594
 169   2.0000      -0.518638       -14.1129
 170   2.0000      -0.517520       -14.0824
 171   2.0000      -0.514554       -14.0017
 172   2.0000      -0.512529       -13.9466
 173   2.0000      -0.508091       -13.8259
 174   2.0000      -0.506516       -13.7830
 175   2.0000      -0.501648       -13.6505
 176   2.0000      -0.496991       -13.5238
 177   2.0000      -0.491213       -13.3666
 178   2.0000      -0.490323       -13.3424
 179   2.0000      -0.487581       -13.2678
 180   2.0000      -0.485607       -13.2140
 181   2.0000      -0.482143       -13.1198
 182   2.0000      -0.480717       -13.0810
 183   2.0000      -0.474831       -12.9208
 184   2.0000      -0.472567       -12.8592
 185   2.0000      -0.471692       -12.8354
 186   2.0000      -0.470772       -12.8104
 187   2.0000      -0.464863       -12.6496
 188   2.0000      -0.460047       -12.5185
 189   2.0000      -0.451273       -12.2798
 190   2.0000      -0.449554       -12.2330
 191   2.0000      -0.445454       -12.1214
 192   2.0000      -0.444912       -12.1067
 193   2.0000      -0.440526       -11.9873
 194   2.0000      -0.438500       -11.9322
 195   2.0000      -0.436990       -11.8911
 196   2.0000      -0.435020       -11.8375
 197   2.0000      -0.432122       -11.7586
 198   2.0000      -0.430027       -11.7016
 199   2.0000      -0.428647       -11.6641
 200   2.0000      -0.425710       -11.5842
 201   2.0000      -0.416751       -11.3404
 202   2.0000      -0.416112       -11.3230
 203   2.0000      -0.406674       -11.0662
 204   2.0000      -0.404258       -11.0004
 205   2.0000      -0.397025       -10.8036
 206   2.0000      -0.395389       -10.7591
 207   2.0000      -0.392947       -10.6926
 208   2.0000      -0.388129       -10.5615
 209   2.0000      -0.386188       -10.5087
 210   2.0000      -0.383614       -10.4387
 211   2.0000      -0.383172       -10.4266
 212   2.0000      -0.380114       -10.3434
 213   2.0000      -0.374214       -10.1829
 214   2.0000      -0.371958       -10.1215
 215   2.0000      -0.361775        -9.8444
 216   2.0000      -0.349994        -9.5238
 217   2.0000      -0.349393        -9.5075
 218   2.0000      -0.343731        -9.3534
 219   2.0000      -0.341840        -9.3019
 220   2.0000      -0.341732        -9.2990
 221   2.0000      -0.339385        -9.2351
 222   2.0000      -0.333683        -9.0800
 223   2.0000      -0.331588        -9.0230
 224   2.0000      -0.325171        -8.8483
 225   2.0000      -0.318280        -8.6608
 226   2.0000      -0.313686        -8.5358
 227   2.0000      -0.306232        -8.3330
 228   2.0000      -0.294499        -8.0137
 229   2.0000      -0.255407        -6.9500
 230   0.0000      -0.105027        -2.8579
 231   0.0000      -0.087151        -2.3715
 232   0.0000      -0.060764        -1.6535
 233   0.0000      -0.053401        -1.4531
 234   0.0000      -0.051962        -1.4140

MULLIKEN ATOMIC CHARGES
-----------------------
   0 C :    0.275570
   1 C :   -0.336770
   2 C :   -0.182098
   3 N :    0.154270
   4 C :   -0.192334
   5 N :    0.172009
   6 C :    0.036011
   7 C :    0.010321
   8 C :   -0.085005
   9 C :    0.098382
  10 C :    0.096862
  11 C :   -0.084958
  12 C :   -0.019937
  13 C :    0.037799
  14 C :    0.037967
  15 C :   -0.018410
  16 C :    0.138527
  17 O :   -0.133814
  18 C :   -0.135912
  19 C :    0.070683
  20 C :   -0.000727
  21 C :    0.099817
  22 O :   -0.153664
  23 C :    0.084068
  24 C :   -0.003185
  25 C :    0.183962
  26 O :   -0.180062
  27 C :   -0.159782
  28 C :    0.043747
  29 C :   -0.035384
  30 C :   -0.048663
  31 S :    0.157290
  32 C :   -0.107600
  33 S :    0.128889
  34 C :   -0.151520
  35 C :    0.094451
  36 C :    0.087445
  37 N :   -0.038696
  38 C :    0.157686
  39 N :    0.284542
  40 O :   -0.258480
  41 O :   -0.234239
  42 C :   -0.087813
  43 C :    0.165625
  44 C :   -0.134598
  45 C :    0.218659
  46 F :   -0.177241
  47 C :    0.021269
  48 C :   -0.024403
  49 C :    0.033042
  50 N :   -0.290434
  51 S :    0.532775
  52 N :   -0.281183
  53 C :    0.085233
  54 C :    0.019625
  55 C :   -0.013439
  56 C :    0.117049
  57 C :   -0.094273
  58 C :   -0.075377
  59 C :    0.327104
  60 O :   -0.323500
  61 N :    0.260083
  62 O :   -0.224171
  63 O :   -0.264795
  64 H :   -0.010443
  65 H :   -0.006085
  66 H :   -0.009484
  67 H :   -0.004809
  68 H :   -0.004786
  69 H :   -0.015874
  70 H :    0.034962
  71 H :    0.024609
  72 H :    0.023136
  73 H :   -0.006087
  74 H :   -0.006230
  75 H :    0.148086
  76 H :   -0.004554
  77 H :    0.007007
  78 H :   -0.005599
  79 H :    0.008766
  80 H :   -0.017329
  81 H :    0.004440
  82 H :   -0.008919
  83 H :    0.170898
Sum of atomic charges:   -0.0000000

LOEWDIN ATOMIC CHARGES
----------------------
   0 C :    0.068671
   1 C :   -0.136649
   2 C :   -0.018801
   3 N :   -0.050985
   4 C :   -0.018023
   5 N :   -0.043418
   6 C :   -0.024793
   7 C :   -0.057363
   8 C :    0.033260
   9 C :   -0.008320
  10 C :   -0.005724
  11 C :    0.016568
  12 C :   -0.006178
  13 C :   -0.012753
  14 C :   -0.012049
  15 C :   -0.009097
  16 C :    0.084591
  17 O :   -0.135203
  18 C :   -0.087216
  19 C :    0.088383
  20 C :   -0.066774
  21 C :    0.068063
  22 O :    0.052803
  23 C :    0.063593
  24 C :   -0.087914
  25 C :    0.058912
  26 O :   -0.156728
  27 C :   -0.216700
  28 C :   -0.025972
  29 C :   -0.072541
  30 C :   -0.164950
  31 S :    0.473762
  32 C :   -0.216323
  33 S :    0.473343
  34 C :   -0.160064
  35 C :   -0.052061
  36 C :   -0.001138
  37 N :    0.064562
  38 C :    0.000346
  39 N :    0.279058
  40 O :   -0.216751
  41 O :   -0.195863
  42 C :   -0.021911
  43 C :   -0.025729
  44 C :   -0.047647
  45 C :    0.100710
  46 F :   -0.051158
  47 C :   -0.063537
  48 C :   -0.034969
  49 C :   -0.043470
  50 N :   -0.266710
  51 S :    0.657480
  52 N :   -0.283622
  53 C :    0.006186
  54 C :   -0.001448
  55 C :    0.004445
  56 C :   -0.035913
  57 C :   -0.016344
  58 C :   -0.004376
  59 C :    0.073778
  60 O :   -0.139962
  61 N :    0.291686
  62 O :   -0.189755
  63 O :   -0.205801
  64 H :    0.039894
  65 H :    0.038446
  66 H :    0.034528
  67 H :    0.033236
  68 H :    0.033030
  69 H :    0.032312
  70 H :    0.051445
  71 H :    0.029100
  72 H :    0.029523
  73 H :    0.034345
  74 H :    0.027871
  75 H :    0.085655
  76 H :    0.031277
  77 H :    0.033206
  78 H :    0.033063
  79 H :    0.041378
  80 H :    0.030626
  81 H :    0.012783
  82 H :    0.022022
  83 H :    0.058765

  Mayer bond orders larger than 0.100000
B(  0-C ,  1-C ) :   1.6697 B(  0-C ,  6-C ) :   1.0015 B(  0-C , 18-C ) :   1.0062
B(  1-C ,  2-C ) :   1.1292 B(  1-C ,  4-C ) :   1.1586 B(  2-C ,  3-N ) :   2.9871
B(  4-C ,  5-N ) :   3.0057 B(  6-C ,  7-C ) :   1.2156 B(  6-C , 11-C ) :   1.4505
B(  7-C ,  8-C ) :   1.4724 B(  7-C , 16-C ) :   0.9193 B(  8-C ,  9-C ) :   1.1863
B(  8-C , 64-H ) :   1.0162 B(  9-C , 10-C ) :   1.2555 B(  9-C , 15-C ) :   1.2430
B( 10-C , 11-C ) :   1.2069 B( 10-C , 12-C ) :   1.2396 B( 11-C , 65-H ) :   0.9933
B( 12-C , 13-C ) :   1.4921 B( 12-C , 66-H ) :   0.9972 B( 13-C , 14-C ) :   1.2590
B( 13-C , 67-H ) :   0.9881 B( 14-C , 15-C ) :   1.4913 B( 14-C , 68-H ) :   0.9883
B( 15-C , 69-H ) :   0.9978 B( 16-C , 17-O ) :   2.2813 B( 16-C , 18-C ) :   0.9253
B( 18-C , 19-C ) :   1.7643 B( 19-C , 20-C ) :   1.0219 B( 19-C , 70-H ) :   0.9254
B( 20-C , 21-C ) :   1.4900 B( 20-C , 24-C ) :   1.2461 B( 21-C , 22-O ) :   1.1721
B( 21-C , 71-H ) :   1.0037 B( 22-O , 23-C ) :   1.1759 B( 23-C , 24-C ) :   1.5185
B( 23-C , 72-H ) :   1.0016 B( 24-C , 25-C ) :   0.9358 B( 25-C , 26-O ) :   2.1893
B( 25-C , 27-C ) :   0.9871 B( 27-C , 28-C ) :   1.5069 B( 27-C , 30-C ) :   0.1039
B( 27-C , 31-S ) :   1.1169 B( 28-C , 29-C ) :   1.2872 B( 28-C , 73-H ) :   0.9874
B( 29-C , 30-C ) :   1.4633 B( 29-C , 74-H ) :   0.9957 B( 30-C , 31-S ) :   1.1415
B( 30-C , 32-C ) :   1.1848 B( 32-C , 33-S ) :   1.1075 B( 32-C , 34-C ) :   0.1130
B( 32-C , 36-C ) :   1.4082 B( 33-S , 34-C ) :   1.1459 B( 34-C , 35-C ) :   1.3584
B( 34-C , 43-C ) :   1.1538 B( 35-C , 36-C ) :   1.2085 B( 35-C , 42-C ) :   1.1605
B( 36-C , 37-N ) :   1.1959 B( 37-N , 38-C ) :   1.1610 B( 37-N , 75-H ) :   0.9016
B( 38-C , 39-N ) :   0.9190 B( 38-C , 42-C ) :   1.4883 B( 39-N , 40-O ) :   1.4797
B( 39-N , 41-O ) :   1.5437 B( 40-O , 41-O ) :   0.2742 B( 42-C , 76-H ) :   1.0165
B( 43-C , 44-C ) :   1.3866 B( 43-C , 47-C ) :   0.1069 B( 43-C , 49-C ) :   1.1723
B( 44-C , 45-C ) :   1.2360 B( 44-C , 77-H ) :   0.9863 B( 45-C , 46-F ) :   1.1128
B( 45-C , 47-C ) :   1.4253 B( 47-C , 48-C ) :   1.2004 B( 47-C , 53-C ) :   0.9723
B( 48-C , 49-C ) :   1.1448 B( 48-C , 52-N ) :   1.5371 B( 49-C , 50-N ) :   1.5408
B( 50-N , 51-S ) :   1.2608 B( 50-N , 52-N ) :   0.1427 B( 51-S , 52-N ) :   1.2656
B( 53-C , 54-C ) :   1.3556 B( 53-C , 58-C ) :   1.3437 B( 54-C , 55-C ) :   1.3729
B( 54-C , 78-H ) :   0.9900 B( 55-C , 56-C ) :   1.3635 B( 55-C , 79-H ) :   0.9888
B( 56-C , 57-C ) :   1.3829 B( 56-C , 61-N ) :   0.8989 B( 57-C , 58-C ) :   1.4101
B( 57-C , 59-C ) :   1.0046 B( 58-C , 80-H ) :   0.9922 B( 59-C , 60-O ) :   1.0899
B( 59-C , 81-H ) :   0.9310 B( 59-C , 82-H ) :   0.9231 B( 60-O , 83-H ) :   0.9647
B( 61-N , 62-O ) :   1.5811 B( 61-N , 63-O ) :   1.4839 B( 62-O , 63-O ) :   0.2553

-----------------------------------------------------------------------------
         ABSORPTION SPECTRUM VIA TRANSITION ELECTRIC DIPOLE MOMENTS
-----------------------------------------------------------------------------
State   Energy  Wavelength   fosc         T2         TX        TY        TZ
        (cm-1)    (nm)                  (au**2)     (au)      (au)      (au)
-----------------------------------------------------------------------------
   0   17039.1    586.9   1.088421977  21.02934   2.95896  -2.95862  -1.87629
   1   25335.7    394.7   0.000655942   0.00852   0.00602   0.07802   0.04900
   2   26185.3    381.9   0.038677799   0.48627   0.60772  -0.16760  -0.29809
   3   27148.5    368.3   0.309257807   3.75017  -1.37696   1.27001   0.49114
   4   27584.2    362.5   0.328738441   3.92343  -1.56085   0.45725   1.13053
   5   28121.9    355.6   0.070214959   0.82198  -0.20210   0.51594   0.71760
   6   29091.3    343.7   0.147705220   1.67151  -0.49567  -1.18651  -0.13425
   7   29393.4    340.2   0.027038933   0.30284  -0.11180   0.11614  -0.52617
   8   30340.2    329.6   0.164459538   1.78450   0.67031  -1.08689  -0.39226
   9   30623.5    326.5   0.030970296   0.33294   0.25307  -0.02922  -0.51773
  10   30697.2    325.8   0.193996770   2.08052  -1.15238  -0.86406   0.07705
  11   32016.8    312.3   0.004357274   0.04480  -0.03480   0.06498   0.19842
  12   32868.9    304.2   0.012235423   0.12255   0.34581  -0.01147   0.05321
  13   32979.3    303.2   0.007844903   0.07831  -0.15731  -0.18488  -0.13922
  14   33253.2    300.7   0.073577480   0.72843  -0.15704   0.04639  -0.83762
  15   33978.5    294.3   0.134988791   1.30788  -0.94874   0.02085   0.63823
  16   34572.2    289.2   0.000307649   0.00293  -0.03074  -0.04120   0.01695
  17   34628.2    288.8   0.010275786   0.09769  -0.03076   0.28877  -0.11558
  18   34730.1    287.9   0.010296065   0.09760  -0.01019   0.10694   0.29336
  19   34972.2    285.9   0.933745775   8.78984   0.01622  -0.83931  -2.84344
  20   35403.8    282.5   0.105762370   0.98346   0.31180   0.94115   0.02192
  21   35836.5    279.0   0.018999548   0.17454  -0.41503   0.02491  -0.04083
  22   36176.2    276.4   0.056482332   0.51400  -0.10503   0.25600   0.66139
  23   36478.9    274.1   0.052486639   0.47368  -0.52129  -0.07413   0.44321
  24   36590.9    273.3   0.316329060   2.84604   0.46834  -1.13592  -1.15602
  25   37082.0    269.7   0.059790902   0.53082   0.17251  -0.47275  -0.52685
  26   38024.0    263.0   0.003629308   0.03142   0.14021   0.10844   0.00198
  27   38224.8    261.6   0.054807139   0.47203  -0.43938  -0.52805   0.01195
  28   38924.1    256.9   0.077976072   0.65950   0.78542   0.19260   0.07428
  29   39306.4    254.4   0.000359771   0.00301  -0.00692  -0.00308  -0.05437
  30   39551.2    252.8   0.059822045   0.49794  -0.36459  -0.60019  -0.06921
  31   39865.9    250.8   0.249948458   2.06407   0.18209   1.39460   0.29325
  32   40009.4    249.9   0.001872583   0.01541   0.01050  -0.05222  -0.11212
  33   40078.5    249.5   0.011715017   0.09623  -0.29165   0.09782   0.04004

FINAL SINGLE POINT ENERGY     -4002.247747754795

DIPOLE MOMENT
-------------
                                X             Y             Z
Electronic contribution:     24.33220      -0.82603     -19.09137
Nuclear contribution   :    -26.03894       0.50279      20.89142
                        -----------------------------------------
Total Dipole Moment    :     -1.70673      -0.32324       1.80005
                        -----------------------------------------
Magnitude (a.u.)       :      2.50152
Magnitude (Debye)      :      6.35836

Rotational constants in cm-1:     0.002941     0.000260     0.000249
Rotational constants in MHz :    88.157958     7.781344     7.475801

                             ****ORCA TERMINATED NORMALLY****
TOTAL RUN TIME: 0 days 0 hours 7 minutes 13 seconds 851 msec
