                         Program Version 4.2.0 -  RELEASE  -
|  1> # ORCA input file
|  2> # SCF done       -198.023242442911          0.000296696210
|  3> ! CAM-B3LYP def2-SVP def2/J RIJCOSX Grid4 TightSCF
|  4> %maxcore 5000
|  5> %tddft
|  6>     Mode sTDDFT
|  7>     Ethresh 5.0
|  8>     maxcore 5000
|  9> end
| 10>
| 11> %pal
| 12>   nprocs 6
| 13>   end
| 14> * xyz 0 1
| 15>    C        1.32218         5.95687        -4.99719
| 16>    C        1.22297         7.19199        -4.41186
| 17>    C        2.28138         7.82271        -3.72917
| 18>    N        3.10672         8.37048        -3.14888
| 19>    C        0.07331         8.00229        -4.51231
| 20>    N       -0.82690         8.70666        -4.62018
| 21>    C        2.55945         5.21121        -5.19236
| 22>    C        2.37148         4.30290        -6.27588
| 23>    C        3.38210         3.49790        -6.71652
| 24>    C        4.64042         3.55679        -6.07521
| 25>    C        4.82756         4.45004        -4.98068
| 26>    C        3.76609         5.27944        -4.55102
| 27>    C        6.08501         4.49189        -4.34520
| 28>    C        7.11152         3.69333        -4.77050
| 29>    C        6.92732         2.81559        -5.84914
| 30>    C        5.71861         2.74914        -6.48759
| 31>    C        0.98068         4.39725        -6.75732
| 32>    O        0.47127         3.82588        -7.69392
| 33>    C        0.30006         5.30671        -5.79121
| 34>    C       -1.05700         5.30744        -5.70281
| 35>    C       -1.86909         5.72472        -4.62095
| 36>    C       -3.22396         5.99046        -4.66098
| 37>    C       -3.75214         6.33215        -3.41921
| 38>   Cl       -5.39883         6.74370        -3.19170
| 39>    C       -2.83017         6.30298        -2.37509
| 40>    S       -1.27083         5.84331        -2.98785
| 41>    C       -3.03355         6.59686        -1.01057
| 42>    C       -2.09687         6.57587         0.02312
| 43>   Cl       -0.45401         6.15156        -0.21852
| 44>    C       -2.59482         6.93485         1.26851
| 45>    C       -3.94504         7.25389         1.24320
| 46>    S       -4.57841         7.08687        -0.37769
| 47>    C       -4.80895         7.67851         2.26482
| 48>    C       -4.52327         7.83973         3.59881
| 49>    C       -5.43471         8.30587         4.58090
| 50>    C       -4.92121         8.37958         5.84016
| 51>    C       -3.57412         7.96631         5.93047
| 52>    S       -2.98103         7.49283         4.35459
| 53>    C       -2.76363         7.90004         7.04813
| 54>    C       -3.06333         8.26208         8.37927
| 55>    C       -2.03365         8.06117         9.24799
| 56>    C       -0.86176         7.52135         8.65849
| 57>    S       -1.12488         7.29702         6.94126
| 58>    C        0.29302         7.20799         9.33421
| 59>    C        1.46835         6.64203         8.81699
| 60>    C        1.80570         6.26900         7.52324
| 61>    C        3.07411         5.71305         7.42918
| 62>   Cl        3.72520         5.16715         5.94136
| 63>    C        3.77003         5.63301         8.63720
| 64>    S        2.78348         6.28996         9.91322
| 65>    C        5.05704         5.10419         8.86585
| 66>    C        5.75970         5.02334        10.07311
| 67>   Cl        5.12224         5.61030        11.55185
| 68>    C        7.00965         4.42807         9.98193
| 69>    C        7.32345         4.02490         8.69421
| 70>    S        6.01306         4.41159         7.59629
| 71>    C        8.43015         3.36934         8.12315
| 72>    C        9.62327         2.95722         8.65499
| 73>    C       10.64193         2.25893         7.88644
| 74>    C       10.52042         1.73787         6.62279
| 75>    C       11.55697         1.06088         5.94600
| 76>    N       12.35020         0.50261         5.33122
| 77>    C        9.36652         1.75416         5.81134
| 78>    N        8.48110         1.69843         5.08084
| 79>    C       11.83386         2.14536         8.71945
| 80>    C       11.54093         2.69125         9.99983
| 81>    C       10.15421         3.18734        10.02022
| 82>    O        9.59723         3.68493        10.97802
| 83>    C       12.46428         2.71798        11.00454
| 84>    C       13.75415         2.19227        10.76801
| 85>    C       14.05879         1.64916         9.48688
| 86>    C       13.07925         1.63355         8.46728
| 87>    C       15.34935         1.12968         9.25933
| 88>    C       16.29459         1.14448        10.24861
| 89>    C       15.99337         1.67949        11.50987
| 90>    C       14.75007         2.19204        11.76407
| 91>    H        3.22501         2.82214        -7.54410
| 92>    H        3.92834         5.94172        -3.71474
| 93>    H        6.22235         5.17126        -3.51681
| 94>    H        8.07130         3.73353        -4.27761
| 95>    H        7.74773         2.19185        -6.17126
| 96>    H        5.57125         2.07468        -7.31846
| 97>    H       -1.58112         4.85010        -6.53643
| 98>    H       -3.80318         5.97290        -5.56585
| 99>    H       -1.98007         6.96738         2.14726
|100>    H       -5.82193         7.90925         1.96132
|101>    H       -6.44288         8.57453         4.31954
|102>    H       -5.47306         8.71162         6.70094
|103>    H       -4.02227         8.66004         8.65823
|104>    H       -2.07620         8.27840        10.30057
|105>    H        0.29306         7.40704        10.39813
|106>    H        1.16528         6.38979         6.67096
|107>    H        7.67268         4.29198        10.81686
|108>    H        8.29131         3.17279         7.06615
|109>    H       12.21338         3.13658        11.96796
|110>    H       13.34508         1.21835         7.50851
|111>    H       15.57600         0.71799         8.28672
|112>    H       17.28018         0.74371        10.06450
|113>    H       16.75132         1.68358        12.27897
|114>    H       14.51224         2.60535        12.73341
|115> *
|116>
|117>                          ****END OF INPUT****

CARTESIAN COORDINATES (ANGSTROEM)
---------------------------------
  C      1.322180    5.956870   -4.997190
  C      1.222970    7.191990   -4.411860
  C      2.281380    7.822710   -3.729170
  N      3.106720    8.370480   -3.148880
  C      0.073310    8.002290   -4.512310
  N     -0.826900    8.706660   -4.620180
  C      2.559450    5.211210   -5.192360
  C      2.371480    4.302900   -6.275880
  C      3.382100    3.497900   -6.716520
  C      4.640420    3.556790   -6.075210
  C      4.827560    4.450040   -4.980680
  C      3.766090    5.279440   -4.551020
  C      6.085010    4.491890   -4.345200
  C      7.111520    3.693330   -4.770500
  C      6.927320    2.815590   -5.849140
  C      5.718610    2.749140   -6.487590
  C      0.980680    4.397250   -6.757320
  O      0.471270    3.825880   -7.693920
  C      0.300060    5.306710   -5.791210
  C     -1.057000    5.307440   -5.702810
  C     -1.869090    5.724720   -4.620950
  C     -3.223960    5.990460   -4.660980
  C     -3.752140    6.332150   -3.419210
  Cl    -5.398830    6.743700   -3.191700
  C     -2.830170    6.302980   -2.375090
  S     -1.270830    5.843310   -2.987850
  C     -3.033550    6.596860   -1.010570
  C     -2.096870    6.575870    0.023120
  Cl    -0.454010    6.151560   -0.218520
  C     -2.594820    6.934850    1.268510
  C     -3.945040    7.253890    1.243200
  S     -4.578410    7.086870   -0.377690
  C     -4.808950    7.678510    2.264820
  C     -4.523270    7.839730    3.598810
  C     -5.434710    8.305870    4.580900
  C     -4.921210    8.379580    5.840160
  C     -3.574120    7.966310    5.930470
  S     -2.981030    7.492830    4.354590
  C     -2.763630    7.900040    7.048130
  C     -3.063330    8.262080    8.379270
  C     -2.033650    8.061170    9.247990
  C     -0.861760    7.521350    8.658490
  S     -1.124880    7.297020    6.941260
  C      0.293020    7.207990    9.334210
  C      1.468350    6.642030    8.816990
  C      1.805700    6.269000    7.523240
  C      3.074110    5.713050    7.429180
  Cl     3.725200    5.167150    5.941360
  C      3.770030    5.633010    8.637200
  S      2.783480    6.289960    9.913220
  C      5.057040    5.104190    8.865850
  C      5.759700    5.023340   10.073110
  Cl     5.122240    5.610300   11.551850
  C      7.009650    4.428070    9.981930
  C      7.323450    4.024900    8.694210
  S      6.013060    4.411590    7.596290
  C      8.430150    3.369340    8.123150
  C      9.623270    2.957220    8.654990
  C     10.641930    2.258930    7.886440
  C     10.520420    1.737870    6.622790
  C     11.556970    1.060880    5.946000
  N     12.350200    0.502610    5.331220
  C      9.366520    1.754160    5.811340
  N      8.481100    1.698430    5.080840
  C     11.833860    2.145360    8.719450
  C     11.540930    2.691250    9.999830
  C     10.154210    3.187340   10.020220
  O      9.597230    3.684930   10.978020
  C     12.464280    2.717980   11.004540
  C     13.754150    2.192270   10.768010
  C     14.058790    1.649160    9.486880
  C     13.079250    1.633550    8.467280
  C     15.349350    1.129680    9.259330
  C     16.294590    1.144480   10.248610
  C     15.993370    1.679490   11.509870
  C     14.750070    2.192040   11.764070
  H      3.225010    2.822140   -7.544100
  H      3.928340    5.941720   -3.714740
  H      6.222350    5.171260   -3.516810
  H      8.071300    3.733530   -4.277610
  H      7.747730    2.191850   -6.171260
  H      5.571250    2.074680   -7.318460
  H     -1.581120    4.850100   -6.536430
  H     -3.803180    5.972900   -5.565850
  H     -1.980070    6.967380    2.147260
  H     -5.821930    7.909250    1.961320
  H     -6.442880    8.574530    4.319540
  H     -5.473060    8.711620    6.700940
  H     -4.022270    8.660040    8.658230
  H     -2.076200    8.278400   10.300570
  H      0.293060    7.407040   10.398130
  H      1.165280    6.389790    6.670960
  H      7.672680    4.291980   10.816860
  H      8.291310    3.172790    7.066150
  H     12.213380    3.136580   11.967960
  H     13.345080    1.218350    7.508510
  H     15.576000    0.717990    8.286720
  H     17.280180    0.743710   10.064500
  H     16.751320    1.683580   12.278970
  H     14.512240    2.605350   12.733410

 Total Charge           Charge          ....    0
 Multiplicity           Mult            ....    1
 Number of Electrons    NEL             ....  592
 Basis Dimension        Dim             .... 1224

ORBITAL ENERGIES
----------------

  NO   OCC          E(Eh)            E(eV)
   0   2.0000    -101.602868     -2764.7546
   1   2.0000    -101.601987     -2764.7306
   2   2.0000    -101.600528     -2764.6909
   3   2.0000    -101.599722     -2764.6690
   4   2.0000     -88.970431     -2421.0085
   5   2.0000     -88.969294     -2420.9776
   6   2.0000     -88.968892     -2420.9666
   7   2.0000     -88.968223     -2420.9484
   8   2.0000     -88.959615     -2420.7142
   9   2.0000     -88.959420     -2420.7089
  10   2.0000     -19.213324      -522.8211
  11   2.0000     -19.207698      -522.6680
  12   2.0000     -14.410818      -392.1383
  13   2.0000     -14.408968      -392.0880
  14   2.0000     -14.407818      -392.0567
  15   2.0000     -14.405918      -392.0050
  16   2.0000     -10.364282      -282.0265
  17   2.0000     -10.359705      -281.9019
  18   2.0000     -10.341498      -281.4065
  19   2.0000     -10.339544      -281.3533
  20   2.0000     -10.336116      -281.2600
  21   2.0000     -10.336080      -281.2590
  22   2.0000     -10.336037      -281.2579
  23   2.0000     -10.335595      -281.2458
  24   2.0000     -10.335161      -281.2340
  25   2.0000     -10.334362      -281.2123
  26   2.0000     -10.334338      -281.2116
  27   2.0000     -10.331807      -281.1428
  28   2.0000     -10.325133      -280.9612
  29   2.0000     -10.324735      -280.9503
  30   2.0000     -10.324397      -280.9411
  31   2.0000     -10.323218      -280.9091
  32   2.0000     -10.322811      -280.8980
  33   2.0000     -10.321967      -280.8750
  34   2.0000     -10.319704      -280.8134
  35   2.0000     -10.318109      -280.7700
  36   2.0000     -10.316754      -280.7331
  37   2.0000     -10.316528      -280.7270
  38   2.0000     -10.314003      -280.6583
  39   2.0000     -10.312896      -280.6282
  40   2.0000     -10.312666      -280.6219
  41   2.0000     -10.311474      -280.5895
  42   2.0000     -10.311424      -280.5881
  43   2.0000     -10.308192      -280.5002
  44   2.0000     -10.299450      -280.2623
  45   2.0000     -10.299092      -280.2525
  46   2.0000     -10.298787      -280.2443
  47   2.0000     -10.297813      -280.2177
  48   2.0000     -10.297724      -280.2153
  49   2.0000     -10.297686      -280.2143
  50   2.0000     -10.297287      -280.2034
  51   2.0000     -10.297179      -280.2005
  52   2.0000     -10.296917      -280.1934
  53   2.0000     -10.294736      -280.1340
  54   2.0000     -10.293171      -280.0914
  55   2.0000     -10.292814      -280.0817
  56   2.0000     -10.291888      -280.0565
  57   2.0000     -10.291828      -280.0549
  58   2.0000     -10.291580      -280.0481
  59   2.0000     -10.291532      -280.0468
  60   2.0000     -10.291369      -280.0424
  61   2.0000     -10.291130      -280.0359
  62   2.0000     -10.290509      -280.0190
  63   2.0000     -10.289257      -279.9849
  64   2.0000     -10.288421      -279.9622
  65   2.0000     -10.288027      -279.9514
  66   2.0000     -10.283477      -279.8276
  67   2.0000     -10.283078      -279.8168
  68   2.0000     -10.282872      -279.8112
  69   2.0000     -10.282261      -279.7945
  70   2.0000     -10.281898      -279.7847
  71   2.0000     -10.281388      -279.7708
  72   2.0000     -10.280607      -279.7495
  73   2.0000     -10.280104      -279.7358
  74   2.0000     -10.279782      -279.7271
  75   2.0000     -10.279268      -279.7131
  76   2.0000      -9.557633      -260.0764
  77   2.0000      -9.556736      -260.0520
  78   2.0000      -9.555284      -260.0125
  79   2.0000      -9.554517      -259.9916
  80   2.0000      -8.065327      -219.4687
  81   2.0000      -8.063774      -219.4264
  82   2.0000      -8.063644      -219.4229
  83   2.0000      -8.063114      -219.4085
  84   2.0000      -8.055545      -219.2025
  85   2.0000      -8.055478      -219.2007
  86   2.0000      -7.327690      -199.3966
  87   2.0000      -7.326813      -199.3727
  88   2.0000      -7.325406      -199.3344
  89   2.0000      -7.324601      -199.3125
  90   2.0000      -7.317771      -199.1267
  91   2.0000      -7.317607      -199.1222
  92   2.0000      -7.316847      -199.1015
  93   2.0000      -7.316720      -199.0981
  94   2.0000      -7.315335      -199.0604
  95   2.0000      -7.315313      -199.0598
  96   2.0000      -7.314575      -199.0397
  97   2.0000      -7.314561      -199.0393
  98   2.0000      -6.034706      -164.2127
  99   2.0000      -6.033292      -164.1742
 100   2.0000      -6.033187      -164.1714
 101   2.0000      -6.032620      -164.1559
 102   2.0000      -6.030434      -164.0965
 103   2.0000      -6.029042      -164.0586
 104   2.0000      -6.028825      -164.0527
 105   2.0000      -6.028383      -164.0406
 106   2.0000      -6.027239      -164.0095
 107   2.0000      -6.025431      -163.9603
 108   2.0000      -6.025374      -163.9588
 109   2.0000      -6.025285      -163.9563
 110   2.0000      -6.025217      -163.9545
 111   2.0000      -6.024802      -163.9432
 112   2.0000      -6.021160      -163.8441
 113   2.0000      -6.021109      -163.8427
 114   2.0000      -6.016562      -163.7190
 115   2.0000      -6.016473      -163.7165
 116   2.0000      -1.127752       -30.6877
 117   2.0000      -1.122847       -30.5542
 118   2.0000      -1.028796       -27.9949
 119   2.0000      -1.028727       -27.9931
 120   2.0000      -1.012888       -27.5621
 121   2.0000      -1.012209       -27.5436
 122   2.0000      -1.009466       -27.4690
 123   2.0000      -1.004663       -27.3383
 124   2.0000      -1.003071       -27.2949
 125   2.0000      -0.993592       -27.0370
 126   2.0000      -0.991465       -26.9791
 127   2.0000      -0.987639       -26.8750
 128   2.0000      -0.986513       -26.8444
 129   2.0000      -0.985822       -26.8256
 130   2.0000      -0.968009       -26.3409
 131   2.0000      -0.967333       -26.3225
 132   2.0000      -0.962339       -26.1866
 133   2.0000      -0.960913       -26.1478
 134   2.0000      -0.953372       -25.9426
 135   2.0000      -0.952475       -25.9181
 136   2.0000      -0.920130       -25.0380
 137   2.0000      -0.918419       -24.9915
 138   2.0000      -0.910651       -24.7801
 139   2.0000      -0.903624       -24.5889
 140   2.0000      -0.898081       -24.4380
 141   2.0000      -0.890403       -24.2291
 142   2.0000      -0.880747       -23.9663
 143   2.0000      -0.876462       -23.8498
 144   2.0000      -0.875192       -23.8152
 145   2.0000      -0.872006       -23.7285
 146   2.0000      -0.863225       -23.4895
 147   2.0000      -0.853493       -23.2247
 148   2.0000      -0.851667       -23.1750
 149   2.0000      -0.837353       -22.7855
 150   2.0000      -0.832949       -22.6657
 151   2.0000      -0.827796       -22.5255
 152   2.0000      -0.827055       -22.5053
 153   2.0000      -0.823678       -22.4134
 154   2.0000      -0.822146       -22.3717
 155   2.0000      -0.821770       -22.3615
 156   2.0000      -0.815765       -22.1981
 157   2.0000      -0.805943       -21.9308
 158   2.0000      -0.789322       -21.4785
 159   2.0000      -0.775396       -21.0996
 160   2.0000      -0.763664       -20.7804
 161   2.0000      -0.757275       -20.6065
 162   2.0000      -0.753198       -20.4955
 163   2.0000      -0.742124       -20.1942
 164   2.0000      -0.720950       -19.6181
 165   2.0000      -0.717749       -19.5309
 166   2.0000      -0.706167       -19.2158
 167   2.0000      -0.699861       -19.0442
 168   2.0000      -0.699271       -19.0281
 169   2.0000      -0.694613       -18.9014
 170   2.0000      -0.693341       -18.8668
 171   2.0000      -0.681210       -18.5367
 172   2.0000      -0.677968       -18.4484
 173   2.0000      -0.675187       -18.3728
 174   2.0000      -0.669795       -18.2260
 175   2.0000      -0.667469       -18.1628
 176   2.0000      -0.663291       -18.0491
 177   2.0000      -0.653399       -17.7799
 178   2.0000      -0.646604       -17.5950
 179   2.0000      -0.640005       -17.4154
 180   2.0000      -0.634719       -17.2716
 181   2.0000      -0.632628       -17.2147
 182   2.0000      -0.628789       -17.1102
 183   2.0000      -0.626683       -17.0529
 184   2.0000      -0.625779       -17.0283
 185   2.0000      -0.617173       -16.7941
 186   2.0000      -0.611759       -16.6468
 187   2.0000      -0.604799       -16.4574
 188   2.0000      -0.601988       -16.3809
 189   2.0000      -0.601040       -16.3551
 190   2.0000      -0.594530       -16.1780
 191   2.0000      -0.592513       -16.1231
 192   2.0000      -0.585073       -15.9207
 193   2.0000      -0.580126       -15.7860
 194   2.0000      -0.573685       -15.6108
 195   2.0000      -0.567528       -15.4432
 196   2.0000      -0.563165       -15.3245
 197   2.0000      -0.548511       -14.9258
 198   2.0000      -0.547654       -14.9024
 199   2.0000      -0.544685       -14.8216
 200   2.0000      -0.542888       -14.7727
 201   2.0000      -0.541199       -14.7268
 202   2.0000      -0.539231       -14.6732
 203   2.0000      -0.537798       -14.6342
 204   2.0000      -0.535813       -14.5802
 205   2.0000      -0.533249       -14.5104
 206   2.0000      -0.531805       -14.4711
 207   2.0000      -0.528302       -14.3758
 208   2.0000      -0.526764       -14.3340
 209   2.0000      -0.526663       -14.3312
 210   2.0000      -0.525218       -14.2919
 211   2.0000      -0.520923       -14.1750
 212   2.0000      -0.518715       -14.1150
 213   2.0000      -0.516584       -14.0570
 214   2.0000      -0.514200       -13.9921
 215   2.0000      -0.512428       -13.9439
 216   2.0000      -0.511550       -13.9200
 217   2.0000      -0.510659       -13.8957
 218   2.0000      -0.508341       -13.8327
 219   2.0000      -0.505987       -13.7686
 220   2.0000      -0.505171       -13.7464
 221   2.0000      -0.501567       -13.6483
 222   2.0000      -0.499014       -13.5789
 223   2.0000      -0.497860       -13.5474
 224   2.0000      -0.496097       -13.4995
 225   2.0000      -0.493644       -13.4327
 226   2.0000      -0.492769       -13.4089
 227   2.0000      -0.491741       -13.3809
 228   2.0000      -0.491384       -13.3712
 229   2.0000      -0.489997       -13.3335
 230   2.0000      -0.484704       -13.1895
 231   2.0000      -0.482698       -13.1349
 232   2.0000      -0.481348       -13.0981
 233   2.0000      -0.477283       -12.9875
 234   2.0000      -0.473857       -12.8943
 235   2.0000      -0.468763       -12.7557
 236   2.0000      -0.461026       -12.5451
 237   2.0000      -0.460321       -12.5260
 238   2.0000      -0.457346       -12.4450
 239   2.0000      -0.457197       -12.4410
 240   2.0000      -0.454509       -12.3678
 241   2.0000      -0.452914       -12.3244
 242   2.0000      -0.445492       -12.1225
 243   2.0000      -0.444346       -12.0913
 244   2.0000      -0.443198       -12.0600
 245   2.0000      -0.441103       -12.0030
 246   2.0000      -0.440158       -11.9773
 247   2.0000      -0.439339       -11.9550
 248   2.0000      -0.438089       -11.9210
 249   2.0000      -0.437989       -11.9183
 250   2.0000      -0.436671       -11.8824
 251   2.0000      -0.435556       -11.8521
 252   2.0000      -0.435220       -11.8429
 253   2.0000      -0.434766       -11.8306
 254   2.0000      -0.433094       -11.7851
 255   2.0000      -0.428839       -11.6693
 256   2.0000      -0.428355       -11.6561
 257   2.0000      -0.427055       -11.6208
 258   2.0000      -0.425559       -11.5801
 259   2.0000      -0.422913       -11.5081
 260   2.0000      -0.420276       -11.4363
 261   2.0000      -0.418664       -11.3924
 262   2.0000      -0.413848       -11.2614
 263   2.0000      -0.410430       -11.1684
 264   2.0000      -0.409801       -11.1512
 265   2.0000      -0.406845       -11.0708
 266   2.0000      -0.403421       -10.9776
 267   2.0000      -0.400532       -10.8990
 268   2.0000      -0.399123       -10.8607
 269   2.0000      -0.393375       -10.7043
 270   2.0000      -0.385280       -10.4840
 271   2.0000      -0.384588       -10.4652
 272   2.0000      -0.383255       -10.4289
 273   2.0000      -0.376175       -10.2363
 274   2.0000      -0.371210       -10.1011
 275   2.0000      -0.370759       -10.0889
 276   2.0000      -0.370351       -10.0778
 277   2.0000      -0.364462        -9.9175
 278   2.0000      -0.351491        -9.5646
 279   2.0000      -0.350713        -9.5434
 280   2.0000      -0.336543        -9.1578
 281   2.0000      -0.335414        -9.1271
 282   2.0000      -0.333767        -9.0823
 283   2.0000      -0.329678        -8.9710
 284   2.0000      -0.327315        -8.9067
 285   2.0000      -0.326350        -8.8804
 286   2.0000      -0.319826        -8.7029
 287   2.0000      -0.318757        -8.6738
 288   2.0000      -0.314105        -8.5472
 289   2.0000      -0.310534        -8.4501
 290   2.0000      -0.305692        -8.3183
 291   2.0000      -0.290754        -7.9118
 292   2.0000      -0.288285        -7.8446
 293   2.0000      -0.276441        -7.5223
 294   2.0000      -0.256905        -6.9907
 295   2.0000      -0.218122        -5.9354
 296   0.0000      -0.106798        -2.9061
 297   0.0000      -0.091789        -2.4977
 298   0.0000      -0.078507        -2.1363
 299   0.0000      -0.054231        -1.4757
 300   0.0000      -0.049249        -1.3401

MULLIKEN ATOMIC CHARGES
-----------------------
   0 C :    0.243113
   1 C :   -0.318477
   2 C :   -0.173099
   3 N :    0.153127
   4 C :   -0.208944
   5 N :    0.170795
   6 C :    0.039793
   7 C :    0.010834
   8 C :   -0.085068
   9 C :    0.096913
  10 C :    0.096320
  11 C :   -0.082690
  12 C :   -0.019346
  13 C :    0.037528
  14 C :    0.036452
  15 C :   -0.018425
  16 C :    0.140165
  17 O :   -0.143986
  18 C :   -0.133218
  19 C :    0.063030
  20 C :   -0.084549
  21 C :    0.054604
  22 C :    0.066306
  23 Cl:   -0.062188
  24 C :   -0.069803
  25 S :    0.162396
  26 C :   -0.092362
  27 C :    0.057145
  28 Cl:   -0.050544
  29 C :    0.003910
  30 C :   -0.077154
  31 S :    0.154019
  32 C :    0.049691
  33 C :   -0.033537
  34 C :    0.039570
  35 C :    0.031800
  36 C :   -0.034097
  37 S :    0.064978
  38 C :   -0.033569
  39 C :    0.033268
  40 C :    0.035179
  41 C :   -0.029353
  42 S :    0.063399
  43 C :    0.046856
  44 C :   -0.078129
  45 C :    0.002227
  46 C :    0.059206
  47 Cl:   -0.045879
  48 C :   -0.100738
  49 S :    0.153912
  50 C :   -0.069334
  51 C :    0.049603
  52 Cl:   -0.058561
  53 C :    0.028932
  54 C :   -0.100218
  55 S :    0.166797
  56 C :    0.053854
  57 C :   -0.093946
  58 C :    0.324144
  59 C :   -0.366202
  60 C :   -0.182524
  61 N :    0.143401
  62 C :   -0.195025
  63 N :    0.153056
  64 C :    0.044273
  65 C :    0.000882
  66 C :    0.158419
  67 O :   -0.159007
  68 C :   -0.085044
  69 C :    0.099261
  70 C :    0.094451
  71 C :   -0.083610
  72 C :   -0.017856
  73 C :    0.037151
  74 C :    0.033788
  75 C :   -0.016504
  76 H :   -0.012379
  77 H :   -0.005336
  78 H :   -0.010452
  79 H :   -0.004532
  80 H :   -0.005792
  81 H :   -0.017854
  82 H :    0.024928
  83 H :   -0.006426
  84 H :   -0.004981
  85 H :   -0.012353
  86 H :   -0.007246
  87 H :   -0.009179
  88 H :   -0.009458
  89 H :   -0.006753
  90 H :   -0.013219
  91 H :   -0.002922
  92 H :    0.012957
  93 H :    0.005908
  94 H :   -0.015827
  95 H :   -0.008581
  96 H :   -0.010123
  97 H :   -0.006815
  98 H :   -0.005435
  99 H :   -0.019694
Sum of atomic charges:   -0.0000000

LOEWDIN ATOMIC CHARGES
----------------------
   0 C :    0.059744
   1 C :   -0.142549
   2 C :   -0.018962
   3 N :   -0.053455
   4 C :   -0.035807
   5 N :   -0.049569
   6 C :   -0.021987
   7 C :   -0.057043
   8 C :    0.031584
   9 C :   -0.009486
  10 C :   -0.005303
  11 C :    0.014797
  12 C :   -0.006492
  13 C :   -0.012644
  14 C :   -0.013631
  15 C :   -0.009776
  16 C :    0.083233
  17 O :   -0.145608
  18 C :   -0.095817
  19 C :    0.050852
  20 C :   -0.186310
  21 C :   -0.026249
  22 C :   -0.175777
  23 Cl:    0.160586
  24 C :   -0.181049
  25 S :    0.481777
  26 C :   -0.215220
  27 C :   -0.156294
  28 Cl:    0.169741
  29 C :   -0.081095
  30 C :   -0.163645
  31 S :    0.451725
  32 C :   -0.072251
  33 C :   -0.141044
  34 C :   -0.025231
  35 C :   -0.033385
  36 C :   -0.172311
  37 S :    0.392103
  38 C :   -0.176081
  39 C :   -0.030969
  40 C :   -0.028742
  41 C :   -0.137961
  42 S :    0.391863
  43 C :   -0.078082
  44 C :   -0.160553
  45 C :   -0.084525
  46 C :   -0.153489
  47 Cl:    0.172386
  48 C :   -0.221329
  49 S :    0.449510
  50 C :   -0.182393
  51 C :   -0.179066
  52 Cl:    0.160553
  53 C :   -0.022029
  54 C :   -0.186930
  55 S :    0.468930
  56 C :    0.047311
  57 C :   -0.099246
  58 C :    0.077507
  59 C :   -0.146249
  60 C :   -0.016373
  61 N :   -0.059945
  62 C :   -0.025337
  63 N :   -0.055099
  64 C :   -0.025888
  65 C :   -0.054211
  66 C :    0.087573
  67 O :   -0.146578
  68 C :    0.029880
  69 C :   -0.008805
  70 C :   -0.006933
  71 C :    0.018489
  72 C :   -0.005575
  73 C :   -0.014896
  74 C :   -0.013772
  75 C :   -0.010381
  76 H :    0.038962
  77 H :    0.038606
  78 H :    0.034338
  79 H :    0.033368
  80 H :    0.032551
  81 H :    0.031469
  82 H :    0.051403
  83 H :    0.039613
  84 H :    0.020761
  85 H :    0.035529
  86 H :    0.035818
  87 H :    0.033957
  88 H :    0.033974
  89 H :    0.035718
  90 H :    0.035077
  91 H :    0.020798
  92 H :    0.037899
  93 H :    0.042528
  94 H :    0.037807
  95 H :    0.038749
  96 H :    0.034430
  97 H :    0.032506
  98 H :    0.032281
  99 H :    0.031140

  Mayer bond orders larger than 0.100000
B(  0-C ,  1-C ) :   1.6578 B(  0-C ,  6-C ) :   1.0049 B(  0-C , 18-C ) :   1.0318
B(  1-C ,  2-C ) :   1.1377 B(  1-C ,  4-C ) :   1.1497 B(  2-C ,  3-N ) :   2.9899
B(  4-C ,  5-N ) :   3.0280 B(  6-C ,  7-C ) :   1.2133 B(  6-C , 11-C ) :   1.4576
B(  7-C ,  8-C ) :   1.4739 B(  7-C , 16-C ) :   0.9213 B(  8-C ,  9-C ) :   1.1841
B(  8-C , 76-H ) :   1.0170 B(  9-C , 10-C ) :   1.2565 B(  9-C , 15-C ) :   1.2442
B( 10-C , 11-C ) :   1.2018 B( 10-C , 12-C ) :   1.2404 B( 11-C , 77-H ) :   0.9957
B( 12-C , 13-C ) :   1.4900 B( 12-C , 78-H ) :   0.9983 B( 13-C , 14-C ) :   1.2587
B( 13-C , 79-H ) :   0.9888 B( 14-C , 15-C ) :   1.4892 B( 14-C , 80-H ) :   0.9890
B( 15-C , 81-H ) :   0.9984 B( 16-C , 17-O ) :   2.2731 B( 16-C , 18-C ) :   0.9364
B( 18-C , 19-C ) :   1.6465 B( 19-C , 20-C ) :   1.1373 B( 19-C , 82-H ) :   0.9481
B( 20-C , 21-C ) :   1.4128 B( 20-C , 25-S ) :   1.0908 B( 21-C , 22-C ) :   1.3007
B( 21-C , 83-H ) :   1.0090 B( 22-C , 23-Cl) :   1.0281 B( 22-C , 24-C ) :   1.4224
B( 24-C , 25-S ) :   1.1521 B( 24-C , 26-C ) :   1.2075 B( 26-C , 27-C ) :   1.4347
B( 26-C , 31-S ) :   1.1212 B( 27-C , 28-Cl) :   1.0487 B( 27-C , 29-C ) :   1.3204
B( 29-C , 30-C ) :   1.4120 B( 29-C , 84-H ) :   0.9854 B( 30-C , 31-S ) :   1.0966
B( 30-C , 32-C ) :   1.1774 B( 32-C , 33-C ) :   1.5906 B( 32-C , 85-H ) :   0.9516
B( 33-C , 34-C ) :   1.1491 B( 33-C , 37-S ) :   1.0430 B( 34-C , 35-C ) :   1.5881
B( 34-C , 86-H ) :   0.9985 B( 35-C , 36-C ) :   1.1900 B( 35-C , 87-H ) :   0.9928
B( 36-C , 37-S ) :   1.0457 B( 36-C , 38-C ) :   1.5015 B( 38-C , 39-C ) :   1.1913
B( 38-C , 42-S ) :   1.0423 B( 39-C , 40-C ) :   1.5862 B( 39-C , 88-H ) :   0.9929
B( 40-C , 41-C ) :   1.1503 B( 40-C , 89-H ) :   0.9988 B( 41-C , 42-S ) :   1.0466
B( 41-C , 43-C ) :   1.5854 B( 43-C , 44-C ) :   1.1791 B( 43-C , 90-H ) :   0.9520
B( 44-C , 45-C ) :   1.4106 B( 44-C , 49-S ) :   1.0991 B( 45-C , 46-C ) :   1.3239
B( 45-C , 91-H ) :   0.9840 B( 46-C , 47-Cl) :   1.0541 B( 46-C , 48-C ) :   1.4302
B( 48-C , 49-S ) :   1.1165 B( 48-C , 50-C ) :   1.2069 B( 50-C , 51-C ) :   1.3945
B( 50-C , 55-S ) :   1.1674 B( 51-C , 52-Cl) :   1.0407 B( 51-C , 53-C ) :   1.3034
B( 53-C , 54-C ) :   1.3989 B( 53-C , 92-H ) :   0.9856 B( 54-C , 55-S ) :   1.0764
B( 54-C , 56-C ) :   1.2345 B( 56-C , 57-C ) :   1.5701 B( 56-C , 93-H ) :   0.9085
B( 57-C , 58-C ) :   1.0875 B( 57-C , 66-C ) :   0.9409 B( 58-C , 59-C ) :   1.6105
B( 58-C , 64-C ) :   0.9796 B( 59-C , 60-C ) :   1.1534 B( 59-C , 62-C ) :   1.1408
B( 60-C , 61-N ) :   2.9608 B( 62-C , 63-N ) :   2.9711 B( 64-C , 65-C ) :   1.2176
B( 64-C , 71-C ) :   1.4514 B( 65-C , 66-C ) :   0.9530 B( 65-C , 68-C ) :   1.4718
B( 66-C , 67-O ) :   2.1681 B( 68-C , 69-C ) :   1.1759 B( 68-C , 94-H ) :   1.0159
B( 69-C , 70-C ) :   1.2591 B( 69-C , 75-C ) :   1.2454 B( 70-C , 71-C ) :   1.2053
B( 70-C , 72-C ) :   1.2413 B( 71-C , 95-H ) :   0.9882 B( 72-C , 73-C ) :   1.4893
B( 72-C , 96-H ) :   0.9965 B( 73-C , 74-C ) :   1.2610 B( 73-C , 97-H ) :   0.9878
B( 74-C , 75-C ) :   1.4883 B( 74-C , 98-H ) :   0.9888 B( 75-C , 99-H ) :   0.9970

-----------------------------------------------------------------------------
         ABSORPTION SPECTRUM VIA TRANSITION ELECTRIC DIPOLE MOMENTS
-----------------------------------------------------------------------------
State   Energy  Wavelength   fosc         T2         TX        TY        TZ
        (cm-1)    (nm)                  (au**2)     (au)      (au)      (au)
-----------------------------------------------------------------------------
   0   11348.2    881.2   1.345316648  39.02777  -3.60452   0.95447  -5.01240
   1   16009.7    624.6   1.066492641  21.93063  -4.11124   1.46346   1.69901
   2   19110.2    523.3   0.201377383   3.46913   0.89896   0.50138   1.55229
   3   19767.7    505.9   0.890685566  14.83352  -3.19413   1.27926   1.73048
   4   22758.3    439.4   0.100726675   1.45707  -0.46449   1.06366   0.33156
   5   24869.6    402.1   0.146147617   1.93464   1.12587  -0.47586  -0.66379
   6   25570.6    391.1   0.022444895   0.28897  -0.33336   0.19326  -0.37482
   7   25653.5    389.8   0.001474872   0.01893   0.06875   0.06359   0.10078
   8   25966.0    385.1   0.118301438   1.49990   0.52612  -0.64841  -0.89591
   9   26425.4    378.4   0.221770215   2.76285   1.48744  -0.69374  -0.26285
  10   26982.5    370.6   0.060020951   0.73231  -0.66540  -0.02582  -0.53749
  11   27587.3    362.5   0.062305966   0.74352   0.01096   0.23703   0.82899
  12   28095.4    355.9   0.037970894   0.44493   0.11297  -0.48768  -0.44084
  13   28815.7    347.0   0.003203632   0.03660  -0.03013  -0.08123  -0.17057
  14   29278.8    341.5   0.001521902   0.01711   0.00136  -0.07662  -0.10602
  15   29656.9    337.2   0.014117187   0.15671  -0.32324   0.21544   0.07621
  16   29877.0    334.7   0.021448564   0.23634   0.44452  -0.02288   0.19550
  17   30655.5    326.2   0.057920375   0.62201  -0.32791   0.47701   0.53568
  18   31019.6    322.4   0.120657302   1.28054   1.10877  -0.22612  -0.00540
  19   31265.1    319.8   0.038496286   0.40535  -0.39744   0.17698   0.46484
  20   31598.2    316.5   0.097610313   1.01697   1.00721   0.04981   0.00424
  21   31871.9    313.8   0.247657760   2.55811   0.28248   0.58408   1.46190
  22   32314.6    309.5   0.182505309   1.85931  -1.16979   0.27857  -0.64288
  23   32381.3    308.8   0.029136642   0.29622   0.42478  -0.18855   0.28325
  24   32683.4    306.0   0.193457931   1.94865   1.17512  -0.66957   0.34556
  25   32919.8    303.8   0.218163506   2.18172  -1.26382   0.66693   0.37376
  26   33134.4    301.8   0.061163130   0.60770  -0.06866   0.45753   0.62741
  27   33561.1    298.0   0.296335614   2.90685   1.04592   0.34461   1.30159
  28   33602.9    297.6   0.216182731   2.11797   1.18875  -0.81421   0.20470
  29   33824.4    295.6   0.222268155   2.16333   1.33519  -0.56081   0.25706
  30   34193.7    292.5   0.044962523   0.43289  -0.44129   0.45101   0.18641
  31   34427.6    290.5   0.017145023   0.16395   0.28615  -0.27801  -0.06914
  32   34575.8    289.2   0.008846357   0.08423  -0.24611   0.15161  -0.02599
  33   34645.3    288.6   0.012770277   0.12135   0.25118  -0.21204  -0.11530
  34   34881.3    286.7   0.026198520   0.24726   0.48440   0.02452   0.10963
  35   35120.6    284.7   0.090243347   0.84592  -0.63015   0.03270  -0.66915
  36   35630.2    280.7   0.015689928   0.14497  -0.13931   0.19033   0.29890
  37   36004.0    277.7   0.014213961   0.12997  -0.09508  -0.34731   0.01754
  38   36144.0    276.7   0.014201269   0.12935   0.16171   0.16166   0.27761
  39   36515.9    273.9   0.080139887   0.72251   0.68445  -0.04923   0.50161
  40   36641.1    272.9   0.056232536   0.50524  -0.46955  -0.08060  -0.52751
  41   37044.2    269.9   0.260999836   2.31951   1.26243  -0.79024  -0.31826
  42   37104.1    269.5   0.012512168   0.11102  -0.25986   0.05122  -0.20215
  43   37360.7    267.7   0.078142351   0.68857   0.33443  -0.57359  -0.49771
  44   37926.0    263.7   0.066386631   0.57626   0.57700  -0.17186   0.46238
  45   38251.1    261.4   0.013171608   0.11336   0.25752  -0.16215  -0.14407
  46   38501.4    259.7   0.176116299   1.50591   0.26630   0.26198   1.16891
  47   38627.8    258.9   0.019854957   0.16922   0.22772  -0.26783  -0.21360
  48   38929.2    256.9   0.061179003   0.51737  -0.42156  -0.28805  -0.50664
  49   39027.9    256.2   0.011268752   0.09506  -0.11276  -0.11352  -0.26354
  50   39349.3    254.1   0.042319367   0.35406   0.13548  -0.51078  -0.27351
  51   39456.7    253.4   0.109282256   0.91181   0.30695  -0.54505  -0.72147
  52   39562.8    252.8   0.011357893   0.09451  -0.11684  -0.05674   0.27864
  53   39855.3    250.9   0.026142002   0.21594  -0.02318   0.37416   0.27460
  54   40269.4    248.3   0.047043258   0.38459   0.47559  -0.18445  -0.35268

FINAL SINGLE POINT ENERGY     -6895.451069352719

DIPOLE MOMENT
-------------
                                X             Y             Z
Electronic contribution:    -49.25384      15.53674      -4.99133
Nuclear contribution   :     47.97695     -15.38869       8.16648
                        -----------------------------------------
Total Dipole Moment    :     -1.27689       0.14805       3.17515
                        -----------------------------------------
Magnitude (a.u.)       :      3.42549
Magnitude (Debye)      :      8.70689

Rotational constants in cm-1:     0.000654     0.000255     0.000187
Rotational constants in MHz :    19.617106     7.656443     5.602320

                             ****ORCA TERMINATED NORMALLY****
TOTAL RUN TIME: 0 days 0 hours 10 minutes 39 seconds 774 msec
