                         Program Version 4.2.0 -  RELEASE  -
|  1> # ORCA input file
|  2> # SCF done       -199.680972395499          0.000319832155
|  3> ! CAM-B3LYP def2-SVP def2/J RIJCOSX Grid4 TightSCF
|  4> %maxcore 5000
|  5> %tddft
|  6>     Mode sTDDFT
|  7>     Ethresh 5.0
|  8>     maxcore 5000
|  9> end
| 10>
| 11> %pal
| 12>   nprocs 6
| 13>   end
| 14> * xyz 0 1
| 15>    C       -5.69245         2.96815        -2.53567
| 16>    C       -6.17841         4.14048        -2.02999
| 17>    C       -7.20535         4.20792        -1.06320
| 18>    N       -8.04848         4.31429        -0.29288
| 19>    C       -5.78772         5.42016        -2.47471
| 20>    N       -5.53609         6.48377        -2.82726
| 21>    C       -6.22158         1.64019        -2.25842
| 22>    C       -5.82994         0.75928        -3.31137
| 23>    C       -6.22392        -0.54885        -3.33492
| 24>    C       -7.03182        -1.04401        -2.28761
| 25>    C       -7.40628        -0.17460        -1.22090
| 26>    C       -6.98755         1.17501        -1.22259
| 27>    C       -8.20427        -0.68570        -0.17683
| 28>    C       -8.61862        -1.98963        -0.18688
| 29>    C       -8.25285        -2.84342        -1.23884
| 30>    C       -7.47623        -2.38113        -2.26631
| 31>    C       -4.98018         1.48334        -4.26857
| 32>    O       -4.51417         1.09576        -5.31187
| 33>    C       -4.74766         2.82264        -3.63410
| 34>    C       -3.71607         3.59524        -4.02687
| 35>    C       -3.19839         4.71952        -3.29284
| 36>    N       -3.17729         4.67252        -1.97494
| 37>    N       -2.81565         5.67242        -1.22364
| 38>    C       -2.41082         6.83234        -1.70157
| 39>    C       -2.27550         6.97862        -3.11434
| 40>    C       -2.68312         5.87868        -3.94244
| 41>    N       -2.48063         6.23802        -5.19380
| 42>    O       -1.98020         7.46429        -5.14577
| 43>    N       -1.84746         7.93518        -3.90997
| 44>    C       -2.12479         7.89865        -0.79962
| 45>    C       -2.22900         7.86576         0.58642
| 46>    C       -2.67382         6.72790         1.28634
| 47>    N       -3.04037         5.82796         1.89301
| 48>    C       -1.85511         9.09987         1.17301
| 49>    C       -1.49439        10.02983         0.19333
| 50>    S       -1.58770         9.43657        -1.41481
| 51>    S       -1.01637        11.58108         0.79064
| 52>    C       -1.28754        10.98390         2.39667
| 53>    C       -1.72678         9.66788         2.47741
| 54>    C       -1.89610         9.26470         3.83189
| 55>    C       -2.30880         7.99064         4.25250
| 56>    N       -2.63306         6.96008         4.63751
| 57>    C       -1.57851        10.27565         4.73077
| 58>    S       -1.07685        11.74707         3.92167
| 59>    C       -1.58231        10.25588         6.15267
| 60>    C       -1.14406        11.28876         6.96626
| 61>    C       -1.23600        10.96511         8.31674
| 62>    C       -1.75945         9.67731         8.53034
| 63>    S       -2.13266         8.86661         7.07436
| 64>    C       -1.79112         9.43131         9.92659
| 65>    C       -1.27399        10.56205        10.59327
| 66>    C       -0.93040        11.57034         9.60441
| 67>    C       -0.43957        12.82199         9.82879
| 68>    C       -0.21473        13.33507        11.12509
| 69>    N       -0.04491        13.78214        12.16658
| 70>    C       -0.14340        13.70475         8.76796
| 71>    N        0.09834        14.41913         7.90434
| 72>    C       -1.20852        10.40046        11.97222
| 73>    C       -1.67606         9.15730        12.37234
| 74>    S       -2.23990         8.19520        11.00280
| 75>    C       -1.80270         8.59263        13.66180
| 76>    C       -1.09141         8.90457        14.78424
| 77>    C       -1.34087         8.35570        16.10547
| 78>    C       -2.51009         7.78284        16.53318
| 79>    C       -2.71430         7.29059        17.83908
| 80>    N       -2.93612         6.86607        18.88234
| 81>    C       -3.67340         7.64813        15.74647
| 82>    N       -4.65839         7.52850        15.16840
| 83>    C       -0.16476         8.61164        16.92542
| 84>    C        0.75851         9.38028        16.16089
| 85>    C        0.20631         9.63304        14.81977
| 86>    O        0.74579        10.24267        13.92176
| 87>    C        1.96179         9.77772        16.66871
| 88>    C        2.30370         9.41571        17.99078
| 89>    C        1.38803         8.64121        18.76071
| 90>    C        0.14853         8.24523        18.20760
| 91>    C        1.74334         8.28048        20.07634
| 92>    C        2.94405         8.66575        20.60786
| 93>    C        3.84434         9.42865        19.84920
| 94>    C        3.53057         9.79653        18.56883
| 95>    H       -5.92286        -1.19798        -4.14372
| 96>    H       -7.27115         1.80952        -0.39756
| 97>    H       -8.48546        -0.02390         0.62881
| 98>    H       -9.23148        -2.37109         0.61587
| 99>    H       -8.58901        -3.86936        -1.23033
|100>    H       -7.19098        -3.03397        -3.07815
|101>    H       -3.20964         3.33598        -4.94920
|102>    H       -0.76993        12.21914         6.57743
|103>    H       -0.85130        11.14240        12.66069
|104>    H       -2.52578         7.78791        13.73130
|105>    H        2.64320        10.36236        16.06867
|106>    H       -0.52011         7.65265        18.81180
|107>    H        1.04639         7.69441        20.65724
|108>    H        3.20673         8.38466        21.61665
|109>    H        4.78771         9.72311        20.28410
|110>    H        4.21945        10.38402        17.97970
|111> *
|112>
|113>                          ****END OF INPUT****

CARTESIAN COORDINATES (ANGSTROEM)
---------------------------------
  C     -5.692450    2.968150   -2.535670
  C     -6.178410    4.140480   -2.029990
  C     -7.205350    4.207920   -1.063200
  N     -8.048480    4.314290   -0.292880
  C     -5.787720    5.420160   -2.474710
  N     -5.536090    6.483770   -2.827260
  C     -6.221580    1.640190   -2.258420
  C     -5.829940    0.759280   -3.311370
  C     -6.223920   -0.548850   -3.334920
  C     -7.031820   -1.044010   -2.287610
  C     -7.406280   -0.174600   -1.220900
  C     -6.987550    1.175010   -1.222590
  C     -8.204270   -0.685700   -0.176830
  C     -8.618620   -1.989630   -0.186880
  C     -8.252850   -2.843420   -1.238840
  C     -7.476230   -2.381130   -2.266310
  C     -4.980180    1.483340   -4.268570
  O     -4.514170    1.095760   -5.311870
  C     -4.747660    2.822640   -3.634100
  C     -3.716070    3.595240   -4.026870
  C     -3.198390    4.719520   -3.292840
  N     -3.177290    4.672520   -1.974940
  N     -2.815650    5.672420   -1.223640
  C     -2.410820    6.832340   -1.701570
  C     -2.275500    6.978620   -3.114340
  C     -2.683120    5.878680   -3.942440
  N     -2.480630    6.238020   -5.193800
  O     -1.980200    7.464290   -5.145770
  N     -1.847460    7.935180   -3.909970
  C     -2.124790    7.898650   -0.799620
  C     -2.229000    7.865760    0.586420
  C     -2.673820    6.727900    1.286340
  N     -3.040370    5.827960    1.893010
  C     -1.855110    9.099870    1.173010
  C     -1.494390   10.029830    0.193330
  S     -1.587700    9.436570   -1.414810
  S     -1.016370   11.581080    0.790640
  C     -1.287540   10.983900    2.396670
  C     -1.726780    9.667880    2.477410
  C     -1.896100    9.264700    3.831890
  C     -2.308800    7.990640    4.252500
  N     -2.633060    6.960080    4.637510
  C     -1.578510   10.275650    4.730770
  S     -1.076850   11.747070    3.921670
  C     -1.582310   10.255880    6.152670
  C     -1.144060   11.288760    6.966260
  C     -1.236000   10.965110    8.316740
  C     -1.759450    9.677310    8.530340
  S     -2.132660    8.866610    7.074360
  C     -1.791120    9.431310    9.926590
  C     -1.273990   10.562050   10.593270
  C     -0.930400   11.570340    9.604410
  C     -0.439570   12.821990    9.828790
  C     -0.214730   13.335070   11.125090
  N     -0.044910   13.782140   12.166580
  C     -0.143400   13.704750    8.767960
  N      0.098340   14.419130    7.904340
  C     -1.208520   10.400460   11.972220
  C     -1.676060    9.157300   12.372340
  S     -2.239900    8.195200   11.002800
  C     -1.802700    8.592630   13.661800
  C     -1.091410    8.904570   14.784240
  C     -1.340870    8.355700   16.105470
  C     -2.510090    7.782840   16.533180
  C     -2.714300    7.290590   17.839080
  N     -2.936120    6.866070   18.882340
  C     -3.673400    7.648130   15.746470
  N     -4.658390    7.528500   15.168400
  C     -0.164760    8.611640   16.925420
  C      0.758510    9.380280   16.160890
  C      0.206310    9.633040   14.819770
  O      0.745790   10.242670   13.921760
  C      1.961790    9.777720   16.668710
  C      2.303700    9.415710   17.990780
  C      1.388030    8.641210   18.760710
  C      0.148530    8.245230   18.207600
  C      1.743340    8.280480   20.076340
  C      2.944050    8.665750   20.607860
  C      3.844340    9.428650   19.849200
  C      3.530570    9.796530   18.568830
  H     -5.922860   -1.197980   -4.143720
  H     -7.271150    1.809520   -0.397560
  H     -8.485460   -0.023900    0.628810
  H     -9.231480   -2.371090    0.615870
  H     -8.589010   -3.869360   -1.230330
  H     -7.190980   -3.033970   -3.078150
  H     -3.209640    3.335980   -4.949200
  H     -0.769930   12.219140    6.577430
  H     -0.851300   11.142400   12.660690
  H     -2.525780    7.787910   13.731300
  H      2.643200   10.362360   16.068670
  H     -0.520110    7.652650   18.811800
  H      1.046390    7.694410   20.657240
  H      3.206730    8.384660   21.616650
  H      4.787710    9.723110   20.284100
  H      4.219450   10.384020   17.979700

 Total Charge           Charge          ....    0
 Multiplicity           Mult            ....    1
 Number of Electrons    NEL             ....  564
 Basis Dimension        Dim             .... 1220

ORBITAL ENERGIES
----------------

  NO   OCC          E(Eh)            E(eV)
   0   2.0000     -89.002326     -2421.8764
   1   2.0000     -89.001797     -2421.8620
   2   2.0000     -89.001275     -2421.8478
   3   2.0000     -89.000615     -2421.8299
   4   2.0000     -88.998436     -2421.7706
   5   2.0000     -19.389181      -527.6064
   6   2.0000     -19.226248      -523.1728
   7   2.0000     -19.218287      -522.9562
   8   2.0000     -14.515084      -394.9755
   9   2.0000     -14.513612      -394.9355
  10   2.0000     -14.467589      -393.6831
  11   2.0000     -14.463070      -393.5601
  12   2.0000     -14.437380      -392.8611
  13   2.0000     -14.433250      -392.7487
  14   2.0000     -14.426342      -392.5607
  15   2.0000     -14.419380      -392.3713
  16   2.0000     -14.419032      -392.3618
  17   2.0000     -14.415705      -392.2713
  18   2.0000     -14.414622      -392.2418
  19   2.0000     -14.403646      -391.9431
  20   2.0000     -10.376754      -282.3658
  21   2.0000     -10.371904      -282.2339
  22   2.0000     -10.370772      -282.2031
  23   2.0000     -10.370423      -282.1935
  24   2.0000     -10.361917      -281.9621
  25   2.0000     -10.359098      -281.8854
  26   2.0000     -10.356807      -281.8230
  27   2.0000     -10.356333      -281.8101
  28   2.0000     -10.355503      -281.7876
  29   2.0000     -10.355103      -281.7767
  30   2.0000     -10.352648      -281.7099
  31   2.0000     -10.351512      -281.6790
  32   2.0000     -10.348640      -281.6008
  33   2.0000     -10.348114      -281.5865
  34   2.0000     -10.345896      -281.5262
  35   2.0000     -10.345041      -281.5029
  36   2.0000     -10.342531      -281.4346
  37   2.0000     -10.342328      -281.4290
  38   2.0000     -10.341526      -281.4072
  39   2.0000     -10.340816      -281.3879
  40   2.0000     -10.338938      -281.3368
  41   2.0000     -10.337562      -281.2994
  42   2.0000     -10.332696      -281.1670
  43   2.0000     -10.329968      -281.0927
  44   2.0000     -10.329679      -281.0849
  45   2.0000     -10.329329      -281.0753
  46   2.0000     -10.326264      -280.9919
  47   2.0000     -10.325805      -280.9794
  48   2.0000     -10.325330      -280.9665
  49   2.0000     -10.320991      -280.8484
  50   2.0000     -10.318548      -280.7820
  51   2.0000     -10.318240      -280.7736
  52   2.0000     -10.317390      -280.7504
  53   2.0000     -10.316880      -280.7366
  54   2.0000     -10.316799      -280.7344
  55   2.0000     -10.316353      -280.7222
  56   2.0000     -10.311911      -280.6014
  57   2.0000     -10.311460      -280.5891
  58   2.0000     -10.309807      -280.5441
  59   2.0000     -10.303934      -280.3843
  60   2.0000     -10.303566      -280.3743
  61   2.0000     -10.303307      -280.3672
  62   2.0000     -10.303047      -280.3602
  63   2.0000     -10.302993      -280.3587
  64   2.0000     -10.302774      -280.3527
  65   2.0000     -10.302034      -280.3326
  66   2.0000     -10.297958      -280.2217
  67   2.0000     -10.297730      -280.2155
  68   2.0000     -10.297202      -280.2011
  69   2.0000     -10.296935      -280.1938
  70   2.0000     -10.296646      -280.1860
  71   2.0000     -10.290655      -280.0230
  72   2.0000     -10.290168      -280.0097
  73   2.0000     -10.289763      -279.9987
  74   2.0000     -10.289152      -279.9821
  75   2.0000     -10.289032      -279.9788
  76   2.0000     -10.286698      -279.9153
  77   2.0000     -10.286208      -279.9020
  78   2.0000     -10.285987      -279.8959
  79   2.0000     -10.285532      -279.8836
  80   2.0000      -8.097440      -220.3426
  81   2.0000      -8.095903      -220.3007
  82   2.0000      -8.095750      -220.2966
  83   2.0000      -8.095627      -220.2932
  84   2.0000      -8.093348      -220.2312
  85   2.0000      -6.067406      -165.1025
  86   2.0000      -6.065463      -165.0496
  87   2.0000      -6.065369      -165.0471
  88   2.0000      -6.064961      -165.0360
  89   2.0000      -6.063125      -164.9860
  90   2.0000      -6.062480      -164.9685
  91   2.0000      -6.061165      -164.9327
  92   2.0000      -6.061105      -164.9311
  93   2.0000      -6.060535      -164.9155
  94   2.0000      -6.058304      -164.8548
  95   2.0000      -6.058289      -164.8544
  96   2.0000      -6.057968      -164.8457
  97   2.0000      -6.057620      -164.8362
  98   2.0000      -6.057194      -164.8246
  99   2.0000      -6.055848      -164.7880
 100   2.0000      -1.343901       -36.5694
 101   2.0000      -1.149207       -31.2715
 102   2.0000      -1.141609       -31.0648
 103   2.0000      -1.134040       -30.8588
 104   2.0000      -1.059111       -28.8199
 105   2.0000      -1.054278       -28.6884
 106   2.0000      -1.046919       -28.4881
 107   2.0000      -1.029327       -28.0094
 108   2.0000      -1.026804       -27.9408
 109   2.0000      -1.025677       -27.9101
 110   2.0000      -1.018642       -27.7186
 111   2.0000      -1.012419       -27.5493
 112   2.0000      -1.007980       -27.4285
 113   2.0000      -1.006895       -27.3990
 114   2.0000      -1.004001       -27.3203
 115   2.0000      -1.002363       -27.2757
 116   2.0000      -0.999675       -27.2025
 117   2.0000      -0.998671       -27.1752
 118   2.0000      -0.993694       -27.0398
 119   2.0000      -0.985706       -26.8224
 120   2.0000      -0.982673       -26.7399
 121   2.0000      -0.975086       -26.5334
 122   2.0000      -0.972085       -26.4518
 123   2.0000      -0.966318       -26.2949
 124   2.0000      -0.952680       -25.9237
 125   2.0000      -0.930171       -25.3112
 126   2.0000      -0.928465       -25.2648
 127   2.0000      -0.920934       -25.0599
 128   2.0000      -0.911804       -24.8115
 129   2.0000      -0.908123       -24.7113
 130   2.0000      -0.900125       -24.4937
 131   2.0000      -0.888192       -24.1689
 132   2.0000      -0.886280       -24.1169
 133   2.0000      -0.883096       -24.0303
 134   2.0000      -0.881331       -23.9822
 135   2.0000      -0.878132       -23.8952
 136   2.0000      -0.873489       -23.7688
 137   2.0000      -0.864885       -23.5347
 138   2.0000      -0.848713       -23.0947
 139   2.0000      -0.846294       -23.0288
 140   2.0000      -0.833675       -22.6854
 141   2.0000      -0.828599       -22.5473
 142   2.0000      -0.825619       -22.4662
 143   2.0000      -0.814453       -22.1624
 144   2.0000      -0.806387       -21.9429
 145   2.0000      -0.796906       -21.6849
 146   2.0000      -0.786419       -21.3996
 147   2.0000      -0.781846       -21.2751
 148   2.0000      -0.768487       -20.9116
 149   2.0000      -0.762098       -20.7377
 150   2.0000      -0.754631       -20.5346
 151   2.0000      -0.738608       -20.0986
 152   2.0000      -0.726847       -19.7785
 153   2.0000      -0.721941       -19.6450
 154   2.0000      -0.716536       -19.4979
 155   2.0000      -0.709005       -19.2930
 156   2.0000      -0.706246       -19.2179
 157   2.0000      -0.704908       -19.1815
 158   2.0000      -0.701260       -19.0823
 159   2.0000      -0.699811       -19.0428
 160   2.0000      -0.696928       -18.9644
 161   2.0000      -0.689853       -18.7718
 162   2.0000      -0.685903       -18.6644
 163   2.0000      -0.682326       -18.5670
 164   2.0000      -0.677164       -18.4266
 165   2.0000      -0.672524       -18.3003
 166   2.0000      -0.664882       -18.0923
 167   2.0000      -0.656025       -17.8513
 168   2.0000      -0.652244       -17.7485
 169   2.0000      -0.641955       -17.4685
 170   2.0000      -0.641563       -17.4578
 171   2.0000      -0.639652       -17.4058
 172   2.0000      -0.638992       -17.3879
 173   2.0000      -0.631325       -17.1792
 174   2.0000      -0.623276       -16.9602
 175   2.0000      -0.622980       -16.9522
 176   2.0000      -0.612596       -16.6696
 177   2.0000      -0.609050       -16.5731
 178   2.0000      -0.606241       -16.4966
 179   2.0000      -0.605041       -16.4640
 180   2.0000      -0.602990       -16.4082
 181   2.0000      -0.586108       -15.9488
 182   2.0000      -0.573693       -15.6110
 183   2.0000      -0.568172       -15.4607
 184   2.0000      -0.566871       -15.4253
 185   2.0000      -0.563157       -15.3243
 186   2.0000      -0.560287       -15.2462
 187   2.0000      -0.556636       -15.1468
 188   2.0000      -0.552316       -15.0293
 189   2.0000      -0.550954       -14.9922
 190   2.0000      -0.549866       -14.9626
 191   2.0000      -0.547165       -14.8891
 192   2.0000      -0.545444       -14.8423
 193   2.0000      -0.544554       -14.8181
 194   2.0000      -0.542179       -14.7534
 195   2.0000      -0.539078       -14.6690
 196   2.0000      -0.537724       -14.6322
 197   2.0000      -0.536681       -14.6038
 198   2.0000      -0.532942       -14.5021
 199   2.0000      -0.526584       -14.3291
 200   2.0000      -0.526394       -14.3239
 201   2.0000      -0.522386       -14.2148
 202   2.0000      -0.521298       -14.1852
 203   2.0000      -0.518795       -14.1171
 204   2.0000      -0.517712       -14.0877
 205   2.0000      -0.514229       -13.9929
 206   2.0000      -0.511734       -13.9250
 207   2.0000      -0.510466       -13.8905
 208   2.0000      -0.509687       -13.8693
 209   2.0000      -0.508356       -13.8331
 210   2.0000      -0.503047       -13.6886
 211   2.0000      -0.502323       -13.6689
 212   2.0000      -0.499890       -13.6027
 213   2.0000      -0.496604       -13.5133
 214   2.0000      -0.492189       -13.3932
 215   2.0000      -0.492109       -13.3910
 216   2.0000      -0.488074       -13.2812
 217   2.0000      -0.485878       -13.2214
 218   2.0000      -0.483910       -13.1679
 219   2.0000      -0.481849       -13.1118
 220   2.0000      -0.474107       -12.9011
 221   2.0000      -0.471771       -12.8375
 222   2.0000      -0.470739       -12.8094
 223   2.0000      -0.467962       -12.7339
 224   2.0000      -0.466918       -12.7055
 225   2.0000      -0.465754       -12.6738
 226   2.0000      -0.462958       -12.5977
 227   2.0000      -0.461804       -12.5663
 228   2.0000      -0.459710       -12.5093
 229   2.0000      -0.457555       -12.4507
 230   2.0000      -0.452323       -12.3083
 231   2.0000      -0.449475       -12.2308
 232   2.0000      -0.448805       -12.2126
 233   2.0000      -0.447246       -12.1702
 234   2.0000      -0.444939       -12.1074
 235   2.0000      -0.444823       -12.1043
 236   2.0000      -0.444629       -12.0990
 237   2.0000      -0.443979       -12.0813
 238   2.0000      -0.441876       -12.0241
 239   2.0000      -0.441146       -12.0042
 240   2.0000      -0.440731       -11.9929
 241   2.0000      -0.439909       -11.9705
 242   2.0000      -0.437482       -11.9045
 243   2.0000      -0.434623       -11.8267
 244   2.0000      -0.433800       -11.8043
 245   2.0000      -0.433353       -11.7921
 246   2.0000      -0.432817       -11.7776
 247   2.0000      -0.431863       -11.7516
 248   2.0000      -0.430338       -11.7101
 249   2.0000      -0.428254       -11.6534
 250   2.0000      -0.427513       -11.6332
 251   2.0000      -0.426092       -11.5945
 252   2.0000      -0.422033       -11.4841
 253   2.0000      -0.420378       -11.4391
 254   2.0000      -0.419758       -11.4222
 255   2.0000      -0.416053       -11.3214
 256   2.0000      -0.415561       -11.3080
 257   2.0000      -0.412755       -11.2316
 258   2.0000      -0.409789       -11.1509
 259   2.0000      -0.406365       -11.0578
 260   2.0000      -0.404866       -11.0170
 261   2.0000      -0.390198       -10.6178
 262   2.0000      -0.389000       -10.5852
 263   2.0000      -0.387253       -10.5377
 264   2.0000      -0.383329       -10.4309
 265   2.0000      -0.377815       -10.2809
 266   2.0000      -0.373225       -10.1560
 267   2.0000      -0.359656        -9.7867
 268   2.0000      -0.357487        -9.7277
 269   2.0000      -0.348584        -9.4854
 270   2.0000      -0.343196        -9.3388
 271   2.0000      -0.339619        -9.2415
 272   2.0000      -0.331013        -9.0073
 273   2.0000      -0.328160        -8.9297
 274   2.0000      -0.325519        -8.8578
 275   2.0000      -0.318408        -8.6643
 276   2.0000      -0.317121        -8.6293
 277   2.0000      -0.308338        -8.3903
 278   2.0000      -0.300665        -8.1815
 279   2.0000      -0.294294        -8.0081
 280   2.0000      -0.293373        -7.9831
 281   2.0000      -0.265683        -7.2296
 282   0.0000      -0.121441        -3.3046
 283   0.0000      -0.117086        -3.1861
 284   0.0000      -0.091455        -2.4886
 285   0.0000      -0.080667        -2.1951
 286   0.0000      -0.062596        -1.7033

MULLIKEN ATOMIC CHARGES
-----------------------
   0 C :    0.299454
   1 C :   -0.309831
   2 C :   -0.188564
   3 N :    0.166932
   4 C :   -0.152048
   5 N :    0.139778
   6 C :    0.035385
   7 C :    0.006566
   8 C :   -0.075645
   9 C :    0.094485
  10 C :    0.092885
  11 C :   -0.072457
  12 C :   -0.015167
  13 C :    0.037788
  14 C :    0.038861
  15 C :   -0.014808
  16 C :    0.135929
  17 O :   -0.125866
  18 C :   -0.094785
  19 C :    0.030336
  20 C :   -0.136687
  21 N :   -0.023278
  22 N :   -0.036999
  23 C :    0.004991
  24 C :   -0.027895
  25 C :    0.059819
  26 N :    0.096280
  27 O :   -0.078816
  28 N :    0.056802
  29 C :   -0.136528
  30 C :   -0.048809
  31 C :   -0.300829
  32 N :    0.274430
  33 C :    0.134102
  34 C :   -0.212387
  35 S :    0.229134
  36 S :    0.210233
  37 C :   -0.225299
  38 C :    0.140225
  39 C :    0.004733
  40 C :   -0.367409
  41 N :    0.234406
  42 C :   -0.077525
  43 S :    0.181986
  44 C :   -0.088185
  45 C :   -0.071710
  46 C :    0.036034
  47 C :   -0.092768
  48 S :    0.239156
  49 C :   -0.084577
  50 C :   -0.031297
  51 C :    0.308910
  52 C :   -0.291958
  53 C :   -0.185378
  54 N :    0.187286
  55 C :   -0.190820
  56 N :    0.170830
  57 C :    0.055844
  58 C :   -0.115598
  59 S :    0.218476
  60 C :    0.025217
  61 C :   -0.100558
  62 C :    0.297762
  63 C :   -0.343703
  64 C :   -0.181176
  65 N :    0.152549
  66 C :   -0.207131
  67 N :    0.160880
  68 C :    0.054260
  69 C :   -0.007220
  70 C :    0.153529
  71 O :   -0.150371
  72 C :   -0.080912
  73 C :    0.100425
  74 C :    0.098950
  75 C :   -0.088953
  76 C :   -0.022295
  77 C :    0.038319
  78 C :    0.038674
  79 C :   -0.019014
  80 H :   -0.008635
  81 H :    0.003287
  82 H :   -0.005941
  83 H :   -0.001594
  84 H :   -0.002913
  85 H :   -0.015579
  86 H :    0.038288
  87 H :    0.019775
  88 H :    0.028392
  89 H :    0.028608
  90 H :   -0.010574
  91 H :   -0.006603
  92 H :   -0.008283
  93 H :   -0.004712
  94 H :   -0.005220
  95 H :   -0.015678
Sum of atomic charges:   -0.0000000

LOEWDIN ATOMIC CHARGES
----------------------
   0 C :    0.078194
   1 C :   -0.115705
   2 C :   -0.017043
   3 N :   -0.039219
   4 C :   -0.006330
   5 N :   -0.063091
   6 C :   -0.021004
   7 C :   -0.059522
   8 C :    0.036623
   9 C :   -0.007371
  10 C :   -0.002863
  11 C :    0.023912
  12 C :   -0.003581
  13 C :   -0.009409
  14 C :   -0.009826
  15 C :   -0.008318
  16 C :    0.085473
  17 O :   -0.127384
  18 C :   -0.035964
  19 C :    0.049051
  20 C :   -0.012357
  21 N :   -0.023274
  22 N :   -0.022015
  23 C :   -0.003650
  24 C :   -0.065413
  25 C :   -0.056589
  26 N :    0.005116
  27 O :    0.099218
  28 N :   -0.017201
  29 C :   -0.158038
  30 C :   -0.055699
  31 C :   -0.043967
  32 N :   -0.009102
  33 C :   -0.061451
  34 C :   -0.322610
  35 S :    0.497326
  36 S :    0.439594
  37 C :   -0.330188
  38 C :   -0.059586
  39 C :   -0.101420
  40 C :   -0.058781
  41 N :   -0.019920
  42 C :   -0.140036
  43 S :    0.468068
  44 C :   -0.183340
  45 C :   -0.031453
  46 C :   -0.057777
  47 C :   -0.183751
  48 S :    0.531593
  49 C :   -0.161642
  50 C :   -0.072803
  51 C :    0.078163
  52 C :   -0.094877
  53 C :   -0.019349
  54 N :   -0.019101
  55 C :   -0.014933
  56 N :   -0.032516
  57 C :    0.025771
  58 C :   -0.176965
  59 S :    0.501060
  60 C :    0.043673
  61 C :   -0.090828
  62 C :    0.074796
  63 C :   -0.139987
  64 C :   -0.017714
  65 N :   -0.052472
  66 C :   -0.025824
  67 N :   -0.051732
  68 C :   -0.026056
  69 C :   -0.055305
  70 C :    0.084314
  71 O :   -0.138588
  72 C :    0.033780
  73 C :   -0.008113
  74 C :   -0.005887
  75 C :    0.019560
  76 C :   -0.005601
  77 C :   -0.012686
  78 C :   -0.011772
  79 C :   -0.009069
  80 H :    0.040656
  81 H :    0.041854
  82 H :    0.036313
  83 H :    0.034565
  84 H :    0.033876
  85 H :    0.032661
  86 H :    0.054418
  87 H :    0.035305
  88 H :    0.045822
  89 H :    0.044991
  90 H :    0.039795
  91 H :    0.039154
  92 H :    0.034832
  93 H :    0.033302
  94 H :    0.032893
  95 H :    0.032343

  Mayer bond orders larger than 0.100000
B(  0-C ,  1-C ) :   1.6927 B(  0-C ,  6-C ) :   1.0099 B(  0-C , 18-C ) :   0.9956
B(  1-C ,  2-C ) :   1.1360 B(  1-C ,  4-C ) :   1.1650 B(  2-C ,  3-N ) :   2.9951
B(  4-C ,  5-N ) :   2.9579 B(  6-C ,  7-C ) :   1.2080 B(  6-C , 11-C ) :   1.4515
B(  7-C ,  8-C ) :   1.4655 B(  7-C , 16-C ) :   0.9244 B(  8-C ,  9-C ) :   1.1940
B(  8-C , 80-H ) :   1.0153 B(  9-C , 10-C ) :   1.2503 B(  9-C , 15-C ) :   1.2425
B( 10-C , 11-C ) :   1.2119 B( 10-C , 12-C ) :   1.2398 B( 11-C , 81-H ) :   0.9928
B( 12-C , 13-C ) :   1.4920 B( 12-C , 82-H ) :   0.9975 B( 13-C , 14-C ) :   1.2574
B( 13-C , 83-H ) :   0.9887 B( 14-C , 15-C ) :   1.4921 B( 14-C , 84-H ) :   0.9885
B( 15-C , 85-H ) :   0.9975 B( 16-C , 17-O ) :   2.2930 B( 16-C , 18-C ) :   0.9138
B( 18-C , 19-C ) :   1.7724 B( 19-C , 20-C ) :   1.0375 B( 19-C , 86-H ) :   0.9483
B( 20-C , 21-N ) :   1.6706 B( 20-C , 23-C ) :   0.1126 B( 20-C , 25-C ) :   1.0642
B( 21-N , 22-N ) :   1.2032 B( 22-N , 23-C ) :   1.7184 B( 23-C , 24-C ) :   1.0396
B( 23-C , 29-C ) :   1.1948 B( 24-C , 25-C ) :   1.1897 B( 24-C , 28-N ) :   1.5945
B( 25-C , 26-N ) :   1.6349 B( 26-N , 27-O ) :   1.0821 B( 26-N , 28-N ) :   0.1831
B( 27-O , 28-N ) :   1.0775 B( 29-C , 30-C ) :   1.4676 B( 29-C , 35-S ) :   1.1523
B( 30-C , 31-C ) :   1.2137 B( 30-C , 33-C ) :   1.2714 B( 31-C , 32-N ) :   2.9773
B( 33-C , 34-C ) :   1.3818 B( 33-C , 38-C ) :   1.0656 B( 34-C , 35-S ) :   1.0989
B( 34-C , 36-S ) :   1.0970 B( 36-S , 37-C ) :   1.0802 B( 37-C , 38-C ) :   1.4269
B( 37-C , 43-S ) :   1.0866 B( 38-C , 39-C ) :   1.2560 B( 39-C , 40-C ) :   1.1597
B( 39-C , 42-C ) :   1.4953 B( 40-C , 41-N ) :   2.9618 B( 42-C , 43-S ) :   1.1464
B( 42-C , 44-C ) :   1.1920 B( 44-C , 45-C ) :   1.4311 B( 44-C , 48-S ) :   1.1194
B( 45-C , 46-C ) :   1.3198 B( 45-C , 87-H ) :   0.9819 B( 46-C , 47-C ) :   1.4242
B( 46-C , 51-C ) :   0.9913 B( 47-C , 48-S ) :   1.1226 B( 47-C , 49-C ) :   1.1927
B( 49-C , 50-C ) :   1.3928 B( 49-C , 59-S ) :   1.1654 B( 50-C , 51-C ) :   0.9947
B( 50-C , 57-C ) :   1.3398 B( 51-C , 52-C ) :   1.7189 B( 52-C , 53-C ) :   1.1314
B( 52-C , 55-C ) :   1.1383 B( 53-C , 54-N ) :   2.9952 B( 55-C , 56-N ) :   2.9852
B( 57-C , 58-C ) :   1.4193 B( 57-C , 88-H ) :   0.9751 B( 58-C , 59-S ) :   1.0793
B( 58-C , 60-C ) :   1.1748 B( 60-C , 61-C ) :   1.6148 B( 60-C , 89-H ) :   0.9329
B( 61-C , 62-C ) :   1.0645 B( 61-C , 70-C ) :   0.9410 B( 62-C , 63-C ) :   1.6420
B( 62-C , 68-C ) :   0.9912 B( 63-C , 64-C ) :   1.1457 B( 63-C , 66-C ) :   1.1376
B( 64-C , 65-N ) :   2.9697 B( 66-C , 67-N ) :   2.9983 B( 68-C , 69-C ) :   1.2110
B( 68-C , 75-C ) :   1.4511 B( 69-C , 70-C ) :   0.9463 B( 69-C , 72-C ) :   1.4733
B( 70-C , 71-O ) :   2.2047 B( 72-C , 73-C ) :   1.1796 B( 72-C , 90-H ) :   1.0159
B( 73-C , 74-C ) :   1.2535 B( 73-C , 79-C ) :   1.2446 B( 74-C , 75-C ) :   1.2048
B( 74-C , 76-C ) :   1.2420 B( 75-C , 91-H ) :   0.9906 B( 76-C , 77-C ) :   1.4893
B( 76-C , 92-H ) :   0.9968 B( 77-C , 78-C ) :   1.2597 B( 77-C , 93-H ) :   0.9885
B( 78-C , 79-C ) :   1.4886 B( 78-C , 94-H ) :   0.9888 B( 79-C , 95-H ) :   0.9976

-----------------------------------------------------------------------------
         ABSORPTION SPECTRUM VIA TRANSITION ELECTRIC DIPOLE MOMENTS
-----------------------------------------------------------------------------
State   Energy  Wavelength   fosc         T2         TX        TY        TZ
        (cm-1)    (nm)                  (au**2)     (au)      (au)      (au)
-----------------------------------------------------------------------------
   0   14238.4    702.3   0.325978473   7.53708   0.20385  -0.12636   2.73488
   1   16806.0    595.0   0.026553905   0.52016   0.39243   0.40080   0.45334
   2   20382.7    490.6   0.646149177  10.43632  -0.86571  -1.01564  -2.94200
   3   21124.0    473.4   0.621014775   9.67834  -0.72977  -0.56501  -2.97095
   4   21531.8    464.4   0.564545395   8.63164   0.63225   1.56157  -2.40695
   5   23111.6    432.7   0.279519986   3.98161   0.63288   1.86173   0.33915
   6   24637.0    405.9   0.023163838   0.30953  -0.26501  -0.15308  -0.46461
   7   25889.9    386.3   0.027651079   0.35161  -0.26627   0.52010  -0.10102
   8   25923.4    385.8   0.046751408   0.59372  -0.13519  -0.58111  -0.48759
   9   27486.0    363.8   0.036380006   0.43574  -0.02621  -0.00274  -0.65958
  10   27781.4    360.0   0.031781986   0.37662  -0.05258  -0.01084   0.61134
  11   27783.2    359.9   0.012642158   0.14980  -0.19853  -0.32386  -0.07417
  12   28049.0    356.5   0.191367185   2.24608   0.35062   0.96066   1.09557
  13   28196.4    354.7   0.056488192   0.65954  -0.28194   0.02414  -0.76123
  14   28294.3    353.4   0.103690016   1.20646   0.27315   0.02332   1.06363
  15   29060.6    344.1   0.190660167   2.15989  -0.61859  -0.37843  -1.27829
  16   29703.3    336.7   0.134914100   1.49530   0.16893  -0.17016  -1.19909
  17   30012.1    333.2   0.104839938   1.15002  -0.79823   0.70037   0.14941
  18   30368.8    329.3   0.101948312   1.10517   0.55411  -0.87628  -0.17395
  19   30650.2    326.3   0.317747049   3.41290   0.96723   1.57386   0.01786
  20   30744.8    325.3   0.071496602   0.76558   0.53963   0.66356  -0.18458
  21   31200.7    320.5   0.071042928   0.74960  -0.05845   0.80037   0.32497
  22   31903.4    313.4   0.115435449   1.19118   0.36242   1.02351  -0.11073
  23   31936.9    313.1   0.091430394   0.94248   0.51879   0.57003   0.59025
  24   32196.9    310.6   0.386121538   3.94808  -0.72660  -1.63176   0.87035
  25   32438.4    308.3   0.025916273   0.26302  -0.23380   0.25243  -0.38031
  26   32466.3    308.0   0.330742126   3.35376   1.09814   0.41153   1.40659
  27   33126.9    301.9   0.055601093   0.55256   0.28694  -0.11076   0.67673
  28   33159.4    301.6   0.197136589   1.95720   0.30647   1.08069  -0.83390
  29   33586.6    297.7   0.042410453   0.41570   0.37032   0.52585  -0.04516
  30   34110.8    293.2   0.191322114   1.84650  -0.74937  -1.12984   0.09160
  31   34160.6    292.7   0.090617754   0.87330   0.24056   0.54022   0.72360
  32   34479.9    290.0   0.012233967   0.11681   0.27979  -0.18502   0.06556
  33   34700.1    288.2   0.443533965   4.20796   1.97412   0.33610   0.44479
  34   34969.0    286.0   0.094865078   0.89310   0.60232   0.27297   0.67512
  35   35139.6    284.6   0.082912521   0.77678   0.26418  -0.82230  -0.17552
  36   35252.8    283.7   0.013840946   0.12926   0.14254   0.13373   0.30175
  37   35628.8    280.7   0.036397558   0.33632  -0.00731   0.56100   0.14678
  38   36155.7    276.6   0.127759894   1.16331  -0.36570  -0.99524  -0.19767
  39   36837.6    271.5   0.026695073   0.23857   0.15695   0.12918   0.44413
  40   36853.1    271.3   0.231367731   2.06683  -0.02977  -1.42979   0.14709
  41   37019.7    270.1   0.085787147   0.76289  -0.36423  -0.77126  -0.18813
  42   37146.2    269.2   0.080395997   0.71252  -0.57113  -0.60254  -0.15255
  43   37435.7    267.1   0.007582765   0.06668  -0.04161   0.21858  -0.13106
  44   37502.9    266.6   0.029570651   0.25958   0.13369  -0.36999  -0.32375
  45   37803.1    264.5   0.012491400   0.10878   0.19529   0.22390  -0.14322
  46   38043.9    262.9   0.002985354   0.02583   0.10321   0.09750   0.07533
  47   38156.0    262.1   0.171827543   1.48254   0.09332   1.00235   0.68492
  48   38438.5    260.2   0.058923109   0.50466  -0.12651  -0.68529  -0.13793
  49   38597.3    259.1   0.001080177   0.00921  -0.02668  -0.00261   0.09217
  50   38691.7    258.5   0.003519388   0.02995  -0.09480   0.08302  -0.11859
  51   38762.8    258.0   0.009285675   0.07886  -0.14110  -0.23447   0.06307
  52   38861.9    257.3   0.110648643   0.93734  -0.33379  -0.88796   0.19351
  53   39113.7    255.7   0.051339413   0.43211   0.20037   0.57891   0.23840
  54   39247.3    254.8   0.014057396   0.11792  -0.29143  -0.13953  -0.11626
  55   39482.8    253.3   0.007476202   0.06234  -0.00904  -0.05419  -0.24355
  56   39591.3    252.6   0.338530840   2.81497   1.04923   0.80014  -1.03628
  57   39842.8    251.0   0.012613701   0.10422  -0.22188  -0.21539  -0.09276
  58   40242.6    248.5   0.075408132   0.61689   0.39869   0.23110  -0.63603

FINAL SINGLE POINT ENERGY     -5164.755419026343

DIPOLE MOMENT
-------------
                                X             Y             Z
Electronic contribution:      2.28281      35.27016     -46.69382
Nuclear contribution   :     -0.15556     -36.28931      45.70270
                        -----------------------------------------
Total Dipole Moment    :      2.12724      -1.01914      -0.99112
                        -----------------------------------------
Magnitude (a.u.)       :      2.55854
Magnitude (Debye)      :      6.50330

Rotational constants in cm-1:     0.001097     0.000207     0.000181
Rotational constants in MHz :    32.874536     6.212003     5.414195

                             ****ORCA TERMINATED NORMALLY****
TOTAL RUN TIME: 0 days 0 hours 10 minutes 19 seconds 644 msec
