                         Program Version 4.2.0 -  RELEASE  -
|  1> # ORCA input file
|  2> # SCF done       -175.973511456665          0.000831918404
|  3> ! CAM-B3LYP def2-SVP def2/J RIJCOSX Grid4 TightSCF
|  4> %maxcore 5000
|  5> %tddft
|  6>     Mode sTDDFT
|  7>     Ethresh 5.0
|  8>     maxcore 5000
|  9> end
| 10>
| 11> %pal
| 12>   nprocs 6
| 13>   end
| 14> * xyz 0 1
| 15>    C       -2.18143         1.23245        -1.50808
| 16>    C       -1.23513         1.67065        -2.40011
| 17>    C       -1.43470         1.73171        -3.79105
| 18>    N       -1.55546         1.82417        -4.92973
| 19>    C        0.06451         2.04840        -2.00642
| 20>    N        1.14225         2.31950        -1.71659
| 21>    C       -3.43621         0.57668        -1.85252
| 22>    C       -3.87564        -0.17205        -0.72161
| 23>    C       -5.02816        -0.90155        -0.75513
| 24>    C       -5.81140        -0.90102        -1.93313
| 25>    C       -5.38040        -0.14539        -3.06122
| 26>    C       -4.17417         0.59043        -3.00352
| 27>    C       -6.17745        -0.14394        -4.22351
| 28>    C       -7.34600        -0.85403        -4.27289
| 29>    C       -7.77022        -1.59784        -3.16213
| 30>    C       -7.01858        -1.62199        -2.01853
| 31>    C       -2.93057         0.03235         0.39779
| 32>    O       -2.94952        -0.48611         1.49145
| 33>    C       -1.99826         1.08360        -0.08291
| 34>    C       -1.28365         1.84193         0.80128
| 35>    C       -0.83513         3.15956         0.60961
| 36>    C        0.00151         3.89250         1.45020
| 37>    C        0.15476         5.23094         1.05897
| 38>    O        0.91039         6.18112         1.66139
| 39>    C        1.89999         5.69466         2.54500
| 40>    C        1.31911         4.77318         3.60624
| 41>    S        0.77854         3.19947         2.85019
| 42>    C       -0.59154         5.55601        -0.07040
| 43>    S       -1.46748         4.18381        -0.65805
| 44>    C       -0.68013         6.82053        -0.68135
| 45>    C       -1.32335         7.14301        -1.87101
| 46>    C       -1.28127         8.51683        -2.15266
| 47>    O       -1.81372         9.14915        -3.21767
| 48>    C       -2.72784         8.41584        -4.00532
| 49>    C       -2.17514         7.05765        -4.40350
| 50>    S       -2.07735         5.97226        -2.93551
| 51>    C       -0.60195         9.25900        -1.18726
| 52>    S        0.02509         8.22570         0.06740
| 53>    C       -0.53143        10.66656        -1.19124
| 54>    C        0.10694        11.50023        -0.27378
| 55>    C       -0.12120        12.85211        -0.53375
| 56>    O        0.35017        13.90739         0.16267
| 57>    C        1.38621        13.64539         1.08552
| 58>    C        1.05259        12.49388         2.01971
| 59>    S        1.05206        10.91989         1.08995
| 60>    C       -0.97080        13.07586        -1.63664
| 61>    S       -1.42297        11.56342        -2.38420
| 62>    C       -1.36615        14.36654        -1.99555
| 63>    C       -2.25496        14.77167        -2.96314
| 64>    C       -2.66660        16.13505        -3.22126
| 65>    C       -2.14359        17.28127        -2.67599
| 66>    C       -2.60074        18.57866        -2.98387
| 67>    N       -2.92567        19.66183        -3.18600
| 68>    C       -1.07731        17.34731        -1.75619
| 69>    N       -0.21383        17.50047        -1.01332
| 70>    C       -3.74953        16.08931        -4.20223
| 71>    C       -3.95265        14.73286        -4.58500
| 72>    C       -3.01054        13.87898        -3.84440
| 73>    O       -2.90104        12.66762        -3.95325
| 74>    C       -4.90662        14.36911        -5.48950
| 75>    C       -5.72918        15.36654        -6.06016
| 76>    C       -5.53925        16.72530        -5.67875
| 77>    C       -4.53452        17.07127        -4.74391
| 78>    C       -6.37197        17.71059        -6.24605
| 79>    C       -7.34565        17.37211        -7.14650
| 80>    C       -7.53015        16.03378        -7.52253
| 81>    C       -6.73807        15.05221        -6.99109
| 82>    H       -5.34645        -1.46793         0.10751
| 83>    H       -3.87022         1.16496        -3.86491
| 84>    H       -5.84413         0.42907        -5.07649
| 85>    H       -7.94983        -0.84614        -5.16815
| 86>    H       -8.69589        -2.15122        -3.21675
| 87>    H       -7.34156        -2.19325        -1.16040
| 88>    H       -1.14942         1.43429         1.79879
| 89>    H        2.32802         6.58857         3.00473
| 90>    H        2.68057         5.16749         1.98051
| 91>    H        0.45974         5.23684         4.09113
| 92>    H        2.06885         4.51111         4.34903
| 93>    H       -2.89951         9.04307        -4.88313
| 94>    H       -3.67343         8.28923        -3.46184
| 95>    H       -1.17607         7.15287        -4.82877
| 96>    H       -2.83257         6.55253        -5.10672
| 97>    H        1.50273        14.57721         1.64454
| 98>    H        2.31888        13.42849         0.54833
| 99>    H        0.06855        12.63170         2.46814
|100>    H        1.80590        12.39011         2.79665
|101>    H       -0.91745        15.13200        -1.37378
|102>    H       -5.03713        13.33231        -5.76245
|103>    H       -4.41941        18.10950        -4.47645
|104>    H       -6.22627        18.74036        -5.95425
|105>    H       -7.97943        18.13474        -7.57384
|106>    H       -8.30281        15.78384        -8.23435
|107>    H       -6.87522        14.01908        -7.27607
|108> *
|109>
|110>                          ****END OF INPUT****

CARTESIAN COORDINATES (ANGSTROEM)
---------------------------------
  C     -2.181430    1.232450   -1.508080
  C     -1.235130    1.670650   -2.400110
  C     -1.434700    1.731710   -3.791050
  N     -1.555460    1.824170   -4.929730
  C      0.064510    2.048400   -2.006420
  N      1.142250    2.319500   -1.716590
  C     -3.436210    0.576680   -1.852520
  C     -3.875640   -0.172050   -0.721610
  C     -5.028160   -0.901550   -0.755130
  C     -5.811400   -0.901020   -1.933130
  C     -5.380400   -0.145390   -3.061220
  C     -4.174170    0.590430   -3.003520
  C     -6.177450   -0.143940   -4.223510
  C     -7.346000   -0.854030   -4.272890
  C     -7.770220   -1.597840   -3.162130
  C     -7.018580   -1.621990   -2.018530
  C     -2.930570    0.032350    0.397790
  O     -2.949520   -0.486110    1.491450
  C     -1.998260    1.083600   -0.082910
  C     -1.283650    1.841930    0.801280
  C     -0.835130    3.159560    0.609610
  C      0.001510    3.892500    1.450200
  C      0.154760    5.230940    1.058970
  O      0.910390    6.181120    1.661390
  C      1.899990    5.694660    2.545000
  C      1.319110    4.773180    3.606240
  S      0.778540    3.199470    2.850190
  C     -0.591540    5.556010   -0.070400
  S     -1.467480    4.183810   -0.658050
  C     -0.680130    6.820530   -0.681350
  C     -1.323350    7.143010   -1.871010
  C     -1.281270    8.516830   -2.152660
  O     -1.813720    9.149150   -3.217670
  C     -2.727840    8.415840   -4.005320
  C     -2.175140    7.057650   -4.403500
  S     -2.077350    5.972260   -2.935510
  C     -0.601950    9.259000   -1.187260
  S      0.025090    8.225700    0.067400
  C     -0.531430   10.666560   -1.191240
  C      0.106940   11.500230   -0.273780
  C     -0.121200   12.852110   -0.533750
  O      0.350170   13.907390    0.162670
  C      1.386210   13.645390    1.085520
  C      1.052590   12.493880    2.019710
  S      1.052060   10.919890    1.089950
  C     -0.970800   13.075860   -1.636640
  S     -1.422970   11.563420   -2.384200
  C     -1.366150   14.366540   -1.995550
  C     -2.254960   14.771670   -2.963140
  C     -2.666600   16.135050   -3.221260
  C     -2.143590   17.281270   -2.675990
  C     -2.600740   18.578660   -2.983870
  N     -2.925670   19.661830   -3.186000
  C     -1.077310   17.347310   -1.756190
  N     -0.213830   17.500470   -1.013320
  C     -3.749530   16.089310   -4.202230
  C     -3.952650   14.732860   -4.585000
  C     -3.010540   13.878980   -3.844400
  O     -2.901040   12.667620   -3.953250
  C     -4.906620   14.369110   -5.489500
  C     -5.729180   15.366540   -6.060160
  C     -5.539250   16.725300   -5.678750
  C     -4.534520   17.071270   -4.743910
  C     -6.371970   17.710590   -6.246050
  C     -7.345650   17.372110   -7.146500
  C     -7.530150   16.033780   -7.522530
  C     -6.738070   15.052210   -6.991090
  H     -5.346450   -1.467930    0.107510
  H     -3.870220    1.164960   -3.864910
  H     -5.844130    0.429070   -5.076490
  H     -7.949830   -0.846140   -5.168150
  H     -8.695890   -2.151220   -3.216750
  H     -7.341560   -2.193250   -1.160400
  H     -1.149420    1.434290    1.798790
  H      2.328020    6.588570    3.004730
  H      2.680570    5.167490    1.980510
  H      0.459740    5.236840    4.091130
  H      2.068850    4.511110    4.349030
  H     -2.899510    9.043070   -4.883130
  H     -3.673430    8.289230   -3.461840
  H     -1.176070    7.152870   -4.828770
  H     -2.832570    6.552530   -5.106720
  H      1.502730   14.577210    1.644540
  H      2.318880   13.428490    0.548330
  H      0.068550   12.631700    2.468140
  H      1.805900   12.390110    2.796650
  H     -0.917450   15.132000   -1.373780
  H     -5.037130   13.332310   -5.762450
  H     -4.419410   18.109500   -4.476450
  H     -6.226270   18.740360   -5.954250
  H     -7.979430   18.134740   -7.573840
  H     -8.302810   15.783840   -8.234350
  H     -6.875220   14.019080   -7.276070

 Total Charge           Charge          ....    0
 Multiplicity           Mult            ....    1
 Number of Electrons    NEL             ....  502
 Basis Dimension        Dim             .... 1092

ORBITAL ENERGIES
----------------

  NO   OCC          E(Eh)            E(eV)
   0   2.0000     -88.969879     -2420.9935
   1   2.0000     -88.967939     -2420.9407
   2   2.0000     -88.952897     -2420.5314
   3   2.0000     -88.952256     -2420.5139
   4   2.0000     -88.947356     -2420.3806
   5   2.0000     -88.941249     -2420.2144
   6   2.0000     -19.272262      -524.4249
   7   2.0000     -19.270422      -524.3748
   8   2.0000     -19.267746      -524.3020
   9   2.0000     -19.206499      -522.6354
  10   2.0000     -19.202966      -522.5393
  11   2.0000     -14.407105      -392.0373
  12   2.0000     -14.403094      -391.9281
  13   2.0000     -14.401546      -391.8860
  14   2.0000     -14.399354      -391.8263
  15   2.0000     -10.356236      -281.8075
  16   2.0000     -10.354624      -281.7636
  17   2.0000     -10.354016      -281.7471
  18   2.0000     -10.352037      -281.6932
  19   2.0000     -10.351920      -281.6901
  20   2.0000     -10.351447      -281.6772
  21   2.0000     -10.346239      -281.5355
  22   2.0000     -10.343933      -281.4727
  23   2.0000     -10.331403      -281.1318
  24   2.0000     -10.330401      -281.1045
  25   2.0000     -10.327094      -281.0145
  26   2.0000     -10.326654      -281.0025
  27   2.0000     -10.325887      -280.9817
  28   2.0000     -10.323575      -280.9188
  29   2.0000     -10.323469      -280.9159
  30   2.0000     -10.322703      -280.8950
  31   2.0000     -10.318596      -280.7833
  32   2.0000     -10.317669      -280.7581
  33   2.0000     -10.316834      -280.7353
  34   2.0000     -10.316020      -280.7132
  35   2.0000     -10.315083      -280.6877
  36   2.0000     -10.314442      -280.6702
  37   2.0000     -10.311624      -280.5936
  38   2.0000     -10.310646      -280.5669
  39   2.0000     -10.307129      -280.4713
  40   2.0000     -10.306597      -280.4568
  41   2.0000     -10.305636      -280.4306
  42   2.0000     -10.305061      -280.4150
  43   2.0000     -10.303558      -280.3741
  44   2.0000     -10.297031      -280.1965
  45   2.0000     -10.295234      -280.1476
  46   2.0000     -10.291310      -280.0408
  47   2.0000     -10.291016      -280.0328
  48   2.0000     -10.290952      -280.0310
  49   2.0000     -10.289451      -279.9902
  50   2.0000     -10.289188      -279.9830
  51   2.0000     -10.288358      -279.9605
  52   2.0000     -10.287857      -279.9468
  53   2.0000     -10.286784      -279.9176
  54   2.0000     -10.285702      -279.8882
  55   2.0000     -10.285517      -279.8831
  56   2.0000     -10.281683      -279.7788
  57   2.0000     -10.281029      -279.7610
  58   2.0000     -10.280775      -279.7541
  59   2.0000     -10.280432      -279.7448
  60   2.0000     -10.280104      -279.7358
  61   2.0000     -10.279040      -279.7069
  62   2.0000     -10.278539      -279.6933
  63   2.0000     -10.278526      -279.6929
  64   2.0000     -10.277861      -279.6748
  65   2.0000     -10.277605      -279.6679
  66   2.0000     -10.277296      -279.6595
  67   2.0000      -8.064251      -219.4394
  68   2.0000      -8.061799      -219.3727
  69   2.0000      -8.047859      -218.9934
  70   2.0000      -8.045484      -218.9288
  71   2.0000      -8.042610      -218.8505
  72   2.0000      -8.036636      -218.6880
  73   2.0000      -6.033822      -164.1886
  74   2.0000      -6.031465      -164.1245
  75   2.0000      -6.029755      -164.0780
  76   2.0000      -6.027190      -164.0082
  77   2.0000      -6.025680      -163.9671
  78   2.0000      -6.023279      -163.9017
  79   2.0000      -6.018131      -163.7617
  80   2.0000      -6.015228      -163.6827
  81   2.0000      -6.014180      -163.6542
  82   2.0000      -6.012998      -163.6220
  83   2.0000      -6.010568      -163.5559
  84   2.0000      -6.008958      -163.5121
  85   2.0000      -6.007576      -163.4744
  86   2.0000      -6.007099      -163.4615
  87   2.0000      -6.006961      -163.4577
  88   2.0000      -6.003134      -163.3536
  89   2.0000      -6.002211      -163.3285
  90   2.0000      -5.996066      -163.1613
  91   2.0000      -1.182072       -32.1658
  92   2.0000      -1.181701       -32.1557
  93   2.0000      -1.177325       -32.0366
  94   2.0000      -1.121315       -30.5125
  95   2.0000      -1.118080       -30.4245
  96   2.0000      -1.016451       -27.6591
  97   2.0000      -1.008474       -27.4420
  98   2.0000      -1.003972       -27.3195
  99   2.0000      -0.998782       -27.1782
 100   2.0000      -0.989815       -26.9342
 101   2.0000      -0.986675       -26.8488
 102   2.0000      -0.984751       -26.7964
 103   2.0000      -0.982067       -26.7234
 104   2.0000      -0.979112       -26.6430
 105   2.0000      -0.963890       -26.2288
 106   2.0000      -0.960468       -26.1357
 107   2.0000      -0.938032       -25.5251
 108   2.0000      -0.931965       -25.3601
 109   2.0000      -0.927641       -25.2424
 110   2.0000      -0.918375       -24.9903
 111   2.0000      -0.912038       -24.8178
 112   2.0000      -0.899153       -24.4672
 113   2.0000      -0.890046       -24.2194
 114   2.0000      -0.880749       -23.9664
 115   2.0000      -0.877293       -23.8724
 116   2.0000      -0.874538       -23.7974
 117   2.0000      -0.872052       -23.7297
 118   2.0000      -0.869882       -23.6707
 119   2.0000      -0.867926       -23.6175
 120   2.0000      -0.862457       -23.4687
 121   2.0000      -0.847608       -23.0646
 122   2.0000      -0.825777       -22.4705
 123   2.0000      -0.821522       -22.3548
 124   2.0000      -0.818523       -22.2731
 125   2.0000      -0.809163       -22.0185
 126   2.0000      -0.789307       -21.4781
 127   2.0000      -0.780175       -21.2296
 128   2.0000      -0.776092       -21.1185
 129   2.0000      -0.774288       -21.0695
 130   2.0000      -0.770597       -20.9690
 131   2.0000      -0.752169       -20.4676
 132   2.0000      -0.750073       -20.4105
 133   2.0000      -0.749296       -20.3894
 134   2.0000      -0.742587       -20.2068
 135   2.0000      -0.728450       -19.8221
 136   2.0000      -0.721202       -19.6249
 137   2.0000      -0.701088       -19.0776
 138   2.0000      -0.695424       -18.9235
 139   2.0000      -0.694355       -18.8944
 140   2.0000      -0.689564       -18.7640
 141   2.0000      -0.683850       -18.6085
 142   2.0000      -0.671734       -18.2788
 143   2.0000      -0.668802       -18.1990
 144   2.0000      -0.667449       -18.1622
 145   2.0000      -0.665016       -18.0960
 146   2.0000      -0.654872       -17.8200
 147   2.0000      -0.641903       -17.4671
 148   2.0000      -0.635081       -17.2814
 149   2.0000      -0.630543       -17.1579
 150   2.0000      -0.626631       -17.0515
 151   2.0000      -0.624706       -16.9991
 152   2.0000      -0.614344       -16.7172
 153   2.0000      -0.606034       -16.4910
 154   2.0000      -0.602213       -16.3871
 155   2.0000      -0.601046       -16.3553
 156   2.0000      -0.599946       -16.3254
 157   2.0000      -0.596721       -16.2376
 158   2.0000      -0.592012       -16.1095
 159   2.0000      -0.586727       -15.9656
 160   2.0000      -0.581163       -15.8143
 161   2.0000      -0.579089       -15.7578
 162   2.0000      -0.572706       -15.5841
 163   2.0000      -0.571852       -15.5609
 164   2.0000      -0.566279       -15.4092
 165   2.0000      -0.556619       -15.1464
 166   2.0000      -0.548484       -14.9250
 167   2.0000      -0.543275       -14.7833
 168   2.0000      -0.540457       -14.7066
 169   2.0000      -0.538535       -14.6543
 170   2.0000      -0.537576       -14.6282
 171   2.0000      -0.536736       -14.6053
 172   2.0000      -0.534914       -14.5558
 173   2.0000      -0.531924       -14.4744
 174   2.0000      -0.529790       -14.4163
 175   2.0000      -0.527422       -14.3519
 176   2.0000      -0.526653       -14.3310
 177   2.0000      -0.523341       -14.2408
 178   2.0000      -0.519661       -14.1407
 179   2.0000      -0.516067       -14.0429
 180   2.0000      -0.514206       -13.9923
 181   2.0000      -0.512236       -13.9387
 182   2.0000      -0.511602       -13.9214
 183   2.0000      -0.509865       -13.8741
 184   2.0000      -0.507556       -13.8113
 185   2.0000      -0.505024       -13.7424
 186   2.0000      -0.503515       -13.7014
 187   2.0000      -0.500903       -13.6303
 188   2.0000      -0.496579       -13.5126
 189   2.0000      -0.495316       -13.4782
 190   2.0000      -0.490068       -13.3354
 191   2.0000      -0.488966       -13.3054
 192   2.0000      -0.484603       -13.1867
 193   2.0000      -0.483936       -13.1686
 194   2.0000      -0.482603       -13.1323
 195   2.0000      -0.480236       -13.0679
 196   2.0000      -0.477336       -12.9890
 197   2.0000      -0.474220       -12.9042
 198   2.0000      -0.473259       -12.8780
 199   2.0000      -0.469611       -12.7788
 200   2.0000      -0.463216       -12.6047
 201   2.0000      -0.457946       -12.4614
 202   2.0000      -0.456122       -12.4117
 203   2.0000      -0.453966       -12.3531
 204   2.0000      -0.445695       -12.1280
 205   2.0000      -0.444317       -12.0905
 206   2.0000      -0.441591       -12.0163
 207   2.0000      -0.436189       -11.8693
 208   2.0000      -0.435631       -11.8541
 209   2.0000      -0.435110       -11.8399
 210   2.0000      -0.433755       -11.8031
 211   2.0000      -0.432970       -11.7817
 212   2.0000      -0.430336       -11.7100
 213   2.0000      -0.429427       -11.6853
 214   2.0000      -0.425787       -11.5863
 215   2.0000      -0.424003       -11.5377
 216   2.0000      -0.422713       -11.5026
 217   2.0000      -0.422346       -11.4926
 218   2.0000      -0.421644       -11.4735
 219   2.0000      -0.420455       -11.4412
 220   2.0000      -0.416411       -11.3311
 221   2.0000      -0.413144       -11.2422
 222   2.0000      -0.410530       -11.1711
 223   2.0000      -0.409333       -11.1385
 224   2.0000      -0.405918       -11.0456
 225   2.0000      -0.405069       -11.0225
 226   2.0000      -0.399829       -10.8799
 227   2.0000      -0.396042       -10.7768
 228   2.0000      -0.392862       -10.6903
 229   2.0000      -0.388952       -10.5839
 230   2.0000      -0.387070       -10.5327
 231   2.0000      -0.381908       -10.3923
 232   2.0000      -0.380792       -10.3619
 233   2.0000      -0.371356       -10.1051
 234   2.0000      -0.368711       -10.0331
 235   2.0000      -0.364279        -9.9125
 236   2.0000      -0.360277        -9.8036
 237   2.0000      -0.350147        -9.5280
 238   2.0000      -0.341732        -9.2990
 239   2.0000      -0.326604        -8.8874
 240   2.0000      -0.319262        -8.6876
 241   2.0000      -0.318893        -8.6775
 242   2.0000      -0.308574        -8.3967
 243   2.0000      -0.307040        -8.3550
 244   2.0000      -0.298010        -8.1093
 245   2.0000      -0.288374        -7.8471
 246   2.0000      -0.285397        -7.7661
 247   2.0000      -0.283421        -7.7123
 248   2.0000      -0.275885        -7.5072
 249   2.0000      -0.269032        -7.3207
 250   2.0000      -0.234399        -6.3783
 251   0.0000      -0.098328        -2.6756
 252   0.0000      -0.075205        -2.0464
 253   0.0000      -0.049348        -1.3428
 254   0.0000      -0.045813        -1.2466
 255   0.0000      -0.032218        -0.8767

MULLIKEN ATOMIC CHARGES
-----------------------
   0 C :    0.234137
   1 C :   -0.320318
   2 C :   -0.175607
   3 N :    0.140039
   4 C :   -0.200781
   5 N :    0.160692
   6 C :    0.043152
   7 C :    0.009788
   8 C :   -0.085165
   9 C :    0.093669
  10 C :    0.096235
  11 C :   -0.084792
  12 C :   -0.018948
  13 C :    0.034875
  14 C :    0.034183
  15 C :   -0.016391
  16 C :    0.142984
  17 O :   -0.147842
  18 C :   -0.143367
  19 C :    0.040086
  20 C :   -0.143064
  21 C :    0.003802
  22 C :    0.158694
  23 O :   -0.314526
  24 C :    0.220906
  25 C :   -0.106400
  26 S :    0.050652
  27 C :   -0.104847
  28 S :    0.143643
  29 C :   -0.102285
  30 C :   -0.060377
  31 C :    0.171848
  32 O :   -0.305300
  33 C :    0.227267
  34 C :   -0.093409
  35 S :    0.023010
  36 C :   -0.139772
  37 S :    0.181686
  38 C :   -0.081146
  39 C :   -0.067992
  40 C :    0.196716
  41 O :   -0.286290
  42 C :    0.228816
  43 C :   -0.103283
  44 S :    0.008671
  45 C :   -0.128868
  46 S :    0.212373
  47 C :   -0.028602
  48 C :   -0.102895
  49 C :    0.333837
  50 C :   -0.366686
  51 C :   -0.189009
  52 N :    0.139102
  53 C :   -0.196190
  54 N :    0.142395
  55 C :    0.042406
  56 C :    0.004612
  57 C :    0.162651
  58 O :   -0.195558
  59 C :   -0.088608
  60 C :    0.099088
  61 C :    0.095388
  62 C :   -0.086238
  63 C :   -0.019177
  64 C :    0.034044
  65 C :    0.033537
  66 C :   -0.017712
  67 H :   -0.014644
  68 H :   -0.011711
  69 H :   -0.015380
  70 H :   -0.007788
  71 H :   -0.008102
  72 H :   -0.019774
  73 H :    0.023370
  74 H :    0.037904
  75 H :    0.046908
  76 H :    0.078555
  77 H :    0.068975
  78 H :    0.046807
  79 H :    0.038069
  80 H :    0.083312
  81 H :    0.070524
  82 H :    0.045966
  83 H :    0.037649
  84 H :    0.077509
  85 H :    0.062553
  86 H :    0.020958
  87 H :   -0.023125
  88 H :   -0.010319
  89 H :   -0.011228
  90 H :   -0.008104
  91 H :   -0.008941
  92 H :   -0.023485
Sum of atomic charges:   -0.0000000

LOEWDIN ATOMIC CHARGES
----------------------
   0 C :    0.056082
   1 C :   -0.153110
   2 C :   -0.018116
   3 N :   -0.065071
   4 C :   -0.034560
   5 N :   -0.056048
   6 C :   -0.020671
   7 C :   -0.054104
   8 C :    0.028467
   9 C :   -0.010086
  10 C :   -0.006671
  11 C :    0.011573
  12 C :   -0.008677
  13 C :   -0.016201
  14 C :   -0.016251
  15 C :   -0.010177
  16 C :    0.081276
  17 O :   -0.151105
  18 C :   -0.106996
  19 C :    0.046076
  20 C :   -0.206529
  21 C :   -0.180880
  22 C :   -0.016787
  23 O :   -0.101223
  24 C :    0.075864
  25 C :   -0.138577
  26 S :    0.328343
  27 C :   -0.180161
  28 S :    0.484515
  29 C :   -0.199995
  30 C :   -0.219127
  31 C :    0.003789
  32 O :   -0.085552
  33 C :    0.076523
  34 C :   -0.135994
  35 S :    0.304667
  36 C :   -0.223860
  37 S :    0.473031
  38 C :   -0.173553
  39 C :   -0.244087
  40 C :    0.034644
  41 O :   -0.076815
  42 C :    0.075516
  43 C :   -0.138860
  44 S :    0.283042
  45 C :   -0.224477
  46 S :    0.527954
  47 C :    0.061602
  48 C :   -0.123472
  49 C :    0.077773
  50 C :   -0.154641
  51 C :   -0.017412
  52 N :   -0.067872
  53 C :   -0.022345
  54 N :   -0.063056
  55 C :   -0.023152
  56 C :   -0.052006
  57 C :    0.082563
  58 O :   -0.181237
  59 C :    0.024440
  60 C :   -0.010261
  61 C :   -0.007888
  62 C :    0.016544
  63 C :   -0.006087
  64 C :   -0.017318
  65 C :   -0.016396
  66 C :   -0.012547
  67 H :    0.038117
  68 H :    0.036877
  69 H :    0.032488
  70 H :    0.031705
  71 H :    0.031535
  72 H :    0.030953
  73 H :    0.045121
  74 H :    0.033969
  75 H :    0.025964
  76 H :    0.033394
  77 H :    0.039834
  78 H :    0.037426
  79 H :    0.022831
  80 H :    0.036020
  81 H :    0.040861
  82 H :    0.036961
  83 H :    0.023133
  84 H :    0.032790
  85 H :    0.037441
  86 H :    0.049220
  87 H :    0.034777
  88 H :    0.038289
  89 H :    0.033937
  90 H :    0.031722
  91 H :    0.031020
  92 H :    0.029340

  Mayer bond orders larger than 0.100000
B(  0-C ,  1-C ) :   1.6349 B(  0-C ,  6-C ) :   1.0017 B(  0-C , 18-C ) :   1.0582
B(  1-C ,  2-C ) :   1.1471 B(  1-C ,  4-C ) :   1.1452 B(  2-C ,  3-N ) :   2.9831
B(  4-C ,  5-N ) :   3.0284 B(  6-C ,  7-C ) :   1.2134 B(  6-C , 11-C ) :   1.4670
B(  7-C ,  8-C ) :   1.4800 B(  7-C , 16-C ) :   0.9142 B(  8-C ,  9-C ) :   1.1815
B(  8-C , 67-H ) :   1.0152 B(  9-C , 10-C ) :   1.2616 B(  9-C , 15-C ) :   1.2467
B( 10-C , 11-C ) :   1.1966 B( 10-C , 12-C ) :   1.2431 B( 11-C , 68-H ) :   0.9947
B( 12-C , 13-C ) :   1.4872 B( 12-C , 69-H ) :   0.9970 B( 13-C , 14-C ) :   1.2630
B( 13-C , 70-H ) :   0.9882 B( 14-C , 15-C ) :   1.4880 B( 14-C , 71-H ) :   0.9884
B( 15-C , 72-H ) :   0.9973 B( 16-C , 17-O ) :   2.2737 B( 16-C , 18-C ) :   0.9499
B( 18-C , 19-C ) :   1.5860 B( 19-C , 20-C ) :   1.2107 B( 19-C , 73-H ) :   0.9446
B( 20-C , 21-C ) :   1.4360 B( 20-C , 27-C ) :   0.1014 B( 20-C , 28-S ) :   1.0860
B( 21-C , 22-C ) :   1.2962 B( 21-C , 26-S ) :   1.0323 B( 22-C , 23-O ) :   1.1425
B( 22-C , 27-C ) :   1.4384 B( 23-O , 24-C ) :   0.9506 B( 24-C , 25-C ) :   1.0420
B( 24-C , 74-H ) :   0.9523 B( 24-C , 75-H ) :   0.9532 B( 25-C , 26-S ) :   1.0019
B( 25-C , 76-H ) :   0.9430 B( 25-C , 77-H ) :   0.9479 B( 27-C , 28-S ) :   1.1317
B( 27-C , 29-C ) :   1.2221 B( 29-C , 30-C ) :   1.4684 B( 29-C , 36-C ) :   0.1078
B( 29-C , 37-S ) :   1.1209 B( 30-C , 31-C ) :   1.2900 B( 30-C , 35-S ) :   1.0041
B( 31-C , 32-O ) :   1.1538 B( 31-C , 36-C ) :   1.4483 B( 32-O , 33-C ) :   0.9401
B( 33-C , 34-C ) :   1.0434 B( 33-C , 78-H ) :   0.9507 B( 33-C , 79-H ) :   0.9532
B( 34-C , 35-S ) :   0.9961 B( 34-C , 80-H ) :   0.9435 B( 34-C , 81-H ) :   0.9484
B( 36-C , 37-S ) :   1.0706 B( 36-C , 38-C ) :   1.2279 B( 38-C , 39-C ) :   1.4156
B( 38-C , 46-S ) :   1.1294 B( 39-C , 40-C ) :   1.3337 B( 39-C , 44-S ) :   0.9876
B( 40-C , 41-O ) :   1.1802 B( 40-C , 45-C ) :   1.3451 B( 41-O , 42-C ) :   0.9494
B( 42-C , 43-C ) :   1.0380 B( 42-C , 82-H ) :   0.9518 B( 42-C , 83-H ) :   0.9532
B( 43-C , 44-S ) :   1.0054 B( 43-C , 84-H ) :   0.9448 B( 43-C , 85-H ) :   0.9489
B( 45-C , 46-S ) :   1.0276 B( 45-C , 47-C ) :   1.3357 B( 47-C , 48-C ) :   1.4292
B( 47-C , 86-H ) :   0.9338 B( 48-C , 49-C ) :   1.0997 B( 48-C , 57-C ) :   0.9932
B( 49-C , 50-C ) :   1.6020 B( 49-C , 55-C ) :   0.9780 B( 50-C , 51-C ) :   1.1537
B( 50-C , 53-C ) :   1.1498 B( 51-C , 52-N ) :   2.9607 B( 53-C , 54-N ) :   2.9625
B( 55-C , 56-C ) :   1.2171 B( 55-C , 62-C ) :   1.4621 B( 56-C , 57-C ) :   0.9558
B( 56-C , 59-C ) :   1.4771 B( 57-C , 58-O ) :   2.1139 B( 59-C , 60-C ) :   1.1709
B( 59-C , 87-H ) :   1.0155 B( 60-C , 61-C ) :   1.2625 B( 60-C , 66-C ) :   1.2475
B( 61-C , 62-C ) :   1.1970 B( 61-C , 63-C ) :   1.2431 B( 62-C , 88-H ) :   0.9896
B( 63-C , 64-C ) :   1.4859 B( 63-C , 89-H ) :   0.9972 B( 64-C , 65-C ) :   1.2633
B( 64-C , 90-H ) :   0.9883 B( 65-C , 66-C ) :   1.4853 B( 65-C , 91-H ) :   0.9889
B( 66-C , 92-H ) :   0.9971

-----------------------------------------------------------------------------
         ABSORPTION SPECTRUM VIA TRANSITION ELECTRIC DIPOLE MOMENTS
-----------------------------------------------------------------------------
State   Energy  Wavelength   fosc         T2         TX        TY        TZ
        (cm-1)    (nm)                  (au**2)     (au)      (au)      (au)
-----------------------------------------------------------------------------
   0   14346.9    697.0   1.391299742  31.92549  -0.02916   5.62423  -0.54100
   1   19740.0    506.6   0.439733025   7.33359   1.21441  -1.93859   1.44937
   2   22534.8    443.8   0.065685549   0.95960  -0.66077  -0.06683  -0.72008
   3   23763.3    420.8   0.300452483   4.16241  -1.04264  -0.25846  -1.73451
   4   23964.0    417.3   0.009789784   0.13449  -0.14484   0.30079  -0.15177
   5   25140.5    397.8   0.062750467   0.82171   0.57556  -0.13080   0.68799
   6   25339.6    394.6   0.020855935   0.27096   0.11798   0.15286   0.48340
   7   26556.1    376.6   0.200037570   2.47984   1.01784   1.13399  -0.39739
   8   27001.4    370.4   0.010602211   0.12927   0.25043   0.20471   0.15699
   9   27669.1    361.4   0.113998254   1.35637   0.65418  -0.18184   0.94623
  10   28320.2    353.1   0.093684118   1.08904   0.93721   0.38010   0.25729
  11   28411.2    352.0   0.060609307   0.70231  -0.68730  -0.12548  -0.46280
  12   28698.0    348.5   0.009697850   0.11125   0.17132  -0.28465   0.02957
  13   29472.7    339.3   0.011142158   0.12446   0.32005  -0.09026   0.11782
  14   29609.2    337.7   0.038009214   0.42261   0.52387   0.38493   0.00124
  15   29977.3    333.6   0.020571901   0.22592   0.07314   0.44211   0.15847
  16   30599.6    326.8   0.037031975   0.39842  -0.22049   0.53040  -0.26169
  17   31532.2    317.1   0.042889145   0.44778   0.66493   0.00843   0.07468
  18   32554.5    307.2   0.053776720   0.54383  -0.58217  -0.43079   0.13902
  19   33430.7    299.1   0.148087564   1.45830   1.12803   0.27508   0.33196
  20   33483.0    298.7   0.546725255   5.37551   2.03511   1.03804   0.39539
  21   33678.9    296.9   0.147512177   1.44194  -0.59808   0.07309  -1.03870
  22   34014.3    294.0   0.036276711   0.35111  -0.00943  -0.57155  -0.15605
  23   34116.6    293.1   0.048190848   0.46502   0.25667  -0.26812   0.57206
  24   34205.6    292.3   0.019715632   0.18975  -0.32695  -0.21330   0.19330
  25   34662.5    288.5   0.372128624   3.53434   1.49364   0.61235   0.96353
  26   35056.6    285.3   0.211857910   1.98953  -0.90826  -0.11342  -1.07319
  27   35334.0    283.0   0.029556315   0.27538   0.12254   0.27146   0.43206
  28   35602.7    280.9   0.030222669   0.27946   0.46955  -0.11401   0.21445
  29   36108.3    276.9   0.007447335   0.06790   0.22956   0.06703   0.10349
  30   36584.1    273.3   0.040156662   0.36136   0.06601   0.48418  -0.35010
  31   36646.5    272.9   0.019141793   0.17196  -0.12904  -0.06863   0.38807
  32   37519.5    266.5   0.213495860   1.87330  -0.97139   0.00098  -0.96421
  33   37987.5    263.2   0.096976906   0.84043  -0.81143  -0.35615  -0.23489
  34   38077.5    262.6   0.004030086   0.03484  -0.09387   0.00815  -0.16114
  35   38280.0    261.2   0.046946717   0.40375  -0.12023  -0.47969   0.39899
  36   38462.7    260.0   0.011301051   0.09673  -0.01878   0.07005   0.30244
  37   38624.0    258.9   0.286594453   2.44279  -0.96981  -1.14204  -0.44497
  38   38836.7    257.5   0.096798057   0.82054  -0.06889  -0.79022  -0.43743
  39   39646.8    252.2   0.180615852   1.49977   0.61401   0.02996   1.05918
  40   39741.8    251.6   0.051305833   0.42501  -0.08548   0.59183  -0.25968
  41   39924.3    250.5   0.041128749   0.33914  -0.03411  -0.56215   0.14820
  42   40118.1    249.3   0.113009430   0.92736  -0.85694  -0.14462   0.41485

FINAL SINGLE POINT ENERGY     -4977.405536125138

DIPOLE MOMENT
-------------
                                X             Y             Z
Electronic contribution:     19.71027      -4.11777       8.98767
Nuclear contribution   :    -21.27124       2.77217      -8.07590
                        -----------------------------------------
Total Dipole Moment    :     -1.56098      -1.34560       0.91178
                        -----------------------------------------
Magnitude (a.u.)       :      2.25358
Magnitude (Debye)      :      5.72815

Rotational constants in cm-1:     0.001462     0.000422     0.000341
Rotational constants in MHz :    43.835561    12.659605    10.233617

                             ****ORCA TERMINATED NORMALLY****
TOTAL RUN TIME: 0 days 0 hours 10 minutes 20 seconds 37 msec
