                         Program Version 4.2.0 -  RELEASE  -
|  1> # ORCA input file
|  2> # SCF done       -145.854772534883          0.000476057357
|  3> ! CAM-B3LYP def2-SVP def2/J RIJCOSX Grid4 TightSCF
|  4> %maxcore 5000
|  5> %tddft
|  6>     Mode sTDDFT
|  7>     Ethresh 5.0
|  8>     maxcore 5000
|  9> end
| 10>
| 11> %pal
| 12>   nprocs 6
| 13>   end
| 14> * xyz 0 1
| 15>    C        1.24011         1.85796         1.62685
| 16>    C        0.40988         2.48844         2.51260
| 17>    C        0.72338         2.68575         3.87415
| 18>    N        0.94111         2.87783         4.98417
| 19>    C       -0.88806         2.93715         2.19159
| 20>    N       -1.96665         3.27555         1.99396
| 21>    C        2.48073         1.17066         1.96372
| 22>    C        2.80400         0.26569         0.90917
| 23>    C        3.90403        -0.54151         0.96853
| 24>    C        4.74931        -0.47266         2.09823
| 25>    C        4.44015         0.44047         3.14846
| 26>    C        3.29213         1.26046         3.06350
| 27>    C        5.29608         0.50398         4.26698
| 28>    C        6.40286        -0.29647         4.34737
| 29>    C        6.70599        -1.19544         3.31356
| 30>    C        5.89678        -1.28216         2.21338
| 31>    C        1.80656         0.38964        -0.16537
| 32>    O        1.71427        -0.24888        -1.18657
| 33>    C        0.94264         1.54382         0.23849
| 34>    C        0.17890         2.15679        -0.69058
| 35>    C       -0.44574         3.44999        -0.60895
| 36>    C       -1.68243         3.72744        -1.21148
| 37>    N       -2.24238         4.91123        -1.16446
| 38>    C       -1.61162         5.87397        -0.49279
| 39>    N       -0.41545         5.73055         0.07794
| 40>    C        0.16072         4.55612         0.00537
| 41>    C       -2.25481         7.17525        -0.40843
| 42>    C       -3.52731         7.41136        -0.94087
| 43>    N       -4.09893         8.59382        -0.88976
| 44>    C       -3.42523         9.57982        -0.29557
| 45>    N       -2.21848         9.45578         0.25888
| 46>    C       -1.64289         8.27514         0.20263
| 47>    C       -4.05192        10.89508        -0.26095
| 48>    C       -5.28822        11.14380        -0.86342
| 49>    N       -5.85197        12.33379        -0.84245
| 50>    C       -5.20262        13.30218        -0.20265
| 51>    N       -4.00881        13.18497         0.37425
| 52>    C       -3.44419        11.99722         0.34950
| 53>    C       -5.82809        14.62764        -0.18952
| 54>    C       -6.12816        15.28220         0.94330
| 55>    C       -6.65052        16.63870         1.10019
| 56>    C       -6.94756        17.51497         0.09509
| 57>    C       -7.44521        18.82088         0.30130
| 58>    N       -7.85131        19.88955         0.40135
| 59>    C       -6.80535        17.25129        -1.28526
| 60>    N       -6.71686        17.12161        -2.42207
| 61>    C       -6.77422        16.89737         2.52748
| 62>    C       -6.38450        15.73143         3.24924
| 63>    C       -6.01255        14.66554         2.30519
| 64>    O       -5.74480        13.51623         2.56067
| 65>    C       -6.40130        15.69005         4.61436
| 66>    C       -6.80930        16.83384         5.33535
| 67>    C       -7.20112        18.00390         4.62158
| 68>    C       -7.17817        18.01723         3.20952
| 69>    C       -7.60998        19.13977         5.35104
| 70>    C       -7.63048        19.12267         6.71873
| 71>    C       -7.24372        17.97046         7.42040
| 72>    C       -6.84192        16.85087         6.74384
| 73>    H        4.12702        -1.22425         0.16216
| 74>    H        3.08693         1.95033         3.86724
| 75>    H        5.05692         1.19526         5.06160
| 76>    H        7.05130        -0.24168         5.20879
| 77>    H        7.58404        -1.81857         3.39325
| 78>    H        6.12505        -1.97230         1.41448
| 79>    H        0.07996         1.63422        -1.63730
| 80>    H       -2.23706         2.95513        -1.72846
| 81>    H        1.16033         4.48784         0.41926
| 82>    H       -4.08434         6.61667        -1.41830
| 83>    H       -0.66142         8.18663         0.64876
| 84>    H       -5.82431        10.35758        -1.37722
| 85>    H       -2.47576        11.90595         0.82189
| 86>    H       -6.03679        15.04666        -1.16437
| 87>    H       -6.10327        14.79330         5.13696
| 88>    H       -7.48208        18.91744         2.69940
| 89>    H       -7.90673        20.02392         4.80623
| 90>    H       -7.94498        19.99702         7.26851
| 91>    H       -7.26615        17.97507         8.49987
| 92>    H       -6.54353        15.96119         7.27867
| 93> *
| 94>
| 95>                          ****END OF INPUT****

CARTESIAN COORDINATES (ANGSTROEM)
---------------------------------
  C      1.240110    1.857960    1.626850
  C      0.409880    2.488440    2.512600
  C      0.723380    2.685750    3.874150
  N      0.941110    2.877830    4.984170
  C     -0.888060    2.937150    2.191590
  N     -1.966650    3.275550    1.993960
  C      2.480730    1.170660    1.963720
  C      2.804000    0.265690    0.909170
  C      3.904030   -0.541510    0.968530
  C      4.749310   -0.472660    2.098230
  C      4.440150    0.440470    3.148460
  C      3.292130    1.260460    3.063500
  C      5.296080    0.503980    4.266980
  C      6.402860   -0.296470    4.347370
  C      6.705990   -1.195440    3.313560
  C      5.896780   -1.282160    2.213380
  C      1.806560    0.389640   -0.165370
  O      1.714270   -0.248880   -1.186570
  C      0.942640    1.543820    0.238490
  C      0.178900    2.156790   -0.690580
  C     -0.445740    3.449990   -0.608950
  C     -1.682430    3.727440   -1.211480
  N     -2.242380    4.911230   -1.164460
  C     -1.611620    5.873970   -0.492790
  N     -0.415450    5.730550    0.077940
  C      0.160720    4.556120    0.005370
  C     -2.254810    7.175250   -0.408430
  C     -3.527310    7.411360   -0.940870
  N     -4.098930    8.593820   -0.889760
  C     -3.425230    9.579820   -0.295570
  N     -2.218480    9.455780    0.258880
  C     -1.642890    8.275140    0.202630
  C     -4.051920   10.895080   -0.260950
  C     -5.288220   11.143800   -0.863420
  N     -5.851970   12.333790   -0.842450
  C     -5.202620   13.302180   -0.202650
  N     -4.008810   13.184970    0.374250
  C     -3.444190   11.997220    0.349500
  C     -5.828090   14.627640   -0.189520
  C     -6.128160   15.282200    0.943300
  C     -6.650520   16.638700    1.100190
  C     -6.947560   17.514970    0.095090
  C     -7.445210   18.820880    0.301300
  N     -7.851310   19.889550    0.401350
  C     -6.805350   17.251290   -1.285260
  N     -6.716860   17.121610   -2.422070
  C     -6.774220   16.897370    2.527480
  C     -6.384500   15.731430    3.249240
  C     -6.012550   14.665540    2.305190
  O     -5.744800   13.516230    2.560670
  C     -6.401300   15.690050    4.614360
  C     -6.809300   16.833840    5.335350
  C     -7.201120   18.003900    4.621580
  C     -7.178170   18.017230    3.209520
  C     -7.609980   19.139770    5.351040
  C     -7.630480   19.122670    6.718730
  C     -7.243720   17.970460    7.420400
  C     -6.841920   16.850870    6.743840
  H      4.127020   -1.224250    0.162160
  H      3.086930    1.950330    3.867240
  H      5.056920    1.195260    5.061600
  H      7.051300   -0.241680    5.208790
  H      7.584040   -1.818570    3.393250
  H      6.125050   -1.972300    1.414480
  H      0.079960    1.634220   -1.637300
  H     -2.237060    2.955130   -1.728460
  H      1.160330    4.487840    0.419260
  H     -4.084340    6.616670   -1.418300
  H     -0.661420    8.186630    0.648760
  H     -5.824310   10.357580   -1.377220
  H     -2.475760   11.905950    0.821890
  H     -6.036790   15.046660   -1.164370
  H     -6.103270   14.793300    5.136960
  H     -7.482080   18.917440    2.699400
  H     -7.906730   20.023920    4.806230
  H     -7.944980   19.997020    7.268510
  H     -7.266150   17.975070    8.499870
  H     -6.543530   15.961190    7.278670

 Total Charge           Charge          ....    0
 Multiplicity           Mult            ....    1
 Number of Electrons    NEL             ....  382
 Basis Dimension        Dim             ....  912

ORBITAL ENERGIES
----------------

  NO   OCC          E(Eh)            E(eV)
   0   2.0000     -19.227761      -523.2140
   1   2.0000     -19.213029      -522.8131
   2   2.0000     -14.429446      -392.6452
   3   2.0000     -14.428228      -392.6121
   4   2.0000     -14.427261      -392.5857
   5   2.0000     -14.427120      -392.5819
   6   2.0000     -14.416482      -392.2924
   7   2.0000     -14.416260      -392.2864
   8   2.0000     -14.415461      -392.2646
   9   2.0000     -14.415143      -392.2560
  10   2.0000     -14.408129      -392.0651
  11   2.0000     -14.406085      -392.0095
  12   2.0000     -10.378649      -282.4174
  13   2.0000     -10.365797      -282.0677
  14   2.0000     -10.363224      -281.9977
  15   2.0000     -10.357719      -281.8479
  16   2.0000     -10.355199      -281.7793
  17   2.0000     -10.353981      -281.7462
  18   2.0000     -10.345829      -281.5243
  19   2.0000     -10.343930      -281.4726
  20   2.0000     -10.343837      -281.4701
  21   2.0000     -10.342483      -281.4333
  22   2.0000     -10.340163      -281.3701
  23   2.0000     -10.331581      -281.1366
  24   2.0000     -10.328947      -281.0649
  25   2.0000     -10.328821      -281.0615
  26   2.0000     -10.326952      -281.0107
  27   2.0000     -10.326577      -281.0004
  28   2.0000     -10.317724      -280.7595
  29   2.0000     -10.317006      -280.7400
  30   2.0000     -10.316158      -280.7169
  31   2.0000     -10.315437      -280.6973
  32   2.0000     -10.315263      -280.6926
  33   2.0000     -10.315120      -280.6887
  34   2.0000     -10.314266      -280.6654
  35   2.0000     -10.308716      -280.5144
  36   2.0000     -10.308372      -280.5051
  37   2.0000     -10.308240      -280.5015
  38   2.0000     -10.308034      -280.4959
  39   2.0000     -10.307787      -280.4891
  40   2.0000     -10.302238      -280.3381
  41   2.0000     -10.300971      -280.3037
  42   2.0000     -10.299679      -280.2685
  43   2.0000     -10.296886      -280.1925
  44   2.0000     -10.296624      -280.1854
  45   2.0000     -10.295986      -280.1680
  46   2.0000     -10.295643      -280.1587
  47   2.0000     -10.295191      -280.1464
  48   2.0000     -10.294959      -280.1401
  49   2.0000     -10.294944      -280.1397
  50   2.0000     -10.294467      -280.1267
  51   2.0000     -10.294250      -280.1208
  52   2.0000     -10.287014      -279.9239
  53   2.0000     -10.285774      -279.8901
  54   2.0000     -10.285472      -279.8819
  55   2.0000     -10.285056      -279.8706
  56   2.0000     -10.284900      -279.8664
  57   2.0000     -10.284468      -279.8546
  58   2.0000      -1.143215       -31.1085
  59   2.0000      -1.128906       -30.7191
  60   2.0000      -1.105691       -30.0874
  61   2.0000      -1.091175       -29.6924
  62   2.0000      -1.079486       -29.3743
  63   2.0000      -1.030682       -28.0463
  64   2.0000      -1.017176       -27.6788
  65   2.0000      -1.009915       -27.4812
  66   2.0000      -1.005620       -27.3643
  67   2.0000      -0.998662       -27.1750
  68   2.0000      -0.996950       -27.1284
  69   2.0000      -0.993469       -27.0337
  70   2.0000      -0.984957       -26.8020
  71   2.0000      -0.983240       -26.7553
  72   2.0000      -0.974251       -26.5107
  73   2.0000      -0.969764       -26.3886
  74   2.0000      -0.949172       -25.8283
  75   2.0000      -0.933058       -25.3898
  76   2.0000      -0.925843       -25.1935
  77   2.0000      -0.919812       -25.0294
  78   2.0000      -0.906901       -24.6780
  79   2.0000      -0.897011       -24.4089
  80   2.0000      -0.891736       -24.2654
  81   2.0000      -0.882758       -24.0211
  82   2.0000      -0.879370       -23.9289
  83   2.0000      -0.862887       -23.4803
  84   2.0000      -0.845991       -23.0206
  85   2.0000      -0.838775       -22.8242
  86   2.0000      -0.827158       -22.5081
  87   2.0000      -0.812429       -22.1073
  88   2.0000      -0.797762       -21.7082
  89   2.0000      -0.776914       -21.1409
  90   2.0000      -0.776228       -21.1222
  91   2.0000      -0.768348       -20.9078
  92   2.0000      -0.760178       -20.6855
  93   2.0000      -0.753728       -20.5100
  94   2.0000      -0.745396       -20.2833
  95   2.0000      -0.726535       -19.7700
  96   2.0000      -0.722593       -19.6627
  97   2.0000      -0.716508       -19.4972
  98   2.0000      -0.711915       -19.3722
  99   2.0000      -0.702687       -19.1211
 100   2.0000      -0.699369       -19.0308
 101   2.0000      -0.693474       -18.8704
 102   2.0000      -0.688199       -18.7269
 103   2.0000      -0.685800       -18.6616
 104   2.0000      -0.672894       -18.3104
 105   2.0000      -0.651539       -17.7293
 106   2.0000      -0.645600       -17.5677
 107   2.0000      -0.642379       -17.4800
 108   2.0000      -0.637644       -17.3512
 109   2.0000      -0.628566       -17.1042
 110   2.0000      -0.621819       -16.9205
 111   2.0000      -0.618466       -16.8293
 112   2.0000      -0.617580       -16.8052
 113   2.0000      -0.609575       -16.5874
 114   2.0000      -0.605794       -16.4845
 115   2.0000      -0.603034       -16.4094
 116   2.0000      -0.598778       -16.2936
 117   2.0000      -0.580915       -15.8075
 118   2.0000      -0.568893       -15.4804
 119   2.0000      -0.566379       -15.4120
 120   2.0000      -0.562487       -15.3061
 121   2.0000      -0.556763       -15.1503
 122   2.0000      -0.554624       -15.0921
 123   2.0000      -0.551157       -14.9978
 124   2.0000      -0.547282       -14.8923
 125   2.0000      -0.545075       -14.8322
 126   2.0000      -0.542913       -14.7734
 127   2.0000      -0.536862       -14.6088
 128   2.0000      -0.533318       -14.5123
 129   2.0000      -0.531126       -14.4527
 130   2.0000      -0.529633       -14.4120
 131   2.0000      -0.528390       -14.3782
 132   2.0000      -0.522494       -14.2178
 133   2.0000      -0.521065       -14.1789
 134   2.0000      -0.518908       -14.1202
 135   2.0000      -0.516514       -14.0551
 136   2.0000      -0.514870       -14.0103
 137   2.0000      -0.510905       -13.9024
 138   2.0000      -0.506373       -13.7791
 139   2.0000      -0.504784       -13.7359
 140   2.0000      -0.501284       -13.6406
 141   2.0000      -0.500407       -13.6168
 142   2.0000      -0.499085       -13.5808
 143   2.0000      -0.496395       -13.5076
 144   2.0000      -0.495746       -13.4899
 145   2.0000      -0.494709       -13.4617
 146   2.0000      -0.489625       -13.3234
 147   2.0000      -0.482829       -13.1384
 148   2.0000      -0.480494       -13.0749
 149   2.0000      -0.475898       -12.9498
 150   2.0000      -0.463285       -12.6066
 151   2.0000      -0.461322       -12.5532
 152   2.0000      -0.455853       -12.4044
 153   2.0000      -0.450205       -12.2507
 154   2.0000      -0.448288       -12.1985
 155   2.0000      -0.448056       -12.1922
 156   2.0000      -0.443398       -12.0655
 157   2.0000      -0.443304       -12.0629
 158   2.0000      -0.439547       -11.9607
 159   2.0000      -0.439106       -11.9487
 160   2.0000      -0.437106       -11.8943
 161   2.0000      -0.433219       -11.7885
 162   2.0000      -0.430835       -11.7236
 163   2.0000      -0.426528       -11.6064
 164   2.0000      -0.426218       -11.5980
 165   2.0000      -0.418732       -11.3943
 166   2.0000      -0.416089       -11.3224
 167   2.0000      -0.413332       -11.2473
 168   2.0000      -0.409382       -11.1398
 169   2.0000      -0.407068       -11.0769
 170   2.0000      -0.404385       -11.0039
 171   2.0000      -0.398590       -10.8462
 172   2.0000      -0.398231       -10.8364
 173   2.0000      -0.388440       -10.5700
 174   2.0000      -0.387530       -10.5452
 175   2.0000      -0.385384       -10.4868
 176   2.0000      -0.376440       -10.2435
 177   2.0000      -0.372924       -10.1478
 178   2.0000      -0.368529       -10.0282
 179   2.0000      -0.350459        -9.5365
 180   2.0000      -0.348024        -9.4702
 181   2.0000      -0.339983        -9.2514
 182   2.0000      -0.335694        -9.1347
 183   2.0000      -0.328955        -8.9513
 184   2.0000      -0.327346        -8.9075
 185   2.0000      -0.323076        -8.7913
 186   2.0000      -0.314220        -8.5504
 187   2.0000      -0.313773        -8.5382
 188   2.0000      -0.305280        -8.3071
 189   2.0000      -0.298548        -8.1239
 190   2.0000      -0.291865        -7.9421
 191   0.0000      -0.104182        -2.8349
 192   0.0000      -0.087060        -2.3690
 193   0.0000      -0.067796        -1.8448
 194   0.0000      -0.054767        -1.4903
 195   0.0000      -0.047758        -1.2996

MULLIKEN ATOMIC CHARGES
-----------------------
   0 C :    0.259261
   1 C :   -0.332794
   2 C :   -0.177100
   3 N :    0.161062
   4 C :   -0.189292
   5 N :    0.178079
   6 C :    0.038856
   7 C :    0.009273
   8 C :   -0.076242
   9 C :    0.093768
  10 C :    0.093959
  11 C :   -0.079079
  12 C :   -0.016611
  13 C :    0.037752
  14 C :    0.036611
  15 C :   -0.014879
  16 C :    0.136717
  17 O :   -0.132249
  18 C :   -0.114341
  19 C :    0.049853
  20 C :   -0.050157
  21 C :    0.077855
  22 N :   -0.042301
  23 C :   -0.051113
  24 N :   -0.044427
  25 C :    0.066969
  26 C :    0.005906
  27 C :    0.062214
  28 N :   -0.047567
  29 C :   -0.064720
  30 N :   -0.048748
  31 C :    0.062959
  32 C :    0.012879
  33 C :    0.055477
  34 N :   -0.061409
  35 C :   -0.040473
  36 N :   -0.053872
  37 C :    0.061554
  38 C :    0.021433
  39 C :   -0.064067
  40 C :    0.324856
  41 C :   -0.340446
  42 C :   -0.184427
  43 N :    0.155546
  44 C :   -0.191832
  45 N :    0.160717
  46 C :    0.044748
  47 C :   -0.007168
  48 C :    0.157122
  49 O :   -0.126843
  50 C :   -0.076357
  51 C :    0.099400
  52 C :    0.096231
  53 C :   -0.082806
  54 C :   -0.017361
  55 C :    0.038269
  56 C :    0.033785
  57 C :   -0.015132
  58 H :   -0.007584
  59 H :   -0.003269
  60 H :   -0.007072
  61 H :   -0.000519
  62 H :   -0.001219
  63 H :   -0.014112
  64 H :    0.034507
  65 H :    0.013718
  66 H :    0.018318
  67 H :    0.022621
  68 H :    0.019614
  69 H :    0.021007
  70 H :    0.017811
  71 H :    0.051054
  72 H :   -0.011900
  73 H :   -0.008385
  74 H :   -0.008855
  75 H :   -0.004981
  76 H :   -0.003151
  77 H :   -0.016903
Sum of atomic charges:   -0.0000000

LOEWDIN ATOMIC CHARGES
----------------------
   0 C :    0.066269
   1 C :   -0.129718
   2 C :   -0.018432
   3 N :   -0.042080
   4 C :   -0.018845
   5 N :   -0.041408
   6 C :   -0.025274
   7 C :   -0.059361
   8 C :    0.036380
   9 C :   -0.007652
  10 C :   -0.004410
  11 C :    0.019573
  12 C :   -0.004992
  13 C :   -0.009573
  14 C :   -0.009310
  15 C :   -0.007923
  16 C :    0.084943
  17 O :   -0.133639
  18 C :   -0.074238
  19 C :    0.069558
  20 C :   -0.087532
  21 C :    0.077832
  22 N :   -0.068859
  23 C :    0.049871
  24 N :   -0.071947
  25 C :    0.066962
  26 C :   -0.091784
  27 C :    0.081013
  28 N :   -0.079411
  29 C :    0.043934
  30 N :   -0.080025
  31 C :    0.079417
  32 C :   -0.084844
  33 C :    0.076485
  34 N :   -0.077182
  35 C :    0.029208
  36 N :   -0.070612
  37 C :    0.078725
  38 C :    0.078603
  39 C :   -0.063605
  40 C :    0.076309
  41 C :   -0.126983
  42 C :   -0.015927
  43 N :   -0.048348
  44 C :   -0.019720
  45 N :   -0.041739
  46 C :   -0.026697
  47 C :   -0.055249
  48 C :    0.086813
  49 O :   -0.123727
  50 C :    0.033720
  51 C :   -0.006747
  52 C :   -0.005877
  53 C :    0.020964
  54 C :   -0.004786
  55 C :   -0.013147
  56 C :   -0.011460
  57 C :   -0.009122
  58 H :    0.041065
  59 H :    0.039703
  60 H :    0.035602
  61 H :    0.034809
  62 H :    0.034413
  63 H :    0.033163
  64 H :    0.050659
  65 H :    0.031401
  66 H :    0.028313
  67 H :    0.031402
  68 H :    0.030456
  69 H :    0.030094
  70 H :    0.029668
  71 H :    0.052417
  72 H :    0.039730
  73 H :    0.038986
  74 H :    0.034907
  75 H :    0.033284
  76 H :    0.033261
  77 H :    0.032272

  Mayer bond orders larger than 0.100000
B(  0-C ,  1-C ) :   1.6792 B(  0-C ,  6-C ) :   1.0074 B(  0-C , 18-C ) :   1.0006
B(  1-C ,  2-C ) :   1.1320 B(  1-C ,  4-C ) :   1.1577 B(  2-C ,  3-N ) :   2.9885
B(  4-C ,  5-N ) :   3.0040 B(  6-C ,  7-C ) :   1.2113 B(  6-C , 11-C ) :   1.4509
B(  7-C ,  8-C ) :   1.4690 B(  7-C , 16-C ) :   0.9239 B(  8-C ,  9-C ) :   1.1903
B(  8-C , 58-H ) :   1.0157 B(  9-C , 10-C ) :   1.2532 B(  9-C , 15-C ) :   1.2432
B( 10-C , 11-C ) :   1.2097 B( 10-C , 12-C ) :   1.2393 B( 11-C , 59-H ) :   0.9939
B( 12-C , 13-C ) :   1.4905 B( 12-C , 60-H ) :   0.9977 B( 13-C , 14-C ) :   1.2599
B( 13-C , 61-H ) :   0.9886 B( 14-C , 15-C ) :   1.4907 B( 14-C , 62-H ) :   0.9888
B( 15-C , 63-H ) :   0.9980 B( 16-C , 17-O ) :   2.2835 B( 16-C , 18-C ) :   0.9189
B( 18-C , 19-C ) :   1.7744 B( 19-C , 20-C ) :   1.0053 B( 19-C , 64-H ) :   0.9415
B( 20-C , 21-C ) :   1.3101 B( 20-C , 25-C ) :   1.3134 B( 21-C , 22-N ) :   1.5747
B( 21-C , 65-H ) :   0.9917 B( 22-N , 23-C ) :   1.5678 B( 23-C , 24-N ) :   1.5603
B( 23-C , 26-C ) :   0.9734 B( 24-N , 25-C ) :   1.5850 B( 25-C , 66-H ) :   0.9856
B( 26-C , 27-C ) :   1.3367 B( 26-C , 31-C ) :   1.3373 B( 27-C , 28-N ) :   1.5515
B( 27-C , 67-H ) :   0.9768 B( 28-N , 29-C ) :   1.5762 B( 29-C , 30-N ) :   1.5748
B( 29-C , 32-C ) :   0.9635 B( 30-N , 31-C ) :   1.5518 B( 31-C , 68-H ) :   0.9766
B( 32-C , 33-C ) :   1.3546 B( 32-C , 37-C ) :   1.3428 B( 33-C , 34-N ) :   1.5418
B( 33-C , 69-H ) :   0.9754 B( 34-N , 35-C ) :   1.5085 B( 35-C , 36-N ) :   1.4905
B( 35-C , 38-C ) :   0.9447 B( 36-N , 37-C ) :   1.5517 B( 37-C , 70-H ) :   0.9751
B( 38-C , 39-C ) :   1.8370 B( 38-C , 71-H ) :   0.9292 B( 39-C , 40-C ) :   1.0172
B( 39-C , 48-C ) :   0.9119 B( 40-C , 41-C ) :   1.6665 B( 40-C , 46-C ) :   1.0024
B( 41-C , 42-C ) :   1.1399 B( 41-C , 44-C ) :   1.1397 B( 42-C , 43-N ) :   2.9679
B( 44-C , 45-N ) :   2.9766 B( 46-C , 47-C ) :   1.2134 B( 46-C , 53-C ) :   1.4392
B( 47-C , 48-C ) :   0.9413 B( 47-C , 50-C ) :   1.4709 B( 48-C , 49-O ) :   2.2508
B( 50-C , 51-C ) :   1.1845 B( 50-C , 72-H ) :   1.0155 B( 51-C , 52-C ) :   1.2521
B( 51-C , 57-C ) :   1.2422 B( 52-C , 53-C ) :   1.2151 B( 52-C , 54-C ) :   1.2366
B( 53-C , 73-H ) :   0.9883 B( 54-C , 55-C ) :   1.4934 B( 54-C , 74-H ) :   0.9967
B( 55-C , 56-C ) :   1.2561 B( 55-C , 75-H ) :   0.9879 B( 56-C , 57-C ) :   1.4909
B( 56-C , 76-H ) :   0.9895 B( 57-C , 77-H ) :   0.9975

-----------------------------------------------------------------------------
         ABSORPTION SPECTRUM VIA TRANSITION ELECTRIC DIPOLE MOMENTS
-----------------------------------------------------------------------------
State   Energy  Wavelength   fosc         T2         TX        TY        TZ
        (cm-1)    (nm)                  (au**2)     (au)      (au)      (au)
-----------------------------------------------------------------------------
   0   25775.6    388.0   0.579036493   7.39560   1.14682  -2.29102   0.91194
   1   26806.8    373.0   0.340908759   4.18668  -1.47647   1.36065  -0.39416
   2   27069.8    369.4   0.027960552   0.34005  -0.25284   0.23122  -0.47186
   3   27619.7    362.1   0.039540449   0.47130  -0.01064  -0.11819   0.67618
   4   27888.8    358.6   0.067900537   0.80153   0.29281  -0.63835  -0.55524
   5   28339.0    352.9   0.049392512   0.57379  -0.10975   0.57832   0.47675
   6   29156.5    343.0   0.044710326   0.50483   0.49808  -0.46791  -0.19446
   7   29981.0    333.5   0.012483102   0.13707   0.33646  -0.07533   0.13489
   8   30057.5    332.7   0.067168383   0.73568   0.13622  -0.35669   0.76804
   9   30912.3    323.5   0.024312143   0.25892   0.17014  -0.35362  -0.32392
  10   32283.9    309.8   0.534857025   5.45416   1.14874  -1.98708  -0.43135
  11   33227.1    301.0   0.735032234   7.28265  -1.62403   2.04905   0.66826
  12   33821.9    295.7   0.400938749   3.90262   1.67107  -0.85734  -0.61246
  13   34060.2    293.6   0.121495291   1.17432  -0.10603  -0.18555  -1.06238
  14   34418.3    290.5   0.308949998   2.95512  -1.36841   0.80818  -0.65530
  15   34802.6    287.3   0.711056348   6.72618  -0.34569   0.03693  -2.57008
  16   34926.8    286.3   0.084683918   0.79821   0.33933  -0.18565  -0.80536
  17   35150.9    284.5   0.059805866   0.56012   0.74099   0.08839  -0.05688
  18   36080.8    277.2   0.248114276   2.26387  -0.88219   0.71505  -0.98708
  19   36452.3    274.3   0.044364087   0.40067  -0.31420   0.35552  -0.41898
  20   37531.0    266.4   0.005254595   0.04609  -0.12359   0.05737   0.16591
  21   38154.7    262.1   0.070332704   0.60686  -0.41523   0.63476   0.17753
  22   38372.6    260.6   0.133832908   1.14820  -0.46046   0.92696   0.27736
  23   38724.7    258.2   0.049746278   0.42291   0.02893  -0.29361   0.57954
  24   38926.0    256.9   0.054916622   0.46445  -0.06756   0.39057  -0.55439
  25   38988.8    256.5   0.119256362   1.00697  -0.30689   0.95512   0.02322
  26   39401.0    253.8   0.071115409   0.59420  -0.24106   0.68735   0.25228
  27   39659.0    252.1   0.117229000   0.97313   0.09679  -0.24587   0.95042
  28   40034.5    249.8   0.101862927   0.83764  -0.32793   0.76341  -0.38379

FINAL SINGLE POINT ENERGY     -2459.737185081313

DIPOLE MOMENT
-------------
                                X             Y             Z
Electronic contribution:    -12.39457       5.66087     -16.05653
Nuclear contribution   :     15.70576      -8.67587      17.94729
                        -----------------------------------------
Total Dipole Moment    :      3.31119      -3.01500       1.89076
                        -----------------------------------------
Magnitude (a.u.)       :      4.86098
Magnitude (Debye)      :     12.35564

Rotational constants in cm-1:     0.003400     0.000339     0.000317
Rotational constants in MHz :   101.937849    10.170372     9.494488

                             ****ORCA TERMINATED NORMALLY****
TOTAL RUN TIME: 0 days 0 hours 6 minutes 19 seconds 66 msec
