                         Program Version 4.2.0 -  RELEASE  -
|  1> # ORCA input file
|  2> # SCF done       -203.191060717850          0.000469388093
|  3> ! CAM-B3LYP def2-SVP def2/J RIJCOSX Grid4 TightSCF
|  4> %maxcore 5000
|  5> %tddft
|  6>     Mode sTDDFT
|  7>     Ethresh 5.0
|  8>     maxcore 5000
|  9> end
| 10>
| 11> %pal
| 12>   nprocs 6
| 13>   end
| 14> * xyz 0 1
| 15>    C        4.98796         5.21112         1.39361
| 16>    C        4.68316         5.44050         0.07624
| 17>    C        5.54139         5.12774        -0.99741
| 18>    N        6.19871         4.89924        -1.91020
| 19>    C        3.44265         5.93878        -0.36033
| 20>    N        2.43306         6.33254        -0.74068
| 21>    C        6.15089         4.46378         1.86351
| 22>    C        5.89695         4.01503         3.19234
| 23>    C        6.79419         3.24480         3.87433
| 24>    C        8.01237         2.89178         3.25112
| 25>    C        8.28207         3.35641         1.93145
| 26>    C        7.33078         4.14792         1.24676
| 27>    C        9.50441         3.00411         1.32454
| 28>    C       10.41540         2.22535         1.98494
| 29>    C       10.14761         1.76557         3.28288
| 30>    C        8.97202         2.09223         3.90264
| 31>    C        4.58812         4.52348         3.63358
| 32>    O        4.01298         4.31178         4.67622
| 33>    C        4.11886         5.41614         2.53037
| 34>    C        3.07433         6.25114         2.78506
| 35>    C        2.63246         7.40772         2.10304
| 36>    C        3.31430         8.27080         1.25449
| 37>    F        4.61131         8.12317         0.96452
| 38>    C        2.54350         9.33731         0.79671
| 39>    C        1.23230         9.29573         1.29405
| 40>    S        0.98856         7.96648         2.35813
| 41>    C        0.45059        10.33631         0.79541
| 42>    C        1.17184        11.16943        -0.07524
| 43>    S        2.82872        10.67350        -0.28237
| 44>    C        0.38518        12.19711        -0.58453
| 45>    F        0.82430        13.13213        -1.43733
| 46>    C       -0.93583        12.17833        -0.13432
| 47>    S       -1.19081        10.83882         0.97090
| 48>    C       -1.93798        13.08095        -0.52240
| 49>    C       -3.25247        13.07119        -0.12941
| 50>    C       -4.26461        13.96148        -0.57335
| 51>    C       -5.49863        13.70745        -0.05777
| 52>    C       -5.52834        12.60992         0.83183
| 53>    S       -3.93108        11.91181         0.99366
| 54>    C       -6.60356        12.06954         1.51113
| 55>    C       -7.96500        12.44812         1.45830
| 56>    C       -8.77756        11.66798         2.22051
| 57>    C       -8.10231        10.64096         2.93580
| 58>    S       -6.38706        10.71594         2.59175
| 59>    C       -8.71699         9.68016         3.69912
| 60>    C       -8.11539         8.66242         4.46818
| 61>    C       -6.85069         8.57078         5.04040
| 62>    F       -5.95796         9.56834         5.03018
| 63>    C       -6.62564         7.37638         5.72288
| 64>    C       -7.72957         6.51216         5.68905
| 65>    S       -9.05216         7.21518         4.83081
| 66>    C       -7.48987         5.31173         6.35972
| 67>    C       -6.19325         5.28665         6.90611
| 68>    S       -5.26862         6.73339         6.60079
| 69>    C       -5.93918         4.09630         7.56470
| 70>    F       -4.78714         3.81398         8.17584
| 71>    C       -7.00078         3.18324         7.53022
| 72>    S       -8.36440         3.84834         6.64203
| 73>    C       -6.90296         1.92793         8.15356
| 74>    C       -7.79161         0.88674         8.15781
| 75>    C       -7.60529        -0.39955         8.80333
| 76>    C       -6.62058        -0.74706         9.69072
| 77>    C       -6.51165        -2.02070        10.28755
| 78>    N       -6.36365        -3.03506        10.80455
| 79>    C       -5.60367         0.10674        10.16850
| 80>    N       -4.75873         0.73723        10.62335
| 81>    C       -8.70086        -1.26457         8.37565
| 82>    C       -9.58519        -0.50612         7.55513
| 83>    C       -9.06133         0.85974         7.42047
| 84>    O       -9.57690         1.78059         6.80844
| 85>    C      -10.71238        -1.04978         7.00996
| 86>    C      -11.00935        -2.40870         7.25830
| 87>    C      -10.12626        -3.17733         8.07005
| 88>    C       -8.96925        -2.58356         8.62622
| 89>    C      -10.42767        -4.53395         8.30476
| 90>    C      -11.54795        -5.10582         7.76535
| 91>    C      -12.41771        -4.34776         6.96770
| 92>    C      -12.15430        -3.02769         6.71976
| 93>    H        6.57733         2.90741         4.87697
| 94>    H        7.56418         4.49382         0.25201
| 95>    H        9.70450         3.35769         0.32374
| 96>    H       11.34760         1.95841         1.50998
| 97>    H       10.87731         1.15153         3.78923
| 98>    H        8.76025         1.74153         4.90216
| 99>    H        2.52305         6.01569         3.69149
|100>    H       -1.63078        13.84936        -1.22023
|101>    H       -4.04438        14.75449        -1.26577
|102>    H       -6.38101        14.27647        -0.28900
|103>    H       -8.30462        13.27073         0.85511
|104>    H       -9.84283        11.79311         2.30099
|105>    H       -9.79879         9.65827         3.66769
|106>    H       -5.96401         1.78663         8.67758
|107>    H      -11.36726        -0.45174         6.39375
|108>    H       -8.32045        -3.19409         9.23365
|109>    H       -9.75531        -5.11326         8.92039
|110>    H      -11.76972        -6.14611         7.95072
|111>    H      -13.29715        -4.81479         6.55016
|112>    H      -12.82013        -2.43897         6.10575
|113> *
|114>
|115>                          ****END OF INPUT****

CARTESIAN COORDINATES (ANGSTROEM)
---------------------------------
  C      4.987960    5.211120    1.393610
  C      4.683160    5.440500    0.076240
  C      5.541390    5.127740   -0.997410
  N      6.198710    4.899240   -1.910200
  C      3.442650    5.938780   -0.360330
  N      2.433060    6.332540   -0.740680
  C      6.150890    4.463780    1.863510
  C      5.896950    4.015030    3.192340
  C      6.794190    3.244800    3.874330
  C      8.012370    2.891780    3.251120
  C      8.282070    3.356410    1.931450
  C      7.330780    4.147920    1.246760
  C      9.504410    3.004110    1.324540
  C     10.415400    2.225350    1.984940
  C     10.147610    1.765570    3.282880
  C      8.972020    2.092230    3.902640
  C      4.588120    4.523480    3.633580
  O      4.012980    4.311780    4.676220
  C      4.118860    5.416140    2.530370
  C      3.074330    6.251140    2.785060
  C      2.632460    7.407720    2.103040
  C      3.314300    8.270800    1.254490
  F      4.611310    8.123170    0.964520
  C      2.543500    9.337310    0.796710
  C      1.232300    9.295730    1.294050
  S      0.988560    7.966480    2.358130
  C      0.450590   10.336310    0.795410
  C      1.171840   11.169430   -0.075240
  S      2.828720   10.673500   -0.282370
  C      0.385180   12.197110   -0.584530
  F      0.824300   13.132130   -1.437330
  C     -0.935830   12.178330   -0.134320
  S     -1.190810   10.838820    0.970900
  C     -1.937980   13.080950   -0.522400
  C     -3.252470   13.071190   -0.129410
  C     -4.264610   13.961480   -0.573350
  C     -5.498630   13.707450   -0.057770
  C     -5.528340   12.609920    0.831830
  S     -3.931080   11.911810    0.993660
  C     -6.603560   12.069540    1.511130
  C     -7.965000   12.448120    1.458300
  C     -8.777560   11.667980    2.220510
  C     -8.102310   10.640960    2.935800
  S     -6.387060   10.715940    2.591750
  C     -8.716990    9.680160    3.699120
  C     -8.115390    8.662420    4.468180
  C     -6.850690    8.570780    5.040400
  F     -5.957960    9.568340    5.030180
  C     -6.625640    7.376380    5.722880
  C     -7.729570    6.512160    5.689050
  S     -9.052160    7.215180    4.830810
  C     -7.489870    5.311730    6.359720
  C     -6.193250    5.286650    6.906110
  S     -5.268620    6.733390    6.600790
  C     -5.939180    4.096300    7.564700
  F     -4.787140    3.813980    8.175840
  C     -7.000780    3.183240    7.530220
  S     -8.364400    3.848340    6.642030
  C     -6.902960    1.927930    8.153560
  C     -7.791610    0.886740    8.157810
  C     -7.605290   -0.399550    8.803330
  C     -6.620580   -0.747060    9.690720
  C     -6.511650   -2.020700   10.287550
  N     -6.363650   -3.035060   10.804550
  C     -5.603670    0.106740   10.168500
  N     -4.758730    0.737230   10.623350
  C     -8.700860   -1.264570    8.375650
  C     -9.585190   -0.506120    7.555130
  C     -9.061330    0.859740    7.420470
  O     -9.576900    1.780590    6.808440
  C    -10.712380   -1.049780    7.009960
  C    -11.009350   -2.408700    7.258300
  C    -10.126260   -3.177330    8.070050
  C     -8.969250   -2.583560    8.626220
  C    -10.427670   -4.533950    8.304760
  C    -11.547950   -5.105820    7.765350
  C    -12.417710   -4.347760    6.967700
  C    -12.154300   -3.027690    6.719760
  H      6.577330    2.907410    4.876970
  H      7.564180    4.493820    0.252010
  H      9.704500    3.357690    0.323740
  H     11.347600    1.958410    1.509980
  H     10.877310    1.151530    3.789230
  H      8.760250    1.741530    4.902160
  H      2.523050    6.015690    3.691490
  H     -1.630780   13.849360   -1.220230
  H     -4.044380   14.754490   -1.265770
  H     -6.381010   14.276470   -0.289000
  H     -8.304620   13.270730    0.855110
  H     -9.842830   11.793110    2.300990
  H     -9.798790    9.658270    3.667690
  H     -5.964010    1.786630    8.677580
  H    -11.367260   -0.451740    6.393750
  H     -8.320450   -3.194090    9.233650
  H     -9.755310   -5.113260    8.920390
  H    -11.769720   -6.146110    7.950720
  H    -13.297150   -4.814790    6.550160
  H    -12.820130   -2.438970    6.105750

 Total Charge           Charge          ....    0
 Multiplicity           Mult            ....    1
 Number of Electrons    NEL             ....  588
 Basis Dimension        Dim             .... 1224

ORBITAL ENERGIES
----------------

  NO   OCC          E(Eh)            E(eV)
   0   2.0000     -88.977013     -2421.1876
   1   2.0000     -88.976911     -2421.1848
   2   2.0000     -88.976778     -2421.1812
   3   2.0000     -88.976750     -2421.1805
   4   2.0000     -88.975827     -2421.1553
   5   2.0000     -88.971932     -2421.0494
   6   2.0000     -88.956755     -2420.6364
   7   2.0000     -88.952734     -2420.5269
   8   2.0000     -24.814257      -675.2303
   9   2.0000     -24.809898      -675.1117
  10   2.0000     -24.803120      -674.9272
  11   2.0000     -24.801734      -674.8895
  12   2.0000     -19.218864      -522.9719
  13   2.0000     -19.208464      -522.6889
  14   2.0000     -14.410272      -392.1234
  15   2.0000     -14.409989      -392.1157
  16   2.0000     -14.408827      -392.0841
  17   2.0000     -14.408460      -392.0741
  18   2.0000     -10.388600      -282.6882
  19   2.0000     -10.388292      -282.6798
  20   2.0000     -10.376951      -282.3712
  21   2.0000     -10.375456      -282.3305
  22   2.0000     -10.366573      -282.0888
  23   2.0000     -10.359157      -281.8870
  24   2.0000     -10.335840      -281.2525
  25   2.0000     -10.335496      -281.2431
  26   2.0000     -10.335222      -281.2357
  27   2.0000     -10.333061      -281.1769
  28   2.0000     -10.330772      -281.1146
  29   2.0000     -10.326326      -280.9936
  30   2.0000     -10.324895      -280.9547
  31   2.0000     -10.324263      -280.9375
  32   2.0000     -10.323707      -280.9223
  33   2.0000     -10.323632      -280.9203
  34   2.0000     -10.323031      -280.9039
  35   2.0000     -10.322833      -280.8986
  36   2.0000     -10.322405      -280.8869
  37   2.0000     -10.321925      -280.8738
  38   2.0000     -10.321920      -280.8737
  39   2.0000     -10.321349      -280.8582
  40   2.0000     -10.320482      -280.8346
  41   2.0000     -10.320468      -280.8342
  42   2.0000     -10.319637      -280.8116
  43   2.0000     -10.319448      -280.8065
  44   2.0000     -10.319152      -280.7984
  45   2.0000     -10.318797      -280.7887
  46   2.0000     -10.312548      -280.6187
  47   2.0000     -10.311828      -280.5991
  48   2.0000     -10.311661      -280.5946
  49   2.0000     -10.311294      -280.5846
  50   2.0000     -10.299314      -280.2586
  51   2.0000     -10.299129      -280.2536
  52   2.0000     -10.298700      -280.2419
  53   2.0000     -10.298047      -280.2241
  54   2.0000     -10.297268      -280.2029
  55   2.0000     -10.296604      -280.1848
  56   2.0000     -10.295578      -280.1569
  57   2.0000     -10.294937      -280.1395
  58   2.0000     -10.294922      -280.1391
  59   2.0000     -10.294630      -280.1311
  60   2.0000     -10.294470      -280.1268
  61   2.0000     -10.293433      -280.0986
  62   2.0000     -10.293429      -280.0985
  63   2.0000     -10.292951      -280.0854
  64   2.0000     -10.291809      -280.0544
  65   2.0000     -10.291398      -280.0432
  66   2.0000     -10.291018      -280.0328
  67   2.0000     -10.289682      -279.9965
  68   2.0000     -10.286060      -279.8979
  69   2.0000     -10.284284      -279.8496
  70   2.0000     -10.283803      -279.8365
  71   2.0000     -10.283344      -279.8240
  72   2.0000     -10.282798      -279.8092
  73   2.0000     -10.282752      -279.8079
  74   2.0000     -10.281025      -279.7609
  75   2.0000     -10.280633      -279.7503
  76   2.0000     -10.280378      -279.7433
  77   2.0000     -10.279736      -279.7258
  78   2.0000      -8.072168      -219.6549
  79   2.0000      -8.071561      -219.6383
  80   2.0000      -8.071260      -219.6301
  81   2.0000      -8.071154      -219.6273
  82   2.0000      -8.070933      -219.6213
  83   2.0000      -8.064537      -219.4472
  84   2.0000      -8.053085      -219.1356
  85   2.0000      -8.049110      -219.0274
  86   2.0000      -6.041819      -164.4063
  87   2.0000      -6.041266      -164.3912
  88   2.0000      -6.041215      -164.3898
  89   2.0000      -6.041154      -164.3882
  90   2.0000      -6.040593      -164.3729
  91   2.0000      -6.037822      -164.2975
  92   2.0000      -6.037203      -164.2806
  93   2.0000      -6.037145      -164.2791
  94   2.0000      -6.037094      -164.2777
  95   2.0000      -6.036629      -164.2650
  96   2.0000      -6.034472      -164.2063
  97   2.0000      -6.033363      -164.1761
  98   2.0000      -6.032805      -164.1610
  99   2.0000      -6.032109      -164.1420
 100   2.0000      -6.031946      -164.1376
 101   2.0000      -6.031814      -164.1340
 102   2.0000      -6.029929      -164.0827
 103   2.0000      -6.025730      -163.9685
 104   2.0000      -6.022853      -163.8902
 105   2.0000      -6.018867      -163.7817
 106   2.0000      -6.018714      -163.7775
 107   2.0000      -6.014699      -163.6683
 108   2.0000      -6.013958      -163.6481
 109   2.0000      -6.009947      -163.5390
 110   2.0000      -1.327390       -36.1201
 111   2.0000      -1.324592       -36.0440
 112   2.0000      -1.317706       -35.8566
 113   2.0000      -1.314816       -35.7780
 114   2.0000      -1.134152       -30.8618
 115   2.0000      -1.123903       -30.5829
 116   2.0000      -1.036817       -28.2132
 117   2.0000      -1.034924       -28.1617
 118   2.0000      -1.013115       -27.5683
 119   2.0000      -1.012241       -27.5445
 120   2.0000      -1.007381       -27.4122
 121   2.0000      -0.997527       -27.1441
 122   2.0000      -0.994985       -27.0749
 123   2.0000      -0.993950       -27.0467
 124   2.0000      -0.992239       -27.0002
 125   2.0000      -0.987855       -26.8809
 126   2.0000      -0.987710       -26.8770
 127   2.0000      -0.982571       -26.7371
 128   2.0000      -0.968426       -26.3522
 129   2.0000      -0.965473       -26.2718
 130   2.0000      -0.947818       -25.7914
 131   2.0000      -0.945968       -25.7411
 132   2.0000      -0.920288       -25.0423
 133   2.0000      -0.917932       -24.9782
 134   2.0000      -0.904727       -24.6189
 135   2.0000      -0.899421       -24.4745
 136   2.0000      -0.897978       -24.4352
 137   2.0000      -0.887902       -24.1610
 138   2.0000      -0.880055       -23.9475
 139   2.0000      -0.877459       -23.8769
 140   2.0000      -0.876479       -23.8502
 141   2.0000      -0.874158       -23.7871
 142   2.0000      -0.865391       -23.5485
 143   2.0000      -0.855374       -23.2759
 144   2.0000      -0.853155       -23.2155
 145   2.0000      -0.845996       -23.0207
 146   2.0000      -0.844904       -22.9910
 147   2.0000      -0.832778       -22.6610
 148   2.0000      -0.827070       -22.5057
 149   2.0000      -0.825497       -22.4629
 150   2.0000      -0.822379       -22.3781
 151   2.0000      -0.813986       -22.1497
 152   2.0000      -0.810171       -22.0459
 153   2.0000      -0.804027       -21.8787
 154   2.0000      -0.794850       -21.6290
 155   2.0000      -0.782582       -21.2951
 156   2.0000      -0.766421       -20.8554
 157   2.0000      -0.759151       -20.6576
 158   2.0000      -0.755306       -20.5529
 159   2.0000      -0.747846       -20.3499
 160   2.0000      -0.730342       -19.8736
 161   2.0000      -0.714779       -19.4501
 162   2.0000      -0.706038       -19.2123
 163   2.0000      -0.702282       -19.1101
 164   2.0000      -0.698920       -19.0186
 165   2.0000      -0.696071       -18.9411
 166   2.0000      -0.693754       -18.8780
 167   2.0000      -0.687718       -18.7137
 168   2.0000      -0.682194       -18.5635
 169   2.0000      -0.680893       -18.5280
 170   2.0000      -0.677388       -18.4327
 171   2.0000      -0.675514       -18.3817
 172   2.0000      -0.673594       -18.3294
 173   2.0000      -0.668714       -18.1966
 174   2.0000      -0.668158       -18.1815
 175   2.0000      -0.660652       -17.9773
 176   2.0000      -0.652435       -17.7536
 177   2.0000      -0.642709       -17.4890
 178   2.0000      -0.637615       -17.3504
 179   2.0000      -0.635283       -17.2869
 180   2.0000      -0.628647       -17.1064
 181   2.0000      -0.627004       -17.0616
 182   2.0000      -0.623626       -16.9697
 183   2.0000      -0.613887       -16.7047
 184   2.0000      -0.609097       -16.5744
 185   2.0000      -0.604904       -16.4603
 186   2.0000      -0.603564       -16.4238
 187   2.0000      -0.601934       -16.3795
 188   2.0000      -0.600616       -16.3436
 189   2.0000      -0.592891       -16.1334
 190   2.0000      -0.588603       -16.0167
 191   2.0000      -0.587905       -15.9977
 192   2.0000      -0.586766       -15.9667
 193   2.0000      -0.581392       -15.8205
 194   2.0000      -0.576998       -15.7009
 195   2.0000      -0.573184       -15.5971
 196   2.0000      -0.572794       -15.5865
 197   2.0000      -0.569690       -15.5021
 198   2.0000      -0.566240       -15.4082
 199   2.0000      -0.556111       -15.1326
 200   2.0000      -0.555004       -15.1024
 201   2.0000      -0.548201       -14.9173
 202   2.0000      -0.547178       -14.8895
 203   2.0000      -0.543896       -14.8002
 204   2.0000      -0.540632       -14.7114
 205   2.0000      -0.540444       -14.7062
 206   2.0000      -0.538509       -14.6536
 207   2.0000      -0.535641       -14.5755
 208   2.0000      -0.534867       -14.5545
 209   2.0000      -0.533675       -14.5220
 210   2.0000      -0.527546       -14.3552
 211   2.0000      -0.524750       -14.2792
 212   2.0000      -0.521115       -14.1803
 213   2.0000      -0.520089       -14.1524
 214   2.0000      -0.516586       -14.0570
 215   2.0000      -0.516056       -14.0426
 216   2.0000      -0.513825       -13.9819
 217   2.0000      -0.511823       -13.9274
 218   2.0000      -0.509275       -13.8581
 219   2.0000      -0.507681       -13.8147
 220   2.0000      -0.507097       -13.7988
 221   2.0000      -0.505429       -13.7534
 222   2.0000      -0.503596       -13.7035
 223   2.0000      -0.502253       -13.6670
 224   2.0000      -0.500503       -13.6194
 225   2.0000      -0.497589       -13.5401
 226   2.0000      -0.495945       -13.4953
 227   2.0000      -0.492642       -13.4055
 228   2.0000      -0.492207       -13.3936
 229   2.0000      -0.490831       -13.3562
 230   2.0000      -0.487544       -13.2667
 231   2.0000      -0.486481       -13.2378
 232   2.0000      -0.485205       -13.2031
 233   2.0000      -0.480883       -13.0855
 234   2.0000      -0.478962       -13.0332
 235   2.0000      -0.478286       -13.0148
 236   2.0000      -0.472786       -12.8651
 237   2.0000      -0.467154       -12.7119
 238   2.0000      -0.465845       -12.6763
 239   2.0000      -0.463240       -12.6054
 240   2.0000      -0.461978       -12.5711
 241   2.0000      -0.459181       -12.4949
 242   2.0000      -0.458340       -12.4721
 243   2.0000      -0.455585       -12.3971
 244   2.0000      -0.445524       -12.1233
 245   2.0000      -0.444500       -12.0954
 246   2.0000      -0.443218       -12.0606
 247   2.0000      -0.440274       -11.9805
 248   2.0000      -0.439235       -11.9522
 249   2.0000      -0.438569       -11.9341
 250   2.0000      -0.436769       -11.8851
 251   2.0000      -0.434954       -11.8357
 252   2.0000      -0.433824       -11.8049
 253   2.0000      -0.431079       -11.7303
 254   2.0000      -0.430466       -11.7136
 255   2.0000      -0.429339       -11.6829
 256   2.0000      -0.428960       -11.6726
 257   2.0000      -0.426508       -11.6059
 258   2.0000      -0.424948       -11.5634
 259   2.0000      -0.424432       -11.5494
 260   2.0000      -0.422287       -11.4910
 261   2.0000      -0.420989       -11.4557
 262   2.0000      -0.420387       -11.4393
 263   2.0000      -0.419748       -11.4219
 264   2.0000      -0.412389       -11.2217
 265   2.0000      -0.407889       -11.0992
 266   2.0000      -0.404518       -11.0075
 267   2.0000      -0.401871       -10.9355
 268   2.0000      -0.400213       -10.8903
 269   2.0000      -0.399326       -10.8662
 270   2.0000      -0.397928       -10.8282
 271   2.0000      -0.395836       -10.7712
 272   2.0000      -0.380854       -10.3636
 273   2.0000      -0.375914       -10.2291
 274   2.0000      -0.371549       -10.1103
 275   2.0000      -0.363165        -9.8822
 276   2.0000      -0.356023        -9.6879
 277   2.0000      -0.349931        -9.5221
 278   2.0000      -0.340701        -9.2709
 279   2.0000      -0.338996        -9.2246
 280   2.0000      -0.335536        -9.1304
 281   2.0000      -0.333523        -9.0756
 282   2.0000      -0.331073        -9.0090
 283   2.0000      -0.328890        -8.9495
 284   2.0000      -0.315767        -8.5925
 285   2.0000      -0.311546        -8.4776
 286   2.0000      -0.307547        -8.3688
 287   2.0000      -0.295264        -8.0345
 288   2.0000      -0.294251        -8.0070
 289   2.0000      -0.291829        -7.9411
 290   2.0000      -0.288466        -7.8496
 291   2.0000      -0.280384        -7.6296
 292   2.0000      -0.261276        -7.1097
 293   2.0000      -0.217109        -5.9078
 294   0.0000      -0.104913        -2.8548
 295   0.0000      -0.089221        -2.4278
 296   0.0000      -0.074306        -2.0220
 297   0.0000      -0.056237        -1.5303
 298   0.0000      -0.050523        -1.3748

MULLIKEN ATOMIC CHARGES
-----------------------
   0 C :    0.284703
   1 C :   -0.329799
   2 C :   -0.174505
   3 N :    0.148266
   4 C :   -0.205076
   5 N :    0.161970
   6 C :    0.034478
   7 C :    0.012879
   8 C :   -0.080499
   9 C :    0.095322
  10 C :    0.094702
  11 C :   -0.081845
  12 C :   -0.018083
  13 C :    0.037068
  14 C :    0.032083
  15 C :   -0.014039
  16 C :    0.133997
  17 O :   -0.142937
  18 C :   -0.135669
  19 C :    0.073410
  20 C :   -0.181422
  21 C :    0.223020
  22 F :   -0.157944
  23 C :   -0.084485
  24 C :   -0.048990
  25 S :    0.194539
  26 C :   -0.078222
  27 C :   -0.046162
  28 S :    0.214821
  29 C :    0.189073
  30 F :   -0.175029
  31 C :   -0.144723
  32 S :    0.156355
  33 C :   -0.011543
  34 C :   -0.021930
  35 C :    0.036200
  36 C :    0.032566
  37 C :   -0.030973
  38 S :    0.061183
  39 C :   -0.055703
  40 C :    0.037544
  41 C :    0.031122
  42 C :   -0.025083
  43 S :    0.107274
  44 C :    0.011601
  45 C :   -0.178211
  46 C :    0.200461
  47 F :   -0.168745
  48 C :   -0.069788
  49 C :   -0.090364
  50 S :    0.177266
  51 C :   -0.056435
  52 C :   -0.053493
  53 S :    0.209110
  54 C :    0.202280
  55 F :   -0.156023
  56 C :   -0.151697
  57 S :    0.224204
  58 C :   -0.028374
  59 C :   -0.094990
  60 C :    0.331279
  61 C :   -0.350560
  62 C :   -0.184902
  63 N :    0.145693
  64 C :   -0.204523
  65 N :    0.156820
  66 C :    0.043702
  67 C :   -0.000607
  68 C :    0.174773
  69 O :   -0.188416
  70 C :   -0.085461
  71 C :    0.100996
  72 C :    0.098398
  73 C :   -0.087064
  74 C :   -0.022011
  75 C :    0.036753
  76 C :    0.036486
  77 C :   -0.019053
  78 H :   -0.012971
  79 H :   -0.007277
  80 H :   -0.011896
  81 H :   -0.006941
  82 H :   -0.006139
  83 H :   -0.018692
  84 H :    0.025656
  85 H :    0.003399
  86 H :   -0.006236
  87 H :   -0.009770
  88 H :   -0.009593
  89 H :   -0.006728
  90 H :   -0.003422
  91 H :    0.023903
  92 H :   -0.014375
  93 H :   -0.007767
  94 H :   -0.008482
  95 H :   -0.005095
  96 H :   -0.006478
  97 H :   -0.018111
Sum of atomic charges:   -0.0000000

LOEWDIN ATOMIC CHARGES
----------------------
   0 C :    0.066005
   1 C :   -0.138241
   2 C :   -0.017824
   3 N :   -0.055022
   4 C :   -0.018803
   5 N :   -0.051557
   6 C :   -0.021007
   7 C :   -0.057957
   8 C :    0.032739
   9 C :   -0.010362
  10 C :   -0.005207
  11 C :    0.013925
  12 C :   -0.007154
  13 C :   -0.013874
  14 C :   -0.015174
  15 C :   -0.009095
  16 C :    0.083507
  17 O :   -0.143881
  18 C :   -0.090004
  19 C :    0.040994
  20 C :   -0.210555
  21 C :    0.064032
  22 F :   -0.031320
  23 C :   -0.213489
  24 C :   -0.188225
  25 S :    0.459622
  26 C :   -0.215717
  27 C :   -0.204049
  28 S :    0.440301
  29 C :    0.034499
  30 F :   -0.053916
  31 C :   -0.192486
  32 S :    0.440887
  33 C :   -0.068469
  34 C :   -0.149390
  35 C :   -0.026976
  36 C :   -0.032774
  37 C :   -0.173543
  38 S :    0.373292
  39 C :   -0.178814
  40 C :   -0.028384
  41 C :   -0.030612
  42 C :   -0.138203
  43 S :    0.396263
  44 C :   -0.086656
  45 C :   -0.188422
  46 C :    0.020225
  47 F :   -0.049688
  48 C :   -0.199007
  49 C :   -0.218526
  50 S :    0.441222
  51 C :   -0.195190
  52 C :   -0.224901
  53 S :    0.433242
  54 C :    0.070975
  55 F :   -0.034430
  56 C :   -0.216734
  57 S :    0.499837
  58 C :    0.058959
  59 C :   -0.110086
  60 C :    0.076160
  61 C :   -0.142940
  62 C :   -0.017047
  63 N :   -0.057687
  64 C :   -0.025235
  65 N :   -0.049050
  66 C :   -0.023819
  67 C :   -0.054887
  68 C :    0.086814
  69 O :   -0.172625
  70 C :    0.031059
  71 C :   -0.009423
  72 C :   -0.006125
  73 C :    0.018745
  74 C :   -0.005524
  75 C :   -0.013944
  76 C :   -0.013461
  77 C :   -0.010206
  78 H :    0.039015
  79 H :    0.038247
  80 H :    0.033840
  81 H :    0.032347
  82 H :    0.032134
  83 H :    0.031491
  84 H :    0.047302
  85 H :    0.044776
  86 H :    0.036027
  87 H :    0.033814
  88 H :    0.033476
  89 H :    0.034890
  90 H :    0.036626
  91 H :    0.051486
  92 H :    0.038318
  93 H :    0.039142
  94 H :    0.034859
  95 H :    0.032994
  96 H :    0.032286
  97 H :    0.031327

  Mayer bond orders larger than 0.100000
B(  0-C ,  1-C ) :   1.6377 B(  0-C ,  6-C ) :   0.9951 B(  0-C , 18-C ) :   1.0498
B(  1-C ,  2-C ) :   1.1363 B(  1-C ,  4-C ) :   1.1721 B(  2-C ,  3-N ) :   2.9840
B(  4-C ,  5-N ) :   2.9983 B(  6-C ,  7-C ) :   1.2171 B(  6-C , 11-C ) :   1.4607
B(  7-C ,  8-C ) :   1.4749 B(  7-C , 16-C ) :   0.9247 B(  8-C ,  9-C ) :   1.1819
B(  8-C , 78-H ) :   1.0157 B(  9-C , 10-C ) :   1.2613 B(  9-C , 15-C ) :   1.2437
B( 10-C , 11-C ) :   1.2017 B( 10-C , 12-C ) :   1.2424 B( 11-C , 79-H ) :   0.9925
B( 12-C , 13-C ) :   1.4887 B( 12-C , 80-H ) :   0.9972 B( 13-C , 14-C ) :   1.2618
B( 13-C , 81-H ) :   0.9885 B( 14-C , 15-C ) :   1.4886 B( 14-C , 82-H ) :   0.9887
B( 15-C , 83-H ) :   0.9973 B( 16-C , 17-O ) :   2.2649 B( 16-C , 18-C ) :   0.9388
B( 18-C , 19-C ) :   1.6610 B( 19-C , 20-C ) :   1.1438 B( 19-C , 84-H ) :   0.9228
B( 20-C , 21-C ) :   1.4162 B( 20-C , 25-S ) :   1.0643 B( 21-C , 22-F ) :   1.1696
B( 21-C , 23-C ) :   1.3148 B( 23-C , 24-C ) :   1.4589 B( 23-C , 28-S ) :   1.0224
B( 24-C , 25-S ) :   1.0865 B( 24-C , 26-C ) :   1.3409 B( 26-C , 27-C ) :   1.4436
B( 26-C , 32-S ) :   1.0749 B( 27-C , 28-S ) :   1.0277 B( 27-C , 29-C ) :   1.3052
B( 29-C , 30-F ) :   1.1767 B( 29-C , 31-C ) :   1.4246 B( 31-C , 32-S ) :   1.0647
B( 31-C , 33-C ) :   1.1891 B( 33-C , 34-C ) :   1.5424 B( 33-C , 85-H ) :   0.9734
B( 34-C , 35-C ) :   1.1478 B( 34-C , 38-S ) :   1.0385 B( 35-C , 36-C ) :   1.5889
B( 35-C , 86-H ) :   1.0009 B( 36-C , 37-C ) :   1.1873 B( 36-C , 87-H ) :   0.9928
B( 37-C , 38-S ) :   1.0453 B( 37-C , 39-C ) :   1.5086 B( 39-C , 40-C ) :   1.1816
B( 39-C , 43-S ) :   1.0498 B( 40-C , 41-C ) :   1.5970 B( 40-C , 88-H ) :   0.9943
B( 41-C , 42-C ) :   1.1388 B( 41-C , 89-H ) :   0.9986 B( 42-C , 43-S ) :   1.0558
B( 42-C , 44-C ) :   1.6110 B( 44-C , 45-C ) :   1.1362 B( 44-C , 90-H ) :   0.9471
B( 45-C , 46-C ) :   1.4387 B( 45-C , 50-S ) :   1.0768 B( 46-C , 47-F ) :   1.1697
B( 46-C , 48-C ) :   1.2844 B( 48-C , 49-C ) :   1.4647 B( 48-C , 53-S ) :   1.0325
B( 49-C , 50-S ) :   1.0625 B( 49-C , 51-C ) :   1.3510 B( 51-C , 52-C ) :   1.4085
B( 51-C , 57-S ) :   1.0513 B( 52-C , 53-S ) :   1.0071 B( 52-C , 54-C ) :   1.3497
B( 54-C , 55-F ) :   1.1739 B( 54-C , 56-C ) :   1.3628 B( 56-C , 57-S ) :   1.0466
B( 56-C , 58-C ) :   1.2707 B( 58-C , 59-C ) :   1.4858 B( 58-C , 91-H ) :   0.9368
B( 59-C , 60-C ) :   1.0753 B( 59-C , 68-C ) :   0.9854 B( 60-C , 61-C ) :   1.6250
B( 60-C , 66-C ) :   0.9834 B( 61-C , 62-C ) :   1.1488 B( 61-C , 64-C ) :   1.1433
B( 62-C , 63-N ) :   2.9627 B( 64-C , 65-N ) :   2.9721 B( 66-C , 67-C ) :   1.2149
B( 66-C , 73-C ) :   1.4560 B( 67-C , 68-C ) :   0.9606 B( 67-C , 70-C ) :   1.4680
B( 68-C , 69-O ) :   2.1118 B( 70-C , 71-C ) :   1.1757 B( 70-C , 92-H ) :   1.0172
B( 71-C , 72-C ) :   1.2574 B( 71-C , 77-C ) :   1.2445 B( 72-C , 73-C ) :   1.1996
B( 72-C , 74-C ) :   1.2427 B( 73-C , 93-H ) :   0.9902 B( 74-C , 75-C ) :   1.4869
B( 74-C , 94-H ) :   0.9975 B( 75-C , 76-C ) :   1.2611 B( 75-C , 95-H ) :   0.9885
B( 76-C , 77-C ) :   1.4867 B( 76-C , 96-H ) :   0.9889 B( 77-C , 97-H ) :   0.9979

-----------------------------------------------------------------------------
         ABSORPTION SPECTRUM VIA TRANSITION ELECTRIC DIPOLE MOMENTS
-----------------------------------------------------------------------------
State   Energy  Wavelength   fosc         T2         TX        TY        TZ
        (cm-1)    (nm)                  (au**2)     (au)      (au)      (au)
-----------------------------------------------------------------------------
   0   11505.6    869.1   1.210015057  34.62230  -4.79380  -2.08897   2.69778
   1   16590.5    602.8   1.085001978  21.53016   1.74672  -4.06995   1.38371
   2   19984.9    500.4   0.088749305   1.46197   0.98047   0.44715  -0.54836
   3   20853.3    479.5   1.343282777  21.20650  -1.49206   4.12125  -1.41263
   4   23931.9    417.9   0.066818503   0.91917   0.63485   0.45500  -0.55598
   5   24846.1    402.5   0.110453289   1.46351   0.50787  -1.06109   0.28223
   6   25516.7    391.9   0.249359103   3.21718   0.86106  -1.30539   0.87848
   7   26465.3    377.9   0.102027582   1.26916  -1.02603  -0.42818  -0.18187
   8   26510.3    377.2   0.151479578   1.88112   0.52773  -1.03015   0.73580
   9   26883.0    372.0   0.084548856   1.03539  -0.39007  -0.85184   0.39700
  10   26942.9    371.2   0.067102042   0.81991   0.55109  -0.38076   0.60928
  11   27303.0    366.3   0.103551133   1.24859  -0.90387   0.58543   0.29814
  12   27618.4    362.1   0.074652221   0.88986  -0.80369  -0.31991  -0.37629
  13   28318.4    353.1   0.094008593   1.09288  -0.81994   0.07974  -0.64360
  14   28951.9    345.4   0.013232028   0.15046   0.21863   0.12551   0.29480
  15   29038.4    344.4   0.002774779   0.03146   0.04464   0.03076  -0.16887
  16   29474.8    339.3   0.003835077   0.04284  -0.10579  -0.09265  -0.15185
  17   30216.4    330.9   0.001887766   0.02057   0.07533   0.10009  -0.06982
  18   30538.3    327.5   0.012450294   0.13422   0.29417  -0.13336   0.17290
  19   30827.4    324.4   0.079166753   0.84544   0.44493   0.80405   0.03118
  20   30860.0    324.0   0.018155019   0.19368  -0.30934   0.14371  -0.27809
  21   31007.2    322.5   0.042225704   0.44832  -0.31804   0.58167  -0.09401
  22   31287.7    319.6   0.034425422   0.36223  -0.32629  -0.45278  -0.22529
  23   31596.7    316.5   0.054413035   0.56694  -0.53062   0.32051  -0.42738
  24   31693.5    315.5   0.125956021   1.30835  -0.86808  -0.50995  -0.54291
  25   32581.1    306.9   0.011759719   0.11882  -0.16486   0.02315   0.30185
  26   32924.7    303.7   0.271254806   2.71226   0.63582  -1.01887   1.12690
  27   33402.9    299.4   0.162309258   1.59969  -1.07662   0.30006  -0.59207
  28   33646.1    297.2   0.504561677   4.93692   1.27278   1.75866   0.47334
  29   33960.3    294.5   0.442893110   4.29342  -1.77989   0.37565  -0.99212
  30   33990.6    294.2   0.115052708   1.11433  -1.00816  -0.12981  -0.28478
  31   34516.5    289.7   0.060500753   0.57704  -0.62751   0.40865  -0.12757
  32   34685.4    288.3   0.041941907   0.39809   0.61437  -0.11851   0.08120
  33   34939.9    286.2   0.033898987   0.31940  -0.51086  -0.16911  -0.17271
  34   34982.2    285.9   0.062803189   0.59103   0.69223   0.30414  -0.13909
  35   35547.9    281.3   0.063355816   0.58674   0.72786   0.08528   0.22290
  36   35772.0    279.5   0.057179742   0.52623   0.71846  -0.09858  -0.01795
  37   36058.1    277.3   0.135713041   1.23907  -0.91077   0.40870  -0.49246
  38   36410.4    274.6   0.074830202   0.67659  -0.71742  -0.32690   0.23462
  39   36567.2    273.5   0.045425482   0.40896  -0.48032   0.38191  -0.18002
  40   36605.8    273.2   0.013062201   0.11747   0.15797  -0.25524   0.16545
  41   36946.6    270.7   0.164995118   1.47019   0.12110  -0.89237   0.81191
  42   37100.8    269.5   0.012604773   0.11185   0.24705   0.10357   0.20021
  43   37259.3    268.4   0.041457824   0.36631   0.15955  -0.24415   0.53033
  44   37608.3    265.9   0.009198420   0.08052  -0.12066   0.16408  -0.19758
  45   37950.5    263.5   0.017916576   0.15542   0.27313  -0.21448   0.18660
  46   38211.2    261.7   0.076565252   0.65965   0.63023  -0.11214   0.49989
  47   38562.6    259.3   0.107305615   0.91608   0.88143   0.28628   0.23917
  48   38773.4    257.9   0.007038588   0.05976  -0.10321  -0.20512  -0.08388
  49   39012.0    256.3   0.143734224   1.21293  -0.63026   0.53227  -0.72966
  50   39051.8    256.1   0.054119210   0.45623  -0.03793  -0.29813   0.60491
  51   39191.3    255.2   0.095307919   0.80060   0.43541  -0.30842   0.71826
  52   39568.5    252.7   0.108913908   0.90617   0.03305   0.79580  -0.52132
  53   39776.1    251.4   0.011220374   0.09287   0.24305  -0.12621   0.13366
  54   39955.1    250.3   0.030038905   0.24751  -0.04994  -0.48999  -0.07017
  55   40175.0    248.9   0.063708580   0.52206  -0.48903   0.48217   0.22453

FINAL SINGLE POINT ENERGY     -6247.893881690853

DIPOLE MOMENT
-------------
                                X             Y             Z
Electronic contribution:      5.21652      48.17012      -4.55660
Nuclear contribution   :     -7.68337     -46.22232       3.26222
                        -----------------------------------------
Total Dipole Moment    :     -2.46685       1.94780      -1.29438
                        -----------------------------------------
Magnitude (a.u.)       :      3.39922
Magnitude (Debye)      :      8.64014

Rotational constants in cm-1:     0.000563     0.000288     0.000201
Rotational constants in MHz :    16.893040     8.642921     6.017782

                             ****ORCA TERMINATED NORMALLY****
TOTAL RUN TIME: 0 days 0 hours 10 minutes 42 seconds 122 msec
