                         Program Version 4.2.0 -  RELEASE  -
|  1> # ORCA input file
|  2> # SCF done       -208.591132905433          0.000207990338
|  3> ! CAM-B3LYP def2-SVP def2/J RIJCOSX Grid4 TightSCF
|  4> %maxcore 5000
|  5> %tddft
|  6>     Mode sTDDFT
|  7>     Ethresh 5.0
|  8>     maxcore 5000
|  9> end
| 10>
| 11> %pal
| 12>   nprocs 6
| 13>   end
| 14> * xyz 0 1
| 15>    C        0.51688         1.04532        -0.12096
| 16>    C       -0.61174         1.22045        -0.87786
| 17>    C       -1.10317         0.26467        -1.79141
| 18>    N       -1.54626        -0.47292        -2.55060
| 19>    C       -1.45323         2.34343        -0.77694
| 20>    N       -2.15853         3.24702        -0.70851
| 21>    C        1.27734        -0.19646        -0.02807
| 22>    C        2.04887        -0.17053         1.17052
| 23>    C        2.83226        -1.22525         1.54251
| 24>    C        2.89006        -2.36693         0.71198
| 25>    C        2.13852        -2.38942        -0.49873
| 26>    C        1.32942        -1.28589        -0.85479
| 27>    C        2.21358        -3.53004        -1.32352
| 28>    C        2.98907        -4.60032        -0.96919
| 29>    C        3.72612        -4.57874         0.22430
| 30>    C        3.67777        -3.48604         1.04683
| 31>    C        1.85294         1.12160         1.84616
| 32>    O        2.29582         1.49060         2.90863
| 33>    C        1.01820         1.93455         0.90619
| 34>    C        0.94397         3.27527         1.11176
| 35>    C        0.53847         4.31242         0.23459
| 36>    C        0.51712         4.34969        -1.15047
| 37>    F        0.94234         3.33573        -1.91084
| 38>    C        0.07388         5.56520        -1.67475
| 39>    C       -0.25746         6.48554        -0.67239
| 40>    S        0.02532         5.85115         0.90118
| 41>    C       -0.75237         7.68023        -1.20713
| 42>    C       -0.78815         7.64829        -2.60570
| 43>    S       -0.20671         6.15828        -3.28438
| 44>    C       -1.30673         8.82953        -3.14612
| 45>    F       -1.44991         9.05021        -4.45818
| 46>    C       -1.66569         9.76156        -2.19073
| 47>    S       -1.34742         9.17086        -0.57446
| 48>    C       -2.25460        11.03617        -2.42215
| 49>    C       -2.58947        11.99110        -1.48125
| 50>    F       -2.35421        11.82815        -0.17442
| 51>    C       -3.19550        13.12721        -2.03111
| 52>    C       -3.32552        13.03125        -3.42027
| 53>    S       -2.68967        11.55329        -4.03762
| 54>    C       -3.95951        14.15476        -3.96273
| 55>    C       -4.29963        15.09052        -2.98288
| 56>    S       -3.83818        14.60556        -1.37727
| 57>    C       -4.95641        16.21058        -3.51592
| 58>    F       -5.33098        17.25062        -2.77178
| 59>    C       -5.13194        16.13950        -4.88351
| 60>    S       -4.44843        14.66225        -5.53506
| 61>    C       -5.78343        17.04965        -5.77040
| 62>    C       -6.72914        18.01782        -5.49685
| 63>    F       -7.21043        18.26191        -4.27831
| 64>    C       -7.18685        18.68585        -6.64302
| 65>    C       -6.58069        18.21630        -7.81186
| 66>    S       -5.44332        16.96171        -7.48703
| 67>    C       -7.07045        18.86161        -8.95208
| 68>    C       -8.04475        19.81581        -8.63254
| 69>    S       -8.36515        19.93148        -6.92660
| 70>    C       -8.55153        20.45993        -9.76641
| 71>    F       -9.57423        21.30811        -9.71954
| 72>    C       -7.98041        20.02018       -10.94989
| 73>    S       -6.80714        18.75093       -10.64879
| 74>    C       -8.28645        20.39202       -12.28603
| 75>    C       -8.68138        21.63196       -12.68325
| 76>    C       -9.19480        22.00395       -13.98882
| 77>    C       -9.60377        21.14275       -14.97308
| 78>    C      -10.12759        21.55422       -16.21669
| 79>    N      -10.55483        21.82413       -17.24740
| 80>    C       -9.57852        19.73560       -14.87630
| 81>    N       -9.59968        18.58761       -14.86061
| 82>    C       -9.28463        23.45735       -14.03244
| 83>    C       -8.85045        23.98093       -12.78072
| 84>    C       -8.44853        22.87693       -11.89454
| 85>    O       -7.92880        22.96619       -10.80502
| 86>    C       -8.83460        25.32197       -12.52610
| 87>    C       -9.27075        26.21835       -13.52727
| 88>    C       -9.70190        25.70331       -14.78413
| 89>    C       -9.69865        24.31010       -15.02198
| 90>    C      -10.13208        26.60709       -15.77705
| 91>    C      -10.13995        27.95476       -15.54057
| 92>    C       -9.71666        28.46067       -14.30233
| 93>    C       -9.29134        27.61111       -13.31718
| 94>    H        3.40196        -1.18929         2.45918
| 95>    H        0.77879        -1.32433        -1.78160
| 96>    H        1.64158        -3.54318        -2.23958
| 97>    H        3.03821        -5.47030        -1.60669
| 98>    H        4.33274        -5.43197         0.48842
| 99>    H        4.24354        -3.46362         1.96671
|100>    H        1.30043         3.60569         2.08343
|101>    H       -8.16683        19.60634       -13.02141
|102>    H       -8.50069        25.69347       -11.56873
|103>    H      -10.02323        23.95162       -15.98594
|104>    H      -10.45835        26.21244       -16.72808
|105>    H      -10.47314        28.63880       -16.30657
|106>    H       -9.72927        29.52695       -14.13302
|107>    H       -8.96436        27.99489       -12.36192
|108> *
|109>
|110>                          ****END OF INPUT****

CARTESIAN COORDINATES (ANGSTROEM)
---------------------------------
  C      0.516880    1.045320   -0.120960
  C     -0.611740    1.220450   -0.877860
  C     -1.103170    0.264670   -1.791410
  N     -1.546260   -0.472920   -2.550600
  C     -1.453230    2.343430   -0.776940
  N     -2.158530    3.247020   -0.708510
  C      1.277340   -0.196460   -0.028070
  C      2.048870   -0.170530    1.170520
  C      2.832260   -1.225250    1.542510
  C      2.890060   -2.366930    0.711980
  C      2.138520   -2.389420   -0.498730
  C      1.329420   -1.285890   -0.854790
  C      2.213580   -3.530040   -1.323520
  C      2.989070   -4.600320   -0.969190
  C      3.726120   -4.578740    0.224300
  C      3.677770   -3.486040    1.046830
  C      1.852940    1.121600    1.846160
  O      2.295820    1.490600    2.908630
  C      1.018200    1.934550    0.906190
  C      0.943970    3.275270    1.111760
  C      0.538470    4.312420    0.234590
  C      0.517120    4.349690   -1.150470
  F      0.942340    3.335730   -1.910840
  C      0.073880    5.565200   -1.674750
  C     -0.257460    6.485540   -0.672390
  S      0.025320    5.851150    0.901180
  C     -0.752370    7.680230   -1.207130
  C     -0.788150    7.648290   -2.605700
  S     -0.206710    6.158280   -3.284380
  C     -1.306730    8.829530   -3.146120
  F     -1.449910    9.050210   -4.458180
  C     -1.665690    9.761560   -2.190730
  S     -1.347420    9.170860   -0.574460
  C     -2.254600   11.036170   -2.422150
  C     -2.589470   11.991100   -1.481250
  F     -2.354210   11.828150   -0.174420
  C     -3.195500   13.127210   -2.031110
  C     -3.325520   13.031250   -3.420270
  S     -2.689670   11.553290   -4.037620
  C     -3.959510   14.154760   -3.962730
  C     -4.299630   15.090520   -2.982880
  S     -3.838180   14.605560   -1.377270
  C     -4.956410   16.210580   -3.515920
  F     -5.330980   17.250620   -2.771780
  C     -5.131940   16.139500   -4.883510
  S     -4.448430   14.662250   -5.535060
  C     -5.783430   17.049650   -5.770400
  C     -6.729140   18.017820   -5.496850
  F     -7.210430   18.261910   -4.278310
  C     -7.186850   18.685850   -6.643020
  C     -6.580690   18.216300   -7.811860
  S     -5.443320   16.961710   -7.487030
  C     -7.070450   18.861610   -8.952080
  C     -8.044750   19.815810   -8.632540
  S     -8.365150   19.931480   -6.926600
  C     -8.551530   20.459930   -9.766410
  F     -9.574230   21.308110   -9.719540
  C     -7.980410   20.020180  -10.949890
  S     -6.807140   18.750930  -10.648790
  C     -8.286450   20.392020  -12.286030
  C     -8.681380   21.631960  -12.683250
  C     -9.194800   22.003950  -13.988820
  C     -9.603770   21.142750  -14.973080
  C    -10.127590   21.554220  -16.216690
  N    -10.554830   21.824130  -17.247400
  C     -9.578520   19.735600  -14.876300
  N     -9.599680   18.587610  -14.860610
  C     -9.284630   23.457350  -14.032440
  C     -8.850450   23.980930  -12.780720
  C     -8.448530   22.876930  -11.894540
  O     -7.928800   22.966190  -10.805020
  C     -8.834600   25.321970  -12.526100
  C     -9.270750   26.218350  -13.527270
  C     -9.701900   25.703310  -14.784130
  C     -9.698650   24.310100  -15.021980
  C    -10.132080   26.607090  -15.777050
  C    -10.139950   27.954760  -15.540570
  C     -9.716660   28.460670  -14.302330
  C     -9.291340   27.611110  -13.317180
  H      3.401960   -1.189290    2.459180
  H      0.778790   -1.324330   -1.781600
  H      1.641580   -3.543180   -2.239580
  H      3.038210   -5.470300   -1.606690
  H      4.332740   -5.431970    0.488420
  H      4.243540   -3.463620    1.966710
  H      1.300430    3.605690    2.083430
  H     -8.166830   19.606340  -13.021410
  H     -8.500690   25.693470  -11.568730
  H    -10.023230   23.951620  -15.985940
  H    -10.458350   26.212440  -16.728080
  H    -10.473140   28.638800  -16.306570
  H     -9.729270   29.526950  -14.133020
  H     -8.964360   27.994890  -12.361920

 Total Charge           Charge          ....    0
 Multiplicity           Mult            ....    1
 Number of Electrons    NEL             ....  604
 Basis Dimension        Dim             .... 1212

ORBITAL ENERGIES
----------------

  NO   OCC          E(Eh)            E(eV)
   0   2.0000     -88.985249     -2421.4117
   1   2.0000     -88.983931     -2421.3758
   2   2.0000     -88.983903     -2421.3751
   3   2.0000     -88.983033     -2421.3514
   4   2.0000     -88.983015     -2421.3509
   5   2.0000     -88.982482     -2421.3364
   6   2.0000     -88.982472     -2421.3362
   7   2.0000     -88.982170     -2421.3280
   8   2.0000     -88.982001     -2421.3234
   9   2.0000     -24.819065      -675.3611
  10   2.0000     -24.813701      -675.2151
  11   2.0000     -24.813683      -675.2147
  12   2.0000     -24.807990      -675.0597
  13   2.0000     -24.804382      -674.9615
  14   2.0000     -24.804315      -674.9597
  15   2.0000     -19.214182      -522.8445
  16   2.0000     -19.213386      -522.8228
  17   2.0000     -14.415376      -392.2623
  18   2.0000     -14.414783      -392.2462
  19   2.0000     -14.413533      -392.2122
  20   2.0000     -14.413499      -392.2112
  21   2.0000     -10.392621      -282.7976
  22   2.0000     -10.391234      -282.7599
  23   2.0000     -10.384808      -282.5850
  24   2.0000     -10.384745      -282.5833
  25   2.0000     -10.384243      -282.5696
  26   2.0000     -10.383852      -282.5590
  27   2.0000     -10.364784      -282.0401
  28   2.0000     -10.364448      -282.0310
  29   2.0000     -10.341082      -281.3951
  30   2.0000     -10.340957      -281.3918
  31   2.0000     -10.339249      -281.3453
  32   2.0000     -10.338272      -281.3187
  33   2.0000     -10.336602      -281.2732
  34   2.0000     -10.336025      -281.2575
  35   2.0000     -10.335860      -281.2530
  36   2.0000     -10.335311      -281.2381
  37   2.0000     -10.333708      -281.1945
  38   2.0000     -10.332576      -281.1637
  39   2.0000     -10.331498      -281.1344
  40   2.0000     -10.330893      -281.1179
  41   2.0000     -10.329211      -281.0721
  42   2.0000     -10.329189      -281.0715
  43   2.0000     -10.328831      -281.0618
  44   2.0000     -10.328256      -281.0461
  45   2.0000     -10.326748      -281.0051
  46   2.0000     -10.325864      -280.9811
  47   2.0000     -10.325303      -280.9658
  48   2.0000     -10.325114      -280.9606
  49   2.0000     -10.325001      -280.9576
  50   2.0000     -10.324987      -280.9572
  51   2.0000     -10.324017      -280.9308
  52   2.0000     -10.323617      -280.9199
  53   2.0000     -10.317606      -280.7563
  54   2.0000     -10.316337      -280.7218
  55   2.0000     -10.316264      -280.7198
  56   2.0000     -10.316164      -280.7171
  57   2.0000     -10.301539      -280.3191
  58   2.0000     -10.301361      -280.3143
  59   2.0000     -10.299556      -280.2652
  60   2.0000     -10.299360      -280.2598
  61   2.0000     -10.296689      -280.1871
  62   2.0000     -10.296409      -280.1795
  63   2.0000     -10.296275      -280.1759
  64   2.0000     -10.296060      -280.1700
  65   2.0000     -10.295729      -280.1610
  66   2.0000     -10.295714      -280.1606
  67   2.0000     -10.295147      -280.1452
  68   2.0000     -10.294372      -280.1241
  69   2.0000     -10.287713      -279.9429
  70   2.0000     -10.287221      -279.9295
  71   2.0000     -10.285861      -279.8925
  72   2.0000     -10.285273      -279.8765
  73   2.0000     -10.285116      -279.8722
  74   2.0000     -10.284973      -279.8683
  75   2.0000     -10.284758      -279.8625
  76   2.0000     -10.284481      -279.8550
  77   2.0000     -10.284466      -279.8545
  78   2.0000     -10.283873      -279.8384
  79   2.0000      -8.080409      -219.8791
  80   2.0000      -8.078916      -219.8385
  81   2.0000      -8.078460      -219.8261
  82   2.0000      -8.077558      -219.8015
  83   2.0000      -8.077462      -219.7989
  84   2.0000      -8.077232      -219.7927
  85   2.0000      -8.077216      -219.7922
  86   2.0000      -8.076879      -219.7830
  87   2.0000      -8.076711      -219.7785
  88   2.0000      -6.050127      -164.6323
  89   2.0000      -6.048669      -164.5927
  90   2.0000      -6.048285      -164.5822
  91   2.0000      -6.047383      -164.5577
  92   2.0000      -6.047361      -164.5571
  93   2.0000      -6.046899      -164.5445
  94   2.0000      -6.046890      -164.5442
  95   2.0000      -6.046848      -164.5431
  96   2.0000      -6.046679      -164.5385
  97   2.0000      -6.046110      -164.5230
  98   2.0000      -6.044612      -164.4823
  99   2.0000      -6.044087      -164.4680
 100   2.0000      -6.043335      -164.4475
 101   2.0000      -6.043183      -164.4434
 102   2.0000      -6.042891      -164.4354
 103   2.0000      -6.042885      -164.4352
 104   2.0000      -6.042750      -164.4316
 105   2.0000      -6.042578      -164.4269
 106   2.0000      -6.041501      -164.3976
 107   2.0000      -6.040040      -164.3579
 108   2.0000      -6.039561      -164.3448
 109   2.0000      -6.038666      -164.3205
 110   2.0000      -6.038418      -164.3137
 111   2.0000      -6.038414      -164.3136
 112   2.0000      -6.038277      -164.3099
 113   2.0000      -6.037663      -164.2932
 114   2.0000      -6.037561      -164.2904
 115   2.0000      -1.332365       -36.2555
 116   2.0000      -1.327727       -36.1293
 117   2.0000      -1.327475       -36.1224
 118   2.0000      -1.324067       -36.0297
 119   2.0000      -1.323356       -36.0103
 120   2.0000      -1.317456       -35.8498
 121   2.0000      -1.129685       -30.7403
 122   2.0000      -1.128949       -30.7203
 123   2.0000      -1.045056       -28.4374
 124   2.0000      -1.043264       -28.3886
 125   2.0000      -1.040064       -28.3016
 126   2.0000      -1.017344       -27.6833
 127   2.0000      -1.017056       -27.6755
 128   2.0000      -1.010905       -27.5081
 129   2.0000      -1.003541       -27.3077
 130   2.0000      -0.997208       -27.1354
 131   2.0000      -0.997063       -27.1315
 132   2.0000      -0.994465       -27.0608
 133   2.0000      -0.992621       -27.0106
 134   2.0000      -0.991817       -26.9887
 135   2.0000      -0.970865       -26.4186
 136   2.0000      -0.970163       -26.3995
 137   2.0000      -0.960461       -26.1355
 138   2.0000      -0.950677       -25.8692
 139   2.0000      -0.939281       -25.5591
 140   2.0000      -0.923305       -25.1244
 141   2.0000      -0.922424       -25.1004
 142   2.0000      -0.903533       -24.5864
 143   2.0000      -0.903408       -24.5830
 144   2.0000      -0.888090       -24.1662
 145   2.0000      -0.884883       -24.0789
 146   2.0000      -0.881486       -23.9864
 147   2.0000      -0.879985       -23.9456
 148   2.0000      -0.878507       -23.9054
 149   2.0000      -0.874966       -23.8090
 150   2.0000      -0.863349       -23.4929
 151   2.0000      -0.856565       -23.3083
 152   2.0000      -0.852824       -23.2065
 153   2.0000      -0.849272       -23.1099
 154   2.0000      -0.838498       -22.8167
 155   2.0000      -0.827236       -22.5102
 156   2.0000      -0.826882       -22.5006
 157   2.0000      -0.825154       -22.4536
 158   2.0000      -0.817426       -22.2433
 159   2.0000      -0.815981       -22.2040
 160   2.0000      -0.805098       -21.9078
 161   2.0000      -0.799847       -21.7649
 162   2.0000      -0.789079       -21.4719
 163   2.0000      -0.773041       -21.0355
 164   2.0000      -0.760089       -20.6831
 165   2.0000      -0.759744       -20.6737
 166   2.0000      -0.750658       -20.4264
 167   2.0000      -0.732793       -19.9403
 168   2.0000      -0.718177       -19.5426
 169   2.0000      -0.710563       -19.3354
 170   2.0000      -0.703176       -19.1344
 171   2.0000      -0.701234       -19.0816
 172   2.0000      -0.698017       -18.9940
 173   2.0000      -0.695837       -18.9347
 174   2.0000      -0.693106       -18.8604
 175   2.0000      -0.689281       -18.7563
 176   2.0000      -0.685881       -18.6638
 177   2.0000      -0.683920       -18.6104
 178   2.0000      -0.682695       -18.5771
 179   2.0000      -0.679583       -18.4924
 180   2.0000      -0.674249       -18.3472
 181   2.0000      -0.673091       -18.3157
 182   2.0000      -0.670874       -18.2554
 183   2.0000      -0.667461       -18.1625
 184   2.0000      -0.655724       -17.8432
 185   2.0000      -0.649919       -17.6852
 186   2.0000      -0.640483       -17.4284
 187   2.0000      -0.633490       -17.2382
 188   2.0000      -0.630410       -17.1543
 189   2.0000      -0.625063       -17.0088
 190   2.0000      -0.619758       -16.8645
 191   2.0000      -0.616516       -16.7763
 192   2.0000      -0.605912       -16.4877
 193   2.0000      -0.605777       -16.4840
 194   2.0000      -0.603767       -16.4293
 195   2.0000      -0.601046       -16.3553
 196   2.0000      -0.597348       -16.2547
 197   2.0000      -0.594870       -16.1872
 198   2.0000      -0.594030       -16.1644
 199   2.0000      -0.592126       -16.1126
 200   2.0000      -0.588421       -16.0117
 201   2.0000      -0.584280       -15.8991
 202   2.0000      -0.581038       -15.8108
 203   2.0000      -0.579030       -15.7562
 204   2.0000      -0.574924       -15.6445
 205   2.0000      -0.572099       -15.5676
 206   2.0000      -0.568689       -15.4748
 207   2.0000      -0.565982       -15.4012
 208   2.0000      -0.564336       -15.3564
 209   2.0000      -0.558597       -15.2002
 210   2.0000      -0.554485       -15.0883
 211   2.0000      -0.552680       -15.0392
 212   2.0000      -0.550574       -14.9819
 213   2.0000      -0.545245       -14.8369
 214   2.0000      -0.545055       -14.8317
 215   2.0000      -0.539364       -14.6768
 216   2.0000      -0.537547       -14.6274
 217   2.0000      -0.536256       -14.5923
 218   2.0000      -0.530030       -14.4228
 219   2.0000      -0.528706       -14.3868
 220   2.0000      -0.524807       -14.2807
 221   2.0000      -0.522809       -14.2264
 222   2.0000      -0.521894       -14.2015
 223   2.0000      -0.521487       -14.1904
 224   2.0000      -0.520484       -14.1631
 225   2.0000      -0.518839       -14.1183
 226   2.0000      -0.517291       -14.0762
 227   2.0000      -0.516890       -14.0653
 228   2.0000      -0.513867       -13.9830
 229   2.0000      -0.511873       -13.9288
 230   2.0000      -0.511228       -13.9112
 231   2.0000      -0.508371       -13.8335
 232   2.0000      -0.506196       -13.7743
 233   2.0000      -0.502656       -13.6780
 234   2.0000      -0.501445       -13.6450
 235   2.0000      -0.498814       -13.5734
 236   2.0000      -0.495436       -13.4815
 237   2.0000      -0.494504       -13.4561
 238   2.0000      -0.494079       -13.4446
 239   2.0000      -0.490286       -13.3413
 240   2.0000      -0.487231       -13.2582
 241   2.0000      -0.485210       -13.2032
 242   2.0000      -0.483179       -13.1480
 243   2.0000      -0.482429       -13.1276
 244   2.0000      -0.479245       -13.0409
 245   2.0000      -0.477046       -12.9811
 246   2.0000      -0.475063       -12.9271
 247   2.0000      -0.472696       -12.8627
 248   2.0000      -0.467096       -12.7103
 249   2.0000      -0.463751       -12.6193
 250   2.0000      -0.462645       -12.5892
 251   2.0000      -0.459805       -12.5119
 252   2.0000      -0.458652       -12.4806
 253   2.0000      -0.449111       -12.2209
 254   2.0000      -0.447982       -12.1902
 255   2.0000      -0.446291       -12.1442
 256   2.0000      -0.443674       -12.0730
 257   2.0000      -0.443284       -12.0624
 258   2.0000      -0.440675       -11.9914
 259   2.0000      -0.439058       -11.9474
 260   2.0000      -0.438638       -11.9359
 261   2.0000      -0.437409       -11.9025
 262   2.0000      -0.434720       -11.8293
 263   2.0000      -0.433534       -11.7971
 264   2.0000      -0.432771       -11.7763
 265   2.0000      -0.431400       -11.7390
 266   2.0000      -0.429731       -11.6936
 267   2.0000      -0.429438       -11.6856
 268   2.0000      -0.426322       -11.6008
 269   2.0000      -0.425698       -11.5838
 270   2.0000      -0.425252       -11.5717
 271   2.0000      -0.424319       -11.5463
 272   2.0000      -0.423846       -11.5334
 273   2.0000      -0.418881       -11.3983
 274   2.0000      -0.417038       -11.3482
 275   2.0000      -0.413149       -11.2424
 276   2.0000      -0.408558       -11.1174
 277   2.0000      -0.407542       -11.0898
 278   2.0000      -0.401041       -10.9129
 279   2.0000      -0.400646       -10.9021
 280   2.0000      -0.386478       -10.5166
 281   2.0000      -0.379865       -10.3366
 282   2.0000      -0.376677       -10.2499
 283   2.0000      -0.371306       -10.1037
 284   2.0000      -0.362282        -9.8582
 285   2.0000      -0.352331        -9.5874
 286   2.0000      -0.346043        -9.4163
 287   2.0000      -0.344339        -9.3699
 288   2.0000      -0.343697        -9.3525
 289   2.0000      -0.338122        -9.2008
 290   2.0000      -0.335272        -9.1232
 291   2.0000      -0.324102        -8.8193
 292   2.0000      -0.315656        -8.5894
 293   2.0000      -0.314069        -8.5463
 294   2.0000      -0.302677        -8.2363
 295   2.0000      -0.300298        -8.1715
 296   2.0000      -0.300116        -8.1666
 297   2.0000      -0.298594        -8.1251
 298   2.0000      -0.293103        -7.9757
 299   2.0000      -0.291005        -7.9187
 300   2.0000      -0.271576        -7.3899
 301   2.0000      -0.247632        -6.7384
 302   0.0000      -0.098206        -2.6723
 303   0.0000      -0.092299        -2.5116
 304   0.0000      -0.064884        -1.7656
 305   0.0000      -0.056842        -1.5468
 306   0.0000      -0.051285        -1.3955

MULLIKEN ATOMIC CHARGES
-----------------------
   0 C :    0.278385
   1 C :   -0.323589
   2 C :   -0.174743
   3 N :    0.150599
   4 C :   -0.204937
   5 N :    0.163239
   6 C :    0.035281
   7 C :    0.016466
   8 C :   -0.081084
   9 C :    0.094220
  10 C :    0.094628
  11 C :   -0.080502
  12 C :   -0.018636
  13 C :    0.036517
  14 C :    0.034949
  15 C :   -0.014826
  16 C :    0.132462
  17 O :   -0.141931
  18 C :   -0.131062
  19 C :    0.075190
  20 C :   -0.184892
  21 C :    0.225083
  22 F :   -0.157464
  23 C :   -0.084301
  24 C :   -0.058846
  25 S :    0.196799
  26 C :   -0.087056
  27 C :   -0.057554
  28 S :    0.219160
  29 C :    0.164332
  30 F :   -0.173765
  31 C :   -0.126701
  32 S :    0.208149
  33 C :   -0.138348
  34 C :    0.170485
  35 F :   -0.173045
  36 C :   -0.069939
  37 C :   -0.081339
  38 S :    0.201483
  39 C :   -0.077383
  40 C :   -0.087356
  41 S :    0.211589
  42 C :    0.200002
  43 F :   -0.160921
  44 C :   -0.145389
  45 S :    0.175819
  46 C :   -0.138628
  47 C :    0.199118
  48 F :   -0.160617
  49 C :   -0.084535
  50 C :   -0.078200
  51 S :    0.177913
  52 C :   -0.069133
  53 C :   -0.100639
  54 S :    0.219871
  55 C :    0.267619
  56 F :   -0.151286
  57 C :   -0.189149
  58 S :    0.190815
  59 C :    0.021431
  60 C :   -0.095014
  61 C :    0.309175
  62 C :   -0.342124
  63 C :   -0.181170
  64 N :    0.150604
  65 C :   -0.205940
  66 N :    0.156765
  67 C :    0.050005
  68 C :   -0.008748
  69 C :    0.146035
  70 O :   -0.143756
  71 C :   -0.079232
  72 C :    0.099570
  73 C :    0.096443
  74 C :   -0.086361
  75 C :   -0.018207
  76 C :    0.037317
  77 C :    0.034138
  78 C :   -0.016167
  79 H :   -0.012865
  80 H :   -0.005420
  81 H :   -0.011154
  82 H :   -0.004604
  83 H :   -0.005936
  84 H :   -0.017913
  85 H :    0.025620
  86 H :    0.034852
  87 H :   -0.014126
  88 H :   -0.008228
  89 H :   -0.010012
  90 H :   -0.004705
  91 H :   -0.004393
  92 H :   -0.018258
Sum of atomic charges:   -0.0000000

LOEWDIN ATOMIC CHARGES
----------------------
   0 C :    0.066006
   1 C :   -0.136099
   2 C :   -0.017926
   3 N :   -0.052164
   4 C :   -0.018835
   5 N :   -0.049407
   6 C :   -0.021253
   7 C :   -0.058536
   8 C :    0.033354
   9 C :   -0.010055
  10 C :   -0.004812
  11 C :    0.014969
  12 C :   -0.006630
  13 C :   -0.012944
  14 C :   -0.014115
  15 C :   -0.009101
  16 C :    0.084135
  17 O :   -0.142313
  18 C :   -0.086420
  19 C :    0.041640
  20 C :   -0.211253
  21 C :    0.062539
  22 F :   -0.031131
  23 C :   -0.213858
  24 C :   -0.190076
  25 S :    0.460707
  26 C :   -0.215091
  27 C :   -0.205214
  28 S :    0.446951
  29 C :    0.026656
  30 F :   -0.051539
  31 C :   -0.208066
  32 S :    0.461527
  33 C :   -0.215579
  34 C :    0.031424
  35 F :   -0.051132
  36 C :   -0.214794
  37 C :   -0.212425
  38 S :    0.458599
  39 C :   -0.209078
  40 C :   -0.215461
  41 S :    0.441439
  42 C :    0.039925
  43 F :   -0.041689
  44 C :   -0.221489
  45 S :    0.437235
  46 C :   -0.211066
  47 C :    0.034631
  48 F :   -0.041922
  49 C :   -0.205697
  50 C :   -0.215354
  51 S :    0.439461
  52 C :   -0.193943
  53 C :   -0.217388
  54 S :    0.448766
  55 C :    0.074365
  56 F :   -0.026160
  57 C :   -0.212174
  58 S :    0.452174
  59 C :    0.046272
  60 C :   -0.088680
  61 C :    0.074686
  62 C :   -0.138533
  63 C :   -0.017480
  64 N :   -0.053454
  65 C :   -0.023014
  66 N :   -0.051731
  67 C :   -0.026158
  68 C :   -0.053953
  69 C :    0.078432
  70 O :   -0.138508
  71 C :    0.031466
  72 C :   -0.007889
  73 C :   -0.006597
  74 C :    0.019622
  75 C :   -0.005134
  76 C :   -0.013957
  77 C :   -0.012456
  78 C :   -0.009817
  79 H :    0.039112
  80 H :    0.038751
  81 H :    0.034269
  82 H :    0.033040
  83 H :    0.032472
  84 H :    0.031669
  85 H :    0.047450
  86 H :    0.045943
  87 H :    0.038751
  88 H :    0.038883
  89 H :    0.034531
  90 H :    0.033222
  91 H :    0.032837
  92 H :    0.031634

  Mayer bond orders larger than 0.100000
B(  0-C ,  1-C ) :   1.6459 B(  0-C ,  6-C ) :   0.9976 B(  0-C , 18-C ) :   1.0420
B(  1-C ,  2-C ) :   1.1341 B(  1-C ,  4-C ) :   1.1694 B(  2-C ,  3-N ) :   2.9862
B(  4-C ,  5-N ) :   2.9999 B(  6-C ,  7-C ) :   1.2151 B(  6-C , 11-C ) :   1.4596
B(  7-C ,  8-C ) :   1.4731 B(  7-C , 16-C ) :   0.9222 B(  8-C ,  9-C ) :   1.1833
B(  8-C , 79-H ) :   1.0162 B(  9-C , 10-C ) :   1.2587 B(  9-C , 15-C ) :   1.2444
B( 10-C , 11-C ) :   1.2051 B( 10-C , 12-C ) :   1.2404 B( 11-C , 80-H ) :   0.9922
B( 12-C , 13-C ) :   1.4908 B( 12-C , 81-H ) :   0.9972 B( 13-C , 14-C ) :   1.2609
B( 13-C , 82-H ) :   0.9881 B( 14-C , 15-C ) :   1.4893 B( 14-C , 83-H ) :   0.9886
B( 15-C , 84-H ) :   0.9974 B( 16-C , 17-O ) :   2.2679 B( 16-C , 18-C ) :   0.9347
B( 18-C , 19-C ) :   1.6852 B( 19-C , 20-C ) :   1.1282 B( 19-C , 85-H ) :   0.9224
B( 20-C , 21-C ) :   1.4352 B( 20-C , 25-S ) :   1.0664 B( 21-C , 22-F ) :   1.1699
B( 21-C , 23-C ) :   1.2989 B( 23-C , 24-C ) :   1.4801 B( 23-C , 28-S ) :   1.0279
B( 24-C , 25-S ) :   1.0866 B( 24-C , 26-C ) :   1.3283 B( 26-C , 27-C ) :   1.4923
B( 26-C , 32-S ) :   1.0523 B( 27-C , 28-S ) :   1.0368 B( 27-C , 29-C ) :   1.2720
B( 29-C , 30-F ) :   1.1623 B( 29-C , 31-C ) :   1.4821 B( 31-C , 32-S ) :   1.0897
B( 31-C , 33-C ) :   1.1672 B( 33-C , 34-C ) :   1.4846 B( 33-C , 38-S ) :   1.0836
B( 34-C , 35-F ) :   1.1669 B( 34-C , 36-C ) :   1.2697 B( 36-C , 37-C ) :   1.4951
B( 36-C , 41-S ) :   1.0314 B( 37-C , 38-S ) :   1.0568 B( 37-C , 39-C ) :   1.3206
B( 39-C , 40-C ) :   1.5015 B( 39-C , 44-C ) :   0.1047 B( 39-C , 45-S ) :   1.0725
B( 40-C , 41-S ) :   1.0322 B( 40-C , 42-C ) :   1.2514 B( 42-C , 43-F ) :   1.2068
B( 42-C , 44-C ) :   1.5144 B( 44-C , 45-S ) :   1.0738 B( 44-C , 46-C ) :   1.0752
B( 46-C , 47-C ) :   1.5118 B( 46-C , 50-C ) :   0.1025 B( 46-C , 51-S ) :   1.0817
B( 47-C , 48-F ) :   1.2061 B( 47-C , 49-C ) :   1.2552 B( 49-C , 50-C ) :   1.4946
B( 49-C , 54-S ) :   1.0414 B( 50-C , 51-S ) :   1.0654 B( 50-C , 52-C ) :   1.3262
B( 52-C , 53-C ) :   1.4689 B( 52-C , 58-S ) :   1.0915 B( 53-C , 54-S ) :   1.0267
B( 53-C , 55-C ) :   1.2873 B( 55-C , 56-F ) :   1.1961 B( 55-C , 57-C ) :   1.4500
B( 57-C , 58-S ) :   1.0554 B( 57-C , 59-C ) :   1.1384 B( 59-C , 60-C ) :   1.6371
B( 59-C , 86-H ) :   0.9327 B( 60-C , 61-C ) :   1.0680 B( 60-C , 69-C ) :   0.9401
B( 61-C , 62-C ) :   1.6403 B( 61-C , 67-C ) :   0.9935 B( 62-C , 63-C ) :   1.1438
B( 62-C , 65-C ) :   1.1400 B( 63-C , 64-N ) :   2.9662 B( 65-C , 66-N ) :   2.9866
B( 67-C , 68-C ) :   1.2124 B( 67-C , 74-C ) :   1.4489 B( 68-C , 69-C ) :   0.9402
B( 68-C , 71-C ) :   1.4755 B( 69-C , 70-O ) :   2.2288 B( 71-C , 72-C ) :   1.1795
B( 71-C , 87-H ) :   1.0158 B( 72-C , 73-C ) :   1.2540 B( 72-C , 78-C ) :   1.2444
B( 73-C , 74-C ) :   1.2071 B( 73-C , 75-C ) :   1.2417 B( 74-C , 88-H ) :   0.9888
B( 75-C , 76-C ) :   1.4902 B( 75-C , 89-H ) :   0.9964 B( 76-C , 77-C ) :   1.2586
B( 76-C , 90-H ) :   0.9881 B( 77-C , 78-C ) :   1.4894 B( 77-C , 91-H ) :   0.9892
B( 78-C , 92-H ) :   0.9971

-----------------------------------------------------------------------------
         ABSORPTION SPECTRUM VIA TRANSITION ELECTRIC DIPOLE MOMENTS
-----------------------------------------------------------------------------
State   Energy  Wavelength   fosc         T2         TX        TY        TZ
        (cm-1)    (nm)                  (au**2)     (au)      (au)      (au)
-----------------------------------------------------------------------------
   0   18933.5    528.2   2.982386046  51.85725   2.48352  -5.54979   3.85865
   1   20735.1    482.3   0.387950809   6.15950   0.12983   1.88210   1.61255
   2   25403.2    393.7   0.285805487   3.70389   1.16158  -1.52882   0.13162
   3   26441.4    378.2   0.038163500   0.47516   0.59085  -0.18852   0.30086
   4   26807.2    373.0   0.123754200   1.51979  -0.44291   1.00239  -0.56467
   5   27063.8    369.5   0.101785619   1.23815  -0.84325   0.59713  -0.41293
   6   27875.5    358.7   0.034868965   0.41181  -0.47911  -0.31735  -0.28557
   7   28299.6    353.4   0.108713975   1.26468   0.22005  -0.62773  -0.90676
   8   28316.7    353.1   0.028105742   0.32676  -0.32355   0.15099  -0.44640
   9   28860.9    346.5   0.183259601   2.09041   0.68704  -1.23964   0.28581
  10   29382.9    340.3   0.060288788   0.67549  -0.47502   0.30570   0.59698
  11   29546.7    338.4   0.300842634   3.35202   0.63242  -1.41122   0.98006
  12   29819.6    335.3   0.102173043   1.12800  -0.14516  -1.04533   0.11925
  13   30283.3    330.2   0.141673149   1.54014  -0.06522   1.15845  -0.44031
  14   30711.7    325.6   0.037484409   0.40181   0.27234  -0.57233  -0.00941
  15   32451.0    308.2   0.097190682   0.98599  -0.16327   0.44992   0.87000
  16   32874.2    304.2   0.024141425   0.24176  -0.37343   0.28285   0.14935
  17   33364.2    299.7   0.028872287   0.28489  -0.22326  -0.48287   0.04339
  18   33593.6    297.7   0.126399633   1.23869  -0.10385  -0.69710  -0.86137
  19   34199.5    292.4   1.261226015  12.14085  -1.20800   3.25358  -0.30949
  20   34405.6    290.6   0.237454329   2.27209  -1.03060  -0.94555  -0.56206
  21   34638.9    288.7   0.024424776   0.23214  -0.28796   0.26972   0.27653
  22   34938.9    286.2   0.019831888   0.18687   0.30775  -0.11354   0.28154
  23   35053.7    285.3   0.036860182   0.34618  -0.33915   0.46624   0.11735
  24   35309.1    283.2   0.144705612   1.34919   0.75085  -0.87226   0.15678
  25   35760.6    279.6   0.086565028   0.79692   0.19961  -0.07846   0.86655
  26   36525.1    273.8   0.088126663   0.79431  -0.42449   0.29150   0.72742
  27   36700.0    272.5   0.002649526   0.02377  -0.14288  -0.01766   0.05514
  28   36946.9    270.7   0.081311478   0.72452  -0.28799   0.24493  -0.76262
  29   37652.8    265.6   0.013374851   0.11694  -0.13531   0.01443  -0.31373
  30   37864.5    264.1   0.001045410   0.00909  -0.03998  -0.08523  -0.01508
  31   38176.1    261.9   0.032755552   0.28247   0.33815  -0.40791  -0.04159
  32   38352.5    260.7   0.055191268   0.47375  -0.18727   0.61293  -0.25101
  33   38448.2    260.1   0.034854731   0.29844   0.23002  -0.49049   0.07037
  34   38527.5    259.6   0.011683273   0.09983   0.18535  -0.24214  -0.08273
  35   38865.1    257.3   0.076219895   0.64563   0.29400  -0.58277  -0.46858
  36   39195.7    255.1   0.092184047   0.77427   0.05196  -0.73945  -0.47411
  37   39304.8    254.4   0.143976516   1.20593   0.27807   0.55653   0.90492
  38   39543.4    252.9   0.005608275   0.04669  -0.07453  -0.14488   0.14194
  39   39633.0    252.3   0.031885861   0.26486  -0.35937   0.25611  -0.26481
  40   39735.9    251.7   0.085609749   0.70928   0.03945   0.14328   0.82897
  41   39852.5    250.9   0.067433680   0.55705   0.32613   0.07578   0.66705

FINAL SINGLE POINT ENERGY     -6765.765896243854

DIPOLE MOMENT
-------------
                                X             Y             Z
Electronic contribution:     -5.75243      16.49555      31.67075
Nuclear contribution   :      8.05203     -15.46857     -30.49562
                        -----------------------------------------
Total Dipole Moment    :      2.29960       1.02698       1.17513
                        -----------------------------------------
Magnitude (a.u.)       :      2.77917
Magnitude (Debye)      :      7.06409

Rotational constants in cm-1:     0.002131     0.000114     0.000110
Rotational constants in MHz :    63.897899     3.428900     3.289026

                             ****ORCA TERMINATED NORMALLY****
TOTAL RUN TIME: 0 days 0 hours 14 minutes 21 seconds 764 msec
