                         Program Version 4.2.0 -  RELEASE  -
|  1> # ORCA input file
|  2> # SCF done       -187.939276338611          0.000994537661
|  3> ! CAM-B3LYP def2-SVP def2/J RIJCOSX Grid4 TightSCF
|  4> %maxcore 5000
|  5> %tddft
|  6>     Mode sTDDFT
|  7>     Ethresh 5.0
|  8>     maxcore 5000
|  9> end
| 10>
| 11> %pal
| 12>   nprocs 6
| 13>   end
| 14> * xyz 0 1
| 15>    C        3.10379         4.51829        -2.29354
| 16>    C        2.79364         5.76715        -2.77529
| 17>    C        3.04896         6.19433        -4.09113
| 18>    N        3.19285         6.58561        -5.16180
| 19>    C        2.22997         6.78284        -1.98394
| 20>    N        1.76444         7.64008        -1.37674
| 21>    C        3.94818         3.53933        -2.97383
| 22>    C        4.39943         2.58962        -2.01199
| 23>    C        5.23776         1.56821        -2.35064
| 24>    C        5.65831         1.43828        -3.69450
| 25>    C        5.19931         2.37580        -4.66330
| 26>    C        4.34062         3.43315        -4.27945
| 27>    C        5.61805         2.22922        -6.00077
| 28>    C        6.45147         1.20711        -6.36643
| 29>    C        6.90453         0.28554        -5.41146
| 30>    C        6.51704         0.39962        -4.10371
| 31>    C        3.80282         2.90933        -0.70103
| 32>    O        3.99029         2.35185         0.35785
| 33>    C        2.86694         4.03752        -0.96049
| 34>    C        1.94529         4.34903         0.00273
| 35>    C        0.72315         5.03486        -0.07007
| 36>    C       -0.08392         5.38654        -1.15485
| 37>    O        0.20219         5.11815        -2.45163
| 38>    C       -0.61215         5.86142        -3.34566
| 39>    C       -2.09099         5.81673        -2.93977
| 40>    C       -2.64096         4.39287        -2.96514
| 41>    O       -2.24628         6.39886        -1.64937
| 42>    C       -1.28782         5.99904        -0.77685
| 43>    C       -1.43178         6.13882         0.59413
| 44>    S       -0.06922         5.48225         1.43079
| 45>    C       -2.54994         6.68841         1.25358
| 46>    C       -2.73686         6.78786         2.62055
| 47>    O       -1.81104         6.37214         3.52265
| 48>    C       -2.35468         6.22984         4.82242
| 49>    C       -3.27270         7.40796         5.18236
| 50>    C       -2.51102         8.73068         5.19717
| 51>    O       -4.36797         7.46158         4.27362
| 52>    C       -3.97917         7.34496         2.98082
| 53>    C       -4.75608         7.68162         1.88316
| 54>    S       -3.93628         7.28244         0.39400
| 55>    C       -6.05963         8.24628         1.85742
| 56>    C       -6.69620         9.01117         2.82180
| 57>    O       -6.12580         9.38110         3.99998
| 58>    C       -7.09566         9.71547         4.97374
| 59>    C       -8.13742        10.68350         4.39845
| 60>    C       -7.48781        11.99544         3.96556
| 61>    O       -8.81548        10.06422         3.30810
| 62>    C       -8.00664         9.39812         2.46732
| 63>    C       -8.40167         8.92821         1.21322
| 64>    S       -7.10235         7.99912         0.49395
| 65>    C       -9.64168         8.97197         0.55404
| 66>    C      -10.65492         9.87941         0.72889
| 67>    C      -12.02004         9.71791         0.28013
| 68>    C      -12.58193         8.58162        -0.24801
| 69>    C      -13.93053         8.47702        -0.64348
| 70>    N      -15.01519         8.32532        -0.99001
| 71>    C      -11.91315         7.35717        -0.44953
| 72>    N      -11.45399         6.31991        -0.63311
| 73>    C      -12.73582        10.95566         0.57436
| 74>    C      -11.82632        11.87184         1.17420
| 75>    C      -10.49025        11.25015         1.25437
| 76>    O       -9.45569        11.80556         1.56372
| 77>    C      -12.21425        13.11886         1.56734
| 78>    C      -13.56121        13.51066         1.39062
| 79>    C      -14.47735        12.59973         0.79203
| 80>    C      -14.04210        11.31800         0.38207
| 81>    C      -15.81812        12.99931         0.62059
| 82>    C      -16.23664        14.23869         1.02216
| 83>    C      -15.33321        15.13563         1.61062
| 84>    C      -14.02409        14.77908         1.79089
| 85>    H        5.57585         0.86438        -1.60453
| 86>    H        4.00538         4.12783        -5.03396
| 87>    H        5.26896         2.94342        -6.73227
| 88>    H        6.76630         1.10382        -7.39418
| 89>    H        7.56165        -0.51520        -5.71656
| 90>    H        6.86285        -0.30724        -3.36349
| 91>    H        2.16738         3.92515         0.97841
| 92>    H       -0.46055         5.41769        -4.32998
| 93>    H       -0.27340         6.90604        -3.35520
| 94>    H       -2.67089         6.46059        -3.60779
| 95>    H       -2.02544         3.73307        -2.35664
| 96>    H       -2.65301         4.01973        -3.98514
| 97>    H       -3.65433         4.38822        -2.57207
| 98>    H       -1.50339         6.17656         5.50151
| 99>    H       -2.92792         5.29459         4.87847
|100>    H       -3.73473         7.22336         6.15731
|101>    H       -1.94940         8.85893         4.27437
|102>    H       -1.81994         8.75223         6.03489
|103>    H       -3.21821         9.55073         5.29151
|104>    H       -6.55144        10.17797         5.79767
|105>    H       -7.59266         8.80252         5.32901
|106>    H       -8.92429        10.86896         5.13639
|107>    H       -6.57120        11.80001         3.41310
|108>    H       -7.25563        12.60053         4.83739
|109>    H       -8.17192        12.53321         3.31550
|110>    H       -9.78614         8.18227        -0.17361
|111>    H      -11.50543        13.79963         2.01551
|112>    H      -14.75834        10.65487        -0.07630
|113>    H      -16.50974        12.30443         0.16700
|114>    H      -17.26649        14.53458         0.88842
|115>    H      -15.67936        16.11055         1.92041
|116>    H      -13.32392        15.46650         2.24327
|117> *
|118>
|119>                          ****END OF INPUT****

CARTESIAN COORDINATES (ANGSTROEM)
---------------------------------
  C      3.103790    4.518290   -2.293540
  C      2.793640    5.767150   -2.775290
  C      3.048960    6.194330   -4.091130
  N      3.192850    6.585610   -5.161800
  C      2.229970    6.782840   -1.983940
  N      1.764440    7.640080   -1.376740
  C      3.948180    3.539330   -2.973830
  C      4.399430    2.589620   -2.011990
  C      5.237760    1.568210   -2.350640
  C      5.658310    1.438280   -3.694500
  C      5.199310    2.375800   -4.663300
  C      4.340620    3.433150   -4.279450
  C      5.618050    2.229220   -6.000770
  C      6.451470    1.207110   -6.366430
  C      6.904530    0.285540   -5.411460
  C      6.517040    0.399620   -4.103710
  C      3.802820    2.909330   -0.701030
  O      3.990290    2.351850    0.357850
  C      2.866940    4.037520   -0.960490
  C      1.945290    4.349030    0.002730
  C      0.723150    5.034860   -0.070070
  C     -0.083920    5.386540   -1.154850
  O      0.202190    5.118150   -2.451630
  C     -0.612150    5.861420   -3.345660
  C     -2.090990    5.816730   -2.939770
  C     -2.640960    4.392870   -2.965140
  O     -2.246280    6.398860   -1.649370
  C     -1.287820    5.999040   -0.776850
  C     -1.431780    6.138820    0.594130
  S     -0.069220    5.482250    1.430790
  C     -2.549940    6.688410    1.253580
  C     -2.736860    6.787860    2.620550
  O     -1.811040    6.372140    3.522650
  C     -2.354680    6.229840    4.822420
  C     -3.272700    7.407960    5.182360
  C     -2.511020    8.730680    5.197170
  O     -4.367970    7.461580    4.273620
  C     -3.979170    7.344960    2.980820
  C     -4.756080    7.681620    1.883160
  S     -3.936280    7.282440    0.394000
  C     -6.059630    8.246280    1.857420
  C     -6.696200    9.011170    2.821800
  O     -6.125800    9.381100    3.999980
  C     -7.095660    9.715470    4.973740
  C     -8.137420   10.683500    4.398450
  C     -7.487810   11.995440    3.965560
  O     -8.815480   10.064220    3.308100
  C     -8.006640    9.398120    2.467320
  C     -8.401670    8.928210    1.213220
  S     -7.102350    7.999120    0.493950
  C     -9.641680    8.971970    0.554040
  C    -10.654920    9.879410    0.728890
  C    -12.020040    9.717910    0.280130
  C    -12.581930    8.581620   -0.248010
  C    -13.930530    8.477020   -0.643480
  N    -15.015190    8.325320   -0.990010
  C    -11.913150    7.357170   -0.449530
  N    -11.453990    6.319910   -0.633110
  C    -12.735820   10.955660    0.574360
  C    -11.826320   11.871840    1.174200
  C    -10.490250   11.250150    1.254370
  O     -9.455690   11.805560    1.563720
  C    -12.214250   13.118860    1.567340
  C    -13.561210   13.510660    1.390620
  C    -14.477350   12.599730    0.792030
  C    -14.042100   11.318000    0.382070
  C    -15.818120   12.999310    0.620590
  C    -16.236640   14.238690    1.022160
  C    -15.333210   15.135630    1.610620
  C    -14.024090   14.779080    1.790890
  H      5.575850    0.864380   -1.604530
  H      4.005380    4.127830   -5.033960
  H      5.268960    2.943420   -6.732270
  H      6.766300    1.103820   -7.394180
  H      7.561650   -0.515200   -5.716560
  H      6.862850   -0.307240   -3.363490
  H      2.167380    3.925150    0.978410
  H     -0.460550    5.417690   -4.329980
  H     -0.273400    6.906040   -3.355200
  H     -2.670890    6.460590   -3.607790
  H     -2.025440    3.733070   -2.356640
  H     -2.653010    4.019730   -3.985140
  H     -3.654330    4.388220   -2.572070
  H     -1.503390    6.176560    5.501510
  H     -2.927920    5.294590    4.878470
  H     -3.734730    7.223360    6.157310
  H     -1.949400    8.858930    4.274370
  H     -1.819940    8.752230    6.034890
  H     -3.218210    9.550730    5.291510
  H     -6.551440   10.177970    5.797670
  H     -7.592660    8.802520    5.329010
  H     -8.924290   10.868960    5.136390
  H     -6.571200   11.800010    3.413100
  H     -7.255630   12.600530    4.837390
  H     -8.171920   12.533210    3.315500
  H     -9.786140    8.182270   -0.173610
  H    -11.505430   13.799630    2.015510
  H    -14.758340   10.654870   -0.076300
  H    -16.509740   12.304430    0.167000
  H    -17.266490   14.534580    0.888420
  H    -15.679360   16.110550    1.920410
  H    -13.323920   15.466500    2.243270

 Total Charge           Charge          ....    0
 Multiplicity           Mult            ....    1
 Number of Electrons    NEL             ....  502
 Basis Dimension        Dim             .... 1152

ORBITAL ENERGIES
----------------

  NO   OCC          E(Eh)            E(eV)
   0   2.0000     -88.965176     -2420.8655
   1   2.0000     -88.963430     -2420.8180
   2   2.0000     -88.963322     -2420.8151
   3   2.0000     -19.275723      -524.5191
   4   2.0000     -19.271009      -524.3908
   5   2.0000     -19.264845      -524.2231
   6   2.0000     -19.264426      -524.2117
   7   2.0000     -19.258345      -524.0462
   8   2.0000     -19.257783      -524.0309
   9   2.0000     -19.201288      -522.4936
  10   2.0000     -19.201169      -522.4904
  11   2.0000     -14.405536      -391.9946
  12   2.0000     -14.403754      -391.9461
  13   2.0000     -14.403345      -391.9349
  14   2.0000     -14.402277      -391.9059
  15   2.0000     -10.355700      -281.7929
  16   2.0000     -10.355227      -281.7801
  17   2.0000     -10.352023      -281.6929
  18   2.0000     -10.351577      -281.6807
  19   2.0000     -10.347309      -281.5646
  20   2.0000     -10.347019      -281.5567
  21   2.0000     -10.346807      -281.5509
  22   2.0000     -10.345442      -281.5138
  23   2.0000     -10.343683      -281.4659
  24   2.0000     -10.342532      -281.4346
  25   2.0000     -10.342310      -281.4286
  26   2.0000     -10.341746      -281.4132
  27   2.0000     -10.340788      -281.3872
  28   2.0000     -10.337614      -281.3008
  29   2.0000     -10.327720      -281.0316
  30   2.0000     -10.326762      -281.0055
  31   2.0000     -10.325830      -280.9801
  32   2.0000     -10.325720      -280.9771
  33   2.0000     -10.323215      -280.9090
  34   2.0000     -10.322706      -280.8951
  35   2.0000     -10.316210      -280.7183
  36   2.0000     -10.313415      -280.6423
  37   2.0000     -10.313181      -280.6359
  38   2.0000     -10.310624      -280.5663
  39   2.0000     -10.309220      -280.5281
  40   2.0000     -10.309004      -280.5223
  41   2.0000     -10.308558      -280.5101
  42   2.0000     -10.307340      -280.4770
  43   2.0000     -10.306072      -280.4425
  44   2.0000     -10.305589      -280.4293
  45   2.0000     -10.291548      -280.0473
  46   2.0000     -10.290860      -280.0285
  47   2.0000     -10.288794      -279.9723
  48   2.0000     -10.288100      -279.9534
  49   2.0000     -10.287541      -279.9382
  50   2.0000     -10.286989      -279.9232
  51   2.0000     -10.286445      -279.9084
  52   2.0000     -10.286230      -279.9025
  53   2.0000     -10.286119      -279.8995
  54   2.0000     -10.284411      -279.8531
  55   2.0000     -10.283018      -279.8152
  56   2.0000     -10.281835      -279.7830
  57   2.0000     -10.279323      -279.7146
  58   2.0000     -10.278633      -279.6958
  59   2.0000     -10.278060      -279.6802
  60   2.0000     -10.277696      -279.6703
  61   2.0000     -10.277652      -279.6691
  62   2.0000     -10.277565      -279.6667
  63   2.0000     -10.277381      -279.6617
  64   2.0000     -10.277143      -279.6553
  65   2.0000     -10.277023      -279.6520
  66   2.0000     -10.276476      -279.6371
  67   2.0000     -10.272915      -279.5402
  68   2.0000     -10.272616      -279.5321
  69   2.0000     -10.258663      -279.1524
  70   2.0000      -8.059645      -219.3141
  71   2.0000      -8.058976      -219.2959
  72   2.0000      -8.058206      -219.2749
  73   2.0000      -6.029248      -164.0642
  74   2.0000      -6.028476      -164.0432
  75   2.0000      -6.027764      -164.0238
  76   2.0000      -6.025236      -163.9550
  77   2.0000      -6.024624      -163.9384
  78   2.0000      -6.023824      -163.9166
  79   2.0000      -6.020963      -163.8387
  80   2.0000      -6.020250      -163.8193
  81   2.0000      -6.019503      -163.7990
  82   2.0000      -1.197534       -32.5866
  83   2.0000      -1.193902       -32.4877
  84   2.0000      -1.190904       -32.4062
  85   2.0000      -1.158533       -31.5253
  86   2.0000      -1.154991       -31.4289
  87   2.0000      -1.149820       -31.2882
  88   2.0000      -1.115884       -30.3648
  89   2.0000      -1.114679       -30.3320
  90   2.0000      -1.008907       -27.4538
  91   2.0000      -1.006378       -27.3849
  92   2.0000      -1.005399       -27.3583
  93   2.0000      -0.996162       -27.1070
  94   2.0000      -0.987451       -26.8699
  95   2.0000      -0.986910       -26.8552
  96   2.0000      -0.983920       -26.7738
  97   2.0000      -0.981745       -26.7146
  98   2.0000      -0.979045       -26.6412
  99   2.0000      -0.960921       -26.1480
 100   2.0000      -0.959783       -26.1170
 101   2.0000      -0.916296       -24.9337
 102   2.0000      -0.914178       -24.8761
 103   2.0000      -0.902848       -24.5677
 104   2.0000      -0.897901       -24.4331
 105   2.0000      -0.892592       -24.2887
 106   2.0000      -0.891076       -24.2474
 107   2.0000      -0.887622       -24.1534
 108   2.0000      -0.879387       -23.9293
 109   2.0000      -0.872956       -23.7543
 110   2.0000      -0.870853       -23.6971
 111   2.0000      -0.869113       -23.6498
 112   2.0000      -0.855495       -23.2792
 113   2.0000      -0.836785       -22.7701
 114   2.0000      -0.828563       -22.5463
 115   2.0000      -0.823244       -22.4016
 116   2.0000      -0.818884       -22.2830
 117   2.0000      -0.817836       -22.2544
 118   2.0000      -0.816071       -22.2064
 119   2.0000      -0.813136       -22.1266
 120   2.0000      -0.794048       -21.6072
 121   2.0000      -0.790758       -21.5176
 122   2.0000      -0.786932       -21.4135
 123   2.0000      -0.778306       -21.1788
 124   2.0000      -0.765302       -20.8249
 125   2.0000      -0.749823       -20.4037
 126   2.0000      -0.748227       -20.3603
 127   2.0000      -0.742533       -20.2053
 128   2.0000      -0.740669       -20.1546
 129   2.0000      -0.725219       -19.7342
 130   2.0000      -0.721696       -19.6383
 131   2.0000      -0.698388       -19.0041
 132   2.0000      -0.694599       -18.9010
 133   2.0000      -0.691939       -18.8286
 134   2.0000      -0.689998       -18.7758
 135   2.0000      -0.683863       -18.6089
 136   2.0000      -0.680085       -18.5061
 137   2.0000      -0.672600       -18.3024
 138   2.0000      -0.667506       -18.1638
 139   2.0000      -0.662083       -18.0162
 140   2.0000      -0.661449       -17.9989
 141   2.0000      -0.647980       -17.6324
 142   2.0000      -0.641200       -17.4479
 143   2.0000      -0.637189       -17.3388
 144   2.0000      -0.629948       -17.1418
 145   2.0000      -0.627768       -17.0824
 146   2.0000      -0.623297       -16.9608
 147   2.0000      -0.618748       -16.8370
 148   2.0000      -0.616075       -16.7642
 149   2.0000      -0.611343       -16.6355
 150   2.0000      -0.602509       -16.3951
 151   2.0000      -0.597367       -16.2552
 152   2.0000      -0.597045       -16.2464
 153   2.0000      -0.596051       -16.2194
 154   2.0000      -0.590896       -16.0791
 155   2.0000      -0.587461       -15.9856
 156   2.0000      -0.583606       -15.8807
 157   2.0000      -0.573473       -15.6050
 158   2.0000      -0.569179       -15.4882
 159   2.0000      -0.561587       -15.2816
 160   2.0000      -0.555594       -15.1185
 161   2.0000      -0.549318       -14.9477
 162   2.0000      -0.547923       -14.9097
 163   2.0000      -0.544011       -14.8033
 164   2.0000      -0.541556       -14.7365
 165   2.0000      -0.538558       -14.6549
 166   2.0000      -0.537836       -14.6352
 167   2.0000      -0.537066       -14.6143
 168   2.0000      -0.536615       -14.6020
 169   2.0000      -0.535176       -14.5629
 170   2.0000      -0.532484       -14.4896
 171   2.0000      -0.529417       -14.4062
 172   2.0000      -0.525360       -14.2958
 173   2.0000      -0.524203       -14.2643
 174   2.0000      -0.521906       -14.2018
 175   2.0000      -0.519380       -14.1330
 176   2.0000      -0.517294       -14.0763
 177   2.0000      -0.512169       -13.9368
 178   2.0000      -0.510017       -13.8783
 179   2.0000      -0.507924       -13.8213
 180   2.0000      -0.506356       -13.7786
 181   2.0000      -0.505665       -13.7598
 182   2.0000      -0.503682       -13.7059
 183   2.0000      -0.502830       -13.6827
 184   2.0000      -0.501311       -13.6414
 185   2.0000      -0.499605       -13.5949
 186   2.0000      -0.495621       -13.4865
 187   2.0000      -0.494524       -13.4567
 188   2.0000      -0.489680       -13.3249
 189   2.0000      -0.487393       -13.2626
 190   2.0000      -0.484018       -13.1708
 191   2.0000      -0.481969       -13.1150
 192   2.0000      -0.479974       -13.0608
 193   2.0000      -0.478077       -13.0091
 194   2.0000      -0.476288       -12.9605
 195   2.0000      -0.474062       -12.8999
 196   2.0000      -0.472196       -12.8491
 197   2.0000      -0.469250       -12.7689
 198   2.0000      -0.465986       -12.6801
 199   2.0000      -0.463017       -12.5993
 200   2.0000      -0.461405       -12.5555
 201   2.0000      -0.459666       -12.5081
 202   2.0000      -0.455120       -12.3844
 203   2.0000      -0.454182       -12.3589
 204   2.0000      -0.450465       -12.2578
 205   2.0000      -0.444529       -12.0962
 206   2.0000      -0.441842       -12.0231
 207   2.0000      -0.438123       -11.9219
 208   2.0000      -0.435499       -11.8505
 209   2.0000      -0.434840       -11.8326
 210   2.0000      -0.433493       -11.7959
 211   2.0000      -0.433014       -11.7829
 212   2.0000      -0.431269       -11.7354
 213   2.0000      -0.429737       -11.6937
 214   2.0000      -0.428063       -11.6482
 215   2.0000      -0.425229       -11.5711
 216   2.0000      -0.424111       -11.5406
 217   2.0000      -0.423209       -11.5161
 218   2.0000      -0.422208       -11.4889
 219   2.0000      -0.420402       -11.4397
 220   2.0000      -0.418717       -11.3939
 221   2.0000      -0.416311       -11.3284
 222   2.0000      -0.414961       -11.2917
 223   2.0000      -0.414056       -11.2670
 224   2.0000      -0.410757       -11.1773
 225   2.0000      -0.409259       -11.1365
 226   2.0000      -0.408631       -11.1194
 227   2.0000      -0.406249       -11.0546
 228   2.0000      -0.400426       -10.8961
 229   2.0000      -0.397377       -10.8132
 230   2.0000      -0.394085       -10.7236
 231   2.0000      -0.389928       -10.6105
 232   2.0000      -0.386782       -10.5249
 233   2.0000      -0.385850       -10.4995
 234   2.0000      -0.379509       -10.3270
 235   2.0000      -0.367345        -9.9960
 236   2.0000      -0.365116        -9.9353
 237   2.0000      -0.353417        -9.6170
 238   2.0000      -0.344621        -9.3776
 239   2.0000      -0.326041        -8.8720
 240   2.0000      -0.324895        -8.8408
 241   2.0000      -0.317391        -8.6367
 242   2.0000      -0.307273        -8.3613
 243   2.0000      -0.304332        -8.2813
 244   2.0000      -0.298929        -8.1343
 245   2.0000      -0.294822        -8.0225
 246   2.0000      -0.292540        -7.9604
 247   2.0000      -0.286942        -7.8081
 248   2.0000      -0.283241        -7.7074
 249   2.0000      -0.272140        -7.4053
 250   2.0000      -0.237128        -6.4526
 251   0.0000      -0.090826        -2.4715
 252   0.0000      -0.074146        -2.0176
 253   0.0000      -0.048197        -1.3115
 254   0.0000      -0.044320        -1.2060
 255   0.0000      -0.028035        -0.7629

MULLIKEN ATOMIC CHARGES
-----------------------
   0 C :    0.301646
   1 C :   -0.337965
   2 C :   -0.183797
   3 N :    0.138447
   4 C :   -0.215902
   5 N :    0.158816
   6 C :    0.042436
   7 C :    0.011683
   8 C :   -0.083993
   9 C :    0.093163
  10 C :    0.096168
  11 C :   -0.091842
  12 C :   -0.021646
  13 C :    0.036120
  14 C :    0.032615
  15 C :   -0.015861
  16 C :    0.134054
  17 O :   -0.152887
  18 C :   -0.144204
  19 C :    0.073928
  20 C :   -0.174515
  21 C :    0.193623
  22 O :   -0.293506
  23 C :    0.223583
  24 C :    0.033732
  25 C :    0.061411
  26 O :   -0.305808
  27 C :    0.123359
  28 C :   -0.102850
  29 S :    0.186435
  30 C :   -0.129742
  31 C :    0.124640
  32 O :   -0.312793
  33 C :    0.243200
  34 C :    0.013572
  35 C :    0.061175
  36 O :   -0.273858
  37 C :    0.182011
  38 C :   -0.161033
  39 S :    0.187475
  40 C :   -0.131904
  41 C :    0.147554
  42 O :   -0.293779
  43 C :    0.240058
  44 C :    0.021678
  45 C :    0.060786
  46 O :   -0.261720
  47 C :    0.199096
  48 C :   -0.167549
  49 S :    0.154573
  50 C :    0.023936
  51 C :   -0.100991
  52 C :    0.321268
  53 C :   -0.361308
  54 C :   -0.183743
  55 N :    0.140553
  56 C :   -0.205536
  57 N :    0.151216
  58 C :    0.047582
  59 C :    0.000943
  60 C :    0.152052
  61 O :   -0.157321
  62 C :   -0.092108
  63 C :    0.100467
  64 C :    0.094475
  65 C :   -0.089248
  66 C :   -0.019458
  67 C :    0.033887
  68 C :    0.037035
  69 C :   -0.020903
  70 H :   -0.016414
  71 H :   -0.012987
  72 H :   -0.014657
  73 H :   -0.009276
  74 H :   -0.009274
  75 H :   -0.020397
  76 H :    0.015820
  77 H :    0.037644
  78 H :    0.049370
  79 H :    0.030522
  80 H :    0.029909
  81 H :    0.023187
  82 H :    0.035684
  83 H :    0.031508
  84 H :    0.032170
  85 H :    0.020385
  86 H :    0.034733
  87 H :    0.021329
  88 H :    0.033440
  89 H :    0.022071
  90 H :    0.026606
  91 H :    0.021975
  92 H :    0.022504
  93 H :    0.011392
  94 H :    0.051086
  95 H :    0.023824
  96 H :   -0.023164
  97 H :   -0.010580
  98 H :   -0.010892
  99 H :   -0.008338
 100 H :   -0.009802
 101 H :   -0.022058
Sum of atomic charges:   -0.0000000

LOEWDIN ATOMIC CHARGES
----------------------
   0 C :    0.067080
   1 C :   -0.146622
   2 C :   -0.020431
   3 N :   -0.068869
   4 C :   -0.018064
   5 N :   -0.065709
   6 C :   -0.018944
   7 C :   -0.056462
   8 C :    0.029033
   9 C :   -0.011919
  10 C :   -0.006229
  11 C :    0.007523
  12 C :   -0.009371
  13 C :   -0.016343
  14 C :   -0.017972
  15 C :   -0.010546
  16 C :    0.082338
  17 O :   -0.153076
  18 C :   -0.102331
  19 C :    0.044150
  20 C :   -0.206305
  21 C :    0.019023
  22 O :   -0.066298
  23 C :    0.082961
  24 C :    0.058035
  25 C :   -0.058367
  26 O :   -0.098526
  27 C :   -0.019667
  28 C :   -0.180605
  29 S :    0.472075
  30 C :   -0.207892
  31 C :   -0.013030
  32 O :   -0.099209
  33 C :    0.082150
  34 C :    0.052905
  35 C :   -0.058851
  36 O :   -0.083334
  37 C :   -0.000744
  38 C :   -0.222206
  39 S :    0.463509
  40 C :   -0.180029
  41 C :   -0.020226
  42 O :   -0.090950
  43 C :    0.078744
  44 C :    0.057607
  45 C :   -0.062015
  46 O :   -0.058580
  47 C :    0.034487
  48 C :   -0.208291
  49 S :    0.441615
  50 C :    0.052578
  51 C :   -0.105691
  52 C :    0.076770
  53 C :   -0.150716
  54 C :   -0.017419
  55 N :   -0.064310
  56 C :   -0.024156
  57 N :   -0.061038
  58 C :   -0.025249
  59 C :   -0.050322
  60 C :    0.078961
  61 O :   -0.148761
  62 C :    0.022171
  63 C :   -0.009222
  64 C :   -0.008743
  65 C :    0.016905
  66 C :   -0.006018
  67 C :   -0.017778
  68 C :   -0.015543
  69 C :   -0.013023
  70 H :    0.037543
  71 H :    0.036475
  72 H :    0.032645
  73 H :    0.031320
  74 H :    0.030970
  75 H :    0.030592
  76 H :    0.044093
  77 H :    0.036094
  78 H :    0.028700
  79 H :    0.035861
  80 H :    0.031902
  81 H :    0.034182
  82 H :    0.035599
  83 H :    0.033615
  84 H :    0.023391
  85 H :    0.031340
  86 H :    0.033989
  87 H :    0.032315
  88 H :    0.035120
  89 H :    0.030192
  90 H :    0.020603
  91 H :    0.031506
  92 H :    0.029782
  93 H :    0.027921
  94 H :    0.036330
  95 H :    0.043908
  96 H :    0.034730
  97 H :    0.038227
  98 H :    0.033992
  99 H :    0.031662
 100 H :    0.030934
 101 H :    0.029851

  Mayer bond orders larger than 0.100000
B(  0-C ,  1-C ) :   1.6060 B(  0-C ,  6-C ) :   0.9928 B(  0-C , 18-C ) :   1.0870
B(  1-C ,  2-C ) :   1.1456 B(  1-C ,  4-C ) :   1.1827 B(  2-C ,  3-N ) :   2.9737
B(  4-C ,  5-N ) :   2.9680 B(  6-C ,  7-C ) :   1.2142 B(  6-C , 11-C ) :   1.4673
B(  7-C ,  8-C ) :   1.4817 B(  7-C , 16-C ) :   0.9187 B(  8-C ,  9-C ) :   1.1780
B(  8-C , 70-H ) :   1.0149 B(  9-C , 10-C ) :   1.2623 B(  9-C , 15-C ) :   1.2467
B( 10-C , 11-C ) :   1.1957 B( 10-C , 12-C ) :   1.2446 B( 11-C , 71-H ) :   0.9924
B( 12-C , 13-C ) :   1.4872 B( 12-C , 72-H ) :   0.9964 B( 13-C , 14-C ) :   1.2634
B( 13-C , 73-H ) :   0.9882 B( 14-C , 15-C ) :   1.4867 B( 14-C , 74-H ) :   0.9887
B( 15-C , 75-H ) :   0.9967 B( 16-C , 17-O ) :   2.2576 B( 16-C , 18-C ) :   0.9495
B( 18-C , 19-C ) :   1.5809 B( 19-C , 20-C ) :   1.2183 B( 19-C , 76-H ) :   0.9216
B( 20-C , 21-C ) :   1.3959 B( 20-C , 28-C ) :   0.1053 B( 20-C , 29-S ) :   1.0610
B( 21-C , 22-O ) :   1.1606 B( 21-C , 27-C ) :   1.2330 B( 22-O , 23-C ) :   0.9226
B( 23-C , 24-C ) :   1.0448 B( 23-C , 77-H ) :   0.9523 B( 23-C , 78-H ) :   0.9378
B( 24-C , 25-C ) :   1.0661 B( 24-C , 26-O ) :   0.9275 B( 24-C , 79-H ) :   0.9336
B( 25-C , 80-H ) :   0.9581 B( 25-C , 81-H ) :   0.9617 B( 25-C , 82-H ) :   0.9598
B( 26-O , 27-C ) :   1.1383 B( 27-C , 28-C ) :   1.4554 B( 28-C , 29-S ) :   1.1289
B( 28-C , 30-C ) :   1.2051 B( 30-C , 31-C ) :   1.4759 B( 30-C , 38-C ) :   0.1294
B( 30-C , 39-S ) :   1.1066 B( 31-C , 32-O ) :   1.1349 B( 31-C , 37-C ) :   1.1999
B( 32-O , 33-C ) :   0.9450 B( 33-C , 34-C ) :   1.0346 B( 33-C , 83-H ) :   0.9530
B( 33-C , 84-H ) :   0.9465 B( 34-C , 35-C ) :   1.0595 B( 34-C , 36-O ) :   0.9451
B( 34-C , 85-H ) :   0.9350 B( 35-C , 86-H ) :   0.9583 B( 35-C , 87-H ) :   0.9615
B( 35-C , 88-H ) :   0.9583 B( 36-O , 37-C ) :   1.1747 B( 37-C , 38-C ) :   1.5066
B( 38-C , 39-S ) :   1.0828 B( 38-C , 40-C ) :   1.0999 B( 40-C , 41-C ) :   1.4978
B( 40-C , 48-C ) :   0.1144 B( 40-C , 49-S ) :   1.1374 B( 41-C , 42-O ) :   1.1504
B( 41-C , 47-C ) :   1.2079 B( 42-O , 43-C ) :   0.9541 B( 43-C , 44-C ) :   1.0385
B( 43-C , 89-H ) :   0.9521 B( 43-C , 90-H ) :   0.9420 B( 44-C , 45-C ) :   1.0642
B( 44-C , 46-O ) :   0.9227 B( 44-C , 91-H ) :   0.9360 B( 45-C , 92-H ) :   0.9559
B( 45-C , 93-H ) :   0.9599 B( 45-C , 94-H ) :   0.9454 B( 46-O , 47-C ) :   1.1991
B( 47-C , 48-C ) :   1.4063 B( 48-C , 49-S ) :   1.0603 B( 48-C , 50-C ) :   1.2399
B( 50-C , 51-C ) :   1.5315 B( 50-C , 95-H ) :   0.9248 B( 51-C , 52-C ) :   1.1025
B( 51-C , 60-C ) :   0.9770 B( 52-C , 53-C ) :   1.6082 B( 52-C , 58-C ) :   0.9790
B( 53-C , 54-C ) :   1.1526 B( 53-C , 56-C ) :   1.1456 B( 54-C , 55-N ) :   2.9602
B( 56-C , 57-N ) :   2.9816 B( 58-C , 59-C ) :   1.2189 B( 58-C , 65-C ) :   1.4564
B( 59-C , 60-C ) :   0.9295 B( 59-C , 62-C ) :   1.4766 B( 60-C , 61-O ) :   2.1767
B( 62-C , 63-C ) :   1.1763 B( 62-C , 96-H ) :   1.0149 B( 63-C , 64-C ) :   1.2613
B( 63-C , 69-C ) :   1.2453 B( 64-C , 65-C ) :   1.2005 B( 64-C , 66-C ) :   1.2434
B( 65-C , 97-H ) :   0.9884 B( 66-C , 67-C ) :   1.4871 B( 66-C , 98-H ) :   0.9962
B( 67-C , 68-C ) :   1.2623 B( 67-C , 99-H ) :   0.9885 B( 68-C , 69-C ) :   1.4883
B( 68-C ,100-H ) :   0.9879 B( 69-C ,101-H ) :   0.9963

-----------------------------------------------------------------------------
         ABSORPTION SPECTRUM VIA TRANSITION ELECTRIC DIPOLE MOMENTS
-----------------------------------------------------------------------------
State   Energy  Wavelength   fosc         T2         TX        TY        TZ
        (cm-1)    (nm)                  (au**2)     (au)      (au)      (au)
-----------------------------------------------------------------------------
   0   16542.5    604.5   2.001949435  39.84066   5.85912  -2.09507  -1.05929
   1   21088.7    474.2   0.280475873   4.37845   0.03969   0.14032   2.08739
   2   25401.7    393.7   0.121864368   1.57939  -0.24900  -0.34361  -1.18293
   3   26142.2    382.5   0.030525534   0.38441   0.23467  -0.54839  -0.16914
   4   26751.1    373.8   0.075839783   0.93332  -0.22067   0.87977   0.33261
   5   26982.5    370.6   0.014595310   0.17808   0.33157  -0.23570   0.11220
   6   27516.6    363.4   0.228158661   2.72971  -1.06831   1.25779  -0.07997
   7   27685.7    361.2   0.150307110   1.78731  -1.06996   0.80151  -0.00844
   8   28410.3    352.0   0.053941024   0.62506   0.05005   0.76197   0.20484
   9   28710.5    348.3   0.071742829   0.82265   0.22370  -0.11777   0.87105
  10   29475.6    339.3   0.004633361   0.05175  -0.18993  -0.00620   0.12505
  11   29795.9    335.6   0.042006561   0.46413  -0.19344  -0.65186   0.04224
  12   30334.5    329.7   0.061277495   0.66503   0.36399  -0.65598  -0.31973
  13   30526.1    327.6   0.022674227   0.24453  -0.47218   0.14478  -0.02483
  14   30868.9    324.0   0.019905002   0.21228   0.43996  -0.03466  -0.13235
  15   32227.7    310.3   0.154666480   1.57995  -1.01041   0.31461   0.67826
  16   33243.5    300.8   0.048120204   0.47654   0.05013  -0.68792  -0.02809
  17   33550.4    298.1   0.149349356   1.46548   0.53371  -0.93342  -0.55621
  18   33790.7    295.9   0.001018748   0.00993  -0.02466   0.06517  -0.07120
  19   34041.3    293.8   0.640382642   6.19312   1.07751  -2.17502  -0.54900
  20   34206.7    292.3   0.116841925   1.12451   0.38532  -0.97769  -0.14200
  21   34470.5    290.1   0.089729730   0.85697  -0.73471   0.56290   0.01760
  22   34776.9    287.5   0.196315723   1.85840   0.65156  -0.93089  -0.75320
  23   35190.1    284.2   0.039272631   0.36741   0.42415  -0.43020   0.04931
  24   35383.5    282.6   0.283839953   2.64088  -0.67896   1.33455   0.63157
  25   36036.0    277.5   0.027464884   0.25091   0.23811   0.08622   0.43218
  26   36496.2    274.0   0.011860122   0.10698  -0.18912   0.00787  -0.26675
  27   36974.8    270.5   0.009758339   0.08689  -0.06891   0.22672   0.17531
  28   37289.6    268.2   0.084527822   0.74626  -0.44965   0.68664   0.26944
  29   38048.2    262.8   0.006401678   0.05539   0.12354   0.20002   0.01107
  30   38190.4    261.8   0.082708696   0.71297   0.28940  -0.76589  -0.20648
  31   39035.9    256.2   0.033355588   0.28131  -0.39288   0.02007  -0.35573
  32   39209.0    255.0   0.093108579   0.78177  -0.38392   0.69033  -0.39726
  33   39656.8    252.2   0.222045286   1.84332   0.39982   1.25893   0.31395
  34   39871.2    250.8   0.059438956   0.49078   0.39820  -0.17220   0.55006

FINAL SINGLE POINT ENERGY     -4126.384503731536

DIPOLE MOMENT
-------------
                                X             Y             Z
Electronic contribution:      1.44635     -10.79271     -11.44667
Nuclear contribution   :     -1.01830      11.34911      13.84152
                        -----------------------------------------
Total Dipole Moment    :      0.42805       0.55641       2.39485
                        -----------------------------------------
Magnitude (a.u.)       :      2.49562
Magnitude (Debye)      :      6.34337

Rotational constants in cm-1:     0.002426     0.000299     0.000281
Rotational constants in MHz :    72.730346     8.965030     8.430110

                             ****ORCA TERMINATED NORMALLY****
TOTAL RUN TIME: 0 days 0 hours 10 minutes 31 seconds 851 msec
