                         Program Version 4.2.0 -  RELEASE  -
|  1> # ORCA input file
|  2> # SCF done       -211.725640171840          0.000642522575
|  3> ! CAM-B3LYP def2-SVP def2/J RIJCOSX Grid4 TightSCF
|  4> %maxcore 5000
|  5> %tddft
|  6>     Mode sTDDFT
|  7>     Ethresh 5.0
|  8>     maxcore 5000
|  9> end
| 10>
| 11> %pal
| 12>   nprocs 6
| 13>   end
| 14> * xyz 0 1
| 15>    C        1.61440         1.28144        -3.31675
| 16>    C        1.86213         2.32618        -4.17008
| 17>    C        2.06782         2.17456        -5.55760
| 18>    N        2.24923         2.10807        -6.68867
| 19>    C        2.04305         3.65975        -3.75816
| 20>    N        2.22363         4.75711        -3.47131
| 21>    C        1.67132        -0.12845        -3.69171
| 22>    C        1.86381        -0.90596        -2.51232
| 23>    C        1.99845        -2.26350        -2.56129
| 24>    C        1.93556        -2.91707        -3.81260
| 25>    C        1.72185        -2.14759        -4.99287
| 26>    C        1.59016        -0.74195        -4.91246
| 27>    C        1.65387        -2.81259        -6.23383
| 28>    C        1.79483        -4.17167        -6.30832
| 29>    C        2.00664        -4.92824        -5.14612
| 30>    C        2.07525        -4.31438        -3.92486
| 31>    C        1.86830        -0.01579        -1.34037
| 32>    O        2.05499        -0.30214        -0.17982
| 33>    C        1.53162         1.33829        -1.87266
| 34>    C        1.16149         2.30530        -0.98847
| 35>    C        0.46992         3.51343        -1.22354
| 36>    C       -0.32738         3.87398        -2.30103
| 37>    C       -0.85303         5.15093        -2.15911
| 38>    C       -0.45807         5.77996        -0.95963
| 39>    S        0.52978         4.78128        -0.00279
| 40>    C       -1.00408         7.08741        -0.93037
| 41>    C       -1.74346         7.28049        -2.11403
| 42>    C       -1.66916         6.07681        -2.92424
| 43>    C       -2.21730         5.87010        -4.15701
| 44>    C       -2.98373         6.86594        -4.79593
| 45>    N       -3.61028         7.68871        -5.29199
| 46>    C       -2.04370         4.65330        -4.84834
| 47>    N       -1.89865         3.65482        -5.39326
| 48>    C       -2.30675         8.54890        -2.19446
| 49>    C       -1.99962         9.32392        -1.08673
| 50>    S       -0.99416         8.46701         0.07520
| 51>    C       -2.34040        10.66768        -0.79688
| 52>    C       -3.09904        11.65033        -1.37571
| 53>    C       -2.97565        12.86399        -0.58860
| 54>    N       -2.16125        12.60663         0.48457
| 55>    C       -1.75579        11.28798         0.42269
| 56>    O       -1.04739        10.74208         1.24221
| 57>    C       -1.81335        13.45770         1.59082
| 58>    C       -3.73166        13.85204        -1.15383
| 59>    C       -4.38770        13.21744        -2.34462
| 60>    O       -5.15457        13.71365        -3.13310
| 61>    N       -3.94531        11.90173        -2.41933
| 62>    C       -4.41001        11.01294        -3.45221
| 63>    C       -3.93262        15.22675        -0.86193
| 64>    C       -4.95199        16.02531        -1.35569
| 65>    C       -4.84873        17.34252        -0.91476
| 66>    C       -3.72679        17.55842        -0.09334
| 67>    S       -2.81442        16.13739         0.14752
| 68>    C       -3.69883        18.91655         0.29680
| 69>    C       -4.81548        19.56794        -0.27098
| 70>    C       -5.56616        18.60202        -1.05897
| 71>    C       -6.69742        18.82994        -1.78286
| 72>    C       -7.28192        20.11089        -1.89999
| 73>    N       -7.76004        21.14396        -2.03171
| 74>    C       -7.37309        17.80520        -2.48200
| 75>    N       -7.94853        16.98752        -3.04206
| 76>    C       -4.90347        20.90729         0.08672
| 77>    C       -3.86206        21.29624         0.91854
| 78>    S       -2.74080        19.96528         1.23040
| 79>    C       -3.53558        22.54353         1.49206
| 80>    C       -4.34141        23.62381         1.71513
| 81>    C       -3.87988        24.90184         2.22846
| 82>    C       -2.58618        25.35582         2.23327
| 83>    C       -2.19650        26.62000         2.72294
| 84>    N       -1.81372        27.62951         3.11308
| 85>    C       -1.47656        24.65153         1.72093
| 86>    N       -0.53080        24.14709         1.30803
| 87>    C       -5.04777        25.66007         2.65651
| 88>    C       -6.21412        24.90806         2.33876
| 89>    C       -5.82864        23.63362         1.71078
| 90>    O       -6.58141        22.75797         1.34158
| 91>    C       -7.46879        25.36740         2.61815
| 92>    C       -7.61673        26.62512         3.24432
| 93>    C       -6.45428        27.38054         3.57429
| 94>    C       -5.16785        26.87906         3.26981
| 95>    C       -6.61413        28.63013         4.20691
| 96>    C       -7.86100        29.11274         4.49851
| 97>    C       -9.00463        28.36901         4.17140
| 98>    C       -8.88515        27.15190         3.55699
| 99>    H        2.15214        -2.83272        -1.65657
|100>    H        1.41649        -0.18513        -5.81989
|101>    H        1.49390        -2.22535        -7.12602
|102>    H        1.74455        -4.67150        -7.26402
|103>    H        2.11501        -5.99976        -5.22309
|104>    H        2.23799        -4.89170        -3.02647
|105>    H        1.38328         2.07673         0.05008
|106>    H       -0.53798         3.21258        -3.12183
|107>    H       -2.89915         8.90102        -3.01551
|108>    H       -2.70842        13.87403         2.05328
|109>    H       -1.15601        14.26819         1.27241
|110>    H       -1.28618        12.83532         2.31407
|111>    H       -5.15185        11.56315        -4.03135
|112>    H       -4.87731        10.12761        -3.02026
|113>    H       -3.59521        10.71973        -4.11580
|114>    H       -5.71641        15.63823        -2.00455
|115>    H       -5.67656        21.58012        -0.23307
|116>    H       -2.50739        22.61673         1.82827
|117>    H       -8.33691        24.77789         2.36328
|118>    H       -4.30732        27.47118         3.53816
|119>    H       -5.73080        29.19998         4.45531
|120>    H       -7.97284        30.07114         4.98292
|121>    H       -9.98063        28.76496         4.40895
|122>    H       -9.76178        26.57436         3.30261
|123> *
|124>
|125>                          ****END OF INPUT****

CARTESIAN COORDINATES (ANGSTROEM)
---------------------------------
  C      1.614400    1.281440   -3.316750
  C      1.862130    2.326180   -4.170080
  C      2.067820    2.174560   -5.557600
  N      2.249230    2.108070   -6.688670
  C      2.043050    3.659750   -3.758160
  N      2.223630    4.757110   -3.471310
  C      1.671320   -0.128450   -3.691710
  C      1.863810   -0.905960   -2.512320
  C      1.998450   -2.263500   -2.561290
  C      1.935560   -2.917070   -3.812600
  C      1.721850   -2.147590   -4.992870
  C      1.590160   -0.741950   -4.912460
  C      1.653870   -2.812590   -6.233830
  C      1.794830   -4.171670   -6.308320
  C      2.006640   -4.928240   -5.146120
  C      2.075250   -4.314380   -3.924860
  C      1.868300   -0.015790   -1.340370
  O      2.054990   -0.302140   -0.179820
  C      1.531620    1.338290   -1.872660
  C      1.161490    2.305300   -0.988470
  C      0.469920    3.513430   -1.223540
  C     -0.327380    3.873980   -2.301030
  C     -0.853030    5.150930   -2.159110
  C     -0.458070    5.779960   -0.959630
  S      0.529780    4.781280   -0.002790
  C     -1.004080    7.087410   -0.930370
  C     -1.743460    7.280490   -2.114030
  C     -1.669160    6.076810   -2.924240
  C     -2.217300    5.870100   -4.157010
  C     -2.983730    6.865940   -4.795930
  N     -3.610280    7.688710   -5.291990
  C     -2.043700    4.653300   -4.848340
  N     -1.898650    3.654820   -5.393260
  C     -2.306750    8.548900   -2.194460
  C     -1.999620    9.323920   -1.086730
  S     -0.994160    8.467010    0.075200
  C     -2.340400   10.667680   -0.796880
  C     -3.099040   11.650330   -1.375710
  C     -2.975650   12.863990   -0.588600
  N     -2.161250   12.606630    0.484570
  C     -1.755790   11.287980    0.422690
  O     -1.047390   10.742080    1.242210
  C     -1.813350   13.457700    1.590820
  C     -3.731660   13.852040   -1.153830
  C     -4.387700   13.217440   -2.344620
  O     -5.154570   13.713650   -3.133100
  N     -3.945310   11.901730   -2.419330
  C     -4.410010   11.012940   -3.452210
  C     -3.932620   15.226750   -0.861930
  C     -4.951990   16.025310   -1.355690
  C     -4.848730   17.342520   -0.914760
  C     -3.726790   17.558420   -0.093340
  S     -2.814420   16.137390    0.147520
  C     -3.698830   18.916550    0.296800
  C     -4.815480   19.567940   -0.270980
  C     -5.566160   18.602020   -1.058970
  C     -6.697420   18.829940   -1.782860
  C     -7.281920   20.110890   -1.899990
  N     -7.760040   21.143960   -2.031710
  C     -7.373090   17.805200   -2.482000
  N     -7.948530   16.987520   -3.042060
  C     -4.903470   20.907290    0.086720
  C     -3.862060   21.296240    0.918540
  S     -2.740800   19.965280    1.230400
  C     -3.535580   22.543530    1.492060
  C     -4.341410   23.623810    1.715130
  C     -3.879880   24.901840    2.228460
  C     -2.586180   25.355820    2.233270
  C     -2.196500   26.620000    2.722940
  N     -1.813720   27.629510    3.113080
  C     -1.476560   24.651530    1.720930
  N     -0.530800   24.147090    1.308030
  C     -5.047770   25.660070    2.656510
  C     -6.214120   24.908060    2.338760
  C     -5.828640   23.633620    1.710780
  O     -6.581410   22.757970    1.341580
  C     -7.468790   25.367400    2.618150
  C     -7.616730   26.625120    3.244320
  C     -6.454280   27.380540    3.574290
  C     -5.167850   26.879060    3.269810
  C     -6.614130   28.630130    4.206910
  C     -7.861000   29.112740    4.498510
  C     -9.004630   28.369010    4.171400
  C     -8.885150   27.151900    3.556990
  H      2.152140   -2.832720   -1.656570
  H      1.416490   -0.185130   -5.819890
  H      1.493900   -2.225350   -7.126020
  H      1.744550   -4.671500   -7.264020
  H      2.115010   -5.999760   -5.223090
  H      2.237990   -4.891700   -3.026470
  H      1.383280    2.076730    0.050080
  H     -0.537980    3.212580   -3.121830
  H     -2.899150    8.901020   -3.015510
  H     -2.708420   13.874030    2.053280
  H     -1.156010   14.268190    1.272410
  H     -1.286180   12.835320    2.314070
  H     -5.151850   11.563150   -4.031350
  H     -4.877310   10.127610   -3.020260
  H     -3.595210   10.719730   -4.115800
  H     -5.716410   15.638230   -2.004550
  H     -5.676560   21.580120   -0.233070
  H     -2.507390   22.616730    1.828270
  H     -8.336910   24.777890    2.363280
  H     -4.307320   27.471180    3.538160
  H     -5.730800   29.199980    4.455310
  H     -7.972840   30.071140    4.982920
  H     -9.980630   28.764960    4.408950
  H     -9.761780   26.574360    3.302610

 Total Charge           Charge          ....    0
 Multiplicity           Mult            ....    1
 Number of Electrons    NEL             ....  586
 Basis Dimension        Dim             .... 1312

ORBITAL ENERGIES
----------------

  NO   OCC          E(Eh)            E(eV)
   0   2.0000     -89.002291     -2421.8755
   1   2.0000     -88.999439     -2421.7978
   2   2.0000     -88.995676     -2421.6955
   3   2.0000     -88.990286     -2421.5488
   4   2.0000     -19.235180      -523.4159
   5   2.0000     -19.228249      -523.2273
   6   2.0000     -19.218300      -522.9565
   7   2.0000     -19.213361      -522.8221
   8   2.0000     -14.487757      -394.2319
   9   2.0000     -14.482207      -394.0809
  10   2.0000     -14.436034      -392.8244
  11   2.0000     -14.432956      -392.7407
  12   2.0000     -14.432307      -392.7230
  13   2.0000     -14.431943      -392.7131
  14   2.0000     -14.417044      -392.3077
  15   2.0000     -14.416657      -392.2972
  16   2.0000     -14.414772      -392.2459
  17   2.0000     -14.411929      -392.1685
  18   2.0000     -10.411860      -283.3211
  19   2.0000     -10.408889      -283.2403
  20   2.0000     -10.371291      -282.2172
  21   2.0000     -10.370289      -282.1899
  22   2.0000     -10.367085      -282.1027
  23   2.0000     -10.364512      -282.0327
  24   2.0000     -10.362645      -281.9819
  25   2.0000     -10.362137      -281.9681
  26   2.0000     -10.356917      -281.8260
  27   2.0000     -10.355642      -281.7913
  28   2.0000     -10.348993      -281.6104
  29   2.0000     -10.342766      -281.4410
  30   2.0000     -10.342513      -281.4341
  31   2.0000     -10.342138      -281.4239
  32   2.0000     -10.341928      -281.4182
  33   2.0000     -10.341797      -281.4146
  34   2.0000     -10.341506      -281.4067
  35   2.0000     -10.341187      -281.3980
  36   2.0000     -10.337008      -281.2843
  37   2.0000     -10.335287      -281.2375
  38   2.0000     -10.333405      -281.1862
  39   2.0000     -10.331492      -281.1342
  40   2.0000     -10.331112      -281.1239
  41   2.0000     -10.331087      -281.1232
  42   2.0000     -10.331050      -281.1222
  43   2.0000     -10.329757      -281.0870
  44   2.0000     -10.328836      -281.0619
  45   2.0000     -10.327210      -281.0177
  46   2.0000     -10.325247      -280.9643
  47   2.0000     -10.324144      -280.9343
  48   2.0000     -10.321441      -280.8607
  49   2.0000     -10.321180      -280.8536
  50   2.0000     -10.320112      -280.8245
  51   2.0000     -10.318102      -280.7698
  52   2.0000     -10.317697      -280.7588
  53   2.0000     -10.315542      -280.7002
  54   2.0000     -10.314522      -280.6724
  55   2.0000     -10.312725      -280.6235
  56   2.0000     -10.311961      -280.6027
  57   2.0000     -10.311315      -280.5851
  58   2.0000     -10.307653      -280.4855
  59   2.0000     -10.307118      -280.4709
  60   2.0000     -10.306743      -280.4607
  61   2.0000     -10.306304      -280.4488
  62   2.0000     -10.303236      -280.3653
  63   2.0000     -10.303211      -280.3646
  64   2.0000     -10.301718      -280.3240
  65   2.0000     -10.298972      -280.2493
  66   2.0000     -10.298089      -280.2252
  67   2.0000     -10.297841      -280.2185
  68   2.0000     -10.297301      -280.2038
  69   2.0000     -10.296793      -280.1900
  70   2.0000     -10.296080      -280.1706
  71   2.0000     -10.295884      -280.1653
  72   2.0000     -10.295578      -280.1569
  73   2.0000     -10.294708      -280.1332
  74   2.0000     -10.289025      -279.9786
  75   2.0000     -10.287783      -279.9448
  76   2.0000     -10.286959      -279.9224
  77   2.0000     -10.286339      -279.9055
  78   2.0000     -10.286125      -279.8997
  79   2.0000     -10.285649      -279.8867
  80   2.0000     -10.285006      -279.8692
  81   2.0000     -10.284524      -279.8561
  82   2.0000     -10.284133      -279.8455
  83   2.0000     -10.283478      -279.8277
  84   2.0000      -8.096556      -220.3185
  85   2.0000      -8.094209      -220.2546
  86   2.0000      -8.090275      -220.1476
  87   2.0000      -8.083262      -219.9567
  88   2.0000      -6.065917      -165.0620
  89   2.0000      -6.063340      -164.9919
  90   2.0000      -6.061631      -164.9454
  91   2.0000      -6.059398      -164.8846
  92   2.0000      -6.059219      -164.8797
  93   2.0000      -6.058848      -164.8696
  94   2.0000      -6.056727      -164.8119
  95   2.0000      -6.055248      -164.7717
  96   2.0000      -6.052889      -164.7075
  97   2.0000      -6.052721      -164.7029
  98   2.0000      -6.047978      -164.5738
  99   2.0000      -6.045801      -164.5146
 100   2.0000      -1.176919       -32.0256
 101   2.0000      -1.167379       -31.7660
 102   2.0000      -1.134009       -30.8580
 103   2.0000      -1.128675       -30.7128
 104   2.0000      -1.107951       -30.1489
 105   2.0000      -1.075363       -29.2621
 106   2.0000      -1.053887       -28.6777
 107   2.0000      -1.048831       -28.5402
 108   2.0000      -1.026099       -27.9216
 109   2.0000      -1.024915       -27.8893
 110   2.0000      -1.019405       -27.7394
 111   2.0000      -1.017896       -27.6984
 112   2.0000      -1.012230       -27.5442
 113   2.0000      -1.009917       -27.4812
 114   2.0000      -1.007627       -27.4189
 115   2.0000      -1.002593       -27.2819
 116   2.0000      -0.999281       -27.1918
 117   2.0000      -0.997592       -27.1459
 118   2.0000      -0.994326       -27.0570
 119   2.0000      -0.991545       -26.9813
 120   2.0000      -0.973695       -26.4956
 121   2.0000      -0.971234       -26.4286
 122   2.0000      -0.967313       -26.3219
 123   2.0000      -0.964923       -26.2569
 124   2.0000      -0.945136       -25.7184
 125   2.0000      -0.937049       -25.4984
 126   2.0000      -0.927996       -25.2520
 127   2.0000      -0.924985       -25.1701
 128   2.0000      -0.918235       -24.9864
 129   2.0000      -0.913127       -24.8474
 130   2.0000      -0.898977       -24.4624
 131   2.0000      -0.895991       -24.3811
 132   2.0000      -0.882255       -24.0074
 133   2.0000      -0.879947       -23.9446
 134   2.0000      -0.879563       -23.9341
 135   2.0000      -0.876852       -23.8604
 136   2.0000      -0.871077       -23.7032
 137   2.0000      -0.865054       -23.5393
 138   2.0000      -0.864314       -23.5192
 139   2.0000      -0.859615       -23.3913
 140   2.0000      -0.837401       -22.7868
 141   2.0000      -0.835677       -22.7399
 142   2.0000      -0.828688       -22.5498
 143   2.0000      -0.826784       -22.4979
 144   2.0000      -0.815654       -22.1951
 145   2.0000      -0.808573       -22.0024
 146   2.0000      -0.793693       -21.5975
 147   2.0000      -0.786673       -21.4065
 148   2.0000      -0.783659       -21.3244
 149   2.0000      -0.777455       -21.1556
 150   2.0000      -0.765140       -20.8205
 151   2.0000      -0.762553       -20.7501
 152   2.0000      -0.757973       -20.6255
 153   2.0000      -0.741693       -20.1825
 154   2.0000      -0.731899       -19.9160
 155   2.0000      -0.721240       -19.6259
 156   2.0000      -0.714002       -19.4290
 157   2.0000      -0.706633       -19.2284
 158   2.0000      -0.705213       -19.1898
 159   2.0000      -0.704453       -19.1691
 160   2.0000      -0.700457       -19.0604
 161   2.0000      -0.699743       -19.0410
 162   2.0000      -0.692525       -18.8446
 163   2.0000      -0.688577       -18.7371
 164   2.0000      -0.687010       -18.6945
 165   2.0000      -0.682523       -18.5724
 166   2.0000      -0.676210       -18.4006
 167   2.0000      -0.673205       -18.3189
 168   2.0000      -0.660209       -17.9652
 169   2.0000      -0.655281       -17.8311
 170   2.0000      -0.649259       -17.6672
 171   2.0000      -0.642094       -17.4723
 172   2.0000      -0.636345       -17.3158
 173   2.0000      -0.635275       -17.2867
 174   2.0000      -0.633259       -17.2318
 175   2.0000      -0.628274       -17.0962
 176   2.0000      -0.623874       -16.9765
 177   2.0000      -0.623467       -16.9654
 178   2.0000      -0.617381       -16.7998
 179   2.0000      -0.611747       -16.6465
 180   2.0000      -0.609110       -16.5747
 181   2.0000      -0.607251       -16.5241
 182   2.0000      -0.605882       -16.4869
 183   2.0000      -0.602596       -16.3975
 184   2.0000      -0.597854       -16.2684
 185   2.0000      -0.594533       -16.1781
 186   2.0000      -0.589086       -16.0298
 187   2.0000      -0.576297       -15.6818
 188   2.0000      -0.573084       -15.5944
 189   2.0000      -0.571057       -15.5393
 190   2.0000      -0.562542       -15.3075
 191   2.0000      -0.560083       -15.2406
 192   2.0000      -0.556125       -15.1329
 193   2.0000      -0.552491       -15.0340
 194   2.0000      -0.550819       -14.9885
 195   2.0000      -0.549894       -14.9634
 196   2.0000      -0.547224       -14.8907
 197   2.0000      -0.545079       -14.8324
 198   2.0000      -0.543784       -14.7971
 199   2.0000      -0.539027       -14.6677
 200   2.0000      -0.538323       -14.6485
 201   2.0000      -0.536215       -14.5911
 202   2.0000      -0.534134       -14.5345
 203   2.0000      -0.532384       -14.4869
 204   2.0000      -0.529960       -14.4209
 205   2.0000      -0.525254       -14.2929
 206   2.0000      -0.522687       -14.2230
 207   2.0000      -0.520979       -14.1766
 208   2.0000      -0.518714       -14.1149
 209   2.0000      -0.518196       -14.1008
 210   2.0000      -0.516716       -14.0605
 211   2.0000      -0.513634       -13.9767
 212   2.0000      -0.511574       -13.9206
 213   2.0000      -0.509746       -13.8709
 214   2.0000      -0.509559       -13.8658
 215   2.0000      -0.508645       -13.8409
 216   2.0000      -0.507831       -13.8188
 217   2.0000      -0.506136       -13.7727
 218   2.0000      -0.503507       -13.7011
 219   2.0000      -0.502531       -13.6746
 220   2.0000      -0.499585       -13.5944
 221   2.0000      -0.497016       -13.5245
 222   2.0000      -0.496438       -13.5088
 223   2.0000      -0.493660       -13.4332
 224   2.0000      -0.491876       -13.3846
 225   2.0000      -0.488639       -13.2966
 226   2.0000      -0.488020       -13.2797
 227   2.0000      -0.485840       -13.2204
 228   2.0000      -0.483846       -13.1661
 229   2.0000      -0.481884       -13.1127
 230   2.0000      -0.478981       -13.0337
 231   2.0000      -0.476240       -12.9592
 232   2.0000      -0.470248       -12.7961
 233   2.0000      -0.466877       -12.7044
 234   2.0000      -0.465762       -12.6740
 235   2.0000      -0.463465       -12.6115
 236   2.0000      -0.462260       -12.5787
 237   2.0000      -0.462135       -12.5753
 238   2.0000      -0.460769       -12.5382
 239   2.0000      -0.458954       -12.4888
 240   2.0000      -0.457675       -12.4540
 241   2.0000      -0.454140       -12.3578
 242   2.0000      -0.450067       -12.2469
 243   2.0000      -0.449847       -12.2410
 244   2.0000      -0.449040       -12.2190
 245   2.0000      -0.447657       -12.1814
 246   2.0000      -0.445187       -12.1141
 247   2.0000      -0.445033       -12.1100
 248   2.0000      -0.443685       -12.0733
 249   2.0000      -0.442399       -12.0383
 250   2.0000      -0.441945       -12.0259
 251   2.0000      -0.441137       -12.0039
 252   2.0000      -0.440152       -11.9771
 253   2.0000      -0.438547       -11.9335
 254   2.0000      -0.437680       -11.9099
 255   2.0000      -0.434537       -11.8244
 256   2.0000      -0.433466       -11.7952
 257   2.0000      -0.432678       -11.7738
 258   2.0000      -0.431248       -11.7349
 259   2.0000      -0.430756       -11.7215
 260   2.0000      -0.428796       -11.6681
 261   2.0000      -0.427628       -11.6363
 262   2.0000      -0.426339       -11.6013
 263   2.0000      -0.424816       -11.5598
 264   2.0000      -0.420574       -11.4444
 265   2.0000      -0.418152       -11.3785
 266   2.0000      -0.411216       -11.1897
 267   2.0000      -0.409706       -11.1487
 268   2.0000      -0.407765       -11.0959
 269   2.0000      -0.405442       -11.0326
 270   2.0000      -0.401744       -10.9320
 271   2.0000      -0.389496       -10.5987
 272   2.0000      -0.383748       -10.4423
 273   2.0000      -0.380536       -10.3549
 274   2.0000      -0.376940       -10.2571
 275   2.0000      -0.373389       -10.1604
 276   2.0000      -0.365438        -9.9441
 277   2.0000      -0.360663        -9.8141
 278   2.0000      -0.358470        -9.7545
 279   2.0000      -0.355385        -9.6705
 280   2.0000      -0.349254        -9.5037
 281   2.0000      -0.341262        -9.2862
 282   2.0000      -0.335611        -9.1324
 283   2.0000      -0.328122        -8.9287
 284   2.0000      -0.326034        -8.8718
 285   2.0000      -0.320350        -8.7172
 286   2.0000      -0.316981        -8.6255
 287   2.0000      -0.313079        -8.5193
 288   2.0000      -0.309537        -8.4229
 289   2.0000      -0.294549        -8.0151
 290   2.0000      -0.293050        -7.9743
 291   2.0000      -0.268417        -7.3040
 292   2.0000      -0.257268        -7.0006
 293   0.0000      -0.121605        -3.3090
 294   0.0000      -0.110976        -3.0198
 295   0.0000      -0.093012        -2.5310
 296   0.0000      -0.089855        -2.4451
 297   0.0000      -0.083164        -2.2630

MULLIKEN ATOMIC CHARGES
-----------------------
   0 C :    0.274913
   1 C :   -0.337063
   2 C :   -0.170716
   3 N :    0.156332
   4 C :   -0.199735
   5 N :    0.165983
   6 C :    0.028586
   7 C :    0.015738
   8 C :   -0.079883
   9 C :    0.093509
  10 C :    0.090559
  11 C :   -0.073922
  12 C :   -0.015872
  13 C :    0.036653
  14 C :    0.032817
  15 C :   -0.013994
  16 C :    0.133094
  17 O :   -0.145822
  18 C :   -0.135576
  19 C :    0.075566
  20 C :   -0.111740
  21 C :   -0.001208
  22 C :   -0.003935
  23 C :   -0.075327
  24 S :    0.216930
  25 C :   -0.082367
  26 C :    0.014135
  27 C :    0.305862
  28 C :   -0.287986
  29 C :   -0.180855
  30 N :    0.157730
  31 C :   -0.186149
  32 N :    0.172470
  33 C :   -0.056578
  34 C :   -0.089120
  35 S :    0.227754
  36 C :   -0.069894
  37 C :    0.140886
  38 C :    0.130150
  39 N :   -0.235215
  40 C :    0.153184
  41 O :   -0.198069
  42 C :    0.113632
  43 C :   -0.097453
  44 C :    0.163938
  45 O :   -0.159503
  46 N :   -0.239740
  47 C :    0.117772
  48 C :   -0.117023
  49 C :   -0.050614
  50 C :    0.046054
  51 C :   -0.093413
  52 S :    0.157193
  53 C :   -0.079271
  54 C :   -0.017830
  55 C :    0.304241
  56 C :   -0.294010
  57 C :   -0.188743
  58 N :    0.187424
  59 C :   -0.195927
  60 N :    0.193561
  61 C :    0.032300
  62 C :   -0.111005
  63 S :    0.203488
  64 C :    0.026591
  65 C :   -0.098014
  66 C :    0.303991
  67 C :   -0.348706
  68 C :   -0.181730
  69 N :    0.150293
  70 C :   -0.207507
  71 N :    0.159654
  72 C :    0.051170
  73 C :   -0.009506
  74 C :    0.156730
  75 O :   -0.151752
  76 C :   -0.077020
  77 C :    0.096603
  78 C :    0.096824
  79 C :   -0.082690
  80 C :   -0.019171
  81 C :    0.038465
  82 C :    0.035631
  83 C :   -0.015183
  84 H :   -0.012627
  85 H :   -0.001494
  86 H :   -0.008910
  87 H :   -0.005213
  88 H :   -0.004199
  89 H :   -0.018372
  90 H :    0.022411
  91 H :    0.024148
  92 H :   -0.042416
  93 H :    0.043025
  94 H :    0.050677
  95 H :    0.064915
  96 H :    0.064619
  97 H :    0.050178
  98 H :    0.066131
  99 H :    0.035007
 100 H :    0.033724
 101 H :    0.022312
 102 H :   -0.010813
 103 H :   -0.008450
 104 H :   -0.009689
 105 H :   -0.004798
 106 H :   -0.005055
 107 H :   -0.016676
Sum of atomic charges:   -0.0000000

LOEWDIN ATOMIC CHARGES
----------------------
   0 C :    0.066678
   1 C :   -0.138605
   2 C :   -0.018191
   3 N :   -0.048655
   4 C :   -0.015414
   5 N :   -0.049334
   6 C :   -0.022816
   7 C :   -0.057771
   8 C :    0.032460
   9 C :   -0.009254
  10 C :   -0.005214
  11 C :    0.018701
  12 C :   -0.005332
  13 C :   -0.012761
  14 C :   -0.013416
  15 C :   -0.009524
  16 C :    0.082918
  17 O :   -0.146038
  18 C :   -0.091905
  19 C :    0.042050
  20 C :   -0.181998
  21 C :    0.010002
  22 C :   -0.068165
  23 C :   -0.155606
  24 S :    0.502644
  25 C :   -0.192064
  26 C :   -0.061955
  27 C :    0.085860
  28 C :   -0.104427
  29 C :   -0.010597
  30 N :   -0.042324
  31 C :   -0.015173
  32 N :   -0.032157
  33 C :   -0.032143
  34 C :   -0.156658
  35 S :    0.527310
  36 C :   -0.119743
  37 C :    0.052417
  38 C :    0.044424
  39 N :   -0.017781
  40 C :    0.093485
  41 O :   -0.178628
  42 C :    0.026580
  43 C :   -0.114681
  44 C :    0.104542
  45 O :   -0.148157
  46 N :   -0.016818
  47 C :    0.036204
  48 C :   -0.157169
  49 C :   -0.013951
  50 C :   -0.054324
  51 C :   -0.187998
  52 S :    0.482960
  53 C :   -0.162587
  54 C :   -0.071909
  55 C :    0.073596
  56 C :   -0.087639
  57 C :   -0.018976
  58 N :   -0.017520
  59 C :   -0.020392
  60 N :   -0.018074
  61 C :    0.023815
  62 C :   -0.176264
  63 S :    0.490566
  64 C :    0.041990
  65 C :   -0.092813
  66 C :    0.075776
  67 C :   -0.142175
  68 C :   -0.017757
  69 N :   -0.053703
  70 C :   -0.025383
  71 N :   -0.054315
  72 C :   -0.026293
  73 C :   -0.055414
  74 C :    0.084615
  75 O :   -0.139044
  76 C :    0.033833
  77 C :   -0.008139
  78 C :   -0.006153
  79 C :    0.019547
  80 C :   -0.005509
  81 C :   -0.012955
  82 C :   -0.011857
  83 C :   -0.008847
  84 H :    0.039047
  85 H :    0.040128
  86 H :    0.035009
  87 H :    0.033069
  88 H :    0.032802
  89 H :    0.031524
  90 H :    0.045650
  91 H :    0.043045
  92 H :    0.034200
  93 H :    0.026652
  94 H :    0.020851
  95 H :    0.044703
  96 H :    0.046953
  97 H :    0.032170
  98 H :    0.033751
  99 H :    0.046248
 100 H :    0.045805
 101 H :    0.043794
 102 H :    0.039970
 103 H :    0.038965
 104 H :    0.034664
 105 H :    0.033296
 106 H :    0.032873
 107 H :    0.032323

  Mayer bond orders larger than 0.100000
B(  0-C ,  1-C ) :   1.6443 B(  0-C ,  6-C ) :   0.9979 B(  0-C , 18-C ) :   1.0380
B(  1-C ,  2-C ) :   1.1291 B(  1-C ,  4-C ) :   1.1738 B(  2-C ,  3-N ) :   2.9903
B(  4-C ,  5-N ) :   2.9940 B(  6-C ,  7-C ) :   1.2133 B(  6-C , 11-C ) :   1.4597
B(  7-C ,  8-C ) :   1.4758 B(  7-C , 16-C ) :   0.9232 B(  8-C ,  9-C ) :   1.1840
B(  8-C , 84-H ) :   1.0159 B(  9-C , 10-C ) :   1.2565 B(  9-C , 15-C ) :   1.2453
B( 10-C , 11-C ) :   1.2064 B( 10-C , 12-C ) :   1.2412 B( 11-C , 85-H ) :   0.9930
B( 12-C , 13-C ) :   1.4895 B( 12-C , 86-H ) :   0.9979 B( 13-C , 14-C ) :   1.2601
B( 13-C , 87-H ) :   0.9892 B( 14-C , 15-C ) :   1.4888 B( 14-C , 88-H ) :   0.9891
B( 15-C , 89-H ) :   0.9974 B( 16-C , 17-O ) :   2.2648 B( 16-C , 18-C ) :   0.9404
B( 18-C , 19-C ) :   1.6674 B( 19-C , 20-C ) :   1.1336 B( 19-C , 90-H ) :   0.9269
B( 20-C , 21-C ) :   1.3943 B( 20-C , 24-S ) :   1.0884 B( 21-C , 22-C ) :   1.3596
B( 21-C , 91-H ) :   0.9812 B( 22-C , 23-C ) :   1.4086 B( 22-C , 27-C ) :   0.9944
B( 23-C , 24-S ) :   1.1599 B( 23-C , 25-C ) :   1.1931 B( 25-C , 26-C ) :   1.4205
B( 25-C , 35-S ) :   1.0826 B( 26-C , 27-C ) :   0.9940 B( 26-C , 33-C ) :   1.3143
B( 27-C , 28-C ) :   1.7139 B( 28-C , 29-C ) :   1.1340 B( 28-C , 31-C ) :   1.1305
B( 29-C , 30-N ) :   2.9886 B( 31-C , 32-N ) :   2.9863 B( 33-C , 34-C ) :   1.4520
B( 33-C , 92-H ) :   0.9874 B( 34-C , 35-S ) :   1.1218 B( 34-C , 36-C ) :   1.1421
B( 36-C , 37-C ) :   1.5332 B( 36-C , 40-C ) :   0.9331 B( 37-C , 38-C ) :   1.0740
B( 37-C , 46-N ) :   1.1600 B( 38-C , 39-N ) :   1.1341 B( 38-C , 43-C ) :   1.5505
B( 39-N , 40-C ) :   1.0765 B( 39-N , 42-C ) :   0.9492 B( 40-C , 41-O ) :   2.0730
B( 42-C , 93-H ) :   0.9744 B( 42-C , 94-H ) :   0.9681 B( 42-C , 95-H ) :   0.9529
B( 43-C , 44-C ) :   0.9203 B( 43-C , 48-C ) :   1.1416 B( 44-C , 45-O ) :   2.1354
B( 44-C , 46-N ) :   1.0526 B( 46-N , 47-C ) :   0.9405 B( 47-C , 96-H ) :   0.9474
B( 47-C , 97-H ) :   0.9709 B( 47-C , 98-H ) :   0.9661 B( 48-C , 49-C ) :   1.4558
B( 48-C , 52-S ) :   1.0967 B( 49-C , 50-C ) :   1.2535 B( 49-C , 99-H ) :   0.9939
B( 50-C , 51-C ) :   1.4303 B( 50-C , 55-C ) :   0.9872 B( 51-C , 52-S ) :   1.1128
B( 51-C , 53-C ) :   1.1984 B( 53-C , 54-C ) :   1.3858 B( 53-C , 63-S ) :   1.1601
B( 54-C , 55-C ) :   0.9937 B( 54-C , 61-C ) :   1.3343 B( 55-C , 56-C ) :   1.7231
B( 56-C , 57-C ) :   1.1365 B( 56-C , 59-C ) :   1.1364 B( 57-C , 58-N ) :   2.9918
B( 59-C , 60-N ) :   2.9964 B( 61-C , 62-C ) :   1.4109 B( 61-C ,100-H ) :   0.9749
B( 62-C , 63-S ) :   1.0743 B( 62-C , 64-C ) :   1.1905 B( 64-C , 65-C ) :   1.6045
B( 64-C ,101-H ) :   0.9262 B( 65-C , 66-C ) :   1.0703 B( 65-C , 74-C ) :   0.9393
B( 66-C , 67-C ) :   1.6346 B( 66-C , 72-C ) :   0.9897 B( 67-C , 68-C ) :   1.1462
B( 67-C , 70-C ) :   1.1404 B( 68-C , 69-N ) :   2.9682 B( 70-C , 71-N ) :   2.9937
B( 72-C , 73-C ) :   1.2140 B( 72-C , 79-C ) :   1.4486 B( 73-C , 74-C ) :   0.9470
B( 73-C , 76-C ) :   1.4724 B( 74-C , 75-O ) :   2.1976 B( 76-C , 77-C ) :   1.1767
B( 76-C ,102-H ) :   1.0165 B( 77-C , 78-C ) :   1.2586 B( 77-C , 83-C ) :   1.2438
B( 78-C , 79-C ) :   1.2040 B( 78-C , 80-C ) :   1.2395 B( 79-C ,103-H ) :   0.9907
B( 80-C , 81-C ) :   1.4877 B( 80-C ,104-H ) :   0.9976 B( 81-C , 82-C ) :   1.2611
B( 81-C ,105-H ) :   0.9882 B( 82-C , 83-C ) :   1.4878 B( 82-C ,106-H ) :   0.9889
B( 83-C ,107-H ) :   0.9980

-----------------------------------------------------------------------------
         ABSORPTION SPECTRUM VIA TRANSITION ELECTRIC DIPOLE MOMENTS
-----------------------------------------------------------------------------
State   Energy  Wavelength   fosc         T2         TX        TY        TZ
        (cm-1)    (nm)                  (au**2)     (au)      (au)      (au)
-----------------------------------------------------------------------------
   0   13166.3    759.5   0.551367767  13.78652   1.20070  -3.47207  -0.53813
   1   14171.1    705.7   0.324874466   7.54721  -0.23158   2.66349   0.63198
   2   17829.1    560.9   0.646703523  11.94129   1.37711  -3.13239  -0.48270
   3   19518.2    512.3   1.192916421  20.12086  -1.14828   4.22585   0.97187
   4   20723.1    482.6   0.083219117   1.32204  -0.80360  -0.81833   0.08117
   5   22612.3    442.2   0.270824131   3.94292   0.43801   1.73302   0.86470
   6   23399.2    427.4   0.041531055   0.58432   0.37065  -0.39978   0.53583
   7   24558.3    407.2   0.060601853   0.81239  -0.72300   0.53718   0.03318
   8   24827.1    402.8   0.035549710   0.47140   0.10345  -0.66396   0.14091
   9   25519.2    391.9   0.067890211   0.87582  -0.39860   0.79907  -0.28004
  10   25911.4    385.9   0.009085299   0.11543   0.00567   0.06390   0.33364
  11   26379.8    379.1   0.035640508   0.44478  -0.33122   0.18172  -0.54959
  12   27545.5    363.0   0.018617703   0.22251   0.33042   0.17464   0.28781
  13   27970.1    357.5   0.015843352   0.18648  -0.13466   0.30871   0.27027
  14   28354.3    352.7   0.015753830   0.18291   0.19153  -0.36713  -0.10696
  15   28753.2    347.8   0.007818702   0.08952   0.06645  -0.28299  -0.07087
  16   29104.9    343.6   0.032455144   0.36711  -0.34482  -0.46763  -0.17184
  17   29195.6    342.5   0.115858111   1.30643  -0.38246   0.89078  -0.60552
  18   29485.7    339.1   0.043745638   0.48843   0.61668  -0.31124  -0.10609
  19   29896.9    334.5   0.239392607   2.63609   0.52643   0.28388   1.50943
  20   30055.5    332.7   0.158047776   1.73117   0.13257  -1.26155  -0.34940
  21   30314.4    329.9   0.130261624   1.41463   0.89180   0.75690   0.21546
  22   30484.2    328.0   0.411801915   4.44722   1.48708  -1.40094  -0.52268
  23   30816.6    324.5   0.175766894   1.87771   0.88826  -0.42694   0.95206
  24   31299.6    319.5   0.128899705   1.35578   0.54060  -1.02339   0.12726
  25   31738.9    315.1   0.300228286   3.11412   0.52141  -1.64827  -0.35419
  26   31790.5    314.6   0.113195322   1.17221  -0.49164   0.90226  -0.34123
  27   32074.1    311.8   0.004666750   0.04790   0.17938  -0.04242   0.11800
  28   32281.2    309.8   0.233884084   2.38521  -0.73494   1.18078   0.67144
  29   32504.1    307.7   0.210681318   2.13385   0.91256   0.71013   0.89263
  30   32610.1    306.7   0.058835955   0.59397  -0.24330   0.73062   0.03127
  31   32725.5    305.6   0.033371044   0.33571  -0.48912   0.30837   0.03707
  32   33214.8    301.1   0.069065035   0.68455   0.01350   0.82626   0.04082
  33   33340.8    299.9   0.113210471   1.11786  -0.45663  -0.71307  -0.63314
  34   33755.8    296.2   0.064618723   0.63021   0.43354  -0.54693  -0.37831
  35   33917.9    294.8   0.135286696   1.31311  -0.28487   0.65993  -0.89244
  36   33970.9    294.4   0.169900448   1.64651  -0.25979   1.06825   0.66172
  37   34109.0    293.2   0.139642630   1.34780  -1.08105   0.25804  -0.33548
  38   34512.6    289.7   0.350139170   3.33994   1.63928   0.62523   0.51164
  39   34624.6    288.8   0.450054972   4.27914  -1.00164   1.79429  -0.23745
  40   34897.3    286.6   0.195459271   1.84391  -0.63665   0.51001   1.08558
  41   35270.0    283.5   0.171279214   1.59873  -0.44480   0.68382  -0.96606
  42   35674.1    280.3   0.099953638   0.92241   0.71195  -0.59981  -0.23615
  43   35847.5    279.0   0.069791739   0.64094  -0.45384  -0.23399  -0.61662
  44   36346.6    275.1   0.016577369   0.15015   0.26119   0.26807  -0.10033
  45   36397.1    274.7   0.077356266   0.69969  -0.01462  -0.83499   0.04751
  46   36476.5    274.1   0.058428746   0.52734  -0.43813   0.52017   0.25458
  47   36902.9    271.0   0.056516649   0.50419  -0.09599   0.70139   0.05499
  48   37068.3    269.8   0.014396107   0.12786  -0.29338  -0.10922   0.17278
  49   37376.0    267.6   0.008074112   0.07112  -0.23365   0.06833   0.10889
  50   37661.4    265.5   0.053566234   0.46824  -0.61279   0.26154  -0.15598
  51   37729.9    265.0   0.081626177   0.71223   0.81520  -0.06712   0.20779
  52   37821.2    264.4   0.006071162   0.05285   0.00152   0.22662  -0.03856
  53   38140.4    262.2   0.013698917   0.11824   0.26297   0.22092   0.01694
  54   38407.2    260.4   0.069404745   0.59491   0.73305  -0.23697  -0.03734
  55   38522.6    259.6   0.028029174   0.23954  -0.12122  -0.46083  -0.11171
  56   38736.2    258.2   0.131182886   1.11490  -0.48876  -0.86996  -0.34524
  57   38799.6    257.7   0.093821687   0.79607   0.57201   0.60578   0.31922
  58   39017.7    256.3   0.068923018   0.58154  -0.23582  -0.67497   0.26522
  59   39079.1    255.9   0.024816456   0.20906   0.33590   0.08756   0.29760
  60   39351.2    254.1   0.134832036   1.12801  -0.44717  -0.87107  -0.41144
  61   39583.2    252.6   0.021144773   0.17586  -0.07954   0.39682  -0.10986
  62   39664.0    252.1   0.002677420   0.02222   0.02582   0.13642   0.05426
  63   39732.4    251.7   0.060015573   0.49727  -0.26607  -0.20659   0.61952
  64   39941.4    250.4   0.071047261   0.58560   0.42842  -0.36358   0.51948
  65   40203.4    248.7   0.011153717   0.09133   0.16103  -0.15081  -0.20655
  66   40313.7    248.1   0.020812186   0.16996  -0.05034  -0.26877  -0.30852

FINAL SINGLE POINT ENERGY     -4965.758970997178

DIPOLE MOMENT
-------------
                                X             Y             Z
Electronic contribution:      9.54994       4.82420      -0.06123
Nuclear contribution   :    -10.73958      -6.31999       3.08271
                        -----------------------------------------
Total Dipole Moment    :     -1.18964      -1.49579       3.02147
                        -----------------------------------------
Magnitude (a.u.)       :      3.57519
Magnitude (Debye)      :      9.08740

Rotational constants in cm-1:     0.002707     0.000135     0.000132
Rotational constants in MHz :    81.162211     4.053093     3.959149

                             ****ORCA TERMINATED NORMALLY****
TOTAL RUN TIME: 0 days 0 hours 11 minutes 59 seconds 519 msec
