                         Program Version 4.2.0 -  RELEASE  -
|  1> # ORCA input file
|  2> # SCF done       -194.752059629375          0.000787355339
|  3> ! CAM-B3LYP def2-SVP def2/J RIJCOSX Grid4 TightSCF
|  4> %maxcore 5000
|  5> %tddft
|  6>     Mode sTDDFT
|  7>     Ethresh 5.0
|  8>     maxcore 5000
|  9> end
| 10>
| 11> %pal
| 12>   nprocs 6
| 13>   end
| 14> * xyz 0 1
| 15>    C       -3.31404         3.76980         4.98265
| 16>    C       -4.41419         4.37461         4.42982
| 17>    C       -5.42568         5.00180         5.18303
| 18>    N       -6.26412         5.54380         5.74982
| 19>    C       -4.69219         4.35353         3.04844
| 20>    N       -4.96351         4.31673         1.93315
| 21>    C       -3.12795         3.49381         6.40265
| 22>    C       -2.19481         2.42362         6.53443
| 23>    C       -1.85527         1.91640         7.75514
| 24>    C       -2.43523         2.47237         8.91814
| 25>    C       -3.35732         3.55160         8.79297
| 26>    C       -3.69607         4.05283         7.51482
| 27>    C       -3.92441         4.09920         9.96146
| 28>    C       -3.60015         3.60452        11.19538
| 29>    C       -2.69263         2.54188        11.31779
| 30>    C       -2.12308         1.98770        10.20353
| 31>    C       -1.71071         2.03063         5.19814
| 32>    O       -0.95576         1.13081         4.90987
| 33>    C       -2.29798         3.03326         4.26366
| 34>    C       -1.76861         3.17250         3.01737
| 35>    C       -1.82174         4.27158         2.13156
| 36>    C       -1.49133         4.24241         0.78507
| 37>    C       -1.57831         5.49571         0.18890
| 38>    C       -1.94365         6.50756         1.10164
| 39>    S       -2.19458         5.91001         2.67406
| 40>    C       -1.98575         7.74057         0.41345
| 41>    C       -1.65647         7.51982        -0.93390
| 42>    C       -1.38983         6.09802        -1.11820
| 43>    C       -1.03209         5.47440        -2.27675
| 44>    C       -0.87898         6.17915        -3.48936
| 45>    N       -0.75094         6.75339        -4.47347
| 46>    C       -0.77934         4.08723        -2.33809
| 47>    N       -0.56477         2.96268        -2.39605
| 48>    C       -1.66572         8.68464        -1.69848
| 49>    C       -1.99954         9.79721        -0.94451
| 50>    S       -2.31101         9.38741         0.73755
| 51>    C       -2.08296        11.14259        -1.38660
| 52>    N       -2.40902        12.17887        -0.56274
| 53>    C       -2.37717        13.35212        -1.25890
| 54>    C       -2.02467        13.05241        -2.57548
| 55>    C       -1.84290        11.67882        -2.65486
| 56>    C       -2.64218        14.57894        -0.67027
| 57>    C       -2.84325        15.66747        -0.16889
| 58>    C       -3.06033        16.88664         0.44462
| 59>    C       -2.82238        18.14612        -0.07702
| 60>    C       -3.11889        19.14940         0.84459
| 61>    C       -3.59336        18.64775         2.06967
| 62>    S       -3.67286        16.94057         2.09475
| 63>    C       -3.84488        19.73532         2.93931
| 64>    C       -3.51374        20.93232         2.26787
| 65>    C       -3.06953        20.60330         0.92386
| 66>    C       -2.70047        21.46847        -0.06293
| 67>    C       -2.72986        22.87105         0.09905
| 68>    N       -2.76643        24.01231         0.19794
| 69>    C       -2.28422        21.01803        -1.33400
| 70>    N       -1.94519        20.65076        -2.36593
| 71>    C       -3.67518        22.06334         3.05858
| 72>    C       -4.13564        21.75111         4.32989
| 73>    S       -4.40010        20.01269         4.52164
| 74>    C       -4.45830        22.57250         5.43020
| 75>    C       -4.01121        23.83440         5.70503
| 76>    C       -4.47396        24.65134         6.81143
| 77>    C       -5.64730        24.48878         7.50209
| 78>    C       -6.06383        25.32817         8.55590
| 79>    N       -6.45354        25.97167         9.42321
| 80>    C       -6.61025        23.49433         7.23178
| 81>    N       -7.44314        22.72343         7.05402
| 82>    C       -3.51739        25.73390         6.99879
| 83>    C       -2.53017        25.64340         5.97685
| 84>    C       -2.81792        24.48940         5.10798
| 85>    O       -2.16098        24.12397         4.15651
| 86>    C       -1.49483        26.52875         5.89257
| 87>    C       -1.39627        27.56462         6.84841
| 88>    C       -2.37656        27.65861         7.87828
| 89>    C       -3.43932        26.72783         7.93787
| 90>    C       -2.26308        28.69141         8.83092
| 91>    C       -1.23210        29.58923         8.77078
| 92>    C       -0.26805        29.49614         7.75602
| 93>    C       -0.34907        28.50606         6.81455
| 94>    H       -1.15338         1.09959         7.83437
| 95>    H       -4.39030         4.87609         7.44647
| 96>    H       -4.62542         4.91493         9.86176
| 97>    H       -4.04212         4.02915        12.08428
| 98>    H       -2.44719         2.16436        12.29913
| 99>    H       -1.42396         1.16898        10.29174
|100>    H       -1.14027         2.34883         2.69016
|101>    H       -1.22886         3.33207         0.27688
|102>    H       -1.44303         8.73649        -2.74764
|103>    H       -2.63499        12.09372         0.41526
|104>    H       -1.91795        13.76585        -3.36757
|105>    H       -1.56616        11.12251        -3.52728
|106>    H       -2.44490        18.29884        -1.07154
|107>    H       -3.47871        23.06920         2.73932
|108>    H       -5.11133        22.10568         6.15903
|109>    H       -0.76041        26.43936         5.10594
|110>    H       -4.16161        26.82014         8.73350
|111>    H       -3.00867        28.76003         9.60945
|112>    H       -1.15395        30.37664         9.50538
|113>    H        0.53928        30.21242         7.72411
|114>    H        0.39006        28.42923         6.03058
|115> *
|116>
|117>                          ****END OF INPUT****

CARTESIAN COORDINATES (ANGSTROEM)
---------------------------------
  C     -3.314040    3.769800    4.982650
  C     -4.414190    4.374610    4.429820
  C     -5.425680    5.001800    5.183030
  N     -6.264120    5.543800    5.749820
  C     -4.692190    4.353530    3.048440
  N     -4.963510    4.316730    1.933150
  C     -3.127950    3.493810    6.402650
  C     -2.194810    2.423620    6.534430
  C     -1.855270    1.916400    7.755140
  C     -2.435230    2.472370    8.918140
  C     -3.357320    3.551600    8.792970
  C     -3.696070    4.052830    7.514820
  C     -3.924410    4.099200    9.961460
  C     -3.600150    3.604520   11.195380
  C     -2.692630    2.541880   11.317790
  C     -2.123080    1.987700   10.203530
  C     -1.710710    2.030630    5.198140
  O     -0.955760    1.130810    4.909870
  C     -2.297980    3.033260    4.263660
  C     -1.768610    3.172500    3.017370
  C     -1.821740    4.271580    2.131560
  C     -1.491330    4.242410    0.785070
  C     -1.578310    5.495710    0.188900
  C     -1.943650    6.507560    1.101640
  S     -2.194580    5.910010    2.674060
  C     -1.985750    7.740570    0.413450
  C     -1.656470    7.519820   -0.933900
  C     -1.389830    6.098020   -1.118200
  C     -1.032090    5.474400   -2.276750
  C     -0.878980    6.179150   -3.489360
  N     -0.750940    6.753390   -4.473470
  C     -0.779340    4.087230   -2.338090
  N     -0.564770    2.962680   -2.396050
  C     -1.665720    8.684640   -1.698480
  C     -1.999540    9.797210   -0.944510
  S     -2.311010    9.387410    0.737550
  C     -2.082960   11.142590   -1.386600
  N     -2.409020   12.178870   -0.562740
  C     -2.377170   13.352120   -1.258900
  C     -2.024670   13.052410   -2.575480
  C     -1.842900   11.678820   -2.654860
  C     -2.642180   14.578940   -0.670270
  C     -2.843250   15.667470   -0.168890
  C     -3.060330   16.886640    0.444620
  C     -2.822380   18.146120   -0.077020
  C     -3.118890   19.149400    0.844590
  C     -3.593360   18.647750    2.069670
  S     -3.672860   16.940570    2.094750
  C     -3.844880   19.735320    2.939310
  C     -3.513740   20.932320    2.267870
  C     -3.069530   20.603300    0.923860
  C     -2.700470   21.468470   -0.062930
  C     -2.729860   22.871050    0.099050
  N     -2.766430   24.012310    0.197940
  C     -2.284220   21.018030   -1.334000
  N     -1.945190   20.650760   -2.365930
  C     -3.675180   22.063340    3.058580
  C     -4.135640   21.751110    4.329890
  S     -4.400100   20.012690    4.521640
  C     -4.458300   22.572500    5.430200
  C     -4.011210   23.834400    5.705030
  C     -4.473960   24.651340    6.811430
  C     -5.647300   24.488780    7.502090
  C     -6.063830   25.328170    8.555900
  N     -6.453540   25.971670    9.423210
  C     -6.610250   23.494330    7.231780
  N     -7.443140   22.723430    7.054020
  C     -3.517390   25.733900    6.998790
  C     -2.530170   25.643400    5.976850
  C     -2.817920   24.489400    5.107980
  O     -2.160980   24.123970    4.156510
  C     -1.494830   26.528750    5.892570
  C     -1.396270   27.564620    6.848410
  C     -2.376560   27.658610    7.878280
  C     -3.439320   26.727830    7.937870
  C     -2.263080   28.691410    8.830920
  C     -1.232100   29.589230    8.770780
  C     -0.268050   29.496140    7.756020
  C     -0.349070   28.506060    6.814550
  H     -1.153380    1.099590    7.834370
  H     -4.390300    4.876090    7.446470
  H     -4.625420    4.914930    9.861760
  H     -4.042120    4.029150   12.084280
  H     -2.447190    2.164360   12.299130
  H     -1.423960    1.168980   10.291740
  H     -1.140270    2.348830    2.690160
  H     -1.228860    3.332070    0.276880
  H     -1.443030    8.736490   -2.747640
  H     -2.634990   12.093720    0.415260
  H     -1.917950   13.765850   -3.367570
  H     -1.566160   11.122510   -3.527280
  H     -2.444900   18.298840   -1.071540
  H     -3.478710   23.069200    2.739320
  H     -5.111330   22.105680    6.159030
  H     -0.760410   26.439360    5.105940
  H     -4.161610   26.820140    8.733500
  H     -3.008670   28.760030    9.609450
  H     -1.153950   30.376640    9.505380
  H      0.539280   30.212420    7.724110
  H      0.390060   28.429230    6.030580

 Total Charge           Charge          ....    0
 Multiplicity           Mult            ....    1
 Number of Electrons    NEL             ....  548
 Basis Dimension        Dim             .... 1227

ORBITAL ENERGIES
----------------

  NO   OCC          E(Eh)            E(eV)
   0   2.0000     -89.003240     -2421.9013
   1   2.0000     -89.001334     -2421.8494
   2   2.0000     -88.999047     -2421.7872
   3   2.0000     -88.998711     -2421.7781
   4   2.0000     -19.217877      -522.9450
   5   2.0000     -19.214982      -522.8663
   6   2.0000     -14.491083      -394.3224
   7   2.0000     -14.437237      -392.8572
   8   2.0000     -14.436283      -392.8312
   9   2.0000     -14.435783      -392.8176
  10   2.0000     -14.433031      -392.7427
  11   2.0000     -14.418459      -392.3462
  12   2.0000     -14.417290      -392.3144
  13   2.0000     -14.416204      -392.2849
  14   2.0000     -14.414580      -392.2407
  15   2.0000     -10.372812      -282.2586
  16   2.0000     -10.371867      -282.2329
  17   2.0000     -10.369956      -282.1809
  18   2.0000     -10.367094      -282.1030
  19   2.0000     -10.359891      -281.9070
  20   2.0000     -10.358567      -281.8709
  21   2.0000     -10.349428      -281.6223
  22   2.0000     -10.349039      -281.6117
  23   2.0000     -10.347876      -281.5800
  24   2.0000     -10.345551      -281.5168
  25   2.0000     -10.344661      -281.4925
  26   2.0000     -10.343291      -281.4553
  27   2.0000     -10.341930      -281.4182
  28   2.0000     -10.341288      -281.4007
  29   2.0000     -10.340843      -281.3886
  30   2.0000     -10.339490      -281.3518
  31   2.0000     -10.337892      -281.3083
  32   2.0000     -10.337311      -281.2925
  33   2.0000     -10.335954      -281.2556
  34   2.0000     -10.335610      -281.2462
  35   2.0000     -10.335000      -281.2296
  36   2.0000     -10.332357      -281.1577
  37   2.0000     -10.330242      -281.1002
  38   2.0000     -10.330094      -281.0962
  39   2.0000     -10.329355      -281.0760
  40   2.0000     -10.326679      -281.0032
  41   2.0000     -10.321147      -280.8527
  42   2.0000     -10.319333      -280.8033
  43   2.0000     -10.319322      -280.8030
  44   2.0000     -10.318098      -280.7697
  45   2.0000     -10.317514      -280.7538
  46   2.0000     -10.317167      -280.7444
  47   2.0000     -10.316919      -280.7376
  48   2.0000     -10.312669      -280.6220
  49   2.0000     -10.312065      -280.6055
  50   2.0000     -10.311226      -280.5827
  51   2.0000     -10.310524      -280.5636
  52   2.0000     -10.310274      -280.5568
  53   2.0000     -10.305807      -280.4353
  54   2.0000     -10.304669      -280.4043
  55   2.0000     -10.302967      -280.3580
  56   2.0000     -10.302461      -280.3442
  57   2.0000     -10.302053      -280.3331
  58   2.0000     -10.300060      -280.2789
  59   2.0000     -10.299899      -280.2745
  60   2.0000     -10.299605      -280.2665
  61   2.0000     -10.299295      -280.2581
  62   2.0000     -10.298925      -280.2480
  63   2.0000     -10.298004      -280.2229
  64   2.0000     -10.297768      -280.2165
  65   2.0000     -10.297228      -280.2018
  66   2.0000     -10.296791      -280.1899
  67   2.0000     -10.291400      -280.0432
  68   2.0000     -10.288977      -279.9773
  69   2.0000     -10.288483      -279.9639
  70   2.0000     -10.288164      -279.9552
  71   2.0000     -10.287897      -279.9479
  72   2.0000     -10.287564      -279.9389
  73   2.0000     -10.286872      -279.9200
  74   2.0000     -10.286361      -279.9061
  75   2.0000     -10.286171      -279.9009
  76   2.0000     -10.285731      -279.8890
  77   2.0000     -10.285027      -279.8698
  78   2.0000     -10.283979      -279.8413
  79   2.0000      -8.097873      -220.3543
  80   2.0000      -8.095926      -220.3013
  81   2.0000      -8.093853      -220.2449
  82   2.0000      -8.092864      -220.2180
  83   2.0000      -6.067151      -165.0956
  84   2.0000      -6.065244      -165.0437
  85   2.0000      -6.063085      -164.9849
  86   2.0000      -6.063013      -164.9830
  87   2.0000      -6.062136      -164.9591
  88   2.0000      -6.061028      -164.9290
  89   2.0000      -6.060133      -164.9046
  90   2.0000      -6.058838      -164.8694
  91   2.0000      -6.058156      -164.8508
  92   2.0000      -6.057914      -164.8442
  93   2.0000      -6.056346      -164.8016
  94   2.0000      -6.055247      -164.7717
  95   2.0000      -1.133413       -30.8417
  96   2.0000      -1.130431       -30.7606
  97   2.0000      -1.110077       -30.2067
  98   2.0000      -1.054548       -28.6957
  99   2.0000      -1.054192       -28.6860
 100   2.0000      -1.029023       -28.0011
 101   2.0000      -1.026948       -27.9447
 102   2.0000      -1.021930       -27.8081
 103   2.0000      -1.018867       -27.7248
 104   2.0000      -1.014212       -27.5981
 105   2.0000      -1.011661       -27.5287
 106   2.0000      -1.007728       -27.4217
 107   2.0000      -1.007129       -27.4054
 108   2.0000      -1.000523       -27.2256
 109   2.0000      -0.998855       -27.1802
 110   2.0000      -0.995945       -27.1011
 111   2.0000      -0.993810       -27.0430
 112   2.0000      -0.974883       -26.5279
 113   2.0000      -0.973332       -26.4857
 114   2.0000      -0.967128       -26.3169
 115   2.0000      -0.966594       -26.3024
 116   2.0000      -0.932249       -25.3678
 117   2.0000      -0.931076       -25.3359
 118   2.0000      -0.923804       -25.1380
 119   2.0000      -0.921997       -25.0888
 120   2.0000      -0.907002       -24.6808
 121   2.0000      -0.901796       -24.5391
 122   2.0000      -0.899691       -24.4818
 123   2.0000      -0.895237       -24.3606
 124   2.0000      -0.884157       -24.0591
 125   2.0000      -0.882356       -24.0101
 126   2.0000      -0.881114       -23.9763
 127   2.0000      -0.880104       -23.9488
 128   2.0000      -0.877008       -23.8646
 129   2.0000      -0.867224       -23.5984
 130   2.0000      -0.864736       -23.5307
 131   2.0000      -0.864628       -23.5277
 132   2.0000      -0.849489       -23.1158
 133   2.0000      -0.830481       -22.5985
 134   2.0000      -0.828647       -22.5486
 135   2.0000      -0.823446       -22.4071
 136   2.0000      -0.813352       -22.1324
 137   2.0000      -0.797142       -21.6913
 138   2.0000      -0.786043       -21.3893
 139   2.0000      -0.783850       -21.3297
 140   2.0000      -0.775585       -21.1047
 141   2.0000      -0.762593       -20.7512
 142   2.0000      -0.762129       -20.7386
 143   2.0000      -0.748072       -20.3561
 144   2.0000      -0.735079       -20.0025
 145   2.0000      -0.717851       -19.5337
 146   2.0000      -0.713503       -19.4154
 147   2.0000      -0.712407       -19.3856
 148   2.0000      -0.709605       -19.3093
 149   2.0000      -0.705030       -19.1849
 150   2.0000      -0.703869       -19.1533
 151   2.0000      -0.701790       -19.0967
 152   2.0000      -0.699966       -19.0471
 153   2.0000      -0.694750       -18.9051
 154   2.0000      -0.688772       -18.7424
 155   2.0000      -0.688324       -18.7303
 156   2.0000      -0.685130       -18.6433
 157   2.0000      -0.678761       -18.4700
 158   2.0000      -0.676603       -18.4113
 159   2.0000      -0.661343       -17.9961
 160   2.0000      -0.656279       -17.8583
 161   2.0000      -0.642114       -17.4728
 162   2.0000      -0.639244       -17.3947
 163   2.0000      -0.635530       -17.2937
 164   2.0000      -0.632921       -17.2227
 165   2.0000      -0.629820       -17.1383
 166   2.0000      -0.625669       -17.0253
 167   2.0000      -0.624293       -16.9879
 168   2.0000      -0.614137       -16.7115
 169   2.0000      -0.610812       -16.6210
 170   2.0000      -0.609133       -16.5754
 171   2.0000      -0.606912       -16.5149
 172   2.0000      -0.600425       -16.3384
 173   2.0000      -0.596123       -16.2213
 174   2.0000      -0.586109       -15.9488
 175   2.0000      -0.574162       -15.6237
 176   2.0000      -0.564646       -15.3648
 177   2.0000      -0.563001       -15.3200
 178   2.0000      -0.559228       -15.2174
 179   2.0000      -0.556974       -15.1560
 180   2.0000      -0.553537       -15.0625
 181   2.0000      -0.551715       -15.0129
 182   2.0000      -0.549773       -14.9601
 183   2.0000      -0.548007       -14.9120
 184   2.0000      -0.547203       -14.8902
 185   2.0000      -0.545381       -14.8406
 186   2.0000      -0.541962       -14.7475
 187   2.0000      -0.539546       -14.6818
 188   2.0000      -0.538610       -14.6563
 189   2.0000      -0.538013       -14.6401
 190   2.0000      -0.532406       -14.4875
 191   2.0000      -0.530257       -14.4290
 192   2.0000      -0.521637       -14.1945
 193   2.0000      -0.520703       -14.1690
 194   2.0000      -0.520255       -14.1569
 195   2.0000      -0.515155       -14.0181
 196   2.0000      -0.513973       -13.9859
 197   2.0000      -0.513704       -13.9786
 198   2.0000      -0.512490       -13.9456
 199   2.0000      -0.511878       -13.9289
 200   2.0000      -0.511024       -13.9057
 201   2.0000      -0.506890       -13.7932
 202   2.0000      -0.506754       -13.7895
 203   2.0000      -0.506084       -13.7712
 204   2.0000      -0.504480       -13.7276
 205   2.0000      -0.502918       -13.6851
 206   2.0000      -0.498622       -13.5682
 207   2.0000      -0.497760       -13.5447
 208   2.0000      -0.494589       -13.4585
 209   2.0000      -0.493173       -13.4199
 210   2.0000      -0.492743       -13.4082
 211   2.0000      -0.490402       -13.3445
 212   2.0000      -0.485113       -13.2006
 213   2.0000      -0.482462       -13.1285
 214   2.0000      -0.481696       -13.1076
 215   2.0000      -0.473976       -12.8975
 216   2.0000      -0.467603       -12.7241
 217   2.0000      -0.467167       -12.7123
 218   2.0000      -0.465836       -12.6761
 219   2.0000      -0.465428       -12.6649
 220   2.0000      -0.464330       -12.6351
 221   2.0000      -0.463791       -12.6204
 222   2.0000      -0.460150       -12.5213
 223   2.0000      -0.456859       -12.4318
 224   2.0000      -0.453149       -12.3308
 225   2.0000      -0.451378       -12.2826
 226   2.0000      -0.449886       -12.2420
 227   2.0000      -0.449256       -12.2249
 228   2.0000      -0.447755       -12.1840
 229   2.0000      -0.446514       -12.1503
 230   2.0000      -0.445923       -12.1342
 231   2.0000      -0.445399       -12.1199
 232   2.0000      -0.444765       -12.1027
 233   2.0000      -0.443770       -12.0756
 234   2.0000      -0.443283       -12.0623
 235   2.0000      -0.441683       -12.0188
 236   2.0000      -0.440686       -11.9917
 237   2.0000      -0.438037       -11.9196
 238   2.0000      -0.435030       -11.8378
 239   2.0000      -0.434246       -11.8164
 240   2.0000      -0.433036       -11.7835
 241   2.0000      -0.432644       -11.7728
 242   2.0000      -0.431339       -11.7373
 243   2.0000      -0.430058       -11.7025
 244   2.0000      -0.429230       -11.6799
 245   2.0000      -0.426567       -11.6075
 246   2.0000      -0.420583       -11.4446
 247   2.0000      -0.419676       -11.4200
 248   2.0000      -0.413600       -11.2546
 249   2.0000      -0.410243       -11.1633
 250   2.0000      -0.409556       -11.1446
 251   2.0000      -0.405185       -11.0256
 252   2.0000      -0.403519       -10.9803
 253   2.0000      -0.391855       -10.6629
 254   2.0000      -0.383226       -10.4281
 255   2.0000      -0.378060       -10.2875
 256   2.0000      -0.376088       -10.2339
 257   2.0000      -0.371938       -10.1210
 258   2.0000      -0.361640        -9.8407
 259   2.0000      -0.359479        -9.7819
 260   2.0000      -0.355029        -9.6608
 261   2.0000      -0.352705        -9.5976
 262   2.0000      -0.344066        -9.3625
 263   2.0000      -0.337835        -9.1929
 264   2.0000      -0.332748        -9.0545
 265   2.0000      -0.329482        -8.9657
 266   2.0000      -0.328089        -8.9278
 267   2.0000      -0.319138        -8.6842
 268   2.0000      -0.317336        -8.6352
 269   2.0000      -0.303967        -8.2714
 270   2.0000      -0.297008        -8.0820
 271   2.0000      -0.293384        -7.9834
 272   2.0000      -0.275219        -7.4891
 273   2.0000      -0.245986        -6.6936
 274   0.0000      -0.120484        -3.2785
 275   0.0000      -0.114504        -3.1158
 276   0.0000      -0.092533        -2.5180
 277   0.0000      -0.091188        -2.4813
 278   0.0000      -0.060283        -1.6404

MULLIKEN ATOMIC CHARGES
-----------------------
   0 C :    0.253334
   1 C :   -0.332613
   2 C :   -0.173360
   3 N :    0.154705
   4 C :   -0.211576
   5 N :    0.171530
   6 C :    0.036247
   7 C :    0.011464
   8 C :   -0.081612
   9 C :    0.094001
  10 C :    0.095497
  11 C :   -0.082030
  12 C :   -0.020908
  13 C :    0.037143
  14 C :    0.035465
  15 C :   -0.016074
  16 C :    0.144138
  17 O :   -0.142873
  18 C :   -0.146631
  19 C :    0.044644
  20 C :   -0.088939
  21 C :    0.007968
  22 C :    0.018256
  23 C :   -0.073468
  24 S :    0.203040
  25 C :   -0.107759
  26 C :    0.029932
  27 C :    0.298668
  28 C :   -0.288639
  29 C :   -0.187846
  30 N :    0.174655
  31 C :   -0.190518
  32 N :    0.182886
  33 C :   -0.059792
  34 C :   -0.035614
  35 S :    0.167946
  36 C :    0.075873
  37 N :   -0.056729
  38 C :    0.007785
  39 C :    0.012195
  40 C :   -0.039273
  41 C :    0.034812
  42 C :   -0.028811
  43 C :   -0.139732
  44 C :    0.006016
  45 C :    0.012245
  46 C :   -0.107257
  47 S :    0.218599
  48 C :   -0.078636
  49 C :   -0.022287
  50 C :    0.301382
  51 C :   -0.288721
  52 C :   -0.187431
  53 N :    0.185561
  54 C :   -0.190056
  55 N :    0.179020
  56 C :    0.042998
  57 C :   -0.111980
  58 S :    0.205663
  59 C :    0.026396
  60 C :   -0.101573
  61 C :    0.301480
  62 C :   -0.341530
  63 C :   -0.181401
  64 N :    0.145165
  65 C :   -0.208153
  66 N :    0.158293
  67 C :    0.048831
  68 C :   -0.008185
  69 C :    0.153032
  70 O :   -0.152162
  71 C :   -0.078784
  72 C :    0.098040
  73 C :    0.095557
  74 C :   -0.083211
  75 C :   -0.019654
  76 C :    0.034460
  77 C :    0.035085
  78 C :   -0.016875
  79 H :   -0.009965
  80 H :   -0.006125
  81 H :   -0.010400
  82 H :   -0.004551
  83 H :   -0.005019
  84 H :   -0.015464
  85 H :    0.033351
  86 H :    0.019022
  87 H :    0.009328
  88 H :    0.129166
  89 H :   -0.012610
  90 H :   -0.010183
  91 H :    0.016912
  92 H :    0.030156
  93 H :    0.025749
  94 H :   -0.010043
  95 H :   -0.005949
  96 H :   -0.008167
  97 H :   -0.003659
  98 H :   -0.003769
  99 H :   -0.015093
Sum of atomic charges:   -0.0000000

LOEWDIN ATOMIC CHARGES
----------------------
   0 C :    0.061304
   1 C :   -0.148757
   2 C :   -0.020148
   3 N :   -0.053293
   4 C :   -0.037704
   5 N :   -0.050557
   6 C :   -0.023432
   7 C :   -0.056489
   8 C :    0.032574
   9 C :   -0.009098
  10 C :   -0.005840
  11 C :    0.014767
  12 C :   -0.007177
  13 C :   -0.012689
  14 C :   -0.012788
  15 C :   -0.008968
  16 C :    0.083240
  17 O :   -0.143809
  18 C :   -0.103457
  19 C :    0.051525
  20 C :   -0.180029
  21 C :    0.017002
  22 C :   -0.078354
  23 C :   -0.147060
  24 S :    0.507391
  25 C :   -0.196433
  26 C :   -0.047359
  27 C :    0.080300
  28 C :   -0.095002
  29 C :   -0.015750
  30 N :   -0.029515
  31 C :   -0.017580
  32 N :   -0.024377
  33 C :   -0.029864
  34 C :   -0.150791
  35 S :    0.457655
  36 C :   -0.028322
  37 N :    0.100148
  38 C :   -0.029769
  39 C :   -0.029532
  40 C :   -0.046877
  41 C :   -0.025557
  42 C :   -0.058141
  43 C :   -0.169703
  44 C :   -0.013182
  45 C :   -0.055649
  46 C :   -0.190460
  47 S :    0.488311
  48 C :   -0.159961
  49 C :   -0.074632
  50 C :    0.076965
  51 C :   -0.092324
  52 C :   -0.019294
  53 N :   -0.018494
  54 C :   -0.016212
  55 N :   -0.028252
  56 C :    0.026340
  57 C :   -0.177730
  58 S :    0.491440
  59 C :    0.042951
  60 C :   -0.093777
  61 C :    0.075496
  62 C :   -0.142224
  63 C :   -0.017673
  64 N :   -0.054342
  65 C :   -0.025423
  66 N :   -0.054563
  67 C :   -0.026392
  68 C :   -0.055064
  69 C :    0.084211
  70 O :   -0.140323
  71 C :    0.033184
  72 C :   -0.008308
  73 C :   -0.006343
  74 C :    0.019275
  75 C :   -0.005719
  76 C :   -0.013346
  77 C :   -0.012346
  78 C :   -0.009266
  79 H :    0.039832
  80 H :    0.038220
  81 H :    0.034036
  82 H :    0.033203
  83 H :    0.032852
  84 H :    0.032272
  85 H :    0.055154
  86 H :    0.047575
  87 H :    0.042561
  88 H :    0.087595
  89 H :    0.035576
  90 H :    0.032481
  91 H :    0.047142
  92 H :    0.045839
  93 H :    0.044286
  94 H :    0.039864
  95 H :    0.039208
  96 H :    0.034824
  97 H :    0.033410
  98 H :    0.033078
  99 H :    0.032430

  Mayer bond orders larger than 0.100000
B(  0-C ,  1-C ) :   1.6432 B(  0-C ,  6-C ) :   1.0041 B(  0-C , 18-C ) :   1.0407
B(  1-C ,  2-C ) :   1.1372 B(  1-C ,  4-C ) :   1.1555 B(  2-C ,  3-N ) :   2.9892
B(  4-C ,  5-N ) :   3.0217 B(  6-C ,  7-C ) :   1.2155 B(  6-C , 11-C ) :   1.4588
B(  7-C ,  8-C ) :   1.4789 B(  7-C , 16-C ) :   0.9204 B(  8-C ,  9-C ) :   1.1830
B(  8-C , 79-H ) :   1.0162 B(  9-C , 10-C ) :   1.2581 B(  9-C , 15-C ) :   1.2460
B( 10-C , 11-C ) :   1.2034 B( 10-C , 12-C ) :   1.2408 B( 11-C , 80-H ) :   0.9944
B( 12-C , 13-C ) :   1.4891 B( 12-C , 81-H ) :   0.9980 B( 13-C , 14-C ) :   1.2612
B( 13-C , 82-H ) :   0.9890 B( 14-C , 15-C ) :   1.4873 B( 14-C , 83-H ) :   0.9895
B( 15-C , 84-H ) :   0.9983 B( 16-C , 17-O ) :   2.2707 B( 16-C , 18-C ) :   0.9394
B( 18-C , 19-C ) :   1.6242 B( 19-C , 20-C ) :   1.1567 B( 19-C , 85-H ) :   0.9456
B( 20-C , 21-C ) :   1.3961 B( 20-C , 24-S ) :   1.0756 B( 21-C , 22-C ) :   1.3062
B( 21-C , 86-H ) :   1.0009 B( 22-C , 23-C ) :   1.3888 B( 22-C , 27-C ) :   0.9994
B( 23-C , 24-S ) :   1.1597 B( 23-C , 25-C ) :   1.2190 B( 25-C , 26-C ) :   1.4351
B( 25-C , 35-S ) :   1.1018 B( 26-C , 27-C ) :   0.9852 B( 26-C , 33-C ) :   1.3027
B( 27-C , 28-C ) :   1.7200 B( 28-C , 29-C ) :   1.1356 B( 28-C , 31-C ) :   1.1325
B( 29-C , 30-N ) :   2.9877 B( 31-C , 32-N ) :   2.9952 B( 33-C , 34-C ) :   1.4761
B( 33-C , 87-H ) :   0.9931 B( 34-C , 35-S ) :   1.0984 B( 34-C , 36-C ) :   1.0775
B( 36-C , 37-N ) :   1.2345 B( 36-C , 38-C ) :   0.1331 B( 36-C , 40-C ) :   1.4197
B( 37-N , 38-C ) :   1.2268 B( 37-N , 88-H ) :   0.9307 B( 38-C , 39-C ) :   1.4235
B( 38-C , 41-C ) :   0.8377 B( 39-C , 40-C ) :   1.3329 B( 39-C , 89-H ) :   1.0150
B( 40-C , 90-H ) :   1.0034 B( 41-C , 42-C ) :   2.2966 B( 42-C , 43-C ) :   0.9938
B( 43-C , 44-C ) :   1.4538 B( 43-C , 47-S ) :   1.0886 B( 44-C , 45-C ) :   1.2964
B( 44-C , 91-H ) :   1.0013 B( 45-C , 46-C ) :   1.4315 B( 45-C , 50-C ) :   0.9880
B( 46-C , 47-S ) :   1.1126 B( 46-C , 48-C ) :   1.2080 B( 48-C , 49-C ) :   1.3864
B( 48-C , 58-S ) :   1.1644 B( 49-C , 50-C ) :   0.9969 B( 49-C , 56-C ) :   1.3371
B( 50-C , 51-C ) :   1.7246 B( 51-C , 52-C ) :   1.1316 B( 51-C , 54-C ) :   1.1348
B( 52-C , 53-N ) :   2.9946 B( 54-C , 55-N ) :   2.9929 B( 56-C , 57-C ) :   1.4146
B( 56-C , 92-H ) :   0.9762 B( 57-C , 58-S ) :   1.0720 B( 57-C , 59-C ) :   1.1877
B( 59-C , 60-C ) :   1.6010 B( 59-C , 93-H ) :   0.9300 B( 60-C , 61-C ) :   1.0702
B( 60-C , 69-C ) :   0.9442 B( 61-C , 62-C ) :   1.6333 B( 61-C , 67-C ) :   0.9928
B( 62-C , 63-C ) :   1.1441 B( 62-C , 65-C ) :   1.1408 B( 63-C , 64-N ) :   2.9670
B( 65-C , 66-N ) :   2.9959 B( 67-C , 68-C ) :   1.2119 B( 67-C , 74-C ) :   1.4535
B( 68-C , 69-C ) :   0.9462 B( 68-C , 71-C ) :   1.4750 B( 69-C , 70-O ) :   2.2003
B( 71-C , 72-C ) :   1.1793 B( 71-C , 94-H ) :   1.0161 B( 72-C , 73-C ) :   1.2559
B( 72-C , 78-C ) :   1.2459 B( 73-C , 74-C ) :   1.2055 B( 73-C , 75-C ) :   1.2416
B( 74-C , 95-H ) :   0.9902 B( 75-C , 76-C ) :   1.4893 B( 75-C , 96-H ) :   0.9970
B( 76-C , 77-C ) :   1.2610 B( 76-C , 97-H ) :   0.9885 B( 77-C , 78-C ) :   1.4883
B( 77-C , 98-H ) :   0.9887 B( 78-C , 99-H ) :   0.9976

-----------------------------------------------------------------------------
         ABSORPTION SPECTRUM VIA TRANSITION ELECTRIC DIPOLE MOMENTS
-----------------------------------------------------------------------------
State   Energy  Wavelength   fosc         T2         TX        TY        TZ
        (cm-1)    (nm)                  (au**2)     (au)      (au)      (au)
-----------------------------------------------------------------------------
   0   11402.7    877.0   0.485755082  14.02440   0.09639  -3.71549   0.45855
   1   13133.2    761.4   0.248296376   6.22407  -0.38886   1.82884   1.65172
   2   18734.5    533.8   0.820004186  14.40952   0.41401   3.56163  -1.24615
   3   20265.4    493.5   0.712610348  11.57635   0.81107  -1.91325  -2.69406
   4   20741.7    482.1   0.408367883   6.48161  -0.71662   1.49162   1.93471
   5   21710.3    460.6   0.167638399   2.54204   0.00482   0.94149   1.28671
   6   25075.3    398.8   0.049617249   0.65142   0.13418   0.34270   0.71832
   7   25353.3    394.4   0.034276611   0.44508  -0.35505  -0.46642  -0.31855
   8   26627.5    375.6   0.058176043   0.71927   0.14410  -0.75149   0.36574
   9   26758.6    373.7   0.318320153   3.91631   0.22276  -1.95560   0.20575
  10   27164.5    368.1   0.081640834   0.98942  -0.13371  -0.73919   0.65203
  11   27435.4    364.5   0.116184603   1.39416   0.64914  -0.86958  -0.46542
  12   27749.2    360.4   0.150840702   1.78955   0.07580   1.24919  -0.47258
  13   28129.8    355.5   0.047249137   0.55297   0.69530   0.12449   0.23244
  14   28609.6    349.5   0.299391364   3.44511   0.20412  -1.75633   0.56458
  15   28837.3    346.8   0.030798337   0.35160   0.36073  -0.40873  -0.23327
  16   29196.9    342.5   0.002795922   0.03153  -0.03091  -0.12830  -0.11878
  17   29618.4    337.6   0.506444682   5.62919  -0.37070   2.10101   1.03804
  18   29946.7    333.9   0.105494800   1.15973   0.02274  -0.35719  -1.01569
  19   30212.3    331.0   0.300101751   3.27009   0.96137   0.75884   1.33043
  20   30403.1    328.9   0.449752984   4.87003   0.29779  -0.33770  -2.16039
  21   30743.6    325.3   0.020414779   0.21861   0.35299  -0.18965  -0.24091
  22   30974.8    322.8   0.676902114   7.19437   0.76197   0.82557  -2.43561
  23   31839.2    314.1   0.031342895   0.32408   0.13056   0.53802   0.13255
  24   31974.5    312.7   0.044784551   0.46110  -0.04424  -0.10751  -0.66902
  25   32511.0    307.6   0.360731671   3.65283  -0.86167  -1.68993  -0.23344
  26   33050.4    302.6   0.203835135   2.03038   0.30001  -0.68792   1.21126
  27   33223.7    301.0   0.117814451   1.16742   0.29166   0.60607  -0.84559
  28   33328.5    300.0   0.000463310   0.00458   0.05051   0.04337   0.01199
  29   33734.1    296.4   0.141859477   1.38441  -0.45778   1.03241   0.33013
  30   33873.6    295.2   0.114804265   1.11577   0.73856   0.34612   0.67119
  31   33955.5    294.5   0.087680627   0.85010   0.53351   0.68767  -0.30427
  32   34082.1    293.4   0.023236758   0.22445  -0.03773  -0.22553   0.41493
  33   34246.6    292.0   0.097671052   0.93891  -0.16549  -0.46593  -0.83333
  34   34557.9    289.4   0.357957499   3.41005  -1.11778  -0.83157   1.21207
  35   34994.9    285.8   0.041191981   0.38751   0.11400   0.31664  -0.52369
  36   35016.9    285.6   0.439691026   4.13376   1.30177   0.62522   1.43117
  37   35353.3    282.9   0.057145811   0.53214   0.08507   0.61808  -0.37801
  38   35531.9    281.4   0.213790984   1.98083  -0.15088  -0.55493   1.28457
  39   35877.6    278.7   0.081831508   0.75088  -0.60306   0.53149   0.32362
  40   36188.6    276.3   0.195137709   1.77519  -0.05205  -0.43177   1.25939
  41   36215.3    276.1   0.027457508   0.24960  -0.14049   0.22174  -0.42508
  42   36429.8    274.5   0.034303396   0.31000   0.12024  -0.44745   0.30875
  43   36607.9    273.2   0.040064666   0.36030   0.48769   0.02152   0.34927
  44   37027.8    270.1   0.026327914   0.23408  -0.15570  -0.40008   0.22310
  45   37254.3    268.4   0.117251840   1.03614   0.59342   0.68428  -0.46450
  46   37437.4    267.1   0.021840327   0.19206  -0.17623  -0.18557   0.35575
  47   37579.3    266.1   0.032104202   0.28125   0.32723   0.14337  -0.39194
  48   37889.7    263.9   0.009770814   0.08490  -0.05299  -0.06004  -0.28015
  49   37994.0    263.2   0.009298535   0.08057  -0.28107   0.02112  -0.03353
  50   38235.2    261.5   0.010637006   0.09159   0.04446  -0.18114  -0.23832
  51   38283.2    261.2   0.016946833   0.14573  -0.21427   0.09105   0.30254
  52   38885.5    257.2   0.058086349   0.49177   0.04509   0.14077  -0.68551
  53   39128.9    255.6   0.020131894   0.16938  -0.38064  -0.15193   0.03759
  54   39212.8    255.0   0.009287756   0.07798   0.03790  -0.03075   0.27494
  55   39274.5    254.6   0.099945311   0.83778   0.71942  -0.05118  -0.56356
  56   39572.5    252.7   0.007315645   0.06086   0.10021   0.21767  -0.05865
  57   39611.7    252.5   0.015362260   0.12768  -0.01922   0.01743  -0.35637
  58   39694.3    251.9   0.113081531   0.93786   0.76912  -0.34119  -0.47949
  59   39880.2    250.8   0.009408733   0.07767   0.17278  -0.04763  -0.21342

FINAL SINGLE POINT ENERGY     -4682.779571913082

DIPOLE MOMENT
-------------
                                X             Y             Z
Electronic contribution:     -9.68641     -11.39150     -32.20965
Nuclear contribution   :     12.25149      11.82050      34.99206
                        -----------------------------------------
Total Dipole Moment    :      2.56508       0.42901       2.78241
                        -----------------------------------------
Magnitude (a.u.)       :      3.80860
Magnitude (Debye)      :      9.68070

Rotational constants in cm-1:     0.000929     0.000180     0.000156
Rotational constants in MHz :    27.863514     5.400475     4.685626

                             ****ORCA TERMINATED NORMALLY****
TOTAL RUN TIME: 0 days 0 hours 10 minutes 46 seconds 345 msec
