                         Program Version 4.2.0 -  RELEASE  -
|  1> # ORCA input file
|  2> # SCF done       -182.437369710952          0.000994421985
|  3> ! CAM-B3LYP def2-SVP def2/J RIJCOSX Grid4 TightSCF
|  4> %maxcore 5000
|  5> %tddft
|  6>     Mode sTDDFT
|  7>     Ethresh 5.0
|  8>     maxcore 5000
|  9> end
| 10>
| 11> %pal
| 12>   nprocs 6
| 13>   end
| 14> * xyz 0 1
| 15>    C        3.86155         2.77853        -0.24069
| 16>    C        3.88002         4.10425        -0.59390
| 17>    C        4.47807         4.60208        -1.76623
| 18>    N        4.90729         5.06844        -2.72404
| 19>    C        3.33893         5.12866         0.20528
| 20>    N        2.93522         5.99514         0.84185
| 21>    C        4.65935         1.72707        -0.86187
| 22>    C        4.72411         0.62023         0.03473
| 23>    C        5.43836        -0.50335        -0.26464
| 24>    C        6.12258        -0.57688        -1.49976
| 25>    C        6.05048         0.52061        -2.40524
| 26>    C        5.30931         1.67622        -2.06450
| 27>    C        6.73291         0.43183        -3.63520
| 28>    C        7.45506        -0.68519        -3.95681
| 29>    C        7.52603        -1.76508        -3.06461
| 30>    C        6.87411        -1.71177        -1.86235
| 31>    C        3.91405         0.91609         1.23151
| 32>    O        3.77059         0.23744         2.22363
| 33>    C        3.24959         2.21615         0.93709
| 34>    C        2.17010         2.59621         1.68259
| 35>    C        1.16074         3.51825         1.35493
| 36>    C        0.77968         4.04688         0.12377
| 37>    C       -0.31683         4.94618         0.20795
| 38>    S       -0.66013         5.57705        -1.36824
| 39>    C        0.66325         4.57374        -2.00178
| 40>    N        1.26579         3.85780        -1.12928
| 41>    C        1.01055         4.63688        -3.43266
| 42>    C       -0.81225         5.12826         1.48757
| 43>    S        0.09494         4.13390         2.59737
| 44>    C       -1.86047         5.98582         1.92095
| 45>    C       -2.69808         6.60730         1.02174
| 46>    C       -3.71249         7.49790         1.35186
| 47>    C       -4.03782         7.76589         2.75901
| 48>    C       -3.35637         7.24861         3.80639
| 49>    S       -1.99853         6.21215         3.65476
| 50>    C       -5.17578         8.61784         2.72969
| 51>    C       -5.53959         8.86840         1.40616
| 52>    C       -6.66533         9.71542         1.31338
| 53>    C       -7.11933        10.07518         2.54240
| 54>    S       -6.20453         9.41034         3.85472
| 55>    C       -4.62333         8.19369         0.52312
| 56>    C       -4.71129         8.27377        -0.88259
| 57>    C       -3.75500         7.90838        -1.78507
| 58>    C       -3.94307         7.94762        -3.17831
| 59>    C       -5.03492         8.37704        -3.93433
| 60>    C       -4.86483         8.20971        -5.33527
| 61>    S       -6.21825         8.86515        -6.16511
| 62>    C       -6.91130         9.28634        -4.57921
| 63>    N       -6.20235         8.96307        -3.56214
| 64>    C       -8.23214         9.94617        -4.50774
| 65>    C       -3.64207         7.65555        -5.70717
| 66>    S       -2.69514         7.37198        -4.24223
| 67>    C       -3.00992         7.37158        -6.91904
| 68>    C       -3.54372         7.26424        -8.18375
| 69>    C       -2.77754         7.17322        -9.40856
| 70>    C       -1.41038         7.19111        -9.54162
| 71>    C       -0.73625         7.11807       -10.77758
| 72>    N       -0.11998         7.06125       -11.74532
| 73>    C       -0.47592         7.26247        -8.48922
| 74>    N        0.35327         7.30564        -7.69407
| 75>    C       -3.72588         7.06948       -10.51489
| 76>    C       -5.04442         7.03855        -9.97823
| 77>    C       -4.96603         7.11218        -8.50942
| 78>    O       -5.89327         6.96857        -7.72685
| 79>    C       -6.14616         6.92842       -10.77419
| 80>    C       -5.97828         6.85096       -12.17609
| 81>    C       -4.66365         6.88416       -12.72170
| 82>    C       -3.54016         6.99399       -11.86884
| 83>    C       -4.50603         6.80051       -14.11953
| 84>    C       -5.59428         6.68857       -14.94190
| 85>    C       -6.88867         6.65620       -14.40362
| 86>    C       -7.07641         6.73653       -13.05000
| 87>    H        5.48195        -1.32849         0.43075
| 88>    H        5.26460         2.49134        -2.76995
| 89>    H        6.67709         1.26697        -4.31802
| 90>    H        7.97606        -0.74233        -4.90086
| 91>    H        8.09953        -2.63934        -3.33437
| 92>    H        6.92511        -2.54061        -1.17135
| 93>    H        2.04237         2.06195         2.61896
| 94>    H        0.16768         4.98995        -4.02163
| 95>    H        1.33188         3.65742        -3.78036
| 96>    H        1.84314         5.32891        -3.57440
| 97>    H       -2.56332         6.34108        -0.01369
| 98>    H       -3.61926         7.46557         4.82983
| 99>    H       -7.11522        10.04080         0.39329
|100>    H       -7.95432        10.70646         2.77605
|101>    H       -5.62927         8.68744        -1.28019
|102>    H       -2.77793         7.58201        -1.46617
|103>    H       -8.18148        10.93554        -4.96134
|104>    H       -8.53876        10.04186        -3.46964
|105>    H       -8.97226         9.36487        -5.05518
|106>    H       -1.94332         7.21336        -6.82151
|107>    H       -7.13556         6.90134       -10.34192
|108>    H       -2.55856         7.01255       -12.31461
|109>    H       -3.50655         6.82532       -14.52872
|110>    H       -5.46282         6.62385       -16.01174
|111>    H       -7.73677         6.56674       -15.06618
|112>    H       -8.07157         6.71125       -12.63001
|113> *
|114>
|115>                          ****END OF INPUT****

CARTESIAN COORDINATES (ANGSTROEM)
---------------------------------
  C      3.861550    2.778530   -0.240690
  C      3.880020    4.104250   -0.593900
  C      4.478070    4.602080   -1.766230
  N      4.907290    5.068440   -2.724040
  C      3.338930    5.128660    0.205280
  N      2.935220    5.995140    0.841850
  C      4.659350    1.727070   -0.861870
  C      4.724110    0.620230    0.034730
  C      5.438360   -0.503350   -0.264640
  C      6.122580   -0.576880   -1.499760
  C      6.050480    0.520610   -2.405240
  C      5.309310    1.676220   -2.064500
  C      6.732910    0.431830   -3.635200
  C      7.455060   -0.685190   -3.956810
  C      7.526030   -1.765080   -3.064610
  C      6.874110   -1.711770   -1.862350
  C      3.914050    0.916090    1.231510
  O      3.770590    0.237440    2.223630
  C      3.249590    2.216150    0.937090
  C      2.170100    2.596210    1.682590
  C      1.160740    3.518250    1.354930
  C      0.779680    4.046880    0.123770
  C     -0.316830    4.946180    0.207950
  S     -0.660130    5.577050   -1.368240
  C      0.663250    4.573740   -2.001780
  N      1.265790    3.857800   -1.129280
  C      1.010550    4.636880   -3.432660
  C     -0.812250    5.128260    1.487570
  S      0.094940    4.133900    2.597370
  C     -1.860470    5.985820    1.920950
  C     -2.698080    6.607300    1.021740
  C     -3.712490    7.497900    1.351860
  C     -4.037820    7.765890    2.759010
  C     -3.356370    7.248610    3.806390
  S     -1.998530    6.212150    3.654760
  C     -5.175780    8.617840    2.729690
  C     -5.539590    8.868400    1.406160
  C     -6.665330    9.715420    1.313380
  C     -7.119330   10.075180    2.542400
  S     -6.204530    9.410340    3.854720
  C     -4.623330    8.193690    0.523120
  C     -4.711290    8.273770   -0.882590
  C     -3.755000    7.908380   -1.785070
  C     -3.943070    7.947620   -3.178310
  C     -5.034920    8.377040   -3.934330
  C     -4.864830    8.209710   -5.335270
  S     -6.218250    8.865150   -6.165110
  C     -6.911300    9.286340   -4.579210
  N     -6.202350    8.963070   -3.562140
  C     -8.232140    9.946170   -4.507740
  C     -3.642070    7.655550   -5.707170
  S     -2.695140    7.371980   -4.242230
  C     -3.009920    7.371580   -6.919040
  C     -3.543720    7.264240   -8.183750
  C     -2.777540    7.173220   -9.408560
  C     -1.410380    7.191110   -9.541620
  C     -0.736250    7.118070  -10.777580
  N     -0.119980    7.061250  -11.745320
  C     -0.475920    7.262470   -8.489220
  N      0.353270    7.305640   -7.694070
  C     -3.725880    7.069480  -10.514890
  C     -5.044420    7.038550   -9.978230
  C     -4.966030    7.112180   -8.509420
  O     -5.893270    6.968570   -7.726850
  C     -6.146160    6.928420  -10.774190
  C     -5.978280    6.850960  -12.176090
  C     -4.663650    6.884160  -12.721700
  C     -3.540160    6.993990  -11.868840
  C     -4.506030    6.800510  -14.119530
  C     -5.594280    6.688570  -14.941900
  C     -6.888670    6.656200  -14.403620
  C     -7.076410    6.736530  -13.050000
  H      5.481950   -1.328490    0.430750
  H      5.264600    2.491340   -2.769950
  H      6.677090    1.266970   -4.318020
  H      7.976060   -0.742330   -4.900860
  H      8.099530   -2.639340   -3.334370
  H      6.925110   -2.540610   -1.171350
  H      2.042370    2.061950    2.618960
  H      0.167680    4.989950   -4.021630
  H      1.331880    3.657420   -3.780360
  H      1.843140    5.328910   -3.574400
  H     -2.563320    6.341080   -0.013690
  H     -3.619260    7.465570    4.829830
  H     -7.115220   10.040800    0.393290
  H     -7.954320   10.706460    2.776050
  H     -5.629270    8.687440   -1.280190
  H     -2.777930    7.582010   -1.466170
  H     -8.181480   10.935540   -4.961340
  H     -8.538760   10.041860   -3.469640
  H     -8.972260    9.364870   -5.055180
  H     -1.943320    7.213360   -6.821510
  H     -7.135560    6.901340  -10.341920
  H     -2.558560    7.012550  -12.314610
  H     -3.506550    6.825320  -14.528720
  H     -5.462820    6.623850  -16.011740
  H     -7.736770    6.566740  -15.066180
  H     -8.071570    6.711250  -12.630010

 Total Charge           Charge          ....    0
 Multiplicity           Mult            ....    1
 Number of Electrons    NEL             ....  528
 Basis Dimension        Dim             .... 1162

ORBITAL ENERGIES
----------------

  NO   OCC          E(Eh)            E(eV)
   0   2.0000     -88.989065     -2421.5156
   1   2.0000     -88.980282     -2421.2766
   2   2.0000     -88.976667     -2421.1782
   3   2.0000     -88.968296     -2420.9504
   4   2.0000     -88.962944     -2420.8048
   5   2.0000     -88.962504     -2420.7928
   6   2.0000     -19.206259      -522.6289
   7   2.0000     -19.204759      -522.5881
   8   2.0000     -14.423073      -392.4718
   9   2.0000     -14.414036      -392.2259
  10   2.0000     -14.407916      -392.0593
  11   2.0000     -14.406192      -392.0124
  12   2.0000     -14.405615      -391.9967
  13   2.0000     -14.401935      -391.8966
  14   2.0000     -10.363970      -282.0179
  15   2.0000     -10.357192      -281.8335
  16   2.0000     -10.353055      -281.7210
  17   2.0000     -10.342267      -281.4274
  18   2.0000     -10.340938      -281.3912
  19   2.0000     -10.340109      -281.3687
  20   2.0000     -10.338212      -281.3170
  21   2.0000     -10.329781      -281.0876
  22   2.0000     -10.328953      -281.0651
  23   2.0000     -10.328748      -281.0595
  24   2.0000     -10.327398      -281.0228
  25   2.0000     -10.326980      -281.0114
  26   2.0000     -10.325716      -280.9770
  27   2.0000     -10.322231      -280.8822
  28   2.0000     -10.320835      -280.8442
  29   2.0000     -10.316569      -280.7281
  30   2.0000     -10.316115      -280.7158
  31   2.0000     -10.315575      -280.7011
  32   2.0000     -10.311902      -280.6011
  33   2.0000     -10.310824      -280.5718
  34   2.0000     -10.310764      -280.5702
  35   2.0000     -10.310040      -280.5504
  36   2.0000     -10.308813      -280.5171
  37   2.0000     -10.308216      -280.5008
  38   2.0000     -10.307441      -280.4797
  39   2.0000     -10.306030      -280.4413
  40   2.0000     -10.302485      -280.3449
  41   2.0000     -10.299115      -280.2532
  42   2.0000     -10.293729      -280.1066
  43   2.0000     -10.293459      -280.0993
  44   2.0000     -10.291645      -280.0499
  45   2.0000     -10.290415      -280.0164
  46   2.0000     -10.290026      -280.0058
  47   2.0000     -10.289510      -279.9918
  48   2.0000     -10.289131      -279.9815
  49   2.0000     -10.288823      -279.9731
  50   2.0000     -10.288552      -279.9657
  51   2.0000     -10.287850      -279.9466
  52   2.0000     -10.286606      -279.9128
  53   2.0000     -10.286369      -279.9063
  54   2.0000     -10.286199      -279.9017
  55   2.0000     -10.286075      -279.8983
  56   2.0000     -10.284802      -279.8637
  57   2.0000     -10.284347      -279.8513
  58   2.0000     -10.283855      -279.8379
  59   2.0000     -10.282758      -279.8081
  60   2.0000     -10.280286      -279.7408
  61   2.0000     -10.280055      -279.7345
  62   2.0000     -10.279705      -279.7250
  63   2.0000     -10.279161      -279.7102
  64   2.0000     -10.279107      -279.7087
  65   2.0000     -10.278616      -279.6953
  66   2.0000     -10.278388      -279.6892
  67   2.0000     -10.278329      -279.6875
  68   2.0000     -10.278079      -279.6808
  69   2.0000     -10.277863      -279.6749
  70   2.0000     -10.277677      -279.6698
  71   2.0000     -10.277369      -279.6614
  72   2.0000      -8.084446      -219.9890
  73   2.0000      -8.075324      -219.7407
  74   2.0000      -8.071902      -219.6476
  75   2.0000      -8.063711      -219.4247
  76   2.0000      -8.057880      -219.2661
  77   2.0000      -8.057650      -219.2598
  78   2.0000      -6.053974      -164.7370
  79   2.0000      -6.049428      -164.6133
  80   2.0000      -6.046374      -164.5302
  81   2.0000      -6.044779      -164.4868
  82   2.0000      -6.041396      -164.3947
  83   2.0000      -6.040582      -164.3726
  84   2.0000      -6.037367      -164.2851
  85   2.0000      -6.037184      -164.2801
  86   2.0000      -6.033458      -164.1787
  87   2.0000      -6.033084      -164.1686
  88   2.0000      -6.029086      -164.0598
  89   2.0000      -6.027361      -164.0128
  90   2.0000      -6.027134      -164.0067
  91   2.0000      -6.025488      -163.9619
  92   2.0000      -6.023063      -163.8959
  93   2.0000      -6.022740      -163.8871
  94   2.0000      -6.019886      -163.8094
  95   2.0000      -6.019487      -163.7986
  96   2.0000      -1.120925       -30.5019
  97   2.0000      -1.118949       -30.4482
  98   2.0000      -1.086508       -29.5654
  99   2.0000      -1.071585       -29.1593
 100   2.0000      -1.017328       -27.6829
 101   2.0000      -1.008822       -27.4514
 102   2.0000      -1.007199       -27.4073
 103   2.0000      -1.002453       -27.2781
 104   2.0000      -0.989464       -26.9247
 105   2.0000      -0.988973       -26.9113
 106   2.0000      -0.986616       -26.8472
 107   2.0000      -0.985828       -26.8258
 108   2.0000      -0.982273       -26.7290
 109   2.0000      -0.975545       -26.5459
 110   2.0000      -0.962677       -26.1958
 111   2.0000      -0.961270       -26.1575
 112   2.0000      -0.938075       -25.5263
 113   2.0000      -0.928639       -25.2696
 114   2.0000      -0.920389       -25.0451
 115   2.0000      -0.912144       -24.8207
 116   2.0000      -0.910572       -24.7779
 117   2.0000      -0.898181       -24.4408
 118   2.0000      -0.891591       -24.2614
 119   2.0000      -0.890416       -24.2295
 120   2.0000      -0.879997       -23.9459
 121   2.0000      -0.874638       -23.8001
 122   2.0000      -0.872913       -23.7532
 123   2.0000      -0.872047       -23.7296
 124   2.0000      -0.868528       -23.6339
 125   2.0000      -0.866514       -23.5791
 126   2.0000      -0.861204       -23.4345
 127   2.0000      -0.848241       -23.0818
 128   2.0000      -0.831888       -22.6368
 129   2.0000      -0.819843       -22.3091
 130   2.0000      -0.819017       -22.2866
 131   2.0000      -0.817192       -22.2369
 132   2.0000      -0.807881       -21.9836
 133   2.0000      -0.800845       -21.7921
 134   2.0000      -0.794928       -21.6311
 135   2.0000      -0.790933       -21.5224
 136   2.0000      -0.778194       -21.1757
 137   2.0000      -0.759674       -20.6718
 138   2.0000      -0.751481       -20.4488
 139   2.0000      -0.750229       -20.4148
 140   2.0000      -0.737418       -20.0662
 141   2.0000      -0.728905       -19.8345
 142   2.0000      -0.712706       -19.3937
 143   2.0000      -0.707992       -19.2654
 144   2.0000      -0.697263       -18.9735
 145   2.0000      -0.694901       -18.9092
 146   2.0000      -0.692870       -18.8539
 147   2.0000      -0.689706       -18.7679
 148   2.0000      -0.684829       -18.6352
 149   2.0000      -0.672547       -18.3009
 150   2.0000      -0.666943       -18.1484
 151   2.0000      -0.666702       -18.1419
 152   2.0000      -0.665616       -18.1123
 153   2.0000      -0.657854       -17.9011
 154   2.0000      -0.651053       -17.7161
 155   2.0000      -0.645853       -17.5745
 156   2.0000      -0.642085       -17.4720
 157   2.0000      -0.633248       -17.2316
 158   2.0000      -0.627278       -17.0691
 159   2.0000      -0.622791       -16.9470
 160   2.0000      -0.617276       -16.7969
 161   2.0000      -0.611758       -16.6468
 162   2.0000      -0.598818       -16.2947
 163   2.0000      -0.598312       -16.2809
 164   2.0000      -0.597376       -16.2554
 165   2.0000      -0.594853       -16.1868
 166   2.0000      -0.587960       -15.9992
 167   2.0000      -0.586802       -15.9677
 168   2.0000      -0.579826       -15.7779
 169   2.0000      -0.573893       -15.6164
 170   2.0000      -0.562812       -15.3149
 171   2.0000      -0.558236       -15.1904
 172   2.0000      -0.555208       -15.1080
 173   2.0000      -0.551955       -15.0195
 174   2.0000      -0.547762       -14.9054
 175   2.0000      -0.546129       -14.8609
 176   2.0000      -0.545455       -14.8426
 177   2.0000      -0.539700       -14.6860
 178   2.0000      -0.538348       -14.6492
 179   2.0000      -0.536538       -14.5999
 180   2.0000      -0.533217       -14.5096
 181   2.0000      -0.530239       -14.4285
 182   2.0000      -0.526450       -14.3254
 183   2.0000      -0.525230       -14.2922
 184   2.0000      -0.523866       -14.2551
 185   2.0000      -0.523271       -14.2389
 186   2.0000      -0.520556       -14.1650
 187   2.0000      -0.517990       -14.0952
 188   2.0000      -0.514485       -13.9998
 189   2.0000      -0.512676       -13.9506
 190   2.0000      -0.511085       -13.9073
 191   2.0000      -0.510082       -13.8800
 192   2.0000      -0.508017       -13.8239
 193   2.0000      -0.507449       -13.8084
 194   2.0000      -0.504148       -13.7186
 195   2.0000      -0.503866       -13.7109
 196   2.0000      -0.501327       -13.6418
 197   2.0000      -0.495618       -13.4864
 198   2.0000      -0.493801       -13.4370
 199   2.0000      -0.492998       -13.4152
 200   2.0000      -0.489974       -13.3329
 201   2.0000      -0.486341       -13.2340
 202   2.0000      -0.485717       -13.2170
 203   2.0000      -0.481110       -13.0917
 204   2.0000      -0.478895       -13.0314
 205   2.0000      -0.478506       -13.0208
 206   2.0000      -0.472493       -12.8572
 207   2.0000      -0.471233       -12.8229
 208   2.0000      -0.469713       -12.7815
 209   2.0000      -0.460763       -12.5380
 210   2.0000      -0.458369       -12.4728
 211   2.0000      -0.457405       -12.4466
 212   2.0000      -0.455785       -12.4025
 213   2.0000      -0.452015       -12.3000
 214   2.0000      -0.447816       -12.1857
 215   2.0000      -0.443235       -12.0610
 216   2.0000      -0.442402       -12.0384
 217   2.0000      -0.439611       -11.9624
 218   2.0000      -0.438968       -11.9449
 219   2.0000      -0.436378       -11.8744
 220   2.0000      -0.436017       -11.8646
 221   2.0000      -0.434811       -11.8318
 222   2.0000      -0.433668       -11.8007
 223   2.0000      -0.432494       -11.7688
 224   2.0000      -0.431037       -11.7291
 225   2.0000      -0.430421       -11.7123
 226   2.0000      -0.429570       -11.6892
 227   2.0000      -0.427098       -11.6219
 228   2.0000      -0.424836       -11.5604
 229   2.0000      -0.423976       -11.5370
 230   2.0000      -0.422472       -11.4961
 231   2.0000      -0.420562       -11.4441
 232   2.0000      -0.417471       -11.3600
 233   2.0000      -0.416377       -11.3302
 234   2.0000      -0.415616       -11.3095
 235   2.0000      -0.413977       -11.2649
 236   2.0000      -0.409819       -11.1518
 237   2.0000      -0.408267       -11.1095
 238   2.0000      -0.406048       -11.0491
 239   2.0000      -0.399417       -10.8687
 240   2.0000      -0.395395       -10.7593
 241   2.0000      -0.388448       -10.5702
 242   2.0000      -0.385178       -10.4812
 243   2.0000      -0.378628       -10.3030
 244   2.0000      -0.369336       -10.0502
 245   2.0000      -0.367482        -9.9997
 246   2.0000      -0.361923        -9.8484
 247   2.0000      -0.359548        -9.7838
 248   2.0000      -0.352613        -9.5951
 249   2.0000      -0.343741        -9.3537
 250   2.0000      -0.341992        -9.3061
 251   2.0000      -0.330467        -8.9925
 252   2.0000      -0.327257        -8.9051
 253   2.0000      -0.321593        -8.7510
 254   2.0000      -0.320898        -8.7321
 255   2.0000      -0.310475        -8.4484
 256   2.0000      -0.304598        -8.2885
 257   2.0000      -0.304512        -8.2862
 258   2.0000      -0.298210        -8.1147
 259   2.0000      -0.290833        -7.9140
 260   2.0000      -0.284143        -7.7319
 261   2.0000      -0.281555        -7.6615
 262   2.0000      -0.264824        -7.2062
 263   2.0000      -0.228946        -6.2299
 264   0.0000      -0.105360        -2.8670
 265   0.0000      -0.084771        -2.3067
 266   0.0000      -0.060614        -1.6494
 267   0.0000      -0.048841        -1.3290
 268   0.0000      -0.045172        -1.2292

MULLIKEN ATOMIC CHARGES
-----------------------
   0 C :    0.305375
   1 C :   -0.315012
   2 C :   -0.179847
   3 N :    0.140153
   4 C :   -0.220501
   5 N :    0.166311
   6 C :    0.045865
   7 C :    0.012171
   8 C :   -0.089445
   9 C :    0.097371
  10 C :    0.102166
  11 C :   -0.098910
  12 C :   -0.024017
  13 C :    0.037916
  14 C :    0.034870
  15 C :   -0.019298
  16 C :    0.133761
  17 O :   -0.145442
  18 C :   -0.133325
  19 C :    0.064923
  20 C :   -0.164755
  21 C :    0.091235
  22 C :   -0.008374
  23 S :    0.084310
  24 C :   -0.149878
  25 N :   -0.042203
  26 C :    0.127883
  27 C :   -0.142270
  28 S :    0.173274
  29 C :   -0.031967
  30 C :   -0.071553
  31 C :    0.057841
  32 C :    0.061125
  33 C :   -0.129420
  34 S :    0.157482
  35 C :   -0.107299
  36 C :    0.053123
  37 C :    0.012345
  38 C :   -0.067859
  39 S :    0.132105
  40 C :    0.085233
  41 C :   -0.007230
  42 C :    0.010325
  43 C :   -0.117314
  44 C :    0.061759
  45 C :    0.044036
  46 S :    0.169825
  47 C :   -0.202249
  48 N :   -0.036389
  49 C :    0.124046
  50 C :   -0.208756
  51 S :    0.138724
  52 C :    0.034424
  53 C :   -0.092431
  54 C :    0.326706
  55 C :   -0.366703
  56 C :   -0.187118
  57 N :    0.138328
  58 C :   -0.185587
  59 N :    0.140246
  60 C :    0.042535
  61 C :    0.007630
  62 C :    0.125569
  63 O :   -0.186853
  64 C :   -0.087953
  65 C :    0.097980
  66 C :    0.091461
  67 C :   -0.083943
  68 C :   -0.016487
  69 C :    0.031726
  70 C :    0.034499
  71 C :   -0.018171
  72 H :   -0.014007
  73 H :   -0.008926
  74 H :   -0.010921
  75 H :   -0.007106
  76 H :   -0.008288
  77 H :   -0.019095
  78 H :    0.015401
  79 H :    0.027032
  80 H :    0.052213
  81 H :    0.079945
  82 H :   -0.021222
  83 H :    0.042304
  84 H :   -0.009754
  85 H :    0.029258
  86 H :   -0.003386
  87 H :   -0.035485
  88 H :    0.041687
  89 H :    0.035302
  90 H :    0.040423
  91 H :   -0.001670
  92 H :   -0.021402
  93 H :   -0.010804
  94 H :   -0.011633
  95 H :   -0.006994
  96 H :   -0.008288
  97 H :   -0.022688
Sum of atomic charges:   -0.0000000

LOEWDIN ATOMIC CHARGES
----------------------
   0 C :    0.069665
   1 C :   -0.133466
   2 C :   -0.016022
   3 N :   -0.063232
   4 C :   -0.019328
   5 N :   -0.058913
   6 C :   -0.017707
   7 C :   -0.057559
   8 C :    0.030819
   9 C :   -0.011247
  10 C :   -0.005043
  11 C :    0.009809
  12 C :   -0.008209
  13 C :   -0.014487
  14 C :   -0.016567
  15 C :   -0.010187
  16 C :    0.083171
  17 O :   -0.147514
  18 C :   -0.082533
  19 C :    0.039316
  20 C :   -0.184758
  21 C :   -0.036805
  22 C :   -0.197688
  23 S :    0.392869
  24 C :   -0.067846
  25 N :   -0.091372
  26 C :   -0.061820
  27 C :   -0.186770
  28 S :    0.464189
  29 C :   -0.181034
  30 C :   -0.019313
  31 C :   -0.007830
  32 C :   -0.044148
  33 C :   -0.137928
  34 S :    0.464682
  35 C :   -0.204205
  36 C :   -0.035064
  37 C :   -0.060767
  38 C :   -0.161090
  39 S :    0.424268
  40 C :   -0.052142
  41 C :    0.026770
  42 C :   -0.071645
  43 C :   -0.128349
  44 C :   -0.075313
  45 C :   -0.170008
  46 S :    0.456575
  47 C :   -0.107264
  48 N :   -0.103214
  49 C :   -0.067446
  50 C :   -0.199937
  51 S :    0.446639
  52 C :    0.033245
  53 C :   -0.115019
  54 C :    0.078770
  55 C :   -0.153746
  56 C :   -0.017567
  57 N :   -0.064831
  58 C :   -0.020752
  59 N :   -0.065299
  60 C :   -0.025276
  61 C :   -0.051053
  62 C :    0.067938
  63 O :   -0.180815
  64 C :    0.023066
  65 C :   -0.009397
  66 C :   -0.009039
  67 C :    0.017557
  68 C :   -0.005747
  69 C :   -0.017919
  70 C :   -0.015635
  71 C :   -0.012569
  72 H :    0.038132
  73 H :    0.037491
  74 H :    0.033776
  75 H :    0.032286
  76 H :    0.031493
  77 H :    0.030891
  78 H :    0.045324
  79 H :    0.038300
  80 H :    0.053464
  81 H :    0.063496
  82 H :    0.023486
  83 H :    0.039091
  84 H :    0.033628
  85 H :    0.024549
  86 H :    0.035107
  87 H :    0.016555
  88 H :    0.044815
  89 H :    0.044135
  90 H :    0.043719
  91 H :    0.040667
  92 H :    0.035567
  93 H :    0.038264
  94 H :    0.033895
  95 H :    0.031911
  96 H :    0.031215
  97 H :    0.029829

  Mayer bond orders larger than 0.100000
B(  0-C ,  1-C ) :   1.6247 B(  0-C ,  6-C ) :   1.0037 B(  0-C , 18-C ) :   1.0672
B(  1-C ,  2-C ) :   1.1564 B(  1-C ,  4-C ) :   1.1666 B(  2-C ,  3-N ) :   2.9441
B(  4-C ,  5-N ) :   3.0063 B(  6-C ,  7-C ) :   1.2115 B(  6-C , 11-C ) :   1.4619
B(  7-C ,  8-C ) :   1.4760 B(  7-C , 16-C ) :   0.9192 B(  8-C ,  9-C ) :   1.1814
B(  8-C , 72-H ) :   1.0155 B(  9-C , 10-C ) :   1.2590 B(  9-C , 15-C ) :   1.2463
B( 10-C , 11-C ) :   1.1971 B( 10-C , 12-C ) :   1.2436 B( 11-C , 73-H ) :   0.9937
B( 12-C , 13-C ) :   1.4884 B( 12-C , 74-H ) :   0.9971 B( 13-C , 14-C ) :   1.2614
B( 13-C , 75-H ) :   0.9879 B( 14-C , 15-C ) :   1.4892 B( 14-C , 76-H ) :   0.9882
B( 15-C , 77-H ) :   0.9968 B( 16-C , 17-O ) :   2.2710 B( 16-C , 18-C ) :   0.9414
B( 18-C , 19-C ) :   1.6305 B( 19-C , 20-C ) :   1.1721 B( 19-C , 78-H ) :   0.9312
B( 20-C , 21-C ) :   1.3974 B( 20-C , 27-C ) :   0.1061 B( 20-C , 28-S ) :   1.0963
B( 21-C , 22-C ) :   1.2591 B( 21-C , 25-N ) :   1.3074 B( 22-C , 23-S ) :   1.0495
B( 22-C , 27-C ) :   1.5348 B( 23-S , 24-C ) :   1.0707 B( 24-C , 25-N ) :   1.7245
B( 24-C , 26-C ) :   1.0848 B( 26-C , 79-H ) :   0.9375 B( 26-C , 80-H ) :   0.9446
B( 26-C , 81-H ) :   0.9334 B( 27-C , 28-S ) :   1.1362 B( 27-C , 29-C ) :   1.1457
B( 29-C , 30-C ) :   1.5140 B( 29-C , 34-S ) :   1.0586 B( 30-C , 31-C ) :   1.2667
B( 30-C , 82-H ) :   0.9570 B( 31-C , 32-C ) :   1.0638 B( 31-C , 40-C ) :   1.3421
B( 32-C , 33-C ) :   1.5979 B( 32-C , 35-C ) :   1.1793 B( 33-C , 34-S ) :   1.1459
B( 33-C , 83-H ) :   0.9406 B( 35-C , 36-C ) :   1.4392 B( 35-C , 39-S ) :   1.0754
B( 36-C , 37-C ) :   1.2267 B( 36-C , 40-C ) :   1.0968 B( 37-C , 38-C ) :   1.5817
B( 37-C , 84-H ) :   0.9986 B( 38-C , 39-S ) :   1.1550 B( 38-C , 85-H ) :   0.9667
B( 40-C , 41-C ) :   1.1869 B( 41-C , 42-C ) :   1.5728 B( 41-C , 86-H ) :   0.9494
B( 42-C , 43-C ) :   1.1912 B( 42-C , 87-H ) :   0.9445 B( 43-C , 44-C ) :   1.3485
B( 43-C , 51-S ) :   1.1467 B( 44-C , 45-C ) :   1.2748 B( 44-C , 48-N ) :   1.2935
B( 45-C , 46-S ) :   1.1103 B( 45-C , 50-C ) :   1.3864 B( 46-S , 47-C ) :   1.0703
B( 47-C , 48-N ) :   1.7752 B( 47-C , 49-C ) :   1.0686 B( 49-C , 88-H ) :   0.9441
B( 49-C , 89-H ) :   0.9494 B( 49-C , 90-H ) :   0.9456 B( 50-C , 51-S ) :   1.0767
B( 50-C , 52-C ) :   1.3156 B( 52-C , 53-C ) :   1.4779 B( 52-C , 91-H ) :   0.9117
B( 53-C , 54-C ) :   1.1089 B( 53-C , 62-C ) :   0.9922 B( 54-C , 55-C ) :   1.5981
B( 54-C , 60-C ) :   0.9778 B( 55-C , 56-C ) :   1.1535 B( 55-C , 58-C ) :   1.1467
B( 56-C , 57-N ) :   2.9580 B( 58-C , 59-N ) :   2.9559 B( 60-C , 61-C ) :   1.2152
B( 60-C , 67-C ) :   1.4608 B( 61-C , 62-C ) :   0.9334 B( 61-C , 64-C ) :   1.4747
B( 62-C , 63-O ) :   2.1438 B( 64-C , 65-C ) :   1.1725 B( 64-C , 92-H ) :   1.0167
B( 65-C , 66-C ) :   1.2636 B( 65-C , 71-C ) :   1.2457 B( 66-C , 67-C ) :   1.1953
B( 66-C , 68-C ) :   1.2454 B( 67-C , 93-H ) :   0.9900 B( 68-C , 69-C ) :   1.4831
B( 68-C , 94-H ) :   0.9977 B( 69-C , 70-C ) :   1.2640 B( 69-C , 95-H ) :   0.9889
B( 70-C , 71-C ) :   1.4854 B( 70-C , 96-H ) :   0.9886 B( 71-C , 97-H ) :   0.9980

-----------------------------------------------------------------------------
         ABSORPTION SPECTRUM VIA TRANSITION ELECTRIC DIPOLE MOMENTS
-----------------------------------------------------------------------------
State   Energy  Wavelength   fosc         T2         TX        TY        TZ
        (cm-1)    (nm)                  (au**2)     (au)      (au)      (au)
-----------------------------------------------------------------------------
   0   12355.3    809.4   0.883999297  23.55447   2.57232  -1.72078   3.73853
   1   17516.0    570.9   0.744041536  13.98423  -1.83355   1.05053   3.08524
   2   20278.3    493.1   0.996429672  16.17673   2.47695  -1.40558  -2.84003
   3   21618.1    462.6   0.011951229   0.18200  -0.17346   0.24540   0.30280
   4   23645.5    422.9   0.063250562   0.88062   0.28326  -0.74476  -0.49571
   5   23872.2    418.9   0.004182984   0.05769  -0.04090   0.12566  -0.20056
   6   24466.7    408.7   0.114567860   1.54157  -0.81237   0.14794  -0.92722
   7   25602.2    390.6   0.099251042   1.27624  -0.24198  -0.69086  -0.86047
   8   26362.0    379.3   0.194386262   2.42752  -1.11534   0.80952  -0.72679
   9   26839.1    372.6   0.054057473   0.66308   0.47479   0.14247   0.64603
  10   27107.3    368.9   0.054896658   0.66671   0.05832  -0.16318  -0.79792
  11   27537.4    363.1   0.048037054   0.57429   0.49827  -0.27479   0.50051
  12   27802.8    359.7   0.138492331   1.63988  -0.35843   0.84689   0.89117
  13   28455.2    351.4   0.067993595   0.78665   0.71206  -0.52654   0.04881
  14   28869.5    346.4   0.027152511   0.30963  -0.40235   0.36966  -0.10535
  15   28919.3    345.8   0.003521227   0.04008   0.07112  -0.08619  -0.16613
  16   29368.1    340.5   0.013670643   0.15325  -0.36844   0.10113  -0.08528
  17   29855.4    334.9   0.063836612   0.70392  -0.44496   0.32409   0.63316
  18   29970.3    333.7   0.069912072   0.76796   0.37785   0.19219   0.76698
  19   30841.5    324.2   0.026967981   0.28786   0.23772   0.28566  -0.38698
  20   31593.1    316.5   0.367035326   3.82464  -1.21583   1.51010   0.25691
  21   31679.0    315.7   0.071060094   0.73846   0.11939  -0.00743   0.85097
  22   32026.9    312.2   0.129596457   1.33215  -0.73083   0.88893  -0.08864
  23   32494.2    307.7   0.231296584   2.34336  -1.00434  -0.15587  -1.14471
  24   32697.1    305.8   0.106534425   1.07265  -0.66780  -0.35730  -0.70642
  25   33206.9    301.1   0.043060698   0.42690   0.09666  -0.54938   0.34021
  26   33334.8    300.0   0.013857630   0.13686   0.19108  -0.09241  -0.30299
  27   33632.4    297.3   0.012013604   0.11760   0.03094  -0.19652  -0.27932
  28   33936.9    294.7   0.303128320   2.94056  -1.14605   1.22276   0.36332
  29   34320.4    291.4   0.016422387   0.15753   0.22186   0.13397  -0.30060
  30   34493.9    289.9   0.137357551   1.31095   0.39544  -1.02039  -0.33671
  31   34664.7    288.5   0.013715454   0.13026   0.02048  -0.24026  -0.26854
  32   34800.8    287.3   0.017111714   0.16188   0.04951  -0.37264  -0.14340
  33   35031.4    285.5   0.145961512   1.37169  -0.28409   0.53092   1.00454
  34   35389.5    282.6   0.113556727   1.05637  -0.93333  -0.10335  -0.41783
  35   35444.8    282.1   0.003947689   0.03667   0.02707  -0.01130   0.18922
  36   35651.4    280.5   0.173955193   1.60633   1.07216  -0.66620  -0.11396
  37   35950.5    278.2   0.020142169   0.18445   0.08956   0.14745   0.39330
  38   36169.7    276.5   0.084245167   0.76679   0.22685   0.75738   0.37643
  39   36305.0    275.4   0.175687183   1.59312   1.05430  -0.22600   0.65613
  40   36674.6    272.7   0.129932560   1.16635   0.91202  -0.50436   0.28319
  41   37068.0    269.8   0.016872314   0.14985  -0.36748  -0.05645  -0.10780
  42   37241.6    268.5   0.084315266   0.74534   0.23929  -0.74986   0.35466
  43   37335.8    267.8   0.015995793   0.14104  -0.24605   0.21587  -0.18412
  44   37674.6    265.4   0.029028194   0.25366   0.10419   0.07534  -0.48695
  45   37988.5    263.2   0.031908699   0.27652  -0.50985   0.09673   0.08495
  46   38415.9    260.3   0.322094873   2.76025   1.58799  -0.30326  -0.38284
  47   38844.4    257.4   0.100923801   0.85534   0.24482  -0.76492   0.45858
  48   38982.4    256.5   0.070991244   0.59953   0.76324  -0.12880   0.02001
  49   39060.0    256.0   0.022041300   0.18577   0.31291   0.27915   0.09970
  50   39225.5    254.9   0.039544315   0.33189  -0.09084  -0.19800   0.53332
  51   39723.1    251.7   0.007568645   0.06273  -0.08190   0.02409  -0.23546
  52   39807.6    251.2   0.024305409   0.20101   0.40524  -0.12886  -0.14206
  53   39908.5    250.6   0.023016911   0.18987  -0.36543  -0.13131   0.19770
  54   40084.1    249.5   0.160298616   1.31654   0.76437  -0.40471  -0.75398

FINAL SINGLE POINT ENERGY     -5089.683807014104

DIPOLE MOMENT
-------------
                                X             Y             Z
Electronic contribution:      5.70770       7.14557      38.01632
Nuclear contribution   :     -9.27065      -7.58057     -37.25959
                        -----------------------------------------
Total Dipole Moment    :     -3.56295      -0.43499       0.75673
                        -----------------------------------------
Magnitude (a.u.)       :      3.66831
Magnitude (Debye)      :      9.32410

Rotational constants in cm-1:     0.000810     0.000476     0.000312
Rotational constants in MHz :    24.277428    14.268518     9.349230

                             ****ORCA TERMINATED NORMALLY****
TOTAL RUN TIME: 0 days 0 hours 11 minutes 25 seconds 560 msec
