                         Program Version 4.2.0 -  RELEASE  -
|  1> # ORCA input file
|  2> # SCF done       -168.262400648582          0.000978348191
|  3> ! CAM-B3LYP def2-SVP def2/J RIJCOSX Grid4 TightSCF
|  4> %maxcore 5000
|  5> %tddft
|  6>     Mode sTDDFT
|  7>     Ethresh 5.0
|  8>     maxcore 5000
|  9> end
| 10>
| 11> %pal
| 12>   nprocs 6
| 13>   end
| 14> * xyz 0 1
| 15>    C        2.62961         2.66610        -0.73403
| 16>    C        2.96488         3.97817        -0.53592
| 17>    C        4.03900         4.62201        -1.18214
| 18>    N        4.88231         5.20224        -1.70224
| 19>    C        2.30012         4.82634         0.37221
| 20>    N        1.80894         5.54702         1.11862
| 21>    C        3.42108         1.69112        -1.47313
| 22>    C        3.01687         0.38214        -1.07721
| 23>    C        3.61122        -0.73654        -1.58609
| 24>    C        4.64576        -0.59494        -2.53847
| 25>    C        5.04263         0.71021        -2.95060
| 26>    C        4.41501         1.85137        -2.40057
| 27>    C        6.06973         0.83663        -3.90792
| 28>    C        6.67895        -0.27063        -4.43219
| 29>    C        6.28871        -1.55506        -4.02472
| 30>    C        5.29440        -1.71351        -3.09792
| 31>    C        1.90872         0.48665        -0.11145
| 32>    O        1.35081        -0.40316         0.48763
| 33>    C        1.56491         1.94052        -0.07050
| 34>    C        0.36311         2.31897         0.42600
| 35>    C       -0.34480         3.55731         0.26738
| 36>    C       -1.25091         3.97939         1.22500
| 37>    C       -1.92540         5.19796         1.14179
| 38>    C       -1.78504         6.06096         0.07085
| 39>    C       -0.92243         5.63607        -0.98194
| 40>    C       -0.20193         4.38773        -0.88039
| 41>    N        0.55107         4.10318        -1.93367
| 42>   Se        0.44812         5.41029        -3.09160
| 43>    N       -0.67309         6.30747        -2.09944
| 44>    C       -2.46421         7.34742         0.01439
| 45>    C       -2.84599         7.92620        -1.17977
| 46>    C       -3.45902         9.18010        -1.25680
| 47>    C       -3.70713         9.96268        -0.14693
| 48>    C       -3.34620         9.40589         1.11443
| 49>    C       -2.75051         8.08884         1.19776
| 50>    N       -2.48728         7.69399         2.43673
| 51>   Se       -2.97505         8.93278         3.56590
| 52>    N       -3.53855         9.98654         2.29231
| 53>    C       -4.28395        11.29588        -0.25327
| 54>    C       -3.95507        12.30097         0.63788
| 55>    C       -4.48889        13.58856         0.55834
| 56>    C       -5.42051        13.94674        -0.39828
| 57>    C       -5.74193        12.96961        -1.37969
| 58>    C       -5.18836        11.63849        -1.30113
| 59>    N       -5.60622        10.82815        -2.26729
| 60>   Se       -6.68119        11.70191        -3.33258
| 61>    N       -6.51602        13.18351        -2.43275
| 62>    C       -6.00065        15.26367        -0.41693
| 63>    C       -7.28660        15.55616        -0.72766
| 64>    C       -7.84879        16.88437        -0.93459
| 65>    C       -7.19653        18.08226        -0.81423
| 66>    C       -7.79678        19.33872        -1.04591
| 67>    N       -8.22272        20.39248        -1.20651
| 68>    C       -5.85030        18.25387        -0.42787
| 69>    N       -4.76645        18.48481        -0.12604
| 70>    C       -9.24356        16.71749        -1.32323
| 71>    C       -9.57127        15.33258        -1.27543
| 72>    C       -8.39388        14.56207        -0.84038
| 73>    O       -8.37058        13.38922        -0.53814
| 74>    C      -10.81896        14.87558        -1.58802
| 75>    C      -11.81315        15.79833        -1.98306
| 76>    C      -11.49303        17.18575        -2.03591
| 77>    C      -10.19505        17.63043        -1.69807
| 78>    C      -12.49282        18.09933        -2.42870
| 79>    C      -13.74851        17.66525        -2.75485
| 80>    C      -14.06258        16.29875        -2.70305
| 81>    C      -13.11576        15.38550        -2.32581
| 82>    H        3.29555        -1.71925        -1.26837
| 83>    H        4.72740         2.82799        -2.73601
| 84>    H        6.36882         1.82776        -4.21608
| 85>    H        7.46573        -0.16290        -5.16378
| 86>    H        6.77965        -2.41809        -4.44902
| 87>    H        4.98983        -2.70017        -2.78066
| 88>    H       -0.16155         1.54906         0.98511
| 89>    H       -1.40422         3.36229         2.09818
| 90>    H       -2.58052         5.47946         1.94960
| 91>    H       -2.66287         7.39154        -2.09720
| 92>    H       -3.72879         9.55893        -2.22893
| 93>    H       -3.25693        12.08296         1.42932
| 94>    H       -4.19870        14.31784         1.30066
| 95>    H       -5.32524        16.06661        -0.14924
| 96>    H      -11.04320        13.82027        -1.53905
| 97>    H       -9.98638        18.68726        -1.74610
| 98>    H      -12.24579        19.15016        -2.46647
| 99>    H      -14.50738        18.37240        -3.05455
|100>    H      -15.05885        15.97373        -2.96338
|101>    H      -13.35246        14.33235        -2.28349
|102> *
|103>
|104>                          ****END OF INPUT****

CARTESIAN COORDINATES (ANGSTROEM)
---------------------------------
  C      2.629610    2.666100   -0.734030
  C      2.964880    3.978170   -0.535920
  C      4.039000    4.622010   -1.182140
  N      4.882310    5.202240   -1.702240
  C      2.300120    4.826340    0.372210
  N      1.808940    5.547020    1.118620
  C      3.421080    1.691120   -1.473130
  C      3.016870    0.382140   -1.077210
  C      3.611220   -0.736540   -1.586090
  C      4.645760   -0.594940   -2.538470
  C      5.042630    0.710210   -2.950600
  C      4.415010    1.851370   -2.400570
  C      6.069730    0.836630   -3.907920
  C      6.678950   -0.270630   -4.432190
  C      6.288710   -1.555060   -4.024720
  C      5.294400   -1.713510   -3.097920
  C      1.908720    0.486650   -0.111450
  O      1.350810   -0.403160    0.487630
  C      1.564910    1.940520   -0.070500
  C      0.363110    2.318970    0.426000
  C     -0.344800    3.557310    0.267380
  C     -1.250910    3.979390    1.225000
  C     -1.925400    5.197960    1.141790
  C     -1.785040    6.060960    0.070850
  C     -0.922430    5.636070   -0.981940
  C     -0.201930    4.387730   -0.880390
  N      0.551070    4.103180   -1.933670
  Se     0.448120    5.410290   -3.091600
  N     -0.673090    6.307470   -2.099440
  C     -2.464210    7.347420    0.014390
  C     -2.845990    7.926200   -1.179770
  C     -3.459020    9.180100   -1.256800
  C     -3.707130    9.962680   -0.146930
  C     -3.346200    9.405890    1.114430
  C     -2.750510    8.088840    1.197760
  N     -2.487280    7.693990    2.436730
  Se    -2.975050    8.932780    3.565900
  N     -3.538550    9.986540    2.292310
  C     -4.283950   11.295880   -0.253270
  C     -3.955070   12.300970    0.637880
  C     -4.488890   13.588560    0.558340
  C     -5.420510   13.946740   -0.398280
  C     -5.741930   12.969610   -1.379690
  C     -5.188360   11.638490   -1.301130
  N     -5.606220   10.828150   -2.267290
  Se    -6.681190   11.701910   -3.332580
  N     -6.516020   13.183510   -2.432750
  C     -6.000650   15.263670   -0.416930
  C     -7.286600   15.556160   -0.727660
  C     -7.848790   16.884370   -0.934590
  C     -7.196530   18.082260   -0.814230
  C     -7.796780   19.338720   -1.045910
  N     -8.222720   20.392480   -1.206510
  C     -5.850300   18.253870   -0.427870
  N     -4.766450   18.484810   -0.126040
  C     -9.243560   16.717490   -1.323230
  C     -9.571270   15.332580   -1.275430
  C     -8.393880   14.562070   -0.840380
  O     -8.370580   13.389220   -0.538140
  C    -10.818960   14.875580   -1.588020
  C    -11.813150   15.798330   -1.983060
  C    -11.493030   17.185750   -2.035910
  C    -10.195050   17.630430   -1.698070
  C    -12.492820   18.099330   -2.428700
  C    -13.748510   17.665250   -2.754850
  C    -14.062580   16.298750   -2.703050
  C    -13.115760   15.385500   -2.325810
  H      3.295550   -1.719250   -1.268370
  H      4.727400    2.827990   -2.736010
  H      6.368820    1.827760   -4.216080
  H      7.465730   -0.162900   -5.163780
  H      6.779650   -2.418090   -4.449020
  H      4.989830   -2.700170   -2.780660
  H     -0.161550    1.549060    0.985110
  H     -1.404220    3.362290    2.098180
  H     -2.580520    5.479460    1.949600
  H     -2.662870    7.391540   -2.097200
  H     -3.728790    9.558930   -2.228930
  H     -3.256930   12.082960    1.429320
  H     -4.198700   14.317840    1.300660
  H     -5.325240   16.066610   -0.149240
  H    -11.043200   13.820270   -1.539050
  H     -9.986380   18.687260   -1.746100
  H    -12.245790   19.150160   -2.466470
  H    -14.507380   18.372400   -3.054550
  H    -15.058850   15.973730   -2.963380
  H    -13.352460   14.332350   -2.283490

 Total Charge           Charge          ....    0
 Multiplicity           Mult            ....    1
 Number of Electrons    NEL             ....  520
 Basis Dimension        Dim             .... 1092

ORBITAL ENERGIES
----------------

  NO   OCC          E(Eh)            E(eV)
   0   2.0000    -453.979459    -12353.4091
   1   2.0000    -453.975369    -12353.2978
   2   2.0000    -453.974992    -12353.2876
   3   2.0000     -58.193150     -1583.5161
   4   2.0000     -58.189305     -1583.4115
   5   2.0000     -58.188912     -1583.4008
   6   2.0000     -52.263853     -1422.1717
   7   2.0000     -52.261527     -1422.1085
   8   2.0000     -52.261012     -1422.0944
   9   2.0000     -52.259987     -1422.0666
  10   2.0000     -52.259585     -1422.0556
  11   2.0000     -52.257662     -1422.0033
  12   2.0000     -52.257259     -1421.9923
  13   2.0000     -52.257159     -1421.9896
  14   2.0000     -52.256791     -1421.9796
  15   2.0000     -19.209890      -522.7277
  16   2.0000     -19.208584      -522.6921
  17   2.0000     -14.435644      -392.8138
  18   2.0000     -14.433814      -392.7641
  19   2.0000     -14.431702      -392.7066
  20   2.0000     -14.431236      -392.6939
  21   2.0000     -14.430984      -392.6870
  22   2.0000     -14.429191      -392.6382
  23   2.0000     -14.414393      -392.2356
  24   2.0000     -14.412431      -392.1822
  25   2.0000     -14.410353      -392.1256
  26   2.0000     -14.408065      -392.0634
  27   2.0000     -10.360506      -281.9237
  28   2.0000     -10.360289      -281.9178
  29   2.0000     -10.339853      -281.3617
  30   2.0000     -10.337986      -281.3109
  31   2.0000     -10.333554      -281.1903
  32   2.0000     -10.332106      -281.1509
  33   2.0000     -10.324895      -280.9547
  34   2.0000     -10.323857      -280.9264
  35   2.0000     -10.322053      -280.8773
  36   2.0000     -10.321783      -280.8700
  37   2.0000     -10.321304      -280.8570
  38   2.0000     -10.319370      -280.8043
  39   2.0000     -10.317100      -280.7426
  40   2.0000     -10.315358      -280.6952
  41   2.0000     -10.313235      -280.6374
  42   2.0000     -10.311457      -280.5890
  43   2.0000     -10.309802      -280.5440
  44   2.0000     -10.309123      -280.5255
  45   2.0000     -10.301130      -280.3080
  46   2.0000     -10.299946      -280.2758
  47   2.0000     -10.299253      -280.2569
  48   2.0000     -10.297955      -280.2216
  49   2.0000     -10.297535      -280.2102
  50   2.0000     -10.295966      -280.1675
  51   2.0000     -10.295693      -280.1600
  52   2.0000     -10.295567      -280.1566
  53   2.0000     -10.295227      -280.1474
  54   2.0000     -10.295201      -280.1467
  55   2.0000     -10.294232      -280.1203
  56   2.0000     -10.294087      -280.1164
  57   2.0000     -10.293992      -280.1138
  58   2.0000     -10.293691      -280.1056
  59   2.0000     -10.293590      -280.1028
  60   2.0000     -10.293216      -280.0926
  61   2.0000     -10.293004      -280.0869
  62   2.0000     -10.292583      -280.0754
  63   2.0000     -10.291679      -280.0508
  64   2.0000     -10.291292      -280.0403
  65   2.0000     -10.285269      -279.8764
  66   2.0000     -10.284859      -279.8652
  67   2.0000     -10.284698      -279.8609
  68   2.0000     -10.284463      -279.8545
  69   2.0000     -10.284053      -279.8433
  70   2.0000     -10.283559      -279.8299
  71   2.0000     -10.283351      -279.8242
  72   2.0000     -10.282993      -279.8145
  73   2.0000     -10.282732      -279.8074
  74   2.0000     -10.282218      -279.7934
  75   2.0000     -10.281823      -279.7826
  76   2.0000     -10.281482      -279.7733
  77   2.0000     -10.279805      -279.7277
  78   2.0000     -10.278917      -279.7035
  79   2.0000      -7.968854      -216.8435
  80   2.0000      -7.965210      -216.7444
  81   2.0000      -7.964796      -216.7331
  82   2.0000      -5.919085      -161.0665
  83   2.0000      -5.915471      -160.9681
  84   2.0000      -5.915008      -160.9555
  85   2.0000      -5.912400      -160.8846
  86   2.0000      -5.908779      -160.7861
  87   2.0000      -5.908620      -160.7817
  88   2.0000      -5.908318      -160.7735
  89   2.0000      -5.904892      -160.6803
  90   2.0000      -5.904605      -160.6725
  91   2.0000      -2.273199       -61.8569
  92   2.0000      -2.272540       -61.8390
  93   2.0000      -2.269609       -61.7592
  94   2.0000      -2.269134       -61.7463
  95   2.0000      -2.268965       -61.7417
  96   2.0000      -2.268459       -61.7279
  97   2.0000      -2.268031       -61.7163
  98   2.0000      -2.264386       -61.6171
  99   2.0000      -2.264021       -61.6072
 100   2.0000      -2.262874       -61.5759
 101   2.0000      -2.262697       -61.5711
 102   2.0000      -2.259216       -61.4764
 103   2.0000      -2.259063       -61.4722
 104   2.0000      -2.258874       -61.4671
 105   2.0000      -2.258680       -61.4618
 106   2.0000      -1.124907       -30.6103
 107   2.0000      -1.124027       -30.5863
 108   2.0000      -1.090978       -29.6870
 109   2.0000      -1.087438       -29.5907
 110   2.0000      -1.085898       -29.5488
 111   2.0000      -1.015660       -27.6375
 112   2.0000      -1.012135       -27.5416
 113   2.0000      -0.995768       -27.0962
 114   2.0000      -0.992994       -27.0207
 115   2.0000      -0.991688       -26.9852
 116   2.0000      -0.988651       -26.9026
 117   2.0000      -0.975501       -26.5447
 118   2.0000      -0.973412       -26.4879
 119   2.0000      -0.971249       -26.4290
 120   2.0000      -0.969732       -26.3877
 121   2.0000      -0.963161       -26.2089
 122   2.0000      -0.961545       -26.1650
 123   2.0000      -0.952424       -25.9168
 124   2.0000      -0.939873       -25.5752
 125   2.0000      -0.921010       -25.0620
 126   2.0000      -0.917822       -24.9752
 127   2.0000      -0.899927       -24.4883
 128   2.0000      -0.896613       -24.3981
 129   2.0000      -0.882325       -24.0093
 130   2.0000      -0.878884       -23.9157
 131   2.0000      -0.877070       -23.8663
 132   2.0000      -0.873216       -23.7614
 133   2.0000      -0.857113       -23.3232
 134   2.0000      -0.849435       -23.1143
 135   2.0000      -0.844788       -22.9879
 136   2.0000      -0.840522       -22.8718
 137   2.0000      -0.835083       -22.7238
 138   2.0000      -0.825838       -22.4722
 139   2.0000      -0.824183       -22.4272
 140   2.0000      -0.815826       -22.1998
 141   2.0000      -0.790256       -21.5040
 142   2.0000      -0.776478       -21.1291
 143   2.0000      -0.758464       -20.6389
 144   2.0000      -0.755101       -20.5473
 145   2.0000      -0.745375       -20.2827
 146   2.0000      -0.734051       -19.9745
 147   2.0000      -0.726020       -19.7560
 148   2.0000      -0.717864       -19.5341
 149   2.0000      -0.710424       -19.3316
 150   2.0000      -0.705171       -19.1887
 151   2.0000      -0.702064       -19.1041
 152   2.0000      -0.701171       -19.0798
 153   2.0000      -0.698091       -18.9960
 154   2.0000      -0.695542       -18.9267
 155   2.0000      -0.690629       -18.7930
 156   2.0000      -0.682159       -18.5625
 157   2.0000      -0.675435       -18.3795
 158   2.0000      -0.671653       -18.2766
 159   2.0000      -0.668585       -18.1931
 160   2.0000      -0.658375       -17.9153
 161   2.0000      -0.641928       -17.4677
 162   2.0000      -0.634111       -17.2550
 163   2.0000      -0.629013       -17.1163
 164   2.0000      -0.619360       -16.8536
 165   2.0000      -0.614626       -16.7248
 166   2.0000      -0.604543       -16.4504
 167   2.0000      -0.602860       -16.4046
 168   2.0000      -0.596561       -16.2333
 169   2.0000      -0.592247       -16.1158
 170   2.0000      -0.588388       -16.0109
 171   2.0000      -0.584009       -15.8917
 172   2.0000      -0.579000       -15.7554
 173   2.0000      -0.574016       -15.6198
 174   2.0000      -0.568436       -15.4679
 175   2.0000      -0.561519       -15.2797
 176   2.0000      -0.560324       -15.2472
 177   2.0000      -0.557694       -15.1756
 178   2.0000      -0.553010       -15.0482
 179   2.0000      -0.548116       -14.9150
 180   2.0000      -0.545403       -14.8412
 181   2.0000      -0.543810       -14.7978
 182   2.0000      -0.542999       -14.7758
 183   2.0000      -0.540382       -14.7045
 184   2.0000      -0.537330       -14.6215
 185   2.0000      -0.534015       -14.5313
 186   2.0000      -0.531532       -14.4637
 187   2.0000      -0.530219       -14.4280
 188   2.0000      -0.526901       -14.3377
 189   2.0000      -0.524222       -14.2648
 190   2.0000      -0.521706       -14.1963
 191   2.0000      -0.516172       -14.0458
 192   2.0000      -0.513892       -13.9837
 193   2.0000      -0.510392       -13.8885
 194   2.0000      -0.508920       -13.8484
 195   2.0000      -0.508151       -13.8275
 196   2.0000      -0.502725       -13.6799
 197   2.0000      -0.501284       -13.6406
 198   2.0000      -0.493951       -13.4411
 199   2.0000      -0.491005       -13.3609
 200   2.0000      -0.490448       -13.3458
 201   2.0000      -0.483919       -13.1681
 202   2.0000      -0.481784       -13.1100
 203   2.0000      -0.481417       -13.1000
 204   2.0000      -0.478812       -13.0291
 205   2.0000      -0.476010       -12.9529
 206   2.0000      -0.464069       -12.6280
 207   2.0000      -0.462518       -12.5858
 208   2.0000      -0.462148       -12.5757
 209   2.0000      -0.460548       -12.5321
 210   2.0000      -0.459702       -12.5091
 211   2.0000      -0.459124       -12.4934
 212   2.0000      -0.455285       -12.3889
 213   2.0000      -0.454213       -12.3598
 214   2.0000      -0.447129       -12.1670
 215   2.0000      -0.446391       -12.1469
 216   2.0000      -0.443786       -12.0760
 217   2.0000      -0.442559       -12.0426
 218   2.0000      -0.439624       -11.9628
 219   2.0000      -0.438321       -11.9273
 220   2.0000      -0.436479       -11.8772
 221   2.0000      -0.435102       -11.8397
 222   2.0000      -0.434550       -11.8247
 223   2.0000      -0.432035       -11.7563
 224   2.0000      -0.429253       -11.6806
 225   2.0000      -0.427859       -11.6426
 226   2.0000      -0.426508       -11.6059
 227   2.0000      -0.425396       -11.5756
 228   2.0000      -0.422444       -11.4953
 229   2.0000      -0.420456       -11.4412
 230   2.0000      -0.417367       -11.3571
 231   2.0000      -0.411400       -11.1948
 232   2.0000      -0.404886       -11.0175
 233   2.0000      -0.403903       -10.9908
 234   2.0000      -0.400616       -10.9013
 235   2.0000      -0.399267       -10.8646
 236   2.0000      -0.394982       -10.7480
 237   2.0000      -0.392779       -10.6881
 238   2.0000      -0.390672       -10.6307
 239   2.0000      -0.384309       -10.4576
 240   2.0000      -0.373857       -10.1732
 241   2.0000      -0.372233       -10.1290
 242   2.0000      -0.369314       -10.0496
 243   2.0000      -0.356677        -9.7057
 244   2.0000      -0.356083        -9.6895
 245   2.0000      -0.352308        -9.5868
 246   2.0000      -0.343048        -9.3348
 247   2.0000      -0.340712        -9.2713
 248   2.0000      -0.332408        -9.0453
 249   2.0000      -0.330148        -8.9838
 250   2.0000      -0.323763        -8.8100
 251   2.0000      -0.319989        -8.7074
 252   2.0000      -0.318382        -8.6636
 253   2.0000      -0.317615        -8.6428
 254   2.0000      -0.312034        -8.4909
 255   2.0000      -0.307908        -8.3786
 256   2.0000      -0.294362        -8.0100
 257   2.0000      -0.288916        -7.8618
 258   2.0000      -0.286671        -7.8007
 259   2.0000      -0.259219        -7.0537
 260   0.0000      -0.102068        -2.7774
 261   0.0000      -0.089487        -2.4351
 262   0.0000      -0.066788        -1.8174
 263   0.0000      -0.057511        -1.5650
 264   0.0000      -0.051845        -1.4108

MULLIKEN ATOMIC CHARGES
-----------------------
   0 C :    0.338377
   1 C :   -0.345736
   2 C :   -0.192862
   3 N :    0.152533
   4 C :   -0.204519
   5 N :    0.171427
   6 C :    0.033472
   7 C :    0.014188
   8 C :   -0.080298
   9 C :    0.092639
  10 C :    0.093022
  11 C :   -0.084208
  12 C :   -0.016177
  13 C :    0.031849
  14 C :    0.034925
  15 C :   -0.013265
  16 C :    0.131513
  17 O :   -0.142654
  18 C :   -0.115278
  19 C :   -0.004597
  20 C :    0.095961
  21 C :   -0.003909
  22 C :   -0.010318
  23 C :    0.069981
  24 C :    0.041337
  25 C :   -0.019178
  26 N :   -0.283805
  27 Se:    0.533464
  28 N :   -0.282636
  29 C :    0.063875
  30 C :   -0.012929
  31 C :   -0.018864
  32 C :    0.071468
  33 C :    0.000837
  34 C :    0.008162
  35 N :   -0.285812
  36 Se:    0.526447
  37 N :   -0.289847
  38 C :    0.065054
  39 C :   -0.013989
  40 C :   -0.019887
  41 C :    0.092419
  42 C :    0.026812
  43 C :    0.025949
  44 N :   -0.291086
  45 Se:    0.527000
  46 N :   -0.276781
  47 C :   -0.061653
  48 C :   -0.047951
  49 C :    0.313196
  50 C :   -0.353757
  51 C :   -0.183906
  52 N :    0.146747
  53 C :   -0.185373
  54 N :    0.154292
  55 C :    0.052122
  56 C :    0.002432
  57 C :    0.151361
  58 O :   -0.144107
  59 C :   -0.087976
  60 C :    0.101319
  61 C :    0.098586
  62 C :   -0.089901
  63 C :   -0.020934
  64 C :    0.035911
  65 C :    0.038902
  66 C :   -0.020736
  67 H :   -0.013772
  68 H :   -0.010690
  69 H :   -0.013022
  70 H :   -0.005033
  71 H :   -0.006605
  72 H :   -0.018897
  73 H :    0.019977
  74 H :   -0.009553
  75 H :   -0.006405
  76 H :   -0.009749
  77 H :   -0.008357
  78 H :   -0.004969
  79 H :   -0.007306
  80 H :    0.026037
  81 H :   -0.016105
  82 H :   -0.008523
  83 H :   -0.008956
  84 H :   -0.005097
  85 H :   -0.006890
  86 H :   -0.018738
Sum of atomic charges:   -0.0000000

LOEWDIN ATOMIC CHARGES
----------------------
   0 C :    0.080769
   1 C :   -0.137729
   2 C :   -0.019822
   3 N :   -0.059410
   4 C :   -0.019532
   5 N :   -0.051712
   6 C :   -0.018178
   7 C :   -0.056406
   8 C :    0.031820
   9 C :   -0.010143
  10 C :   -0.005556
  11 C :    0.013239
  12 C :   -0.007447
  13 C :   -0.014486
  14 C :   -0.014946
  15 C :   -0.009459
  16 C :    0.085468
  17 O :   -0.142682
  18 C :   -0.077305
  19 C :    0.071396
  20 C :   -0.046094
  21 C :    0.028280
  22 C :    0.001592
  23 C :    0.004134
  24 C :   -0.025843
  25 C :   -0.035108
  26 N :   -0.247521
  27 Se:    0.573004
  28 N :   -0.242193
  29 C :   -0.023719
  30 C :    0.009956
  31 C :    0.007332
  32 C :   -0.020376
  33 C :   -0.031262
  34 C :   -0.029761
  35 N :   -0.247687
  36 Se:    0.567033
  37 N :   -0.250378
  38 C :   -0.002565
  39 C :   -0.000802
  40 C :    0.015473
  41 C :   -0.037147
  42 C :   -0.027654
  43 C :   -0.030175
  44 N :   -0.250865
  45 Se:    0.573294
  46 N :   -0.242674
  47 C :    0.077649
  48 C :   -0.073754
  49 C :    0.078620
  50 C :   -0.136752
  51 C :   -0.016368
  52 N :   -0.054114
  53 C :   -0.020122
  54 N :   -0.050833
  55 C :   -0.026053
  56 C :   -0.051066
  57 C :    0.084321
  58 O :   -0.138962
  59 C :    0.028002
  60 C :   -0.007516
  61 C :   -0.007018
  62 C :    0.019429
  63 C :   -0.005147
  64 C :   -0.015067
  65 C :   -0.012550
  66 C :   -0.011213
  67 H :    0.038537
  68 H :    0.037260
  69 H :    0.033356
  70 H :    0.032627
  71 H :    0.032070
  72 H :    0.031273
  73 H :    0.046759
  74 H :    0.037265
  75 H :    0.033695
  76 H :    0.032027
  77 H :    0.032344
  78 H :    0.033638
  79 H :    0.037615
  80 H :    0.046556
  81 H :    0.037477
  82 H :    0.038745
  83 H :    0.034716
  84 H :    0.033000
  85 H :    0.032180
  86 H :    0.031222

  Mayer bond orders larger than 0.100000
B(  0-C ,  1-C ) :   1.6472 B(  0-C ,  6-C ) :   1.0087 B(  0-C , 18-C ) :   1.0196
B(  1-C ,  2-C ) :   1.1461 B(  1-C ,  4-C ) :   1.1654 B(  2-C ,  3-N ) :   2.9846
B(  4-C ,  5-N ) :   3.0075 B(  6-C ,  7-C ) :   1.2125 B(  6-C , 11-C ) :   1.4589
B(  7-C ,  8-C ) :   1.4710 B(  7-C , 16-C ) :   0.9213 B(  8-C ,  9-C ) :   1.1875
B(  8-C , 67-H ) :   1.0161 B(  9-C , 10-C ) :   1.2587 B(  9-C , 15-C ) :   1.2424
B( 10-C , 11-C ) :   1.2008 B( 10-C , 12-C ) :   1.2429 B( 11-C , 68-H ) :   0.9947
B( 12-C , 13-C ) :   1.4887 B( 12-C , 69-H ) :   0.9978 B( 13-C , 14-C ) :   1.2596
B( 13-C , 70-H ) :   0.9896 B( 14-C , 15-C ) :   1.4904 B( 14-C , 71-H ) :   0.9889
B( 15-C , 72-H ) :   0.9981 B( 16-C , 17-O ) :   2.2700 B( 16-C , 18-C ) :   0.9334
B( 18-C , 19-C ) :   1.7056 B( 19-C , 20-C ) :   1.0616 B( 19-C , 73-H ) :   0.9431
B( 20-C , 21-C ) :   1.4414 B( 20-C , 23-C ) :   0.1075 B( 20-C , 25-C ) :   1.1471
B( 21-C , 22-C ) :   1.1891 B( 21-C , 74-H ) :   0.9985 B( 22-C , 23-C ) :   1.5017
B( 22-C , 75-H ) :   0.9831 B( 23-C , 24-C ) :   1.1816 B( 23-C , 29-C ) :   1.0035
B( 24-C , 25-C ) :   1.1216 B( 24-C , 28-N ) :   1.5811 B( 25-C , 26-N ) :   1.6001
B( 26-N , 27-Se) :   1.2192 B( 26-N , 28-N ) :   0.1194 B( 27-Se, 28-N ) :   1.2384
B( 29-C , 30-C ) :   1.4988 B( 29-C , 32-C ) :   0.1137 B( 29-C , 34-C ) :   1.1822
B( 30-C , 31-C ) :   1.1791 B( 30-C , 76-H ) :   0.9855 B( 31-C , 32-C ) :   1.5069
B( 31-C , 77-H ) :   0.9853 B( 32-C , 33-C ) :   1.1742 B( 32-C , 38-C ) :   1.0048
B( 33-C , 34-C ) :   1.1172 B( 33-C , 37-N ) :   1.5816 B( 34-C , 35-N ) :   1.5837
B( 35-N , 36-Se) :   1.2314 B( 35-N , 37-N ) :   0.1247 B( 36-Se, 37-N ) :   1.2323
B( 38-C , 39-C ) :   1.5085 B( 38-C , 41-C ) :   0.1082 B( 38-C , 43-C ) :   1.1766
B( 39-C , 40-C ) :   1.1885 B( 39-C , 78-H ) :   0.9861 B( 40-C , 41-C ) :   1.4473
B( 40-C , 79-H ) :   1.0000 B( 41-C , 42-C ) :   1.1670 B( 41-C , 47-C ) :   1.0614
B( 42-C , 43-C ) :   1.1246 B( 42-C , 46-N ) :   1.5894 B( 43-C , 44-N ) :   1.5734
B( 44-N , 45-Se) :   1.2387 B( 44-N , 46-N ) :   0.1261 B( 45-Se, 46-N ) :   1.2413
B( 47-C , 48-C ) :   1.6874 B( 47-C , 80-H ) :   0.9353 B( 48-C , 49-C ) :   1.0618
B( 48-C , 57-C ) :   0.9209 B( 49-C , 50-C ) :   1.6378 B( 49-C , 55-C ) :   0.9928
B( 50-C , 51-C ) :   1.1465 B( 50-C , 53-C ) :   1.1414 B( 51-C , 52-N ) :   2.9629
B( 53-C , 54-N ) :   2.9642 B( 55-C , 56-C ) :   1.2172 B( 55-C , 62-C ) :   1.4398
B( 56-C , 57-C ) :   0.9379 B( 56-C , 59-C ) :   1.4706 B( 57-C , 58-O ) :   2.2425
B( 59-C , 60-C ) :   1.1795 B( 59-C , 81-H ) :   1.0165 B( 60-C , 61-C ) :   1.2580
B( 60-C , 66-C ) :   1.2415 B( 61-C , 62-C ) :   1.2102 B( 61-C , 63-C ) :   1.2366
B( 62-C , 82-H ) :   0.9896 B( 63-C , 64-C ) :   1.4911 B( 63-C , 83-H ) :   0.9978
B( 64-C , 65-C ) :   1.2591 B( 64-C , 84-H ) :   0.9878 B( 65-C , 66-C ) :   1.4916
B( 65-C , 85-H ) :   0.9877 B( 66-C , 86-H ) :   0.9980

-----------------------------------------------------------------------------
         ABSORPTION SPECTRUM VIA TRANSITION ELECTRIC DIPOLE MOMENTS
-----------------------------------------------------------------------------
State   Energy  Wavelength   fosc         T2         TX        TY        TZ
        (cm-1)    (nm)                  (au**2)     (au)      (au)      (au)
-----------------------------------------------------------------------------
   0   18345.7    545.1   1.479276708  26.54554   3.13148  -4.09137   0.01041
   1   21625.0    462.4   0.071924849   1.09496  -0.02599   0.95919  -0.41742
   2   24828.6    402.8   0.096176604   1.27524   0.52793  -0.92820  -0.36740
   3   25420.3    393.4   0.007700198   0.09972   0.23373   0.10655  -0.18369
   4   25776.5    387.9   0.032528867   0.41545   0.63373   0.11582  -0.02065
   5   26321.0    379.9   0.009621822   0.12035   0.34321   0.05052  -0.00064
   6   26880.2    372.0   0.009830654   0.12040  -0.05715  -0.00249   0.34224
   7   27107.3    368.9   0.050614531   0.61470  -0.72167   0.27119  -0.14267
   8   27847.9    359.1   0.021454395   0.25363   0.35143   0.07304   0.35326
   9   28356.1    352.7   0.028643122   0.33254   0.52089   0.24629   0.02362
  10   29110.5    343.5   0.052545475   0.59424   0.03668   0.76404   0.09555
  11   29277.5    341.6   0.010399879   0.11694   0.20871  -0.15221  -0.22408
  12   29720.4    336.5   0.076831100   0.85105   0.77566  -0.40656   0.29001
  13   30315.2    329.9   0.108681761   1.18024  -1.04018  -0.25821  -0.17775
  14   30683.0    325.9   0.010648540   0.11425   0.03416  -0.16215  -0.29461
  15   30985.2    322.7   0.095582202   1.01554  -0.44475   0.22828  -0.87500
  16   31139.8    321.1   0.067999523   0.71890   0.57056   0.06165  -0.62415
  17   31578.6    316.7   0.043773072   0.45634  -0.01255   0.66221   0.13290
  18   31789.3    314.6   0.058585435   0.60671  -0.38656   0.36031   0.57224
  19   32010.6    312.4   0.044557967   0.45825  -0.58808   0.33455   0.02212
  20   32241.2    310.2   0.050133512   0.51191  -0.22445   0.42332  -0.53135
  21   32701.3    305.8   0.040436313   0.40708   0.19501   0.44927   0.40892
  22   33044.4    302.6   0.306136329   3.04995  -1.66686  -0.33021  -0.40310
  23   33484.5    298.6   0.305021531   2.99890   1.35825  -0.92104  -0.55294
  24   33541.5    298.1   0.357980206   3.51360   0.17526  -1.60941  -0.94482
  25   33759.8    296.2   0.026706733   0.26043  -0.34964   0.30366   0.21441
  26   34148.6    292.8   0.031150254   0.30031  -0.00842  -0.27120  -0.47612
  27   34827.9    287.1   0.032461259   0.30684  -0.24056  -0.48639  -0.11134
  28   34874.5    286.7   0.064679013   0.61056   0.27082   0.39265   0.61891
  29   34997.8    285.7   0.042822231   0.40281   0.17382  -0.54093  -0.28283
  30   35241.9    283.8   0.033317672   0.31124   0.53365   0.01685  -0.16178
  31   35649.7    280.5   0.011674208   0.10781   0.30439  -0.04658   0.11394
  32   35977.1    278.0   0.050735478   0.46426   0.66308   0.07985   0.13492
  33   36147.1    276.6   0.071415071   0.65042   0.15258   0.64389   0.46102
  34   36336.7    275.2   0.122847576   1.11300   0.99724  -0.34097  -0.04754
  35   36703.0    272.5   0.148522104   1.33219   1.09755  -0.35297  -0.05463
  36   36959.7    270.6   0.187223457   1.66766   0.72661  -0.93750  -0.51068
  37   37143.2    269.2   0.240039565   2.12755   1.21565   0.70196   0.39620
  38   37244.6    268.5   0.010029139   0.08865   0.14077  -0.23974  -0.10658
  39   37759.8    264.8   0.021771959   0.18982   0.39653  -0.17824  -0.02859
  40   37902.5    263.8   0.051871015   0.45054  -0.01021  -0.66777  -0.06726
  41   38050.1    262.8   0.105778645   0.91520   0.16303   0.94188  -0.03850
  42   38056.3    262.8   0.197129466   1.70530   0.49911   1.20646   0.02547
  43   38924.8    256.9   0.030333964   0.25655  -0.18228  -0.28666   0.37570
  44   39028.2    256.2   0.020109727   0.16963  -0.16359  -0.30886  -0.21788
  45   39548.4    252.9   0.069924217   0.58207  -0.05734   0.74898  -0.13347
  46   39643.0    252.3   0.013481979   0.11196   0.31295   0.11756   0.01416
  47   39840.0    251.0   0.113680360   0.93938  -0.64283   0.72530   0.00947
  48   39945.5    250.3   0.003433366   0.02830   0.09524  -0.10644   0.08886
  49   40094.3    249.4   0.056289269   0.46219  -0.24891   0.51692  -0.36473
  50   40220.0    248.6   0.023698458   0.19398   0.07458  -0.41161   0.13781

FINAL SINGLE POINT ENERGY     -9892.134220828104

DIPOLE MOMENT
-------------
                                X             Y             Z
Electronic contribution:      1.25879       0.02442      10.01992
Nuclear contribution   :     -3.04320      -2.65236     -11.65359
                        -----------------------------------------
Total Dipole Moment    :     -1.78441      -2.62794      -1.63368
                        -----------------------------------------
Magnitude (a.u.)       :      3.57198
Magnitude (Debye)      :      9.07926

Rotational constants in cm-1:     0.002493     0.000264     0.000258
Rotational constants in MHz :    74.740712     7.925277     7.736208

                             ****ORCA TERMINATED NORMALLY****
TOTAL RUN TIME: 0 days 0 hours 10 minutes 5 seconds 157 msec
