                         Program Version 4.2.0 -  RELEASE  -
|  1> # ORCA input file
|  2> # SCF done       -207.572058444101          0.000304286745
|  3> ! CAM-B3LYP def2-SVP def2/J RIJCOSX Grid4 TightSCF
|  4> %maxcore 5000
|  5> %tddft
|  6>     Mode sTDDFT
|  7>     Ethresh 5.0
|  8>     maxcore 5000
|  9> end
| 10>
| 11> %pal
| 12>   nprocs 6
| 13>   end
| 14> * xyz 0 1
| 15>    C        1.12985         2.61345         2.03624
| 16>    C       -0.08216         2.19899         2.52830
| 17>    C       -0.31456         1.89966         3.88502
| 18>    N       -0.55338         1.65165         4.98012
| 19>    C       -1.18826         1.91907         1.70205
| 20>    N       -2.09014         1.64367         1.04647
| 21>    C        2.38356         2.63140         2.78254
| 22>    C        3.46164         2.57716         1.85060
| 23>    C        4.76232         2.54373         2.26234
| 24>    C        5.04781         2.57721         3.64645
| 25>    C        3.97463         2.64919         4.58112
| 26>    C        2.63544         2.67276         4.12627
| 27>    C        4.27503         2.69167         5.95745
| 28>    C        5.57214         2.66120         6.39256
| 29>    C        6.62794         2.58870         5.47196
| 30>    C        6.37120         2.54713         4.12829
| 31>    C        2.92086         2.58849         0.47892
| 32>    O        3.52445         2.49909        -0.56615
| 33>    C        1.45690         2.80992         0.64389
| 34>    C        0.72624         3.24350        -0.42482
| 35>    C       -0.48624         3.95111        -0.45761
| 36>    S       -1.17582         4.78081         0.91890
| 37>    C       -2.46811         5.48119        -0.01911
| 38>    C       -2.35483         5.07444        -1.33747
| 39>    C       -1.24591         4.22958        -1.59940
| 40>    C       -1.18586         3.84445        -2.95735
| 41>    C       -2.20734         4.38081        -3.68540
| 42>    C       -2.45025         4.18534        -5.11739
| 43>    O       -1.74963         3.53084        -5.84716
| 44>    O       -3.55624         4.83288        -5.50926
| 45>    C       -3.89689         4.71102        -6.88171
| 46>    S       -3.29733         5.38291        -2.75751
| 47>    C       -3.41860         6.33661         0.57588
| 48>    C       -3.54114         6.64136         1.92286
| 49>    C       -4.57636         7.53931         2.16035
| 50>    C       -5.24472         7.92867         0.98254
| 51>    S       -4.60876         7.17404        -0.41257
| 52>    C       -6.25511         8.85325         1.32625
| 53>    C       -6.24476         9.04484         2.72175
| 54>    C       -5.18557         8.22308         3.28953
| 55>    C       -4.81463         8.11420         4.59717
| 56>    C       -3.74177         7.29194         5.00509
| 57>    N       -2.86662         6.63525         5.34765
| 58>    C       -5.44999         8.80909         5.64542
| 59>    N       -5.93679         9.35747         6.52687
| 60>    C       -7.20124         9.96143         3.15380
| 61>    C       -7.93499        10.48363         2.09788
| 62>    S       -7.43536         9.81055         0.55028
| 63>    C       -8.96859        11.46500         2.12924
| 64>    C       -9.51339        11.95559         3.29517
| 65>    C      -10.50698        12.92882         3.34719
| 66>    C      -11.07206        13.52527         2.13696
| 67>    C      -10.69831        13.18511         0.88325
| 68>    S       -9.49576        12.01362         0.54339
| 69>    C      -12.04356        14.45827         2.59404
| 70>    C      -12.10314        14.44677         3.99032
| 71>    C      -13.04915        15.37669         4.47726
| 72>    C      -13.66636        16.04355         3.46673
| 73>    S      -13.13354        15.58088         1.88779
| 74>    C      -11.14753        13.48415         4.48233
| 75>    C      -10.85066        13.08795         5.79572
| 76>    C      -11.50002        13.46010         6.94014
| 77>    C      -11.20177        13.03133         8.24778
| 78>    C      -10.30126        12.12489         8.76510
| 79>    C      -10.18889        11.88996        10.19751
| 80>    C      -10.70723        12.65861        11.21095
| 81>    C      -10.54852        12.36432        12.58128
| 82>    N      -10.46944        12.18921        13.71369
| 83>    C      -11.42770        13.86349        11.07606
| 84>    N      -12.00041        14.86046        11.08069
| 85>    C       -9.34411        10.71953        10.40427
| 86>    C       -8.84764        10.30535         9.13817
| 87>    C       -9.40046        11.16560         8.08259
| 88>    O       -9.14640        11.05070         6.89524
| 89>    C       -7.99015         9.25250         9.00214
| 90>    C       -7.59398         8.53905        10.15472
| 91>    C       -8.10729         8.92746        11.42522
| 92>    C       -8.98483        10.03202        11.53287
| 93>    C       -7.71662         8.19713        12.56561
| 94>    C       -6.85637         7.13808        12.45795
| 95>    C       -6.34526         6.76193        11.20695
| 96>    C       -6.70645         7.44816        10.07926
| 97>    H        5.56561         2.49380         1.54233
| 98>    H        1.83987         2.73708         4.85238
| 99>    H        3.45854         2.74464         6.66251
|100>    H        5.79171         2.69242         7.44927
|101>    H        7.64558         2.56632         5.83228
|102>    H        7.18024         2.49160         3.41461
|103>    H        1.20660         3.11156        -1.39013
|104>    H       -0.44034         3.20303        -3.38990
|105>    H       -4.80284         5.29457        -7.02171
|106>    H       -4.06984         3.66350        -7.13662
|107>    H       -3.08918         5.09593        -7.50758
|108>    H       -2.89836         6.21383         2.67123
|109>    H       -7.35222        10.24529         4.17948
|110>    H       -9.14616        11.54611         4.22474
|111>    H      -11.13373        13.62848         0.00184
|112>    H      -13.26931        15.56298         5.51189
|113>    H      -14.42178        16.80052         3.54759
|114>    H      -10.03475        12.39047         5.89699
|115>    H      -12.32818        14.15142         6.86999
|116>    H      -11.82898        13.50477         8.99408
|117>    H       -7.60644         8.97885         8.03110
|118>    H       -9.35124        10.30128        12.51048
|119>    H       -8.10841         8.49266        13.52802
|120>    H       -6.56301         6.58531        13.33804
|121>    H       -5.66437         5.92635        11.14120
|122>    H       -6.31531         7.16793         9.11203
|123> *
|124>
|125>                          ****END OF INPUT****

CARTESIAN COORDINATES (ANGSTROEM)
---------------------------------
  C      1.129850    2.613450    2.036240
  C     -0.082160    2.198990    2.528300
  C     -0.314560    1.899660    3.885020
  N     -0.553380    1.651650    4.980120
  C     -1.188260    1.919070    1.702050
  N     -2.090140    1.643670    1.046470
  C      2.383560    2.631400    2.782540
  C      3.461640    2.577160    1.850600
  C      4.762320    2.543730    2.262340
  C      5.047810    2.577210    3.646450
  C      3.974630    2.649190    4.581120
  C      2.635440    2.672760    4.126270
  C      4.275030    2.691670    5.957450
  C      5.572140    2.661200    6.392560
  C      6.627940    2.588700    5.471960
  C      6.371200    2.547130    4.128290
  C      2.920860    2.588490    0.478920
  O      3.524450    2.499090   -0.566150
  C      1.456900    2.809920    0.643890
  C      0.726240    3.243500   -0.424820
  C     -0.486240    3.951110   -0.457610
  S     -1.175820    4.780810    0.918900
  C     -2.468110    5.481190   -0.019110
  C     -2.354830    5.074440   -1.337470
  C     -1.245910    4.229580   -1.599400
  C     -1.185860    3.844450   -2.957350
  C     -2.207340    4.380810   -3.685400
  C     -2.450250    4.185340   -5.117390
  O     -1.749630    3.530840   -5.847160
  O     -3.556240    4.832880   -5.509260
  C     -3.896890    4.711020   -6.881710
  S     -3.297330    5.382910   -2.757510
  C     -3.418600    6.336610    0.575880
  C     -3.541140    6.641360    1.922860
  C     -4.576360    7.539310    2.160350
  C     -5.244720    7.928670    0.982540
  S     -4.608760    7.174040   -0.412570
  C     -6.255110    8.853250    1.326250
  C     -6.244760    9.044840    2.721750
  C     -5.185570    8.223080    3.289530
  C     -4.814630    8.114200    4.597170
  C     -3.741770    7.291940    5.005090
  N     -2.866620    6.635250    5.347650
  C     -5.449990    8.809090    5.645420
  N     -5.936790    9.357470    6.526870
  C     -7.201240    9.961430    3.153800
  C     -7.934990   10.483630    2.097880
  S     -7.435360    9.810550    0.550280
  C     -8.968590   11.465000    2.129240
  C     -9.513390   11.955590    3.295170
  C    -10.506980   12.928820    3.347190
  C    -11.072060   13.525270    2.136960
  C    -10.698310   13.185110    0.883250
  S     -9.495760   12.013620    0.543390
  C    -12.043560   14.458270    2.594040
  C    -12.103140   14.446770    3.990320
  C    -13.049150   15.376690    4.477260
  C    -13.666360   16.043550    3.466730
  S    -13.133540   15.580880    1.887790
  C    -11.147530   13.484150    4.482330
  C    -10.850660   13.087950    5.795720
  C    -11.500020   13.460100    6.940140
  C    -11.201770   13.031330    8.247780
  C    -10.301260   12.124890    8.765100
  C    -10.188890   11.889960   10.197510
  C    -10.707230   12.658610   11.210950
  C    -10.548520   12.364320   12.581280
  N    -10.469440   12.189210   13.713690
  C    -11.427700   13.863490   11.076060
  N    -12.000410   14.860460   11.080690
  C     -9.344110   10.719530   10.404270
  C     -8.847640   10.305350    9.138170
  C     -9.400460   11.165600    8.082590
  O     -9.146400   11.050700    6.895240
  C     -7.990150    9.252500    9.002140
  C     -7.593980    8.539050   10.154720
  C     -8.107290    8.927460   11.425220
  C     -8.984830   10.032020   11.532870
  C     -7.716620    8.197130   12.565610
  C     -6.856370    7.138080   12.457950
  C     -6.345260    6.761930   11.206950
  C     -6.706450    7.448160   10.079260
  H      5.565610    2.493800    1.542330
  H      1.839870    2.737080    4.852380
  H      3.458540    2.744640    6.662510
  H      5.791710    2.692420    7.449270
  H      7.645580    2.566320    5.832280
  H      7.180240    2.491600    3.414610
  H      1.206600    3.111560   -1.390130
  H     -0.440340    3.203030   -3.389900
  H     -4.802840    5.294570   -7.021710
  H     -4.069840    3.663500   -7.136620
  H     -3.089180    5.095930   -7.507580
  H     -2.898360    6.213830    2.671230
  H     -7.352220   10.245290    4.179480
  H     -9.146160   11.546110    4.224740
  H    -11.133730   13.628480    0.001840
  H    -13.269310   15.562980    5.511890
  H    -14.421780   16.800520    3.547590
  H    -10.034750   12.390470    5.896990
  H    -12.328180   14.151420    6.869990
  H    -11.828980   13.504770    8.994080
  H     -7.606440    8.978850    8.031100
  H     -9.351240   10.301280   12.510480
  H     -8.108410    8.492660   13.528020
  H     -6.563010    6.585310   13.338040
  H     -5.664370    5.926350   11.141200
  H     -6.315310    7.167930    9.112030

 Total Charge           Charge          ....    0
 Multiplicity           Mult            ....    1
 Number of Electrons    NEL             ....  592
 Basis Dimension        Dim             .... 1302

ORBITAL ENERGIES
----------------

  NO   OCC          E(Eh)            E(eV)
   0   2.0000     -89.005759     -2421.9698
   1   2.0000     -89.003615     -2421.9115
   2   2.0000     -88.996437     -2421.7162
   3   2.0000     -88.987958     -2421.4855
   4   2.0000     -88.978287     -2421.2223
   5   2.0000     -88.966320     -2420.8966
   6   2.0000     -19.276834      -524.5493
   7   2.0000     -19.218625      -522.9654
   8   2.0000     -19.211719      -522.7774
   9   2.0000     -19.205581      -522.6104
  10   2.0000     -14.443426      -393.0256
  11   2.0000     -14.440414      -392.9436
  12   2.0000     -14.412750      -392.1909
  13   2.0000     -14.412639      -392.1878
  14   2.0000     -14.399065      -391.8185
  15   2.0000     -14.396571      -391.7506
  16   2.0000     -10.418959      -283.5143
  17   2.0000     -10.377147      -282.3765
  18   2.0000     -10.364577      -282.0345
  19   2.0000     -10.363734      -282.0115
  20   2.0000     -10.355406      -281.7849
  21   2.0000     -10.348535      -281.5979
  22   2.0000     -10.347060      -281.5578
  23   2.0000     -10.346262      -281.5361
  24   2.0000     -10.345093      -281.5043
  25   2.0000     -10.344540      -281.4893
  26   2.0000     -10.344035      -281.4755
  27   2.0000     -10.343135      -281.4510
  28   2.0000     -10.342281      -281.4278
  29   2.0000     -10.340864      -281.3892
  30   2.0000     -10.340163      -281.3702
  31   2.0000     -10.339448      -281.3507
  32   2.0000     -10.334521      -281.2166
  33   2.0000     -10.330610      -281.1102
  34   2.0000     -10.329824      -281.0888
  35   2.0000     -10.326289      -280.9926
  36   2.0000     -10.323421      -280.9146
  37   2.0000     -10.322748      -280.8962
  38   2.0000     -10.321381      -280.8591
  39   2.0000     -10.317321      -280.7486
  40   2.0000     -10.317305      -280.7481
  41   2.0000     -10.316561      -280.7279
  42   2.0000     -10.315940      -280.7110
  43   2.0000     -10.315081      -280.6876
  44   2.0000     -10.314674      -280.6765
  45   2.0000     -10.314480      -280.6713
  46   2.0000     -10.314232      -280.6645
  47   2.0000     -10.310345      -280.5587
  48   2.0000     -10.308885      -280.5190
  49   2.0000     -10.305961      -280.4394
  50   2.0000     -10.304750      -280.4065
  51   2.0000     -10.303151      -280.3630
  52   2.0000     -10.301269      -280.3118
  53   2.0000     -10.300714      -280.2967
  54   2.0000     -10.299807      -280.2720
  55   2.0000     -10.298237      -280.2293
  56   2.0000     -10.297190      -280.2008
  57   2.0000     -10.295758      -280.1618
  58   2.0000     -10.295459      -280.1537
  59   2.0000     -10.295051      -280.1426
  60   2.0000     -10.294579      -280.1297
  61   2.0000     -10.287428      -279.9351
  62   2.0000     -10.285610      -279.8857
  63   2.0000     -10.284978      -279.8685
  64   2.0000     -10.284641      -279.8593
  65   2.0000     -10.284562      -279.8572
  66   2.0000     -10.284087      -279.8442
  67   2.0000     -10.283814      -279.8368
  68   2.0000     -10.283700      -279.8337
  69   2.0000     -10.283309      -279.8231
  70   2.0000     -10.282557      -279.8026
  71   2.0000     -10.281197      -279.7656
  72   2.0000     -10.280684      -279.7516
  73   2.0000     -10.279971      -279.7322
  74   2.0000     -10.279164      -279.7103
  75   2.0000     -10.274657      -279.5876
  76   2.0000     -10.272810      -279.5374
  77   2.0000     -10.271729      -279.5080
  78   2.0000     -10.271440      -279.5001
  79   2.0000     -10.270910      -279.4857
  80   2.0000     -10.270787      -279.4823
  81   2.0000     -10.269344      -279.4431
  82   2.0000      -8.099995      -220.4121
  83   2.0000      -8.098237      -220.3642
  84   2.0000      -8.091837      -220.1901
  85   2.0000      -8.082200      -219.9279
  86   2.0000      -8.073342      -219.6868
  87   2.0000      -8.061743      -219.3712
  88   2.0000      -6.069301      -165.1541
  89   2.0000      -6.067537      -165.1061
  90   2.0000      -6.065106      -165.0399
  91   2.0000      -6.063281      -164.9903
  92   2.0000      -6.062289      -164.9633
  93   2.0000      -6.061400      -164.9391
  94   2.0000      -6.060564      -164.9163
  95   2.0000      -6.056777      -164.8133
  96   2.0000      -6.053827      -164.7330
  97   2.0000      -6.051661      -164.6741
  98   2.0000      -6.047400      -164.5581
  99   2.0000      -6.044173      -164.4703
 100   2.0000      -6.043138      -164.4421
 101   2.0000      -6.038796      -164.3240
 102   2.0000      -6.034573      -164.2091
 103   2.0000      -6.031143      -164.1157
 104   2.0000      -6.026905      -164.0004
 105   2.0000      -6.023855      -163.9174
 106   2.0000      -1.207709       -32.8634
 107   2.0000      -1.126911       -30.6648
 108   2.0000      -1.118252       -30.4292
 109   2.0000      -1.112755       -30.2796
 110   2.0000      -1.058515       -28.8037
 111   2.0000      -1.037232       -28.2245
 112   2.0000      -1.033880       -28.1333
 113   2.0000      -1.022244       -27.8167
 114   2.0000      -1.019114       -27.7315
 115   2.0000      -1.015942       -27.6452
 116   2.0000      -1.010628       -27.5006
 117   2.0000      -1.001038       -27.2396
 118   2.0000      -0.995998       -27.1025
 119   2.0000      -0.991257       -26.9735
 120   2.0000      -0.987770       -26.8786
 121   2.0000      -0.981563       -26.7097
 122   2.0000      -0.976336       -26.5674
 123   2.0000      -0.974419       -26.5153
 124   2.0000      -0.970126       -26.3985
 125   2.0000      -0.965524       -26.2732
 126   2.0000      -0.954977       -25.9863
 127   2.0000      -0.941723       -25.6256
 128   2.0000      -0.931962       -25.3600
 129   2.0000      -0.922620       -25.1058
 130   2.0000      -0.913603       -24.8604
 131   2.0000      -0.909859       -24.7585
 132   2.0000      -0.901740       -24.5376
 133   2.0000      -0.896169       -24.3860
 134   2.0000      -0.889022       -24.1915
 135   2.0000      -0.880390       -23.9566
 136   2.0000      -0.878936       -23.9171
 137   2.0000      -0.875312       -23.8185
 138   2.0000      -0.870382       -23.6843
 139   2.0000      -0.867308       -23.6007
 140   2.0000      -0.863725       -23.5031
 141   2.0000      -0.857216       -23.3260
 142   2.0000      -0.854889       -23.2627
 143   2.0000      -0.841025       -22.8854
 144   2.0000      -0.830431       -22.5972
 145   2.0000      -0.826274       -22.4841
 146   2.0000      -0.822773       -22.3888
 147   2.0000      -0.817957       -22.2577
 148   2.0000      -0.811784       -22.0898
 149   2.0000      -0.808294       -21.9948
 150   2.0000      -0.799968       -21.7682
 151   2.0000      -0.790472       -21.5098
 152   2.0000      -0.780595       -21.2411
 153   2.0000      -0.764195       -20.7948
 154   2.0000      -0.757582       -20.6149
 155   2.0000      -0.745555       -20.2876
 156   2.0000      -0.745217       -20.2784
 157   2.0000      -0.737472       -20.0676
 158   2.0000      -0.733412       -19.9572
 159   2.0000      -0.721450       -19.6317
 160   2.0000      -0.709743       -19.3131
 161   2.0000      -0.704865       -19.1804
 162   2.0000      -0.700315       -19.0565
 163   2.0000      -0.698118       -18.9968
 164   2.0000      -0.692715       -18.8497
 165   2.0000      -0.687740       -18.7144
 166   2.0000      -0.682833       -18.5808
 167   2.0000      -0.681596       -18.5472
 168   2.0000      -0.675010       -18.3680
 169   2.0000      -0.666983       -18.1495
 170   2.0000      -0.664644       -18.0859
 171   2.0000      -0.661226       -17.9929
 172   2.0000      -0.656180       -17.8556
 173   2.0000      -0.649431       -17.6719
 174   2.0000      -0.647989       -17.6327
 175   2.0000      -0.640522       -17.4295
 176   2.0000      -0.638193       -17.3661
 177   2.0000      -0.632332       -17.2066
 178   2.0000      -0.628271       -17.0961
 179   2.0000      -0.628174       -17.0935
 180   2.0000      -0.617439       -16.8014
 181   2.0000      -0.615945       -16.7607
 182   2.0000      -0.605312       -16.4714
 183   2.0000      -0.603138       -16.4122
 184   2.0000      -0.600035       -16.3278
 185   2.0000      -0.594788       -16.1850
 186   2.0000      -0.590095       -16.0573
 187   2.0000      -0.588805       -16.0222
 188   2.0000      -0.586066       -15.9477
 189   2.0000      -0.584245       -15.8981
 190   2.0000      -0.576921       -15.6988
 191   2.0000      -0.574192       -15.6246
 192   2.0000      -0.572273       -15.5723
 193   2.0000      -0.566939       -15.4272
 194   2.0000      -0.561162       -15.2700
 195   2.0000      -0.560723       -15.2581
 196   2.0000      -0.551011       -14.9938
 197   2.0000      -0.549093       -14.9416
 198   2.0000      -0.547549       -14.8996
 199   2.0000      -0.544291       -14.8109
 200   2.0000      -0.539377       -14.6772
 201   2.0000      -0.536594       -14.6015
 202   2.0000      -0.534815       -14.5531
 203   2.0000      -0.534381       -14.5412
 204   2.0000      -0.531848       -14.4723
 205   2.0000      -0.531322       -14.4580
 206   2.0000      -0.527556       -14.3555
 207   2.0000      -0.526682       -14.3317
 208   2.0000      -0.525652       -14.3037
 209   2.0000      -0.519985       -14.1495
 210   2.0000      -0.519712       -14.1421
 211   2.0000      -0.515699       -14.0329
 212   2.0000      -0.515315       -14.0224
 213   2.0000      -0.513940       -13.9850
 214   2.0000      -0.510978       -13.9044
 215   2.0000      -0.510128       -13.8813
 216   2.0000      -0.508502       -13.8370
 217   2.0000      -0.507340       -13.8054
 218   2.0000      -0.505429       -13.7534
 219   2.0000      -0.503899       -13.7118
 220   2.0000      -0.503297       -13.6954
 221   2.0000      -0.500452       -13.6180
 222   2.0000      -0.498088       -13.5537
 223   2.0000      -0.496229       -13.5031
 224   2.0000      -0.493794       -13.4368
 225   2.0000      -0.490933       -13.3590
 226   2.0000      -0.487344       -13.2613
 227   2.0000      -0.485107       -13.2004
 228   2.0000      -0.482387       -13.1264
 229   2.0000      -0.481266       -13.0959
 230   2.0000      -0.478221       -13.0131
 231   2.0000      -0.476979       -12.9793
 232   2.0000      -0.473951       -12.8969
 233   2.0000      -0.472728       -12.8636
 234   2.0000      -0.471411       -12.8277
 235   2.0000      -0.469287       -12.7700
 236   2.0000      -0.467053       -12.7092
 237   2.0000      -0.464651       -12.6438
 238   2.0000      -0.460949       -12.5430
 239   2.0000      -0.457316       -12.4442
 240   2.0000      -0.455057       -12.3827
 241   2.0000      -0.453456       -12.3392
 242   2.0000      -0.451731       -12.2922
 243   2.0000      -0.450045       -12.2463
 244   2.0000      -0.446541       -12.1510
 245   2.0000      -0.445341       -12.1183
 246   2.0000      -0.443094       -12.0572
 247   2.0000      -0.441875       -12.0240
 248   2.0000      -0.441288       -12.0080
 249   2.0000      -0.439466       -11.9585
 250   2.0000      -0.438465       -11.9312
 251   2.0000      -0.436850       -11.8873
 252   2.0000      -0.434984       -11.8365
 253   2.0000      -0.433300       -11.7907
 254   2.0000      -0.432210       -11.7610
 255   2.0000      -0.431928       -11.7534
 256   2.0000      -0.430373       -11.7110
 257   2.0000      -0.430246       -11.7076
 258   2.0000      -0.427450       -11.6315
 259   2.0000      -0.427302       -11.6275
 260   2.0000      -0.425181       -11.5697
 261   2.0000      -0.422449       -11.4954
 262   2.0000      -0.421009       -11.4562
 263   2.0000      -0.417439       -11.3591
 264   2.0000      -0.416047       -11.3212
 265   2.0000      -0.415320       -11.3014
 266   2.0000      -0.413010       -11.2386
 267   2.0000      -0.410039       -11.1577
 268   2.0000      -0.408273       -11.1097
 269   2.0000      -0.404480       -11.0065
 270   2.0000      -0.402107       -10.9419
 271   2.0000      -0.399333       -10.8664
 272   2.0000      -0.393585       -10.7100
 273   2.0000      -0.387579       -10.5466
 274   2.0000      -0.386437       -10.5155
 275   2.0000      -0.373032       -10.1507
 276   2.0000      -0.371622       -10.1123
 277   2.0000      -0.371052       -10.0968
 278   2.0000      -0.364362        -9.9148
 279   2.0000      -0.362870        -9.8742
 280   2.0000      -0.358116        -9.7448
 281   2.0000      -0.345304        -9.3962
 282   2.0000      -0.343717        -9.3530
 283   2.0000      -0.335034        -9.1167
 284   2.0000      -0.332144        -9.0381
 285   2.0000      -0.328259        -8.9324
 286   2.0000      -0.324539        -8.8312
 287   2.0000      -0.315467        -8.5843
 288   2.0000      -0.311723        -8.4824
 289   2.0000      -0.309608        -8.4249
 290   2.0000      -0.300386        -8.1739
 291   2.0000      -0.293305        -7.9812
 292   2.0000      -0.286580        -7.7982
 293   2.0000      -0.277345        -7.5469
 294   2.0000      -0.259284        -7.0555
 295   2.0000      -0.236124        -6.4253
 296   0.0000      -0.123596        -3.3632
 297   0.0000      -0.103728        -2.8226
 298   0.0000      -0.091079        -2.4784
 299   0.0000      -0.058557        -1.5934
 300   0.0000      -0.053173        -1.4469

MULLIKEN ATOMIC CHARGES
-----------------------
   0 C :    0.248961
   1 C :   -0.317776
   2 C :   -0.174686
   3 N :    0.156316
   4 C :   -0.215047
   5 N :    0.168638
   6 C :    0.034670
   7 C :    0.011398
   8 C :   -0.080857
   9 C :    0.093107
  10 C :    0.093379
  11 C :   -0.077957
  12 C :   -0.018519
  13 C :    0.034232
  14 C :    0.035195
  15 C :   -0.016596
  16 C :    0.142387
  17 O :   -0.146310
  18 C :   -0.139725
  19 C :    0.013004
  20 C :   -0.107831
  21 S :    0.183644
  22 C :   -0.091335
  23 C :   -0.058535
  24 C :    0.164106
  25 C :   -0.000131
  26 C :   -0.116046
  27 C :    0.204149
  28 O :   -0.185825
  29 O :   -0.309849
  30 C :    0.187663
  31 S :    0.165528
  32 C :   -0.073088
  33 C :   -0.060276
  34 C :    0.018557
  35 C :   -0.092189
  36 S :    0.197589
  37 C :   -0.098769
  38 C :    0.012119
  39 C :    0.313348
  40 C :   -0.302488
  41 C :   -0.194748
  42 N :    0.181896
  43 C :   -0.171524
  44 N :    0.192608
  45 C :   -0.038888
  46 C :   -0.071253
  47 S :    0.186127
  48 C :   -0.019907
  49 C :   -0.060939
  50 C :    0.055746
  51 C :    0.071667
  52 C :   -0.118771
  53 S :    0.131170
  54 C :   -0.118771
  55 C :    0.058377
  56 C :    0.001447
  57 C :   -0.065922
  58 S :    0.133349
  59 C :    0.081333
  60 C :    0.030820
  61 C :   -0.029082
  62 C :    0.004612
  63 C :   -0.080271
  64 C :    0.313022
  65 C :   -0.366490
  66 C :   -0.183278
  67 N :    0.132874
  68 C :   -0.198310
  69 N :    0.146486
  70 C :    0.042784
  71 C :    0.005346
  72 C :    0.172731
  73 O :   -0.191010
  74 C :   -0.055287
  75 C :    0.093723
  76 C :    0.093587
  77 C :   -0.084294
  78 C :   -0.018844
  79 C :    0.034394
  80 C :    0.032388
  81 C :   -0.013006
  82 H :   -0.011393
  83 H :   -0.003119
  84 H :   -0.009220
  85 H :   -0.004241
  86 H :   -0.006187
  87 H :   -0.016719
  88 H :    0.022356
  89 H :    0.017905
  90 H :    0.038191
  91 H :    0.039967
  92 H :    0.038446
  93 H :    0.019971
  94 H :    0.028896
  95 H :    0.015245
  96 H :    0.041108
  97 H :   -0.002154
  98 H :    0.032105
  99 H :   -0.012650
 100 H :   -0.039704
 101 H :    0.006860
 102 H :   -0.038794
 103 H :   -0.012142
 104 H :   -0.013741
 105 H :   -0.009758
 106 H :   -0.007556
 107 H :   -0.023718
Sum of atomic charges:    0.0000000

LOEWDIN ATOMIC CHARGES
----------------------
   0 C :    0.059633
   1 C :   -0.145857
   2 C :   -0.020277
   3 N :   -0.050208
   4 C :   -0.037568
   5 N :   -0.051570
   6 C :   -0.022324
   7 C :   -0.056575
   8 C :    0.031608
   9 C :   -0.009529
  10 C :   -0.005476
  11 C :    0.015884
  12 C :   -0.006356
  13 C :   -0.013446
  14 C :   -0.013749
  15 C :   -0.009734
  16 C :    0.082582
  17 O :   -0.147369
  18 C :   -0.096832
  19 C :    0.043514
  20 C :   -0.175545
  21 S :    0.502564
  22 C :   -0.177220
  23 C :   -0.198213
  24 C :   -0.041464
  25 C :   -0.003285
  26 C :   -0.186024
  27 C :    0.067181
  28 O :   -0.163674
  29 O :   -0.098808
  30 C :    0.084527
  31 S :    0.423538
  32 C :   -0.182386
  33 C :   -0.022475
  34 C :   -0.065054
  35 C :   -0.177802
  36 S :    0.483059
  37 C :   -0.180461
  38 C :   -0.065788
  39 C :    0.082246
  40 C :   -0.097079
  41 C :   -0.017731
  42 N :   -0.023945
  43 C :   -0.009196
  44 N :   -0.014472
  45 C :   -0.016690
  46 C :   -0.182303
  47 S :    0.469486
  48 C :   -0.174028
  49 C :   -0.009698
  50 C :    0.008801
  51 C :   -0.046147
  52 C :   -0.138562
  53 S :    0.452274
  54 C :   -0.203391
  55 C :   -0.032076
  56 C :   -0.060560
  57 C :   -0.159533
  58 S :    0.428258
  59 C :   -0.055640
  60 C :    0.050583
  61 C :   -0.070181
  62 C :    0.066023
  63 C :   -0.107860
  64 C :    0.079200
  65 C :   -0.152975
  66 C :   -0.016228
  67 N :   -0.066621
  68 C :   -0.025848
  69 N :   -0.063901
  70 C :   -0.025703
  71 C :   -0.056501
  72 C :    0.093199
  73 O :   -0.169496
  74 C :    0.036611
  75 C :   -0.010018
  76 C :   -0.007416
  77 C :    0.013953
  78 C :   -0.007970
  79 C :   -0.017289
  80 C :   -0.017214
  81 C :   -0.008417
  82 H :    0.039174
  83 H :    0.039263
  84 H :    0.034568
  85 H :    0.033143
  86 H :    0.032399
  87 H :    0.031695
  88 H :    0.051428
  89 H :    0.046601
  90 H :    0.028091
  91 H :    0.026848
  92 H :    0.026229
  93 H :    0.039603
  94 H :    0.046662
  95 H :    0.048750
  96 H :    0.039174
  97 H :    0.033213
  98 H :    0.026269
  99 H :    0.026822
 100 H :    0.027368
 101 H :    0.046288
 102 H :    0.028553
 103 H :    0.037372
 104 H :    0.032930
 105 H :    0.031033
 106 H :    0.031325
 107 H :    0.030233

  Mayer bond orders larger than 0.100000
B(  0-C ,  1-C ) :   1.6423 B(  0-C ,  6-C ) :   0.9994 B(  0-C , 18-C ) :   1.0466
B(  1-C ,  2-C ) :   1.1358 B(  1-C ,  4-C ) :   1.1562 B(  2-C ,  3-N ) :   2.9916
B(  4-C ,  5-N ) :   3.0210 B(  6-C ,  7-C ) :   1.2106 B(  6-C , 11-C ) :   1.4664
B(  7-C ,  8-C ) :   1.4808 B(  7-C , 16-C ) :   0.9228 B(  8-C ,  9-C ) :   1.1859
B(  8-C , 82-H ) :   1.0148 B(  9-C , 10-C ) :   1.2536 B(  9-C , 15-C ) :   1.2464
B( 10-C , 11-C ) :   1.2032 B( 10-C , 12-C ) :   1.2440 B( 11-C , 83-H ) :   0.9940
B( 12-C , 13-C ) :   1.4899 B( 12-C , 84-H ) :   0.9971 B( 13-C , 14-C ) :   1.2587
B( 13-C , 85-H ) :   0.9893 B( 14-C , 15-C ) :   1.4901 B( 14-C , 86-H ) :   0.9895
B( 15-C , 87-H ) :   0.9972 B( 16-C , 17-O ) :   2.2625 B( 16-C , 18-C ) :   0.9442
B( 18-C , 19-C ) :   1.6076 B( 19-C , 20-C ) :   1.1980 B( 19-C , 88-H ) :   0.9396
B( 20-C , 21-S ) :   1.0983 B( 20-C , 24-C ) :   1.3296 B( 21-S , 22-C ) :   1.1693
B( 22-C , 23-C ) :   1.4508 B( 22-C , 32-C ) :   1.2025 B( 23-C , 24-C ) :   1.2708
B( 23-C , 31-S ) :   1.0373 B( 24-C , 25-C ) :   1.1507 B( 25-C , 26-C ) :   1.6209
B( 25-C , 89-H ) :   1.0022 B( 26-C , 27-C ) :   0.9497 B( 26-C , 31-S ) :   1.0717
B( 27-C , 28-O ) :   2.1542 B( 27-C , 29-O ) :   1.2354 B( 29-O , 30-C ) :   0.9155
B( 30-C , 90-H ) :   0.9812 B( 30-C , 91-H ) :   0.9770 B( 30-C , 92-H ) :   0.9769
B( 32-C , 33-C ) :   1.4242 B( 32-C , 36-S ) :   1.0967 B( 33-C , 34-C ) :   1.3189
B( 33-C , 93-H ) :   0.9889 B( 34-C , 35-C ) :   1.4179 B( 34-C , 39-C ) :   0.9936
B( 35-C , 36-S ) :   1.1325 B( 35-C , 37-C ) :   1.2046 B( 37-C , 38-C ) :   1.4258
B( 37-C , 47-S ) :   1.1239 B( 38-C , 39-C ) :   0.9960 B( 38-C , 45-C ) :   1.3021
B( 39-C , 40-C ) :   1.7105 B( 40-C , 41-C ) :   1.1334 B( 40-C , 43-C ) :   1.1464
B( 41-C , 42-N ) :   2.9910 B( 43-C , 44-N ) :   2.9350 B( 45-C , 46-C ) :   1.4817
B( 45-C , 94-H ) :   0.9858 B( 46-C , 47-S ) :   1.1000 B( 46-C , 48-C ) :   1.1179
B( 48-C , 49-C ) :   1.5278 B( 48-C , 53-S ) :   1.0543 B( 49-C , 50-C ) :   1.2726
B( 49-C , 95-H ) :   0.9679 B( 50-C , 51-C ) :   1.0606 B( 50-C , 59-C ) :   1.3244
B( 51-C , 52-C ) :   1.5915 B( 51-C , 54-C ) :   1.1767 B( 52-C , 53-S ) :   1.1468
B( 52-C , 96-H ) :   0.9415 B( 54-C , 55-C ) :   1.4543 B( 54-C , 58-S ) :   1.0795
B( 55-C , 56-C ) :   1.2247 B( 55-C , 59-C ) :   1.0518 B( 56-C , 57-C ) :   1.5821
B( 56-C , 97-H ) :   1.0019 B( 57-C , 58-S ) :   1.1583 B( 57-C , 98-H ) :   0.9648
B( 59-C , 60-C ) :   1.2544 B( 60-C , 61-C ) :   1.5013 B( 60-C , 99-H ) :   0.9207
B( 61-C , 62-C ) :   1.2975 B( 61-C ,100-H ) :   0.9731 B( 62-C , 63-C ) :   1.4786
B( 62-C ,101-H ) :   0.9363 B( 63-C , 64-C ) :   1.1011 B( 63-C , 72-C ) :   0.9618
B( 64-C , 65-C ) :   1.5945 B( 64-C , 70-C ) :   0.9781 B( 65-C , 66-C ) :   1.1536
B( 65-C , 68-C ) :   1.1406 B( 66-C , 67-N ) :   2.9609 B( 68-C , 69-N ) :   2.9822
B( 70-C , 71-C ) :   1.2105 B( 70-C , 77-C ) :   1.4543 B( 71-C , 72-C ) :   0.9727
B( 71-C , 74-C ) :   1.4777 B( 72-C , 73-O ) :   2.0753 B( 73-O , 99-H ) :   0.1197
B( 74-C , 75-C ) :   1.1773 B( 74-C ,102-H ) :   0.9998 B( 75-C , 76-C ) :   1.2570
B( 75-C , 81-C ) :   1.2474 B( 76-C , 77-C ) :   1.2003 B( 76-C , 78-C ) :   1.2419
B( 77-C ,103-H ) :   0.9905 B( 78-C , 79-C ) :   1.4872 B( 78-C ,104-H ) :   0.9971
B( 79-C , 80-C ) :   1.2601 B( 79-C ,105-H ) :   0.9883 B( 80-C , 81-C ) :   1.4848
B( 80-C ,106-H ) :   0.9895 B( 81-C ,107-H ) :   0.9974

-----------------------------------------------------------------------------
         ABSORPTION SPECTRUM VIA TRANSITION ELECTRIC DIPOLE MOMENTS
-----------------------------------------------------------------------------
State   Energy  Wavelength   fosc         T2         TX        TY        TZ
        (cm-1)    (nm)                  (au**2)     (au)      (au)      (au)
-----------------------------------------------------------------------------
   0    9649.9   1036.3   0.393669772  13.43024   2.55867  -2.13019  -1.53158
   1   14794.0    675.9   0.481828357  10.72216   1.86928  -1.31701  -2.34381
   2   15308.4    653.2   0.416101087   8.94838   2.29737  -1.91579   0.01514
   3   16863.5    593.0   0.587737207  11.47393   1.14143  -1.21890   2.94709
   4   20961.3    477.1   0.014591854   0.22918   0.11133  -0.12510   0.44848
   5   21419.8    466.9   0.052887288   0.81285   0.26126  -0.21749   0.83504
   6   22032.0    453.9   0.024686204   0.36887   0.19909  -0.21554   0.53177
   7   22961.3    435.5   0.087108313   1.24893  -0.21456   0.29010  -1.05771
   8   23628.2    423.2   0.264186647   3.68091  -1.03899   1.36572  -0.85804
   9   23892.4    418.5   0.201063069   2.77043   1.33480  -0.66674   0.73770
  10   24992.0    400.1   0.037508205   0.49408  -0.33673   0.29219  -0.54343
  11   25926.8    385.7   0.032842044   0.41702  -0.34940   0.19647   0.50630
  12   26060.4    383.7   0.039157631   0.49466   0.33667  -0.60244   0.13557
  13   26168.3    382.1   0.044011349   0.55369   0.50414  -0.36304  -0.40955
  14   26312.5    380.0   0.002737451   0.03425   0.00351   0.17313   0.06530
  15   26751.6    373.8   0.216879581   2.66897   1.29490  -0.87239  -0.48079
  16   26826.6    372.8   0.187530626   2.30134  -1.30610   0.58793   0.49979
  17   27252.9    366.9   0.109462149   1.32229  -0.24235   0.76683  -0.82191
  18   27891.1    358.5   0.050351225   0.59432   0.23454  -0.59938  -0.42433
  19   27947.1    357.8   0.003620383   0.04265   0.03923  -0.00774  -0.20260
  20   28324.1    353.1   0.118875193   1.38169  -0.68371   0.22077   0.93031
  21   28692.3    348.5   0.214807933   2.46468  -0.88082   0.89775  -0.93961
  22   28918.9    345.8   0.036532004   0.41588   0.02861  -0.58118  -0.27800
  23   29059.7    344.1   0.145872556   1.65256   0.72633   0.19176   1.04319
  24   29290.7    341.4   0.004642568   0.05218   0.12296  -0.14111  -0.13095
  25   29650.6    337.3   0.023913704   0.26551   0.03339  -0.04833   0.51192
  26   30280.0    330.3   0.052555101   0.57139   0.24128  -0.15680   0.69899
  27   30757.3    325.1   0.512280003   5.48320  -0.54204   0.09654  -2.27598
  28   31114.7    321.4   0.068369567   0.72339  -0.29328  -0.05860  -0.79621
  29   31381.5    318.7   0.105318227   1.10485  -0.56937   0.09266  -0.87868
  30   31752.6    314.9   0.099616783   1.03283   0.53721   0.39915   0.76479
  31   31864.9    313.8   0.348543229   3.60097  -1.10733   1.11002   1.06894
  32   32105.4    311.5   0.084734762   0.86888  -0.49105   0.78991  -0.06161
  33   32546.5    307.3   0.447373831   4.52525  -1.36218   1.08290  -1.22354
  34   32767.2    305.2   0.043451641   0.43656  -0.27012  -0.35924   0.48429
  35   32842.1    304.5   0.112622912   1.12894   0.40501  -0.85849   0.47740
  36   33175.2    301.4   0.181087203   1.79701   0.96320  -0.31045  -0.87914
  37   33408.5    299.3   0.170871456   1.68379   0.60767   0.93729   0.66031
  38   33643.5    297.2   0.369297549   3.61369  -1.02807  -0.30098  -1.57041
  39   33918.6    294.8   0.409392795   3.97354   1.63226  -1.07376   0.39538
  40   34262.9    291.9   0.161040682   1.54734  -0.91219   0.73692   0.41496
  41   34339.9    291.2   0.190113993   1.82259  -0.83012   0.44695  -0.96630
  42   34485.6    290.0   0.009818965   0.09374  -0.04071   0.08923   0.29003
  43   34574.0    289.2   0.003424409   0.03261   0.08864  -0.15717   0.00683
  44   34660.4    288.5   0.322148588   3.05984   1.20017  -1.16369   0.51502
  45   35578.3    281.1   0.084792923   0.78460  -0.06611   0.20895   0.85824
  46   35631.9    280.6   0.039142875   0.36165  -0.18019  -0.07281   0.56911
  47   35831.3    279.1   0.016957974   0.15581   0.02456   0.04913   0.39088
  48   36270.1    275.7   0.034396405   0.31221  -0.45123   0.31985  -0.07933
  49   36340.8    275.2   0.146477144   1.32694  -0.71147  -0.06537  -0.90359
  50   36514.9    273.9   0.040827120   0.36809  -0.27909   0.53315   0.07713
  51   36586.5    273.3   0.014167207   0.12748   0.12276  -0.02825  -0.33408
  52   36732.7    272.2   0.048319654   0.43306  -0.21689   0.40041   0.47507
  53   36866.9    271.2   0.004094393   0.03656  -0.06412   0.02664  -0.17816
  54   36992.6    270.3   0.003651022   0.03249   0.12014  -0.11135  -0.07522
  55   37050.9    269.9   0.026901637   0.23903  -0.35203   0.31989  -0.11303
  56   37543.9    266.4   0.007146289   0.06266   0.04773   0.00368  -0.24571
  57   37945.0    263.5   0.079527524   0.68998  -0.80148  -0.10612  -0.19068
  58   37972.4    263.3   0.082552170   0.71571   0.40809  -0.47791  -0.56636
  59   38299.8    261.1   0.054356596   0.46723  -0.46710   0.08086   0.49245
  60   38374.5    260.6   0.050957098   0.43716   0.60387  -0.12115  -0.24046
  61   38441.7    260.1   0.004843833   0.04148  -0.00535  -0.13724   0.15039
  62   38499.8    259.7   0.504770278   4.31630   0.91212  -1.17175  -1.45304
  63   38761.9    258.0   0.018388459   0.15618   0.30714  -0.13988   0.20562
  64   38978.3    256.6   0.058366810   0.49297  -0.31209   0.34025   0.52896
  65   39270.7    254.6   0.052426563   0.43950   0.05298  -0.42204   0.50850
  66   39531.7    253.0   0.112221029   0.93455   0.61222  -0.60328  -0.44248
  67   39864.6    250.8   0.025233761   0.20839   0.04037  -0.32185   0.32120
  68   40046.3    249.7   0.020130902   0.16549   0.17221  -0.03919  -0.36647
  69   40140.7    249.1   0.001531189   0.01256  -0.04757   0.07993   0.06250
  70   40210.8    248.7   0.129247711   1.05817  -0.29911  -0.01188   0.98416

FINAL SINGLE POINT ENERGY     -5544.366551673884

DIPOLE MOMENT
-------------
                                X             Y             Z
Electronic contribution:    -13.54218       8.13984     -25.40073
Nuclear contribution   :     14.57341      -7.62217      20.47932
                        -----------------------------------------
Total Dipole Moment    :      1.03122       0.51767      -4.92141
                        -----------------------------------------
Magnitude (a.u.)       :      5.05486
Magnitude (Debye)      :     12.84844

Rotational constants in cm-1:     0.000804     0.000284     0.000217
Rotational constants in MHz :    24.096350     8.514729     6.510222

                             ****ORCA TERMINATED NORMALLY****
TOTAL RUN TIME: 0 days 0 hours 12 minutes 26 seconds 260 msec
