                         Program Version 4.2.0 -  RELEASE  -
|  1> # ORCA input file
|  2> # SCF done       -179.132806010766          0.000444441937
|  3> ! CAM-B3LYP def2-SVP def2/J RIJCOSX Grid4 TightSCF
|  4> %maxcore 5000
|  5> %tddft
|  6>     Mode sTDDFT
|  7>     Ethresh 5.0
|  8>     maxcore 5000
|  9> end
| 10>
| 11> %pal
| 12>   nprocs 6
| 13>   end
| 14> * xyz 0 1
| 15>    C       -1.43309         0.49825        -1.47145
| 16>    C       -1.10552         1.09648        -2.66267
| 17>    C       -1.26835         0.48068        -3.92016
| 18>    N       -1.36858         0.02319        -4.96820
| 19>    C       -0.47512         2.35045        -2.76409
| 20>    N        0.06125         3.35837        -2.89065
| 21>    C       -1.87250        -0.88707        -1.33123
| 22>    C       -1.63252        -1.30463         0.01007
| 23>    C       -1.92180        -2.57090         0.42847
| 24>    C       -2.48685        -3.48707        -0.48819
| 25>    C       -2.74827        -3.06807        -1.82446
| 26>    C       -2.42969        -1.75190        -2.23272
| 27>    C       -3.32359        -3.98751        -2.72440
| 28>    C       -3.62386        -5.26205        -2.32710
| 29>    C       -3.36450        -5.67463        -1.01185
| 30>    C       -2.80788        -4.80617        -0.11237
| 31>    C       -1.08821        -0.17060         0.77927
| 32>    O       -0.71360        -0.15942         1.93102
| 33>    C       -1.15271         0.99551        -0.14402
| 34>    C       -1.03353         2.25311         0.37528
| 35>    C       -1.46300         3.47273        -0.17992
| 36>    C       -2.37680         3.69084        -1.20251
| 37>    C       -2.59295         5.03905        -1.44138
| 38>    C       -1.83467         5.87966        -0.59346
| 39>    S       -0.88355         4.99326         0.50605
| 40>    C       -2.11983         7.22002        -0.92791
| 41>    C       -3.05458         7.23623        -1.98092
| 42>    C       -3.37091         5.86252        -2.34399
| 43>    C       -4.20230         5.43212        -3.33776
| 44>    C       -4.90873         6.32348        -4.17056
| 45>    N       -5.48780         7.04516        -4.84811
| 46>    C       -4.40456         4.05836        -3.58437
| 47>    N       -4.57076         2.93927        -3.77349
| 48>    C       -3.41529         8.52018        -2.37337
| 49>    C       -2.76313         9.49456        -1.63272
| 50>    S       -1.68115         8.80145        -0.43320
| 51>    C       -2.90996        10.89474        -1.75102
| 52>    C       -2.23145        11.87954        -1.05520
| 53>    C       -2.65612        13.15332        -1.42499
| 54>    C       -3.67474        13.14586        -2.41078
| 55>    S       -4.09376        11.54415        -2.88480
| 56>    C       -3.99919        14.47308        -2.66242
| 57>    C       -3.16814        15.26211        -1.82803
| 58>    N       -2.36504        14.44550        -1.07553
| 59>    C       -1.35915        14.86502        -0.14061
| 60>    C       -3.38099        16.63172        -1.96273
| 61>    C       -4.37494        16.90011        -2.88950
| 62>    S       -5.05663        15.44665        -3.61513
| 63>    C       -4.85243        18.17056        -3.26532
| 64>    C       -4.40428        19.42020        -2.81429
| 65>    C       -5.11932        20.50538        -3.40568
| 66>    N       -4.83936        21.78396        -3.10642
| 67>    C       -3.87623        21.99398        -2.24459
| 68>    C       -3.15527        20.91008        -1.64686
| 69>    N       -3.41778        19.65731        -1.92808
| 70>    C       -2.06083        21.17009        -0.66510
| 71>    C       -3.56095        23.41318        -1.91065
| 72>    C       -6.11137        20.08865        -4.29831
| 73>    S       -6.15257        18.36347        -4.40774
| 74>    C       -7.00046        20.88022        -5.03663
| 75>    C       -7.98992        20.38951        -5.88944
| 76>    C       -8.76092        21.42608        -6.50798
| 77>    N       -9.76374        21.10804        -7.36127
| 78>    C       -9.97574        19.83779        -7.57549
| 79>    C       -9.19599        18.80331        -6.94835
| 80>    N       -8.22199        19.08864        -6.12160
| 81>    C       -9.46441        17.36090        -7.21229
| 82>    C      -11.08192        19.48485        -8.51371
| 83>    C       -8.34547        22.68074        -6.11866
| 84>    S       -7.03593        22.60853        -5.01211
| 85>    H       -1.72568        -2.87157         1.44702
| 86>    H       -2.64928        -1.45471        -3.24631
| 87>    H       -3.51870        -3.66529        -3.73670
| 88>    H       -4.06283        -5.95965        -3.02471
| 89>    H       -3.60850        -6.68365        -0.71440
| 90>    H       -2.60677        -5.11835         0.90218
| 91>    H       -0.62695         2.29624         1.38102
| 92>    H       -2.89096         2.89258        -1.70597
| 93>    H       -4.11425         8.76037        -3.15429
| 94>    H       -1.47208        11.65552        -0.32782
| 95>    H       -1.60079        15.86313         0.22023
| 96>    H       -0.37014        14.88693        -0.60819
| 97>    H       -1.33287        14.17623         0.70398
| 98>    H       -2.87221        17.42209        -1.44399
| 99>    H       -2.44347        21.71742         0.19507
|100>    H       -1.27474        21.76924        -1.12211
|101>    H       -1.64209        20.22499        -0.33132
|102>    H       -4.22368        24.06483        -2.47276
|103>    H       -2.52727        23.64422        -2.16383
|104>    H       -3.69512        23.59380        -0.84512
|105>    H      -10.48344        17.10342        -6.92690
|106>    H       -8.76611        16.75860        -6.63783
|107>    H       -9.34631        17.13825        -8.27183
|108>    H      -11.54554        20.39704        -8.87766
|109>    H      -11.83016        18.87662        -8.00788
|110>    H      -10.69776        18.91354        -9.35727
|111>    H       -8.74143        23.62704        -6.42521
|112> *
|113>
|114>                          ****END OF INPUT****

CARTESIAN COORDINATES (ANGSTROEM)
---------------------------------
  C     -1.433090    0.498250   -1.471450
  C     -1.105520    1.096480   -2.662670
  C     -1.268350    0.480680   -3.920160
  N     -1.368580    0.023190   -4.968200
  C     -0.475120    2.350450   -2.764090
  N      0.061250    3.358370   -2.890650
  C     -1.872500   -0.887070   -1.331230
  C     -1.632520   -1.304630    0.010070
  C     -1.921800   -2.570900    0.428470
  C     -2.486850   -3.487070   -0.488190
  C     -2.748270   -3.068070   -1.824460
  C     -2.429690   -1.751900   -2.232720
  C     -3.323590   -3.987510   -2.724400
  C     -3.623860   -5.262050   -2.327100
  C     -3.364500   -5.674630   -1.011850
  C     -2.807880   -4.806170   -0.112370
  C     -1.088210   -0.170600    0.779270
  O     -0.713600   -0.159420    1.931020
  C     -1.152710    0.995510   -0.144020
  C     -1.033530    2.253110    0.375280
  C     -1.463000    3.472730   -0.179920
  C     -2.376800    3.690840   -1.202510
  C     -2.592950    5.039050   -1.441380
  C     -1.834670    5.879660   -0.593460
  S     -0.883550    4.993260    0.506050
  C     -2.119830    7.220020   -0.927910
  C     -3.054580    7.236230   -1.980920
  C     -3.370910    5.862520   -2.343990
  C     -4.202300    5.432120   -3.337760
  C     -4.908730    6.323480   -4.170560
  N     -5.487800    7.045160   -4.848110
  C     -4.404560    4.058360   -3.584370
  N     -4.570760    2.939270   -3.773490
  C     -3.415290    8.520180   -2.373370
  C     -2.763130    9.494560   -1.632720
  S     -1.681150    8.801450   -0.433200
  C     -2.909960   10.894740   -1.751020
  C     -2.231450   11.879540   -1.055200
  C     -2.656120   13.153320   -1.424990
  C     -3.674740   13.145860   -2.410780
  S     -4.093760   11.544150   -2.884800
  C     -3.999190   14.473080   -2.662420
  C     -3.168140   15.262110   -1.828030
  N     -2.365040   14.445500   -1.075530
  C     -1.359150   14.865020   -0.140610
  C     -3.380990   16.631720   -1.962730
  C     -4.374940   16.900110   -2.889500
  S     -5.056630   15.446650   -3.615130
  C     -4.852430   18.170560   -3.265320
  C     -4.404280   19.420200   -2.814290
  C     -5.119320   20.505380   -3.405680
  N     -4.839360   21.783960   -3.106420
  C     -3.876230   21.993980   -2.244590
  C     -3.155270   20.910080   -1.646860
  N     -3.417780   19.657310   -1.928080
  C     -2.060830   21.170090   -0.665100
  C     -3.560950   23.413180   -1.910650
  C     -6.111370   20.088650   -4.298310
  S     -6.152570   18.363470   -4.407740
  C     -7.000460   20.880220   -5.036630
  C     -7.989920   20.389510   -5.889440
  C     -8.760920   21.426080   -6.507980
  N     -9.763740   21.108040   -7.361270
  C     -9.975740   19.837790   -7.575490
  C     -9.195990   18.803310   -6.948350
  N     -8.221990   19.088640   -6.121600
  C     -9.464410   17.360900   -7.212290
  C    -11.081920   19.484850   -8.513710
  C     -8.345470   22.680740   -6.118660
  S     -7.035930   22.608530   -5.012110
  H     -1.725680   -2.871570    1.447020
  H     -2.649280   -1.454710   -3.246310
  H     -3.518700   -3.665290   -3.736700
  H     -4.062830   -5.959650   -3.024710
  H     -3.608500   -6.683650   -0.714400
  H     -2.606770   -5.118350    0.902180
  H     -0.626950    2.296240    1.381020
  H     -2.890960    2.892580   -1.705970
  H     -4.114250    8.760370   -3.154290
  H     -1.472080   11.655520   -0.327820
  H     -1.600790   15.863130    0.220230
  H     -0.370140   14.886930   -0.608190
  H     -1.332870   14.176230    0.703980
  H     -2.872210   17.422090   -1.443990
  H     -2.443470   21.717420    0.195070
  H     -1.274740   21.769240   -1.122110
  H     -1.642090   20.224990   -0.331320
  H     -4.223680   24.064830   -2.472760
  H     -2.527270   23.644220   -2.163830
  H     -3.695120   23.593800   -0.845120
  H    -10.483440   17.103420   -6.926900
  H     -8.766110   16.758600   -6.637830
  H     -9.346310   17.138250   -8.271830
  H    -11.545540   20.397040   -8.877660
  H    -11.830160   18.876620   -8.007880
  H    -10.697760   18.913540   -9.357270
  H     -8.741430   23.627040   -6.425210

 Total Charge           Charge          ....    0
 Multiplicity           Mult            ....    1
 Number of Electrons    NEL             ....  518
 Basis Dimension        Dim             .... 1139

ORBITAL ENERGIES
----------------

  NO   OCC          E(Eh)            E(eV)
   0   2.0000     -88.987760     -2421.4801
   1   2.0000     -88.986047     -2421.4334
   2   2.0000     -88.964952     -2420.8594
   3   2.0000     -88.964583     -2420.8494
   4   2.0000     -88.959847     -2420.7205
   5   2.0000     -88.951468     -2420.4925
   6   2.0000     -19.204369      -522.5774
   7   2.0000     -14.467292      -393.6750
   8   2.0000     -14.426844      -392.5744
   9   2.0000     -14.425846      -392.5472
  10   2.0000     -14.419238      -392.3674
  11   2.0000     -14.418971      -392.3601
  12   2.0000     -14.415610      -392.2687
  13   2.0000     -14.409071      -392.0908
  14   2.0000     -14.407904      -392.0590
  15   2.0000     -14.403283      -391.9332
  16   2.0000     -10.360868      -281.9335
  17   2.0000     -10.356344      -281.8105
  18   2.0000     -10.347978      -281.5828
  19   2.0000     -10.337804      -281.3060
  20   2.0000     -10.332275      -281.1555
  21   2.0000     -10.331696      -281.1398
  22   2.0000     -10.328577      -281.0549
  23   2.0000     -10.326999      -281.0119
  24   2.0000     -10.326033      -280.9857
  25   2.0000     -10.323991      -280.9301
  26   2.0000     -10.323167      -280.9077
  27   2.0000     -10.321678      -280.8671
  28   2.0000     -10.321252      -280.8555
  29   2.0000     -10.317789      -280.7613
  30   2.0000     -10.317576      -280.7555
  31   2.0000     -10.316109      -280.7156
  32   2.0000     -10.314902      -280.6827
  33   2.0000     -10.312438      -280.6157
  34   2.0000     -10.309625      -280.5392
  35   2.0000     -10.309418      -280.5335
  36   2.0000     -10.306866      -280.4641
  37   2.0000     -10.306242      -280.4471
  38   2.0000     -10.305321      -280.4220
  39   2.0000     -10.305119      -280.4166
  40   2.0000     -10.304380      -280.3964
  41   2.0000     -10.304344      -280.3955
  42   2.0000     -10.303633      -280.3761
  43   2.0000     -10.302983      -280.3584
  44   2.0000     -10.302108      -280.3346
  45   2.0000     -10.300080      -280.2794
  46   2.0000     -10.298018      -280.2233
  47   2.0000     -10.297685      -280.2142
  48   2.0000     -10.297468      -280.2084
  49   2.0000     -10.296840      -280.1912
  50   2.0000     -10.294958      -280.1400
  51   2.0000     -10.293709      -280.1061
  52   2.0000     -10.290931      -280.0305
  53   2.0000     -10.290581      -280.0210
  54   2.0000     -10.289206      -279.9835
  55   2.0000     -10.288948      -279.9765
  56   2.0000     -10.288607      -279.9672
  57   2.0000     -10.288350      -279.9602
  58   2.0000     -10.287182      -279.9284
  59   2.0000     -10.285764      -279.8899
  60   2.0000     -10.280347      -279.7425
  61   2.0000     -10.278893      -279.7029
  62   2.0000     -10.278393      -279.6893
  63   2.0000     -10.277944      -279.6771
  64   2.0000     -10.277249      -279.6582
  65   2.0000     -10.272903      -279.5399
  66   2.0000     -10.270756      -279.4815
  67   2.0000     -10.270295      -279.4689
  68   2.0000     -10.266319      -279.3607
  69   2.0000     -10.263727      -279.2902
  70   2.0000      -8.082342      -219.9317
  71   2.0000      -8.080416      -219.8793
  72   2.0000      -8.058925      -219.2945
  73   2.0000      -8.058028      -219.2701
  74   2.0000      -8.054309      -219.1689
  75   2.0000      -8.046296      -218.9509
  76   2.0000      -6.051566      -164.6715
  77   2.0000      -6.049767      -164.6225
  78   2.0000      -6.047373      -164.5574
  79   2.0000      -6.045651      -164.5105
  80   2.0000      -6.044799      -164.4873
  81   2.0000      -6.042601      -164.4275
  82   2.0000      -6.028001      -164.0302
  83   2.0000      -6.027264      -164.0102
  84   2.0000      -6.024058      -163.9230
  85   2.0000      -6.023588      -163.9102
  86   2.0000      -6.022880      -163.8909
  87   2.0000      -6.021987      -163.8666
  88   2.0000      -6.020692      -163.8314
  89   2.0000      -6.019992      -163.8123
  90   2.0000      -6.016100      -163.7064
  91   2.0000      -6.015608      -163.6930
  92   2.0000      -6.011933      -163.5930
  93   2.0000      -6.007556      -163.4739
  94   2.0000      -1.119342       -30.4589
  95   2.0000      -1.093705       -29.7612
  96   2.0000      -1.076783       -29.3007
  97   2.0000      -1.070445       -29.1283
  98   2.0000      -1.042118       -28.3575
  99   2.0000      -1.018070       -27.7031
 100   2.0000      -1.009632       -27.4735
 101   2.0000      -1.003763       -27.3138
 102   2.0000      -1.002533       -27.2803
 103   2.0000      -0.997967       -27.1561
 104   2.0000      -0.997139       -27.1335
 105   2.0000      -0.989601       -26.9284
 106   2.0000      -0.985705       -26.8224
 107   2.0000      -0.983275       -26.7563
 108   2.0000      -0.975505       -26.5448
 109   2.0000      -0.971172       -26.4269
 110   2.0000      -0.962836       -26.2001
 111   2.0000      -0.956426       -26.0257
 112   2.0000      -0.952548       -25.9201
 113   2.0000      -0.919928       -25.0325
 114   2.0000      -0.910757       -24.7830
 115   2.0000      -0.894012       -24.3273
 116   2.0000      -0.886972       -24.1357
 117   2.0000      -0.883701       -24.0467
 118   2.0000      -0.876890       -23.8614
 119   2.0000      -0.872987       -23.7552
 120   2.0000      -0.870250       -23.6807
 121   2.0000      -0.863948       -23.5092
 122   2.0000      -0.855233       -23.2721
 123   2.0000      -0.854566       -23.2539
 124   2.0000      -0.839017       -22.8308
 125   2.0000      -0.835421       -22.7330
 126   2.0000      -0.828224       -22.5371
 127   2.0000      -0.819816       -22.3083
 128   2.0000      -0.817914       -22.2566
 129   2.0000      -0.809011       -22.0143
 130   2.0000      -0.798398       -21.7255
 131   2.0000      -0.796866       -21.6838
 132   2.0000      -0.788339       -21.4518
 133   2.0000      -0.784424       -21.3453
 134   2.0000      -0.774000       -21.0616
 135   2.0000      -0.762645       -20.7526
 136   2.0000      -0.755532       -20.5591
 137   2.0000      -0.748844       -20.3771
 138   2.0000      -0.729246       -19.8438
 139   2.0000      -0.716869       -19.5070
 140   2.0000      -0.712124       -19.3779
 141   2.0000      -0.708867       -19.2893
 142   2.0000      -0.699046       -19.0220
 143   2.0000      -0.697799       -18.9881
 144   2.0000      -0.694542       -18.8995
 145   2.0000      -0.693189       -18.8626
 146   2.0000      -0.682150       -18.5622
 147   2.0000      -0.677290       -18.4300
 148   2.0000      -0.669765       -18.2252
 149   2.0000      -0.666003       -18.1229
 150   2.0000      -0.650923       -17.7125
 151   2.0000      -0.647198       -17.6111
 152   2.0000      -0.643550       -17.5119
 153   2.0000      -0.639987       -17.4149
 154   2.0000      -0.634427       -17.2636
 155   2.0000      -0.628320       -17.0975
 156   2.0000      -0.624442       -16.9919
 157   2.0000      -0.620061       -16.8727
 158   2.0000      -0.613282       -16.6882
 159   2.0000      -0.610243       -16.6055
 160   2.0000      -0.604746       -16.4560
 161   2.0000      -0.598806       -16.2943
 162   2.0000      -0.593290       -16.1442
 163   2.0000      -0.589624       -16.0445
 164   2.0000      -0.584574       -15.9071
 165   2.0000      -0.567046       -15.4301
 166   2.0000      -0.566372       -15.4118
 167   2.0000      -0.559166       -15.2157
 168   2.0000      -0.554181       -15.0800
 169   2.0000      -0.551350       -15.0030
 170   2.0000      -0.550582       -14.9821
 171   2.0000      -0.545692       -14.8490
 172   2.0000      -0.543305       -14.7841
 173   2.0000      -0.542468       -14.7613
 174   2.0000      -0.541043       -14.7225
 175   2.0000      -0.538643       -14.6572
 176   2.0000      -0.536993       -14.6123
 177   2.0000      -0.527609       -14.3570
 178   2.0000      -0.522967       -14.2307
 179   2.0000      -0.520728       -14.1697
 180   2.0000      -0.518938       -14.1210
 181   2.0000      -0.509595       -13.8668
 182   2.0000      -0.509549       -13.8655
 183   2.0000      -0.508413       -13.8346
 184   2.0000      -0.504572       -13.7301
 185   2.0000      -0.504180       -13.7194
 186   2.0000      -0.502396       -13.6709
 187   2.0000      -0.501425       -13.6445
 188   2.0000      -0.499835       -13.6012
 189   2.0000      -0.496905       -13.5215
 190   2.0000      -0.496021       -13.4974
 191   2.0000      -0.494885       -13.4665
 192   2.0000      -0.492390       -13.3986
 193   2.0000      -0.490696       -13.3525
 194   2.0000      -0.488716       -13.2986
 195   2.0000      -0.488044       -13.2803
 196   2.0000      -0.487794       -13.2735
 197   2.0000      -0.483154       -13.1473
 198   2.0000      -0.482466       -13.1286
 199   2.0000      -0.477626       -12.9969
 200   2.0000      -0.476875       -12.9764
 201   2.0000      -0.475636       -12.9427
 202   2.0000      -0.473923       -12.8961
 203   2.0000      -0.471479       -12.8296
 204   2.0000      -0.469784       -12.7835
 205   2.0000      -0.469465       -12.7748
 206   2.0000      -0.468236       -12.7413
 207   2.0000      -0.461536       -12.5590
 208   2.0000      -0.459430       -12.5017
 209   2.0000      -0.457583       -12.4515
 210   2.0000      -0.457073       -12.4376
 211   2.0000      -0.456040       -12.4095
 212   2.0000      -0.453881       -12.3507
 213   2.0000      -0.452654       -12.3173
 214   2.0000      -0.443526       -12.0689
 215   2.0000      -0.441495       -12.0137
 216   2.0000      -0.439497       -11.9593
 217   2.0000      -0.437389       -11.9020
 218   2.0000      -0.436319       -11.8729
 219   2.0000      -0.435494       -11.8504
 220   2.0000      -0.435237       -11.8434
 221   2.0000      -0.434477       -11.8227
 222   2.0000      -0.433298       -11.7906
 223   2.0000      -0.430300       -11.7090
 224   2.0000      -0.424643       -11.5551
 225   2.0000      -0.423787       -11.5318
 226   2.0000      -0.422573       -11.4988
 227   2.0000      -0.420879       -11.4527
 228   2.0000      -0.417917       -11.3721
 229   2.0000      -0.416655       -11.3378
 230   2.0000      -0.416314       -11.3285
 231   2.0000      -0.412481       -11.2242
 232   2.0000      -0.408561       -11.1175
 233   2.0000      -0.407812       -11.0971
 234   2.0000      -0.401488       -10.9250
 235   2.0000      -0.400659       -10.9025
 236   2.0000      -0.397309       -10.8113
 237   2.0000      -0.393802       -10.7159
 238   2.0000      -0.379691       -10.3319
 239   2.0000      -0.376337       -10.2407
 240   2.0000      -0.370103       -10.0710
 241   2.0000      -0.367651       -10.0043
 242   2.0000      -0.357475        -9.7274
 243   2.0000      -0.345357        -9.3976
 244   2.0000      -0.337666        -9.1884
 245   2.0000      -0.329442        -8.9646
 246   2.0000      -0.326745        -8.8912
 247   2.0000      -0.319602        -8.6968
 248   2.0000      -0.318801        -8.6750
 249   2.0000      -0.313732        -8.5371
 250   2.0000      -0.312238        -8.4964
 251   2.0000      -0.309395        -8.4191
 252   2.0000      -0.307503        -8.3676
 253   2.0000      -0.306644        -8.3442
 254   2.0000      -0.287574        -7.8253
 255   2.0000      -0.278244        -7.5714
 256   2.0000      -0.273926        -7.4539
 257   2.0000      -0.247404        -6.7322
 258   2.0000      -0.209215        -5.6930
 259   0.0000      -0.106526        -2.8987
 260   0.0000      -0.082216        -2.2372
 261   0.0000      -0.073231        -1.9927
 262   0.0000      -0.047538        -1.2936
 263   0.0000      -0.033116        -0.9011

MULLIKEN ATOMIC CHARGES
-----------------------
   0 C :    0.277093
   1 C :   -0.337440
   2 C :   -0.171277
   3 N :    0.152833
   4 C :   -0.204330
   5 N :    0.163563
   6 C :    0.024496
   7 C :    0.021721
   8 C :   -0.087628
   9 C :    0.095510
  10 C :    0.094041
  11 C :   -0.079798
  12 C :   -0.017532
  13 C :    0.035209
  14 C :    0.035892
  15 C :   -0.016551
  16 C :    0.134659
  17 O :   -0.150089
  18 C :   -0.151718
  19 C :    0.088986
  20 C :   -0.116350
  21 C :    0.005535
  22 C :   -0.015826
  23 C :   -0.061850
  24 S :    0.203727
  25 C :   -0.115386
  26 C :    0.029977
  27 C :    0.306326
  28 C :   -0.291307
  29 C :   -0.190750
  30 N :    0.179300
  31 C :   -0.184766
  32 N :    0.168956
  33 C :   -0.075195
  34 C :   -0.032993
  35 S :    0.176831
  36 C :   -0.064177
  37 C :   -0.110553
  38 C :    0.157281
  39 C :   -0.110864
  40 S :    0.143730
  41 C :   -0.113664
  42 C :    0.176946
  43 N :   -0.167011
  44 C :    0.129582
  45 C :   -0.119753
  46 C :   -0.079570
  47 S :    0.127159
  48 C :   -0.122020
  49 C :    0.029677
  50 C :    0.010194
  51 N :    0.007034
  52 C :   -0.180258
  53 C :   -0.168106
  54 N :    0.007339
  55 C :    0.126880
  56 C :    0.130061
  57 C :   -0.162610
  58 S :    0.208064
  59 C :   -0.155520
  60 C :    0.001015
  61 C :    0.088122
  62 N :    0.015495
  63 C :   -0.186672
  64 C :   -0.169279
  65 N :   -0.014850
  66 C :    0.128888
  67 C :    0.127735
  68 C :   -0.177295
  69 S :    0.210144
  70 H :   -0.015164
  71 H :   -0.001047
  72 H :   -0.010887
  73 H :   -0.006003
  74 H :   -0.008405
  75 H :   -0.020182
  76 H :    0.016402
  77 H :    0.026260
  78 H :    0.017208
  79 H :   -0.019736
  80 H :    0.042193
  81 H :    0.042074
  82 H :    0.036603
  83 H :   -0.024531
  84 H :    0.024509
  85 H :    0.025107
  86 H :    0.020426
  87 H :    0.029096
  88 H :    0.023676
  89 H :    0.023768
  90 H :    0.024491
  91 H :    0.030416
  92 H :    0.025386
  93 H :    0.026728
  94 H :    0.022691
  95 H :    0.022494
  96 H :    0.009414
Sum of atomic charges:   -0.0000000

LOEWDIN ATOMIC CHARGES
----------------------
   0 C :    0.065957
   1 C :   -0.143001
   2 C :   -0.018545
   3 N :   -0.053066
   4 C :   -0.016287
   5 N :   -0.051560
   6 C :   -0.022198
   7 C :   -0.056175
   8 C :    0.029777
   9 C :   -0.009815
  10 C :   -0.005802
  11 C :    0.017560
  12 C :   -0.005673
  13 C :   -0.015049
  14 C :   -0.015087
  15 C :   -0.010610
  16 C :    0.081914
  17 O :   -0.151714
  18 C :   -0.099294
  19 C :    0.043931
  20 C :   -0.186610
  21 C :    0.013724
  22 C :   -0.074748
  23 C :   -0.148863
  24 S :    0.488766
  25 C :   -0.200778
  26 C :   -0.048087
  27 C :    0.083164
  28 C :   -0.098504
  29 C :   -0.017082
  30 N :   -0.030338
  31 C :   -0.013198
  32 N :   -0.032731
  33 C :   -0.046557
  34 C :   -0.156177
  35 S :    0.466850
  36 C :   -0.188730
  37 C :   -0.072801
  38 C :   -0.020373
  39 C :   -0.211441
  40 S :    0.425250
  41 C :   -0.225182
  42 C :   -0.009983
  43 N :    0.027283
  44 C :    0.040777
  45 C :   -0.072671
  46 C :   -0.166191
  47 S :    0.399042
  48 C :   -0.209489
  49 C :   -0.050063
  50 C :   -0.058145
  51 N :   -0.053664
  52 C :   -0.003927
  53 C :   -0.003905
  54 N :   -0.044793
  55 C :   -0.052808
  56 C :   -0.052648
  57 C :   -0.195917
  58 S :    0.516472
  59 C :   -0.205611
  60 C :   -0.063888
  61 C :   -0.058343
  62 N :   -0.048582
  63 C :   -0.005241
  64 C :    0.000111
  65 N :   -0.061316
  66 C :   -0.052564
  67 C :   -0.052979
  68 C :   -0.206061
  69 S :    0.517400
  70 H :    0.038032
  71 H :    0.040120
  72 H :    0.034494
  73 H :    0.032427
  74 H :    0.031500
  75 H :    0.030751
  76 H :    0.044317
  77 H :    0.043008
  78 H :    0.036873
  79 H :    0.025935
  80 H :    0.036935
  81 H :    0.029133
  82 H :    0.032100
  83 H :    0.027346
  84 H :    0.037018
  85 H :    0.037279
  86 H :    0.035107
  87 H :    0.039423
  88 H :    0.036921
  89 H :    0.036892
  90 H :    0.037592
  91 H :    0.039738
  92 H :    0.037921
  93 H :    0.038472
  94 H :    0.036124
  95 H :    0.036149
  96 H :    0.025278

  Mayer bond orders larger than 0.100000
B(  0-C ,  1-C ) :   1.6363 B(  0-C ,  6-C ) :   0.9923 B(  0-C , 18-C ) :   1.0506
B(  1-C ,  2-C ) :   1.1330 B(  1-C ,  4-C ) :   1.1702 B(  2-C ,  3-N ) :   2.9901
B(  4-C ,  5-N ) :   2.9974 B(  6-C ,  7-C ) :   1.2182 B(  6-C , 11-C ) :   1.4638
B(  7-C ,  8-C ) :   1.4753 B(  7-C , 16-C ) :   0.9183 B(  8-C ,  9-C ) :   1.1806
B(  8-C , 70-H ) :   1.0160 B(  9-C , 10-C ) :   1.2624 B(  9-C , 15-C ) :   1.2458
B( 10-C , 11-C ) :   1.2005 B( 10-C , 12-C ) :   1.2423 B( 11-C , 71-H ) :   0.9940
B( 12-C , 13-C ) :   1.4891 B( 12-C , 72-H ) :   0.9972 B( 13-C , 14-C ) :   1.2629
B( 13-C , 73-H ) :   0.9875 B( 14-C , 15-C ) :   1.4891 B( 14-C , 74-H ) :   0.9880
B( 15-C , 75-H ) :   0.9970 B( 16-C , 17-O ) :   2.2629 B( 16-C , 18-C ) :   0.9503
B( 18-C , 19-C ) :   1.6339 B( 19-C , 20-C ) :   1.1653 B( 19-C , 76-H ) :   0.9295
B( 20-C , 21-C ) :   1.3811 B( 20-C , 24-S ) :   1.0708 B( 21-C , 22-C ) :   1.3730
B( 21-C , 77-H ) :   0.9777 B( 22-C , 23-C ) :   1.3836 B( 22-C , 27-C ) :   1.0063
B( 23-C , 24-S ) :   1.1565 B( 23-C , 25-C ) :   1.2228 B( 25-C , 26-C ) :   1.4317
B( 25-C , 35-S ) :   1.0876 B( 26-C , 27-C ) :   0.9887 B( 26-C , 33-C ) :   1.3176
B( 27-C , 28-C ) :   1.7136 B( 28-C , 29-C ) :   1.1362 B( 28-C , 31-C ) :   1.1363
B( 29-C , 30-N ) :   2.9928 B( 31-C , 32-N ) :   2.9820 B( 33-C , 34-C ) :   1.4228
B( 33-C , 78-H ) :   0.9891 B( 34-C , 35-S ) :   1.1177 B( 34-C , 36-C ) :   1.2022
B( 36-C , 37-C ) :   1.4433 B( 36-C , 40-S ) :   1.0886 B( 37-C , 38-C ) :   1.2590
B( 37-C , 79-H ) :   1.0035 B( 38-C , 39-C ) :   1.3722 B( 38-C , 43-N ) :   1.1463
B( 39-C , 40-S ) :   1.0361 B( 39-C , 41-C ) :   1.4114 B( 41-C , 42-C ) :   1.3777
B( 41-C , 47-S ) :   1.0255 B( 42-C , 43-N ) :   1.1463 B( 42-C , 45-C ) :   1.1839
B( 43-N , 44-C ) :   0.9699 B( 44-C , 80-H ) :   0.9726 B( 44-C , 81-H ) :   0.9735
B( 44-C , 82-H ) :   0.9713 B( 45-C , 46-C ) :   1.4957 B( 45-C , 83-H ) :   1.0055
B( 46-C , 47-S ) :   1.0732 B( 46-C , 48-C ) :   1.1949 B( 48-C , 49-C ) :   1.3833
B( 48-C , 57-C ) :   0.1470 B( 48-C , 58-S ) :   1.1098 B( 49-C , 50-C ) :   1.2316
B( 49-C , 54-N ) :   1.3864 B( 50-C , 51-N ) :   1.4012 B( 50-C , 57-C ) :   1.3260
B( 51-N , 52-C ) :   1.7253 B( 52-C , 53-C ) :   1.1282 B( 52-C , 56-C ) :   1.0980
B( 53-C , 54-N ) :   1.7237 B( 53-C , 55-C ) :   1.0967 B( 55-C , 84-H ) :   0.9414
B( 55-C , 85-H ) :   0.9413 B( 55-C , 86-H ) :   0.9439 B( 56-C , 87-H ) :   0.9423
B( 56-C , 88-H ) :   0.9406 B( 56-C , 89-H ) :   0.9405 B( 57-C , 58-S ) :   1.1751
B( 57-C , 59-C ) :   1.2702 B( 59-C , 60-C ) :   1.3036 B( 59-C , 68-C ) :   0.1195
B( 59-C , 69-S ) :   1.1918 B( 60-C , 61-C ) :   1.2097 B( 60-C , 65-N ) :   1.3754
B( 61-C , 62-N ) :   1.3429 B( 61-C , 68-C ) :   1.3966 B( 62-N , 63-C ) :   1.7765
B( 63-C , 64-C ) :   1.1097 B( 63-C , 67-C ) :   1.0943 B( 64-C , 65-N ) :   1.7268
B( 64-C , 66-C ) :   1.0999 B( 66-C , 90-H ) :   0.9397 B( 66-C , 91-H ) :   0.9432
B( 66-C , 92-H ) :   0.9395 B( 67-C , 93-H ) :   0.9427 B( 67-C , 94-H ) :   0.9423
B( 67-C , 95-H ) :   0.9422 B( 68-C , 69-S ) :   1.1684 B( 68-C , 96-H ) :   0.9774

-----------------------------------------------------------------------------
         ABSORPTION SPECTRUM VIA TRANSITION ELECTRIC DIPOLE MOMENTS
-----------------------------------------------------------------------------
State   Energy  Wavelength   fosc         T2         TX        TY        TZ
        (cm-1)    (nm)                  (au**2)     (au)      (au)      (au)
-----------------------------------------------------------------------------
   0    9172.7   1090.2   0.579502431  20.79866  -1.01953   4.38471  -0.73047
   1   14252.3    701.6   1.074145800  24.81148  -2.05702   4.25595  -1.57068
   2   16418.3    609.1   0.079027806   1.58463   0.32129   1.12393   0.46710
   3   17345.8    576.5   0.333152392   6.32300  -0.16608   2.47843   0.39090
   4   22375.7    446.9   0.020910528   0.30766  -0.39963   0.36007  -0.13527
   5   22658.3    441.3   0.071334670   1.03645   0.30529   0.85641   0.45805
   6   23059.5    433.7   0.021765420   0.31074  -0.20727  -0.13393  -0.49984
   7   23999.7    416.7   0.113217877   1.55305   0.61526   1.07823  -0.10918
   8   24228.2    412.7   0.603243529   8.19686   0.17681  -2.85675   0.06760
   9   25158.8    397.5   0.125371334   1.64053   0.65151  -0.92027   0.60760
  10   25738.0    388.5   0.154003790   1.96985  -0.19731  -1.38954  -0.00934
  11   26849.3    372.4   0.014827871   0.18181  -0.01741   0.15058   0.39854
  12   27972.4    357.5   0.030354566   0.35725   0.33213   0.24336   0.43326
  13   28010.5    357.0   0.033540435   0.39421  -0.40732  -0.29237  -0.37791
  14   28189.3    354.7   0.003388268   0.03957   0.13648   0.00042  -0.14472
  15   28608.3    349.5   0.036609058   0.42128   0.34585   0.49418  -0.23970
  16   29198.2    342.5   0.001030240   0.01162  -0.09779  -0.04030   0.02069
  17   29727.5    336.4   0.031909018   0.35337  -0.06950   0.37036  -0.45975
  18   30116.1    332.0   0.225310183   2.46296  -1.17106  -0.20073  -1.02533
  19   30722.6    325.5   0.024747684   0.26519  -0.22185   0.43991   0.14983
  20   30974.0    322.9   0.246180521   2.61657   0.82001  -0.06996   1.39257
  21   31334.0    319.1   0.112285232   1.17973   0.07497  -1.05869   0.23085
  22   31815.0    314.3   0.312746743   3.23620   0.70946   1.64619   0.15137
  23   32023.0    312.3   0.006108901   0.06280  -0.22665  -0.00088  -0.10691
  24   32258.5    310.0   0.146174715   1.49178   0.25675   1.19162   0.07674
  25   32556.4    307.2   0.023532783   0.23796  -0.27318   0.28689  -0.28467
  26   33523.8    298.3   0.031858704   0.31286  -0.09764  -0.51857  -0.18550
  27   33610.6    297.5   0.035692072   0.34960   0.22546   0.54500  -0.04177
  28   33728.6    296.5   0.182574760   1.78204   0.23520   1.13720  -0.65841
  29   34067.9    293.5   0.051660992   0.49922   0.21820   0.08229   0.66696
  30   34357.6    291.1   0.208622152   1.99900  -0.03366  -1.36044   0.38351
  31   34513.7    289.7   0.222334360   2.12076   0.23988   1.39644  -0.33639
  32   34746.6    287.8   0.146661546   1.38957  -0.86404  -0.30945  -0.73976
  33   34916.8    286.4   0.094226939   0.88841  -0.77687  -0.44652  -0.29242
  34   35172.5    284.3   0.092387082   0.86474  -0.33193  -0.65701   0.56824
  35   35572.0    281.1   0.143006776   1.32350   0.80598  -0.22653   0.78904
  36   36001.6    277.8   0.116769267   1.06778  -0.49809  -0.90531  -0.01013
  37   36738.5    272.2   0.000513691   0.00460  -0.06011  -0.01011  -0.02980
  38   36898.9    271.0   0.033529037   0.29915   0.38759   0.26963   0.27608
  39   37006.3    270.2   0.032549690   0.28957  -0.27373  -0.28311  -0.36673
  40   37153.6    269.2   0.060765529   0.53843  -0.36106  -0.47969  -0.42186
  41   37262.3    268.4   0.024583580   0.21720   0.25885   0.31647   0.22369
  42   37552.2    266.3   0.030946135   0.27130  -0.34627   0.07503  -0.38179
  43   38033.2    262.9   0.221776838   1.91968   0.84070   0.90668   0.62516
  44   38224.5    261.6   0.220270313   1.89710   0.84545   0.43003   0.99869
  45   38424.9    260.2   0.001374082   0.01177  -0.07814  -0.06902  -0.03005
  46   38719.3    258.3   0.020557637   0.17479  -0.23742  -0.34298   0.02807
  47   39199.2    255.1   0.065643152   0.55130  -0.07522  -0.66235   0.32700
  48   39714.6    251.8   0.010028325   0.08313   0.27338   0.00512  -0.09147
  49   39733.4    251.7   0.003850478   0.03190  -0.14976  -0.00438   0.09723
  50   39947.9    250.3   0.008626685   0.07109   0.06015   0.23222  -0.11639
  51   40087.2    249.5   0.034614681   0.28427   0.25801   0.21195   0.41567
  52   40310.9    248.1   0.099381517   0.81163   0.07574   0.35790   0.82329

FINAL SINGLE POINT ENERGY     -5026.983738044670

DIPOLE MOMENT
-------------
                                X             Y             Z
Electronic contribution:     14.63706     -42.82173       5.14788
Nuclear contribution   :    -14.61677      45.76798      -2.65852
                        -----------------------------------------
Total Dipole Moment    :      0.02029       2.94626       2.48935
                        -----------------------------------------
Magnitude (a.u.)       :      3.85717
Magnitude (Debye)      :      9.80414

Rotational constants in cm-1:     0.002388     0.000203     0.000190
Rotational constants in MHz :    71.582626     6.098862     5.693959

                             ****ORCA TERMINATED NORMALLY****
TOTAL RUN TIME: 0 days 0 hours 9 minutes 22 seconds 817 msec
