                         Program Version 4.2.0 -  RELEASE  -
|  1> # ORCA input file
|  2> # SCF done       -211.260632052170          0.000675509254
|  3> ! CAM-B3LYP def2-SVP def2/J RIJCOSX Grid4 TightSCF
|  4> %maxcore 5000
|  5> %tddft
|  6>     Mode sTDDFT
|  7>     Ethresh 5.0
|  8>     maxcore 5000
|  9> end
| 10>
| 11> %pal
| 12>   nprocs 6
| 13>   end
| 14> * xyz 0 1
| 15>    C       -2.17761         0.98383         3.14285
| 16>    C       -1.07439         1.44948         2.47470
| 17>    C       -0.24725         0.63913         1.66886
| 18>    N        0.46246         0.02094         1.01259
| 19>    C       -0.58672         2.76488         2.58949
| 20>    N       -0.15003         3.82365         2.67457
| 21>    C       -2.57219        -0.41920         3.22319
| 22>    C       -3.40135        -0.59294         4.36984
| 23>    C       -3.89561        -1.81688         4.71811
| 24>    C       -3.59060        -2.93727         3.91253
| 25>    C       -2.78259        -2.76482         2.75134
| 26>    C       -2.27539        -1.48689         2.42049
| 27>    C       -2.49894        -3.88809         1.94858
| 28>    C       -2.98470        -5.12435         2.27762
| 29>    C       -3.77702        -5.29400         3.42274
| 30>    C       -4.07333        -4.22393         4.22279
| 31>    C       -3.61480         0.71263         5.01589
| 32>    O       -4.21321         0.95678         6.03833
| 33>    C       -2.98544         1.71052         4.09941
| 34>    C       -3.32801         3.02098         4.23925
| 35>    C       -3.20556         4.07697         3.31057
| 36>    C       -2.99610         4.01850         1.94028
| 37>    C       -2.97713         5.27787         1.35668
| 38>    C       -3.18776         6.31895         2.28379
| 39>    S       -3.41361         5.73601         3.86578
| 40>    C       -3.15111         7.55173         1.58498
| 41>    C       -2.90360         7.29095         0.22510
| 42>    C       -2.77426         5.85402         0.03973
| 43>    C       -2.49768         5.18187        -1.11425
| 44>    C       -2.30490         5.84845        -2.34224
| 45>    N       -2.15768         6.39407        -3.33976
| 46>    C       -2.39431         3.77478        -1.13958
| 47>    N       -2.32257         2.63048        -1.14773
| 48>    C       -2.87131         8.44492        -0.55448
| 49>    C       -3.10271         9.58407         0.19846
| 50>    S       -3.34532         9.21997         1.89746
| 51>    C       -3.19330        10.91870        -0.27748
| 52>    C       -2.99741        11.36671        -1.56617
| 53>    C       -3.22217        12.73822        -1.70187
| 54>   Cl       -3.05847        13.55358        -3.20035
| 55>    C       -3.59600        13.37877        -0.52790
| 56>    S       -3.64551        12.22654         0.77623
| 57>    C       -3.94427        14.73925        -0.34326
| 58>    C       -4.32295        15.38137         0.82820
| 59>   Cl       -4.38256        14.59219         2.34879
| 60>    C       -4.66048        16.72663         0.66562
| 61>    C       -4.54770        17.15002        -0.63980
| 62>    S       -3.99985        15.86124        -1.67385
| 63>    C       -4.84542        18.42801        -1.17636
| 64>    C       -4.73265        18.82755        -2.49666
| 65>    C       -5.15141        20.14377        -2.68089
| 66>    C       -5.58558        20.75014        -1.48920
| 67>    S       -5.47077        19.70185        -0.14333
| 68>    C       -6.01142        22.06729        -1.77888
| 69>    C       -5.84659        22.29964        -3.16414
| 70>    C       -5.29073        21.10062        -3.77077
| 71>    C       -4.96012        20.89873        -5.07727
| 72>    C       -5.10772        21.88204        -6.08072
| 73>    N       -5.20255        22.65258        -6.92358
| 74>    C       -4.42836        19.67065        -5.52798
| 75>    N       -3.99745        18.67517        -5.89926
| 76>    C       -6.26224        23.56419        -3.55867
| 77>    C       -6.74763        24.31332        -2.49362
| 78>    S       -6.66587        23.40828        -0.97050
| 79>    C       -7.27237        25.61654        -2.38359
| 80>    C       -7.54401        26.57637        -3.31948
| 81>    C       -8.08417        27.88873        -2.99221
| 82>    C       -8.30607        28.41190        -1.74350
| 83>    C       -8.83380        29.69997        -1.50890
| 84>    N       -9.26119        30.73017        -1.23597
| 85>    C       -8.04423        27.78660        -0.50642
| 86>    N       -7.86073        27.36619         0.54736
| 87>    C       -8.33562        28.59419        -4.24356
| 88>    C       -7.93243        27.75924        -5.32243
| 89>    C       -7.41732        26.48555        -4.79624
| 90>    O       -6.99507        25.56268        -5.46135
| 91>    C       -8.04162        28.15220        -6.62515
| 92>    C       -8.57331        29.42821        -6.91568
| 93>    C       -8.98376        30.27075        -5.84245
| 94>    C       -8.85683        29.83465        -4.50370
| 95>    C       -9.51515        31.54175        -6.14222
| 96>    C       -9.63518        31.96209        -7.43884
| 97>    C       -9.23023        31.13172        -8.49466
| 98>    C       -8.71055        29.89172        -8.23877
| 99>    H       -4.51463        -1.92981         5.59571
|100>    H       -1.67628        -1.38046         1.52965
|101>    H       -1.88583        -3.75284         1.06983
|102>    H       -2.76042        -5.97901         1.65719
|103>    H       -4.15223        -6.27644         3.66746
|104>    H       -4.68377        -4.34841         5.10525
|105>    H       -3.83332         3.26033         5.17031
|106>    H       -2.91364         3.09457         1.39808
|107>    H       -2.70206         8.46421        -1.61468
|108>    H       -2.70563        10.73848        -2.38621
|109>    H       -4.97948        17.35951         1.47356
|110>    H       -4.36693        18.17358        -3.26765
|111>    H       -6.23494        23.94774        -4.56354
|112>    H       -7.50633        25.88003        -1.35876
|113>    H       -7.72526        27.49603        -7.42235
|114>    H       -9.17947        30.49785        -3.71741
|115>    H       -9.82503        32.17761        -5.32586
|116>    H      -10.04299        32.93748        -7.65813
|117>    H       -9.33216        31.47965        -9.51173
|118>    H       -8.39700        29.24783        -9.04736
|119> *
|120>
|121>                          ****END OF INPUT****

CARTESIAN COORDINATES (ANGSTROEM)
---------------------------------
  C     -2.177610    0.983830    3.142850
  C     -1.074390    1.449480    2.474700
  C     -0.247250    0.639130    1.668860
  N      0.462460    0.020940    1.012590
  C     -0.586720    2.764880    2.589490
  N     -0.150030    3.823650    2.674570
  C     -2.572190   -0.419200    3.223190
  C     -3.401350   -0.592940    4.369840
  C     -3.895610   -1.816880    4.718110
  C     -3.590600   -2.937270    3.912530
  C     -2.782590   -2.764820    2.751340
  C     -2.275390   -1.486890    2.420490
  C     -2.498940   -3.888090    1.948580
  C     -2.984700   -5.124350    2.277620
  C     -3.777020   -5.294000    3.422740
  C     -4.073330   -4.223930    4.222790
  C     -3.614800    0.712630    5.015890
  O     -4.213210    0.956780    6.038330
  C     -2.985440    1.710520    4.099410
  C     -3.328010    3.020980    4.239250
  C     -3.205560    4.076970    3.310570
  C     -2.996100    4.018500    1.940280
  C     -2.977130    5.277870    1.356680
  C     -3.187760    6.318950    2.283790
  S     -3.413610    5.736010    3.865780
  C     -3.151110    7.551730    1.584980
  C     -2.903600    7.290950    0.225100
  C     -2.774260    5.854020    0.039730
  C     -2.497680    5.181870   -1.114250
  C     -2.304900    5.848450   -2.342240
  N     -2.157680    6.394070   -3.339760
  C     -2.394310    3.774780   -1.139580
  N     -2.322570    2.630480   -1.147730
  C     -2.871310    8.444920   -0.554480
  C     -3.102710    9.584070    0.198460
  S     -3.345320    9.219970    1.897460
  C     -3.193300   10.918700   -0.277480
  C     -2.997410   11.366710   -1.566170
  C     -3.222170   12.738220   -1.701870
  Cl    -3.058470   13.553580   -3.200350
  C     -3.596000   13.378770   -0.527900
  S     -3.645510   12.226540    0.776230
  C     -3.944270   14.739250   -0.343260
  C     -4.322950   15.381370    0.828200
  Cl    -4.382560   14.592190    2.348790
  C     -4.660480   16.726630    0.665620
  C     -4.547700   17.150020   -0.639800
  S     -3.999850   15.861240   -1.673850
  C     -4.845420   18.428010   -1.176360
  C     -4.732650   18.827550   -2.496660
  C     -5.151410   20.143770   -2.680890
  C     -5.585580   20.750140   -1.489200
  S     -5.470770   19.701850   -0.143330
  C     -6.011420   22.067290   -1.778880
  C     -5.846590   22.299640   -3.164140
  C     -5.290730   21.100620   -3.770770
  C     -4.960120   20.898730   -5.077270
  C     -5.107720   21.882040   -6.080720
  N     -5.202550   22.652580   -6.923580
  C     -4.428360   19.670650   -5.527980
  N     -3.997450   18.675170   -5.899260
  C     -6.262240   23.564190   -3.558670
  C     -6.747630   24.313320   -2.493620
  S     -6.665870   23.408280   -0.970500
  C     -7.272370   25.616540   -2.383590
  C     -7.544010   26.576370   -3.319480
  C     -8.084170   27.888730   -2.992210
  C     -8.306070   28.411900   -1.743500
  C     -8.833800   29.699970   -1.508900
  N     -9.261190   30.730170   -1.235970
  C     -8.044230   27.786600   -0.506420
  N     -7.860730   27.366190    0.547360
  C     -8.335620   28.594190   -4.243560
  C     -7.932430   27.759240   -5.322430
  C     -7.417320   26.485550   -4.796240
  O     -6.995070   25.562680   -5.461350
  C     -8.041620   28.152200   -6.625150
  C     -8.573310   29.428210   -6.915680
  C     -8.983760   30.270750   -5.842450
  C     -8.856830   29.834650   -4.503700
  C     -9.515150   31.541750   -6.142220
  C     -9.635180   31.962090   -7.438840
  C     -9.230230   31.131720   -8.494660
  C     -8.710550   29.891720   -8.238770
  H     -4.514630   -1.929810    5.595710
  H     -1.676280   -1.380460    1.529650
  H     -1.885830   -3.752840    1.069830
  H     -2.760420   -5.979010    1.657190
  H     -4.152230   -6.276440    3.667460
  H     -4.683770   -4.348410    5.105250
  H     -3.833320    3.260330    5.170310
  H     -2.913640    3.094570    1.398080
  H     -2.702060    8.464210   -1.614680
  H     -2.705630   10.738480   -2.386210
  H     -4.979480   17.359510    1.473560
  H     -4.366930   18.173580   -3.267650
  H     -6.234940   23.947740   -4.563540
  H     -7.506330   25.880030   -1.358760
  H     -7.725260   27.496030   -7.422350
  H     -9.179470   30.497850   -3.717410
  H     -9.825030   32.177610   -5.325860
  H    -10.042990   32.937480   -7.658130
  H     -9.332160   31.479650   -9.511730
  H     -8.397000   29.247830   -9.047360

 Total Charge           Charge          ....    0
 Multiplicity           Mult            ....    1
 Number of Electrons    NEL             ....  618
 Basis Dimension        Dim             .... 1308

ORBITAL ENERGIES
----------------

  NO   OCC          E(Eh)            E(eV)
   0   2.0000    -101.612555     -2765.0182
   1   2.0000    -101.609892     -2764.9457
   2   2.0000     -89.000802     -2421.8349
   3   2.0000     -88.999797     -2421.8076
   4   2.0000     -88.998022     -2421.7593
   5   2.0000     -88.997786     -2421.7529
   6   2.0000     -88.982160     -2421.3277
   7   2.0000     -88.981955     -2421.3221
   8   2.0000     -19.218194      -522.9536
   9   2.0000     -19.214105      -522.8424
  10   2.0000     -14.435939      -392.8219
  11   2.0000     -14.435782      -392.8176
  12   2.0000     -14.435723      -392.8160
  13   2.0000     -14.431547      -392.7023
  14   2.0000     -14.418342      -392.3430
  15   2.0000     -14.417528      -392.3209
  16   2.0000     -14.413069      -392.1995
  17   2.0000     -14.411995      -392.1703
  18   2.0000     -10.371841      -282.2321
  19   2.0000     -10.371003      -282.2093
  20   2.0000     -10.369017      -282.1553
  21   2.0000     -10.365613      -282.0627
  22   2.0000     -10.358169      -281.8601
  23   2.0000     -10.357990      -281.8552
  24   2.0000     -10.349233      -281.6169
  25   2.0000     -10.347928      -281.5814
  26   2.0000     -10.346842      -281.5519
  27   2.0000     -10.346375      -281.5392
  28   2.0000     -10.342700      -281.4392
  29   2.0000     -10.342393      -281.4308
  30   2.0000     -10.341641      -281.4104
  31   2.0000     -10.341580      -281.4087
  32   2.0000     -10.340691      -281.3845
  33   2.0000     -10.340276      -281.3732
  34   2.0000     -10.340152      -281.3698
  35   2.0000     -10.339645      -281.3560
  36   2.0000     -10.337266      -281.2913
  37   2.0000     -10.336016      -281.2573
  38   2.0000     -10.335916      -281.2546
  39   2.0000     -10.335856      -281.2529
  40   2.0000     -10.335821      -281.2520
  41   2.0000     -10.330774      -281.1147
  42   2.0000     -10.330660      -281.1116
  43   2.0000     -10.330521      -281.1078
  44   2.0000     -10.330350      -281.1031
  45   2.0000     -10.328986      -281.0660
  46   2.0000     -10.328207      -281.0448
  47   2.0000     -10.325116      -280.9607
  48   2.0000     -10.321522      -280.8629
  49   2.0000     -10.318603      -280.7835
  50   2.0000     -10.317614      -280.7566
  51   2.0000     -10.316570      -280.7282
  52   2.0000     -10.314611      -280.6748
  53   2.0000     -10.314475      -280.6711
  54   2.0000     -10.314313      -280.6667
  55   2.0000     -10.311063      -280.5783
  56   2.0000     -10.310878      -280.5732
  57   2.0000     -10.309886      -280.5463
  58   2.0000     -10.309548      -280.5371
  59   2.0000     -10.307591      -280.4838
  60   2.0000     -10.304117      -280.3893
  61   2.0000     -10.302336      -280.3408
  62   2.0000     -10.302182      -280.3366
  63   2.0000     -10.301640      -280.3219
  64   2.0000     -10.300909      -280.3020
  65   2.0000     -10.299972      -280.2765
  66   2.0000     -10.296562      -280.1837
  67   2.0000     -10.296556      -280.1835
  68   2.0000     -10.296387      -280.1789
  69   2.0000     -10.296313      -280.1769
  70   2.0000     -10.296119      -280.1716
  71   2.0000     -10.295568      -280.1566
  72   2.0000     -10.295223      -280.1473
  73   2.0000     -10.294965      -280.1402
  74   2.0000     -10.288508      -279.9645
  75   2.0000     -10.287005      -279.9236
  76   2.0000     -10.285633      -279.8863
  77   2.0000     -10.285387      -279.8796
  78   2.0000     -10.284974      -279.8684
  79   2.0000     -10.284893      -279.8662
  80   2.0000     -10.284814      -279.8640
  81   2.0000     -10.284468      -279.8546
  82   2.0000     -10.284359      -279.8516
  83   2.0000     -10.283844      -279.8376
  84   2.0000      -9.567288      -260.3392
  85   2.0000      -9.564594      -260.2658
  86   2.0000      -8.095339      -220.2854
  87   2.0000      -8.094470      -220.2617
  88   2.0000      -8.092748      -220.2149
  89   2.0000      -8.092561      -220.2098
  90   2.0000      -8.077025      -219.7870
  91   2.0000      -8.076454      -219.7715
  92   2.0000      -7.337386      -199.6604
  93   2.0000      -7.334727      -199.5881
  94   2.0000      -7.327357      -199.3875
  95   2.0000      -7.327314      -199.3864
  96   2.0000      -7.324638      -199.3135
  97   2.0000      -7.324596      -199.3124
  98   2.0000      -6.064677      -165.0283
  99   2.0000      -6.063762      -165.0033
 100   2.0000      -6.061905      -164.9528
 101   2.0000      -6.061655      -164.9460
 102   2.0000      -6.060464      -164.9136
 103   2.0000      -6.059529      -164.8882
 104   2.0000      -6.057758      -164.8400
 105   2.0000      -6.057559      -164.8346
 106   2.0000      -6.057506      -164.8331
 107   2.0000      -6.056778      -164.8133
 108   2.0000      -6.055230      -164.7712
 109   2.0000      -6.055117      -164.7681
 110   2.0000      -6.046653      -164.5378
 111   2.0000      -6.046086      -164.5224
 112   2.0000      -6.042235      -164.4176
 113   2.0000      -6.041695      -164.4029
 114   2.0000      -6.038665      -164.3204
 115   2.0000      -6.038067      -164.3042
 116   2.0000      -1.133428       -30.8421
 117   2.0000      -1.129574       -30.7373
 118   2.0000      -1.054327       -28.6897
 119   2.0000      -1.053645       -28.6712
 120   2.0000      -1.039452       -28.2849
 121   2.0000      -1.027876       -27.9699
 122   2.0000      -1.026721       -27.9385
 123   2.0000      -1.020489       -27.7689
 124   2.0000      -1.019054       -27.7299
 125   2.0000      -1.017545       -27.6888
 126   2.0000      -1.013309       -27.5735
 127   2.0000      -1.010505       -27.4972
 128   2.0000      -1.006967       -27.4010
 129   2.0000      -1.003934       -27.3184
 130   2.0000      -0.998888       -27.1811
 131   2.0000      -0.998209       -27.1626
 132   2.0000      -0.993477       -27.0339
 133   2.0000      -0.991945       -26.9922
 134   2.0000      -0.976536       -26.5729
 135   2.0000      -0.973353       -26.4863
 136   2.0000      -0.970243       -26.4016
 137   2.0000      -0.968329       -26.3496
 138   2.0000      -0.961607       -26.1667
 139   2.0000      -0.957888       -26.0655
 140   2.0000      -0.929528       -25.2937
 141   2.0000      -0.928537       -25.2668
 142   2.0000      -0.920787       -25.0559
 143   2.0000      -0.919275       -25.0148
 144   2.0000      -0.902995       -24.5718
 145   2.0000      -0.899245       -24.4697
 146   2.0000      -0.891922       -24.2704
 147   2.0000      -0.881243       -23.9798
 148   2.0000      -0.880930       -23.9713
 149   2.0000      -0.879617       -23.9356
 150   2.0000      -0.879085       -23.9211
 151   2.0000      -0.872432       -23.7401
 152   2.0000      -0.866735       -23.5850
 153   2.0000      -0.865781       -23.5591
 154   2.0000      -0.863566       -23.4988
 155   2.0000      -0.840965       -22.8838
 156   2.0000      -0.838420       -22.8146
 157   2.0000      -0.836182       -22.7537
 158   2.0000      -0.827312       -22.5123
 159   2.0000      -0.827263       -22.5110
 160   2.0000      -0.815966       -22.2036
 161   2.0000      -0.809757       -22.0346
 162   2.0000      -0.790694       -21.5159
 163   2.0000      -0.783470       -21.3193
 164   2.0000      -0.781467       -21.2648
 165   2.0000      -0.769562       -20.9409
 166   2.0000      -0.762330       -20.7441
 167   2.0000      -0.759657       -20.6713
 168   2.0000      -0.744410       -20.2564
 169   2.0000      -0.734946       -19.9989
 170   2.0000      -0.719837       -19.5878
 171   2.0000      -0.716493       -19.4968
 172   2.0000      -0.707857       -19.2618
 173   2.0000      -0.704332       -19.1658
 174   2.0000      -0.700997       -19.0751
 175   2.0000      -0.700402       -19.0589
 176   2.0000      -0.696047       -18.9404
 177   2.0000      -0.694776       -18.9058
 178   2.0000      -0.689871       -18.7723
 179   2.0000      -0.689180       -18.7535
 180   2.0000      -0.679970       -18.5029
 181   2.0000      -0.675921       -18.3927
 182   2.0000      -0.670633       -18.2489
 183   2.0000      -0.661695       -18.0056
 184   2.0000      -0.657306       -17.8862
 185   2.0000      -0.648041       -17.6341
 186   2.0000      -0.642766       -17.4905
 187   2.0000      -0.638444       -17.3729
 188   2.0000      -0.634719       -17.2716
 189   2.0000      -0.633103       -17.2276
 190   2.0000      -0.630968       -17.1695
 191   2.0000      -0.626038       -17.0354
 192   2.0000      -0.624914       -17.0048
 193   2.0000      -0.620285       -16.8788
 194   2.0000      -0.608723       -16.5642
 195   2.0000      -0.607808       -16.5393
 196   2.0000      -0.606598       -16.5064
 197   2.0000      -0.604748       -16.4560
 198   2.0000      -0.601432       -16.3658
 199   2.0000      -0.593486       -16.1496
 200   2.0000      -0.587187       -15.9782
 201   2.0000      -0.581719       -15.8294
 202   2.0000      -0.563026       -15.3207
 203   2.0000      -0.562303       -15.3010
 204   2.0000      -0.559402       -15.2221
 205   2.0000      -0.556492       -15.1429
 206   2.0000      -0.556144       -15.1335
 207   2.0000      -0.555655       -15.1201
 208   2.0000      -0.546215       -14.8633
 209   2.0000      -0.545781       -14.8515
 210   2.0000      -0.544292       -14.8109
 211   2.0000      -0.541943       -14.7470
 212   2.0000      -0.538572       -14.6553
 213   2.0000      -0.537655       -14.6303
 214   2.0000      -0.536647       -14.6029
 215   2.0000      -0.536080       -14.5875
 216   2.0000      -0.532994       -14.5035
 217   2.0000      -0.531099       -14.4519
 218   2.0000      -0.525452       -14.2983
 219   2.0000      -0.524397       -14.2696
 220   2.0000      -0.520231       -14.1562
 221   2.0000      -0.518356       -14.1052
 222   2.0000      -0.517555       -14.0834
 223   2.0000      -0.515850       -14.0370
 224   2.0000      -0.512876       -13.9561
 225   2.0000      -0.512306       -13.9406
 226   2.0000      -0.510981       -13.9045
 227   2.0000      -0.509700       -13.8697
 228   2.0000      -0.508331       -13.8324
 229   2.0000      -0.507695       -13.8151
 230   2.0000      -0.507047       -13.7974
 231   2.0000      -0.506334       -13.7780
 232   2.0000      -0.502016       -13.6605
 233   2.0000      -0.499622       -13.5954
 234   2.0000      -0.497737       -13.5441
 235   2.0000      -0.496234       -13.5032
 236   2.0000      -0.492787       -13.4094
 237   2.0000      -0.492355       -13.3977
 238   2.0000      -0.488356       -13.2888
 239   2.0000      -0.487813       -13.2741
 240   2.0000      -0.484459       -13.1828
 241   2.0000      -0.482948       -13.1417
 242   2.0000      -0.478825       -13.0295
 243   2.0000      -0.477480       -12.9929
 244   2.0000      -0.470839       -12.8122
 245   2.0000      -0.467985       -12.7345
 246   2.0000      -0.466240       -12.6870
 247   2.0000      -0.465334       -12.6624
 248   2.0000      -0.464229       -12.6323
 249   2.0000      -0.464117       -12.6293
 250   2.0000      -0.463146       -12.6028
 251   2.0000      -0.461130       -12.5480
 252   2.0000      -0.458875       -12.4866
 253   2.0000      -0.455008       -12.3814
 254   2.0000      -0.451722       -12.2920
 255   2.0000      -0.450599       -12.2614
 256   2.0000      -0.450284       -12.2529
 257   2.0000      -0.449090       -12.2204
 258   2.0000      -0.448647       -12.2083
 259   2.0000      -0.446458       -12.1487
 260   2.0000      -0.445681       -12.1276
 261   2.0000      -0.445256       -12.1160
 262   2.0000      -0.443882       -12.0786
 263   2.0000      -0.443673       -12.0729
 264   2.0000      -0.443052       -12.0561
 265   2.0000      -0.442068       -12.0293
 266   2.0000      -0.441885       -12.0243
 267   2.0000      -0.438981       -11.9453
 268   2.0000      -0.437975       -11.9179
 269   2.0000      -0.433388       -11.7931
 270   2.0000      -0.433167       -11.7871
 271   2.0000      -0.432311       -11.7638
 272   2.0000      -0.431869       -11.7518
 273   2.0000      -0.430937       -11.7264
 274   2.0000      -0.428726       -11.6662
 275   2.0000      -0.427383       -11.6297
 276   2.0000      -0.425150       -11.5689
 277   2.0000      -0.423622       -11.5273
 278   2.0000      -0.422424       -11.4948
 279   2.0000      -0.418924       -11.3995
 280   2.0000      -0.417826       -11.3696
 281   2.0000      -0.410074       -11.1587
 282   2.0000      -0.408315       -11.1108
 283   2.0000      -0.404997       -11.0205
 284   2.0000      -0.403222       -10.9722
 285   2.0000      -0.398377       -10.8404
 286   2.0000      -0.395559       -10.7637
 287   2.0000      -0.385253       -10.4833
 288   2.0000      -0.381742       -10.3877
 289   2.0000      -0.378965       -10.3122
 290   2.0000      -0.373770       -10.1708
 291   2.0000      -0.366984        -9.9861
 292   2.0000      -0.358996        -9.7688
 293   2.0000      -0.356233        -9.6936
 294   2.0000      -0.351194        -9.5565
 295   2.0000      -0.340847        -9.2749
 296   2.0000      -0.339262        -9.2318
 297   2.0000      -0.336562        -9.1583
 298   2.0000      -0.333309        -9.0698
 299   2.0000      -0.329881        -8.9765
 300   2.0000      -0.328481        -8.9384
 301   2.0000      -0.324962        -8.8427
 302   2.0000      -0.316656        -8.6167
 303   2.0000      -0.315218        -8.5775
 304   2.0000      -0.300035        -8.1644
 305   2.0000      -0.294084        -8.0024
 306   2.0000      -0.290781        -7.9126
 307   2.0000      -0.271056        -7.3758
 308   2.0000      -0.246777        -6.7151
 309   0.0000      -0.118646        -3.2285
 310   0.0000      -0.113856        -3.0982
 311   0.0000      -0.092029        -2.5042
 312   0.0000      -0.089991        -2.4488
 313   0.0000      -0.065713        -1.7882

MULLIKEN ATOMIC CHARGES
-----------------------
   0 C :    0.268120
   1 C :   -0.328732
   2 C :   -0.170545
   3 N :    0.160401
   4 C :   -0.204061
   5 N :    0.165049
   6 C :    0.026777
   7 C :    0.020269
   8 C :   -0.082401
   9 C :    0.094886
  10 C :    0.092003
  11 C :   -0.076233
  12 C :   -0.016772
  13 C :    0.034626
  14 C :    0.037710
  15 C :   -0.016198
  16 C :    0.133550
  17 O :   -0.146015
  18 C :   -0.138285
  19 C :    0.083901
  20 C :   -0.111101
  21 C :    0.002890
  22 C :   -0.010539
  23 C :   -0.072535
  24 S :    0.212523
  25 C :   -0.107589
  26 C :    0.018454
  27 C :    0.306222
  28 C :   -0.282698
  29 C :   -0.187438
  30 N :    0.174382
  31 C :   -0.184890
  32 N :    0.171590
  33 C :   -0.053936
  34 C :   -0.026303
  35 S :    0.200810
  36 C :   -0.042799
  37 C :   -0.006153
  38 C :    0.068166
  39 Cl:   -0.049527
  40 C :   -0.092296
  41 S :    0.148578
  42 C :   -0.088926
  43 C :    0.068692
  44 Cl:   -0.060320
  45 C :   -0.019625
  46 C :   -0.039330
  47 S :    0.160605
  48 C :   -0.026187
  49 C :   -0.067911
  50 C :    0.026389
  51 C :   -0.109153
  52 S :    0.197675
  53 C :   -0.078481
  54 C :    0.000197
  55 C :    0.310781
  56 C :   -0.300827
  57 C :   -0.193075
  58 N :    0.201129
  59 C :   -0.192685
  60 N :    0.177418
  61 C :   -0.018559
  62 C :   -0.110772
  63 S :    0.204155
  64 C :    0.033205
  65 C :   -0.086608
  66 C :    0.329404
  67 C :   -0.368972
  68 C :   -0.184214
  69 N :    0.149587
  70 C :   -0.181437
  71 N :    0.142570
  72 C :    0.045032
  73 C :   -0.005207
  74 C :    0.159801
  75 O :   -0.149447
  76 C :   -0.078083
  77 C :    0.096685
  78 C :    0.094658
  79 C :   -0.079364
  80 C :   -0.018760
  81 C :    0.038628
  82 C :    0.034202
  83 C :   -0.014104
  84 H :   -0.012599
  85 H :   -0.000252
  86 H :   -0.009080
  87 H :   -0.004254
  88 H :   -0.006113
  89 H :   -0.017699
  90 H :    0.018908
  91 H :    0.026439
  92 H :    0.009122
  93 H :   -0.007620
  94 H :   -0.009978
  95 H :    0.018211
  96 H :    0.039620
  97 H :   -0.001237
  98 H :   -0.009444
  99 H :   -0.010141
 100 H :   -0.009374
 101 H :   -0.005702
 102 H :   -0.004940
 103 H :   -0.016496
Sum of atomic charges:   -0.0000000

LOEWDIN ATOMIC CHARGES
----------------------
   0 C :    0.065642
   1 C :   -0.137951
   2 C :   -0.018592
   3 N :   -0.046885
   4 C :   -0.016004
   5 N :   -0.047801
   6 C :   -0.022853
   7 C :   -0.057656
   8 C :    0.032389
   9 C :   -0.009253
  10 C :   -0.005144
  11 C :    0.018773
  12 C :   -0.005259
  13 C :   -0.012953
  14 C :   -0.012940
  15 C :   -0.009701
  16 C :    0.083432
  17 O :   -0.145924
  18 C :   -0.090431
  19 C :    0.040928
  20 C :   -0.181179
  21 C :    0.011000
  22 C :   -0.068384
  23 C :   -0.158173
  24 S :    0.498229
  25 C :   -0.187630
  26 C :   -0.055023
  27 C :    0.082435
  28 C :   -0.095979
  29 C :   -0.016120
  30 N :   -0.029790
  31 C :   -0.013227
  32 N :   -0.029272
  33 C :   -0.025571
  34 C :   -0.170937
  35 S :    0.478374
  36 C :   -0.188794
  37 C :   -0.060630
  38 C :   -0.165913
  39 Cl:    0.169834
  40 C :   -0.208340
  41 S :    0.442738
  42 C :   -0.203676
  43 C :   -0.169827
  44 Cl:    0.161891
  45 C :   -0.071979
  46 C :   -0.189449
  47 S :    0.463345
  48 C :   -0.164839
  49 C :   -0.037369
  50 C :   -0.050241
  51 C :   -0.192021
  52 S :    0.482490
  53 C :   -0.158179
  54 C :   -0.076450
  55 C :    0.074916
  56 C :   -0.091431
  57 C :   -0.023823
  58 N :   -0.011482
  59 C :   -0.015393
  60 N :   -0.029433
  61 C :    0.016960
  62 C :   -0.175810
  63 S :    0.496786
  64 C :    0.040282
  65 C :   -0.096096
  66 C :    0.078450
  67 C :   -0.145224
  68 C :   -0.017005
  69 N :   -0.055947
  70 C :   -0.022955
  71 N :   -0.056966
  72 C :   -0.027068
  73 C :   -0.055516
  74 C :    0.087352
  75 O :   -0.138107
  76 C :    0.033478
  77 C :   -0.008123
  78 C :   -0.006536
  79 C :    0.019852
  80 C :   -0.005410
  81 C :   -0.013497
  82 C :   -0.012084
  83 C :   -0.008967
  84 H :    0.039060
  85 H :    0.040452
  86 H :    0.035024
  87 H :    0.033292
  88 H :    0.032458
  89 H :    0.031641
  90 H :    0.045249
  91 H :    0.042944
  92 H :    0.041444
  93 H :    0.037888
  94 H :    0.031007
  95 H :    0.038114
  96 H :    0.043337
  97 H :    0.041449
  98 H :    0.040446
  99 H :    0.038805
 100 H :    0.034748
 101 H :    0.033004
 102 H :    0.032834
 103 H :    0.032439

  Mayer bond orders larger than 0.100000
B(  0-C ,  1-C ) :   1.6488 B(  0-C ,  6-C ) :   0.9972 B(  0-C , 18-C ) :   1.0356
B(  1-C ,  2-C ) :   1.1283 B(  1-C ,  4-C ) :   1.1709 B(  2-C ,  3-N ) :   2.9943
B(  4-C ,  5-N ) :   2.9946 B(  6-C ,  7-C ) :   1.2153 B(  6-C , 11-C ) :   1.4612
B(  7-C ,  8-C ) :   1.4719 B(  7-C , 16-C ) :   0.9223 B(  8-C ,  9-C ) :   1.1844
B(  8-C , 84-H ) :   1.0161 B(  9-C , 10-C ) :   1.2583 B(  9-C , 15-C ) :   1.2432
B( 10-C , 11-C ) :   1.2028 B( 10-C , 12-C ) :   1.2431 B( 11-C , 85-H ) :   0.9941
B( 12-C , 13-C ) :   1.4879 B( 12-C , 86-H ) :   0.9976 B( 13-C , 14-C ) :   1.2617
B( 13-C , 87-H ) :   0.9886 B( 14-C , 15-C ) :   1.4895 B( 14-C , 88-H ) :   0.9885
B( 15-C , 89-H ) :   0.9975 B( 16-C , 17-O ) :   2.2639 B( 16-C , 18-C ) :   0.9407
B( 18-C , 19-C ) :   1.6683 B( 19-C , 20-C ) :   1.1442 B( 19-C , 90-H ) :   0.9265
B( 20-C , 21-C ) :   1.3934 B( 20-C , 24-S ) :   1.0864 B( 21-C , 22-C ) :   1.3612
B( 21-C , 91-H ) :   0.9779 B( 22-C , 23-C ) :   1.4091 B( 22-C , 27-C ) :   1.0015
B( 23-C , 24-S ) :   1.1553 B( 23-C , 25-C ) :   1.1986 B( 25-C , 26-C ) :   1.4369
B( 25-C , 35-S ) :   1.1148 B( 26-C , 27-C ) :   0.9931 B( 26-C , 33-C ) :   1.3010
B( 27-C , 28-C ) :   1.7172 B( 28-C , 29-C ) :   1.1327 B( 28-C , 31-C ) :   1.1335
B( 29-C , 30-N ) :   2.9896 B( 31-C , 32-N ) :   2.9826 B( 33-C , 34-C ) :   1.4759
B( 33-C , 92-H ) :   0.9935 B( 34-C , 35-S ) :   1.1106 B( 34-C , 36-C ) :   1.1223
B( 36-C , 37-C ) :   1.4937 B( 36-C , 40-C ) :   0.1043 B( 36-C , 41-S ) :   1.0973
B( 37-C , 38-C ) :   1.2698 B( 37-C , 93-H ) :   1.0039 B( 38-C , 39-Cl) :   1.0417
B( 38-C , 40-C ) :   1.4702 B( 40-C , 41-S ) :   1.1240 B( 40-C , 42-C ) :   1.1810
B( 42-C , 43-C ) :   1.4731 B( 42-C , 47-S ) :   1.1252 B( 43-C , 44-Cl) :   1.0306
B( 43-C , 45-C ) :   1.2773 B( 45-C , 46-C ) :   1.4675 B( 45-C , 94-H ) :   1.0003
B( 46-C , 47-S ) :   1.1078 B( 46-C , 48-C ) :   1.1682 B( 48-C , 49-C ) :   1.4494
B( 48-C , 52-S ) :   1.1170 B( 49-C , 50-C ) :   1.3044 B( 49-C , 95-H ) :   0.9881
B( 50-C , 51-C ) :   1.4378 B( 50-C , 55-C ) :   0.9920 B( 51-C , 52-S ) :   1.1079
B( 51-C , 53-C ) :   1.2051 B( 53-C , 54-C ) :   1.3769 B( 53-C , 63-S ) :   1.1682
B( 54-C , 55-C ) :   0.9976 B( 54-C , 61-C ) :   1.3017 B( 55-C , 56-C ) :   1.7156
B( 56-C , 57-C ) :   1.1376 B( 56-C , 59-C ) :   1.1382 B( 57-C , 58-N ) :   3.0009
B( 59-C , 60-N ) :   2.9898 B( 61-C , 62-C ) :   1.3967 B( 61-C , 96-H ) :   0.9714
B( 62-C , 63-S ) :   1.0743 B( 62-C , 64-C ) :   1.2245 B( 64-C , 65-C ) :   1.5928
B( 64-C , 97-H ) :   0.9020 B( 65-C , 66-C ) :   1.0854 B( 65-C , 74-C ) :   0.9321
B( 66-C , 67-C ) :   1.6088 B( 66-C , 72-C ) :   0.9823 B( 67-C , 68-C ) :   1.1529
B( 67-C , 70-C ) :   1.1423 B( 68-C , 69-N ) :   2.9606 B( 70-C , 71-N ) :   2.9531
B( 72-C , 73-C ) :   1.2161 B( 72-C , 79-C ) :   1.4458 B( 73-C , 74-C ) :   0.9553
B( 73-C , 76-C ) :   1.4720 B( 74-C , 75-O ) :   2.1634 B( 75-O , 96-H ) :   0.1011
B( 76-C , 77-C ) :   1.1740 B( 76-C , 98-H ) :   1.0167 B( 77-C , 78-C ) :   1.2582
B( 77-C , 83-C ) :   1.2443 B( 78-C , 79-C ) :   1.2071 B( 78-C , 80-C ) :   1.2383
B( 79-C , 99-H ) :   0.9886 B( 80-C , 81-C ) :   1.4891 B( 80-C ,100-H ) :   0.9972
B( 81-C , 82-C ) :   1.2602 B( 81-C ,101-H ) :   0.9879 B( 82-C , 83-C ) :   1.4874
B( 82-C ,102-H ) :   0.9891 B( 83-C ,103-H ) :   0.9978

-----------------------------------------------------------------------------
         ABSORPTION SPECTRUM VIA TRANSITION ELECTRIC DIPOLE MOMENTS
-----------------------------------------------------------------------------
State   Energy  Wavelength   fosc         T2         TX        TY        TZ
        (cm-1)    (nm)                  (au**2)     (au)      (au)      (au)
-----------------------------------------------------------------------------
   0   12304.0    812.7   0.821126828  21.97048   0.83580  -4.45654   1.18792
   1   13113.4    762.6   0.076790620   1.92783   0.58989  -1.25223   0.10848
   2   18915.8    528.7   2.066108194  35.95878   1.27946  -5.72101   1.26168
   3   20364.4    491.1   0.073614948   1.19006  -0.50719   0.93959   0.22357
   4   21049.3    475.1   0.067797701   1.06036  -0.44248   0.92635   0.08032
   5   21798.7    458.7   0.347054065   5.24133   0.82967  -2.10834   0.32848
   6   24910.4    401.4   0.071331849   0.94271   0.13772  -0.92592   0.25771
   7   25235.1    396.3   0.022693521   0.29606   0.26735  -0.12753   0.45642
   8   25402.7    393.7   0.328570746   4.25819  -0.19669  -1.96024   0.61399
   9   27075.7    369.3   0.015390556   0.18713  -0.06537   0.39322   0.16804
  10   27282.5    366.5   0.017993080   0.21712  -0.17489  -0.28937   0.32062
  11   27847.9    359.1   0.019289097   0.22803  -0.11954   0.42915  -0.17196
  12   28015.8    356.9   0.018846569   0.22146  -0.20345   0.42339  -0.02856
  13   28300.0    353.4   0.052240835   0.60771  -0.46925   0.51874  -0.34412
  14   28350.8    352.7   0.060620772   0.70393  -0.14370   0.82479   0.05489
  15   28504.5    350.8   0.037522933   0.43337  -0.33503   0.39587  -0.40548
  16   28935.6    345.6   0.169864156   1.93261   0.22472  -1.34964  -0.24612
  17   29271.6    341.6   0.013118949   0.14755   0.00664  -0.28524  -0.25718
  18   29407.8    340.0   0.047312711   0.52965   0.41942   0.21097  -0.55609
  19   29991.0    333.4   0.120620756   1.32406  -0.70737   0.35904  -0.83353
  20   30164.7    331.5   0.310169071   3.38513  -0.26343  -1.69969   0.65328
  21   30705.2    325.7   0.128893217   1.38195   0.06274  -0.82042  -0.83959
  22   30966.8    322.9   0.737636686   7.84191   0.61000  -0.37680  -2.70700
  23   31334.8    319.1   0.009623628   0.10111   0.09119   0.30135  -0.04452
  24   31446.7    318.0   0.012706971   0.13303   0.25582  -0.19650  -0.17022
  25   31925.2    313.2   0.063490773   0.65471   0.15816  -0.51219  -0.60611
  26   32102.0    311.5   0.284703573   2.91969   0.02021  -1.67382   0.34295
  27   32541.5    307.3   0.106841278   1.08088  -0.35755   0.56818  -0.79386
  28   32632.5    306.4   0.090340321   0.91140   0.19726  -0.68124  -0.63905
  29   32965.8    303.3   0.015903968   0.15882   0.02822  -0.20343   0.34153
  30   33270.4    300.6   0.160914388   1.59226  -0.12944   0.90158  -0.87330
  31   33753.2    296.3   0.035209453   0.34342  -0.44713   0.08908  -0.36817
  32   33853.0    295.4   0.089199468   0.86744   0.41714   0.17512  -0.81411
  33   34058.4    293.6   0.237619391   2.29685   0.42123   1.33579  -0.57887
  34   34098.8    293.3   0.114087458   1.10147  -0.28001  -0.78241   0.64101
  35   34231.7    292.1   0.028788349   0.27686   0.21503   0.23579   0.41836
  36   34350.4    291.1   0.173823275   1.66591   0.40509   0.62872   1.05191
  37   34568.6    289.3   0.367211554   3.49711   0.02416   0.74151  -1.71660
  38   34631.4    288.8   0.308104795   2.92890  -0.07467  -0.46395   1.64562
  39   34837.9    287.0   0.136341562   1.28841  -0.36717   0.77315   0.74554
  40   35006.6    285.7   0.166920653   1.56977   0.77966   0.79720  -0.57128
  41   35324.9    283.1   0.244655031   2.28007   0.43265   1.39960  -0.36609
  42   35935.0    278.3   0.004063327   0.03723   0.09679   0.16506  -0.02475
  43   36053.9    277.4   0.116376273   1.06264  -0.22424  -0.71815  -0.70471
  44   36237.2    276.0   0.199005577   1.80795  -0.37410  -0.29232   1.25799
  45   36299.2    275.5   0.015246813   0.13828  -0.00070   0.30168   0.21741
  46   36628.6    273.0   0.089797488   0.80709   0.14365  -0.48307  -0.74371
  47   36889.5    271.1   0.057585207   0.51391  -0.20561   0.39775   0.55985
  48   37306.6    268.0   0.024396411   0.21529   0.11839   0.44737  -0.03363
  49   37611.6    265.9   0.028669875   0.25095   0.22290  -0.36531   0.26040
  50   38098.4    262.5   0.011658304   0.10074   0.21492  -0.21076   0.10063
  51   38338.0    260.8   0.014065149   0.12078   0.13696  -0.30635  -0.09040
  52   38505.6    259.7   0.023984626   0.20506  -0.05999   0.42081   0.15615
  53   38647.4    258.7   0.045821117   0.39032   0.11815  -0.61118   0.05308
  54   38789.1    257.8   0.010676030   0.09061  -0.20053  -0.21397   0.06794
  55   39086.4    255.8   0.047364025   0.39893  -0.06075  -0.41248  -0.47445
  56   39166.6    255.3   0.070231393   0.59032   0.38630  -0.32319  -0.58021
  57   39259.3    254.7   0.014824809   0.12431   0.10198  -0.12893  -0.31192
  58   39380.2    253.9   0.120878894   1.01053   0.44166  -0.69926  -0.57140
  59   39830.4    251.1   0.039034784   0.32264  -0.06158  -0.53547   0.17921
  60   39869.9    250.8   0.003869405   0.03195  -0.04961  -0.11938  -0.12344
  61   40006.0    250.0   0.020842055   0.17151   0.12607  -0.04236  -0.39220
  62   40217.9    248.6   0.027438801   0.22461  -0.08033  -0.46659   0.02119

FINAL SINGLE POINT ENERGY     -6419.931815837991

DIPOLE MOMENT
-------------
                                X             Y             Z
Electronic contribution:     16.10810       6.92482      15.70421
Nuclear contribution   :    -18.07244      -7.55965     -15.03965
                        -----------------------------------------
Total Dipole Moment    :     -1.96434      -0.63484       0.66456
                        -----------------------------------------
Magnitude (a.u.)       :      2.16870
Magnitude (Debye)      :      5.51241

Rotational constants in cm-1:     0.002593     0.000107     0.000104
Rotational constants in MHz :    77.727350     3.210549     3.132274

                             ****ORCA TERMINATED NORMALLY****
TOTAL RUN TIME: 0 days 0 hours 12 minutes 51 seconds 924 msec
