                         Program Version 4.2.0 -  RELEASE  -
|  1> # ORCA input file
|  2> # SCF done       -200.105995769479          0.000924120953
|  3> ! CAM-B3LYP def2-SVP def2/J RIJCOSX Grid4 TightSCF
|  4> %maxcore 5000
|  5> %tddft
|  6>     Mode sTDDFT
|  7>     Ethresh 5.0
|  8>     maxcore 5000
|  9> end
| 10>
| 11> %pal
| 12>   nprocs 6
| 13>   end
| 14> * xyz 0 1
| 15>    C        3.61501         3.56943         0.81774
| 16>    C        2.36799         3.03600         0.61417
| 17>    C        2.05873         2.13260        -0.42051
| 18>    N        1.75433         1.40295        -1.25316
| 19>    C        1.29470         3.26790         1.49677
| 20>    N        0.41750         3.41022         2.22414
| 21>    C        4.84112         3.15415         0.14687
| 22>    C        5.95142         3.55489         0.94706
| 23>    C        7.23609         3.27444         0.58207
| 24>    C        7.47226         2.57826        -0.62528
| 25>    C        6.36731         2.19040        -1.43687
| 26>    C        5.04579         2.48762        -1.02938
| 27>    C        6.61941         1.50590        -2.64277
| 28>    C        7.89945         1.21438        -3.02928
| 29>    C        8.98633         1.59495        -2.22859
| 30>    C        8.77691         2.26212        -1.05209
| 31>    C        5.46018         4.29993         2.11813
| 32>    O        6.09830         4.76470         3.03836
| 33>    C        3.99643         4.44713         1.89597
| 34>    C        3.36233         5.46324         2.55105
| 35>    C        2.22554         6.21166         2.20898
| 36>    S        1.46562         6.03219         0.65719
| 37>    C        0.69503         7.55733         0.76120
| 38>    C        0.86157         8.12304         2.02891
| 39>    C        1.76549         7.38123         2.85119
| 40>    C        2.16627         7.94374         4.08430
| 41>    C        3.18812         7.36041         4.99453
| 42>    O        4.20564         7.94429         5.28831
| 43>    O        2.85211         6.17946         5.50151
| 44>    C        1.63464         9.15519         4.47273
| 45>    C        0.66509         9.81756         3.71936
| 46>    C        0.25972         9.32273         2.50087
| 47>    O       -0.66806         9.92319         1.73878
| 48>    C        0.27560         8.25446        -0.42674
| 49>    C        0.82541         9.44863        -0.83704
| 50>    C        0.22612         9.93427        -2.03975
| 51>    C        0.50136        11.10890        -2.73405
| 52>    C       -0.19828        11.37548        -3.90168
| 53>    C       -1.16460        10.47914        -4.39156
| 54>    C       -1.43723         9.31117        -3.71643
| 55>    C       -0.74281         9.04249        -2.54369
| 56>    S       -0.92452         7.64339        -1.52862
| 57>    C        0.06187        12.56775        -4.61743
| 58>    N        0.26743        13.53257        -5.20080
| 59>    C        1.82344        10.13127        -0.03770
| 60>    S        1.40224        11.63947         0.64805
| 61>    C        2.63738        11.53931         1.85575
| 62>    C        3.38750        10.35104         1.68830
| 63>    C        2.96811         9.58295         0.56367
| 64>    C        3.68772         8.40835         0.21294
| 65>    C        3.53565         7.65284        -1.03956
| 66>    O        3.93204         6.51983        -1.19362
| 67>    O        2.96426         8.33996        -2.04121
| 68>    C        4.67472         7.96813         1.07541
| 69>    C        4.95914         8.62221         2.26758
| 70>    C        4.33408         9.81181         2.59580
| 71>    O        4.56615        10.43715         3.75872
| 72>    C        2.86270        12.54311         2.80171
| 73>    C        2.00134        13.55437         3.16893
| 74>    C        2.35346        14.67564         4.01304
| 75>    C        3.62379        15.10760         4.29685
| 76>    C        3.90995        16.21685         5.11800
| 77>    N        4.20127        17.10899         5.77964
| 78>    C        4.80438        14.53496         3.77878
| 79>    N        5.80736        14.14444         3.37818
| 80>    C        1.11639        15.32564         4.43084
| 81>    C        0.02568        14.62992         3.83352
| 82>    C        0.54308        13.52936         3.01205
| 83>    O       -0.13932        12.70542         2.41037
| 84>    C       -1.27056        15.01123         4.03156
| 85>    C       -1.53964        16.13363         4.84643
| 86>    C       -0.45496        16.83386         5.44860
| 87>    C        0.87758        16.41061         5.22885
| 88>    C       -0.73563        17.95185         6.25846
| 89>    C       -2.02546        18.36249         6.46321
| 90>    C       -3.09246        17.67291         5.86944
| 91>    C       -2.85472        16.58180         5.07787
| 92>    H        8.06453         3.58056         1.20377
| 93>    H        4.22590         2.19365        -1.66599
| 94>    H        5.77923         1.21242        -3.25491
| 95>    H        8.08156         0.68832        -3.95453
| 96>    H        9.99001         1.35769        -2.54847
| 97>    H        9.61027         2.55832        -0.43166
| 98>    H        3.95003         5.87444         3.36378
| 99>    H        3.54244         5.84316         6.09730
|100>    H        1.96150         9.59403         5.40315
|101>    H        0.23674        10.73725         4.08768
|102>    H       -0.84866        10.82098         2.07177
|103>    H        1.24470        11.79995        -2.36678
|104>    H       -1.68892        10.71809        -5.30413
|105>    H       -2.17453         8.61568        -4.08484
|106>    H        2.95602         7.79352        -2.84320
|107>    H        5.22915         7.08220         0.80542
|108>    H        5.68192         8.19878         2.94894
|109>    H        5.00087         9.82490         4.37674
|110>    H        3.81351        12.48254         3.31397
|111>    H       -2.08183        14.47122         3.56568
|112>    H        1.67674        16.95833         5.70243
|113>    H        0.08931        18.48080         6.71253
|114>    H       -2.22963        19.22205         7.08376
|115>    H       -4.10366        18.01002         6.04155
|116>    H       -3.67268        16.04707         4.61732
|117> *
|118>
|119>                          ****END OF INPUT****

CARTESIAN COORDINATES (ANGSTROEM)
---------------------------------
  C      3.615010    3.569430    0.817740
  C      2.367990    3.036000    0.614170
  C      2.058730    2.132600   -0.420510
  N      1.754330    1.402950   -1.253160
  C      1.294700    3.267900    1.496770
  N      0.417500    3.410220    2.224140
  C      4.841120    3.154150    0.146870
  C      5.951420    3.554890    0.947060
  C      7.236090    3.274440    0.582070
  C      7.472260    2.578260   -0.625280
  C      6.367310    2.190400   -1.436870
  C      5.045790    2.487620   -1.029380
  C      6.619410    1.505900   -2.642770
  C      7.899450    1.214380   -3.029280
  C      8.986330    1.594950   -2.228590
  C      8.776910    2.262120   -1.052090
  C      5.460180    4.299930    2.118130
  O      6.098300    4.764700    3.038360
  C      3.996430    4.447130    1.895970
  C      3.362330    5.463240    2.551050
  C      2.225540    6.211660    2.208980
  S      1.465620    6.032190    0.657190
  C      0.695030    7.557330    0.761200
  C      0.861570    8.123040    2.028910
  C      1.765490    7.381230    2.851190
  C      2.166270    7.943740    4.084300
  C      3.188120    7.360410    4.994530
  O      4.205640    7.944290    5.288310
  O      2.852110    6.179460    5.501510
  C      1.634640    9.155190    4.472730
  C      0.665090    9.817560    3.719360
  C      0.259720    9.322730    2.500870
  O     -0.668060    9.923190    1.738780
  C      0.275600    8.254460   -0.426740
  C      0.825410    9.448630   -0.837040
  C      0.226120    9.934270   -2.039750
  C      0.501360   11.108900   -2.734050
  C     -0.198280   11.375480   -3.901680
  C     -1.164600   10.479140   -4.391560
  C     -1.437230    9.311170   -3.716430
  C     -0.742810    9.042490   -2.543690
  S     -0.924520    7.643390   -1.528620
  C      0.061870   12.567750   -4.617430
  N      0.267430   13.532570   -5.200800
  C      1.823440   10.131270   -0.037700
  S      1.402240   11.639470    0.648050
  C      2.637380   11.539310    1.855750
  C      3.387500   10.351040    1.688300
  C      2.968110    9.582950    0.563670
  C      3.687720    8.408350    0.212940
  C      3.535650    7.652840   -1.039560
  O      3.932040    6.519830   -1.193620
  O      2.964260    8.339960   -2.041210
  C      4.674720    7.968130    1.075410
  C      4.959140    8.622210    2.267580
  C      4.334080    9.811810    2.595800
  O      4.566150   10.437150    3.758720
  C      2.862700   12.543110    2.801710
  C      2.001340   13.554370    3.168930
  C      2.353460   14.675640    4.013040
  C      3.623790   15.107600    4.296850
  C      3.909950   16.216850    5.118000
  N      4.201270   17.108990    5.779640
  C      4.804380   14.534960    3.778780
  N      5.807360   14.144440    3.378180
  C      1.116390   15.325640    4.430840
  C      0.025680   14.629920    3.833520
  C      0.543080   13.529360    3.012050
  O     -0.139320   12.705420    2.410370
  C     -1.270560   15.011230    4.031560
  C     -1.539640   16.133630    4.846430
  C     -0.454960   16.833860    5.448600
  C      0.877580   16.410610    5.228850
  C     -0.735630   17.951850    6.258460
  C     -2.025460   18.362490    6.463210
  C     -3.092460   17.672910    5.869440
  C     -2.854720   16.581800    5.077870
  H      8.064530    3.580560    1.203770
  H      4.225900    2.193650   -1.665990
  H      5.779230    1.212420   -3.254910
  H      8.081560    0.688320   -3.954530
  H      9.990010    1.357690   -2.548470
  H      9.610270    2.558320   -0.431660
  H      3.950030    5.874440    3.363780
  H      3.542440    5.843160    6.097300
  H      1.961500    9.594030    5.403150
  H      0.236740   10.737250    4.087680
  H     -0.848660   10.820980    2.071770
  H      1.244700   11.799950   -2.366780
  H     -1.688920   10.718090   -5.304130
  H     -2.174530    8.615680   -4.084840
  H      2.956020    7.793520   -2.843200
  H      5.229150    7.082200    0.805420
  H      5.681920    8.198780    2.948940
  H      5.000870    9.824900    4.376740
  H      3.813510   12.482540    3.313970
  H     -2.081830   14.471220    3.565680
  H      1.676740   16.958330    5.702430
  H      0.089310   18.480800    6.712530
  H     -2.229630   19.222050    7.083760
  H     -4.103660   18.010020    6.041550
  H     -3.672680   16.047070    4.617320

 Total Charge           Charge          ....    0
 Multiplicity           Mult            ....    1
 Number of Electrons    NEL             ....  538
 Basis Dimension        Dim             .... 1215

ORBITAL ENERGIES
----------------

  NO   OCC          E(Eh)            E(eV)
   0   2.0000     -88.993149     -2421.6267
   1   2.0000     -88.990857     -2421.5643
   2   2.0000     -88.978027     -2421.2152
   3   2.0000     -19.282775      -524.7110
   4   2.0000     -19.270499      -524.3769
   5   2.0000     -19.266503      -524.2682
   6   2.0000     -19.263000      -524.1729
   7   2.0000     -19.231068      -523.3040
   8   2.0000     -19.229592      -523.2638
   9   2.0000     -19.210772      -522.7517
  10   2.0000     -19.207317      -522.6577
  11   2.0000     -14.412463      -392.1831
  12   2.0000     -14.411338      -392.1525
  13   2.0000     -14.411085      -392.1455
  14   2.0000     -14.410574      -392.1317
  15   2.0000     -14.406176      -392.0120
  16   2.0000     -10.426988      -283.7328
  17   2.0000     -10.410522      -283.2847
  18   2.0000     -10.380883      -282.4782
  19   2.0000     -10.363219      -281.9975
  20   2.0000     -10.362599      -281.9807
  21   2.0000     -10.361777      -281.9583
  22   2.0000     -10.341627      -281.4100
  23   2.0000     -10.338981      -281.3380
  24   2.0000     -10.338349      -281.3208
  25   2.0000     -10.337337      -281.2932
  26   2.0000     -10.336712      -281.2762
  27   2.0000     -10.335815      -281.2518
  28   2.0000     -10.335031      -281.2305
  29   2.0000     -10.327877      -281.0358
  30   2.0000     -10.324368      -280.9403
  31   2.0000     -10.323969      -280.9295
  32   2.0000     -10.322882      -280.8999
  33   2.0000     -10.322077      -280.8780
  34   2.0000     -10.319494      -280.8077
  35   2.0000     -10.315880      -280.7094
  36   2.0000     -10.315544      -280.7002
  37   2.0000     -10.314221      -280.6642
  38   2.0000     -10.313949      -280.6568
  39   2.0000     -10.313482      -280.6441
  40   2.0000     -10.312282      -280.6115
  41   2.0000     -10.310794      -280.5710
  42   2.0000     -10.308392      -280.5056
  43   2.0000     -10.307959      -280.4938
  44   2.0000     -10.307462      -280.4803
  45   2.0000     -10.306888      -280.4647
  46   2.0000     -10.305501      -280.4269
  47   2.0000     -10.304843      -280.4090
  48   2.0000     -10.304693      -280.4050
  49   2.0000     -10.304189      -280.3912
  50   2.0000     -10.303405      -280.3699
  51   2.0000     -10.302744      -280.3519
  52   2.0000     -10.300964      -280.3035
  53   2.0000     -10.300632      -280.2944
  54   2.0000     -10.299941      -280.2757
  55   2.0000     -10.298728      -280.2426
  56   2.0000     -10.297976      -280.2222
  57   2.0000     -10.296981      -280.1951
  58   2.0000     -10.296221      -280.1744
  59   2.0000     -10.293951      -280.1126
  60   2.0000     -10.293661      -280.1048
  61   2.0000     -10.292490      -280.0729
  62   2.0000     -10.292282      -280.0672
  63   2.0000     -10.291993      -280.0594
  64   2.0000     -10.290328      -280.0141
  65   2.0000     -10.290030      -280.0060
  66   2.0000     -10.289972      -280.0044
  67   2.0000     -10.289255      -279.9849
  68   2.0000     -10.288805      -279.9726
  69   2.0000     -10.288118      -279.9539
  70   2.0000     -10.284315      -279.8504
  71   2.0000     -10.284289      -279.8497
  72   2.0000     -10.283665      -279.8328
  73   2.0000     -10.282043      -279.7886
  74   2.0000     -10.281588      -279.7762
  75   2.0000     -10.281311      -279.7687
  76   2.0000     -10.280628      -279.7501
  77   2.0000      -8.086305      -220.0396
  78   2.0000      -8.084482      -219.9899
  79   2.0000      -8.073787      -219.6989
  80   2.0000      -6.055008      -164.7651
  81   2.0000      -6.053379      -164.7208
  82   2.0000      -6.050710      -164.6482
  83   2.0000      -6.049862      -164.6251
  84   2.0000      -6.049056      -164.6032
  85   2.0000      -6.047661      -164.5652
  86   2.0000      -6.043281      -164.4460
  87   2.0000      -6.039243      -164.3361
  88   2.0000      -6.035241      -164.2273
  89   2.0000      -1.211977       -32.9796
  90   2.0000      -1.196202       -32.5503
  91   2.0000      -1.165843       -31.7242
  92   2.0000      -1.163821       -31.6692
  93   2.0000      -1.142492       -31.0888
  94   2.0000      -1.125343       -30.6222
  95   2.0000      -1.116006       -30.3681
  96   2.0000      -1.097335       -29.8600
  97   2.0000      -1.035822       -28.1862
  98   2.0000      -1.019341       -27.7377
  99   2.0000      -1.017242       -27.6806
 100   2.0000      -1.013077       -27.5672
 101   2.0000      -1.010717       -27.5030
 102   2.0000      -0.999480       -27.1972
 103   2.0000      -0.993151       -27.0250
 104   2.0000      -0.992779       -27.0149
 105   2.0000      -0.990529       -26.9537
 106   2.0000      -0.989150       -26.9161
 107   2.0000      -0.974122       -26.5072
 108   2.0000      -0.966917       -26.3112
 109   2.0000      -0.961346       -26.1595
 110   2.0000      -0.952364       -25.9151
 111   2.0000      -0.948342       -25.8057
 112   2.0000      -0.928513       -25.2661
 113   2.0000      -0.922197       -25.0943
 114   2.0000      -0.915944       -24.9241
 115   2.0000      -0.909931       -24.7605
 116   2.0000      -0.896994       -24.4085
 117   2.0000      -0.887116       -24.1397
 118   2.0000      -0.884542       -24.0696
 119   2.0000      -0.881628       -23.9903
 120   2.0000      -0.876201       -23.8426
 121   2.0000      -0.867355       -23.6019
 122   2.0000      -0.865037       -23.5388
 123   2.0000      -0.861630       -23.4461
 124   2.0000      -0.854697       -23.2575
 125   2.0000      -0.853780       -23.2325
 126   2.0000      -0.844490       -22.9797
 127   2.0000      -0.831468       -22.6254
 128   2.0000      -0.823836       -22.4177
 129   2.0000      -0.823285       -22.4027
 130   2.0000      -0.815796       -22.1989
 131   2.0000      -0.789755       -21.4903
 132   2.0000      -0.777995       -21.1703
 133   2.0000      -0.765804       -20.8386
 134   2.0000      -0.764212       -20.7953
 135   2.0000      -0.760082       -20.6829
 136   2.0000      -0.755604       -20.5610
 137   2.0000      -0.746658       -20.3176
 138   2.0000      -0.732990       -19.9457
 139   2.0000      -0.726368       -19.7655
 140   2.0000      -0.725405       -19.7393
 141   2.0000      -0.722519       -19.6607
 142   2.0000      -0.712345       -19.3839
 143   2.0000      -0.709490       -19.3062
 144   2.0000      -0.705151       -19.1881
 145   2.0000      -0.703929       -19.1549
 146   2.0000      -0.697011       -18.9666
 147   2.0000      -0.696037       -18.9401
 148   2.0000      -0.688082       -18.7237
 149   2.0000      -0.678921       -18.4744
 150   2.0000      -0.673606       -18.3298
 151   2.0000      -0.673223       -18.3193
 152   2.0000      -0.664991       -18.0953
 153   2.0000      -0.659334       -17.9414
 154   2.0000      -0.648043       -17.6342
 155   2.0000      -0.645009       -17.5516
 156   2.0000      -0.639007       -17.3883
 157   2.0000      -0.636863       -17.3299
 158   2.0000      -0.634236       -17.2585
 159   2.0000      -0.626539       -17.0490
 160   2.0000      -0.619223       -16.8499
 161   2.0000      -0.609579       -16.5875
 162   2.0000      -0.608866       -16.5681
 163   2.0000      -0.602386       -16.3918
 164   2.0000      -0.597763       -16.2660
 165   2.0000      -0.593672       -16.1546
 166   2.0000      -0.589861       -16.0509
 167   2.0000      -0.585718       -15.9382
 168   2.0000      -0.584200       -15.8969
 169   2.0000      -0.581843       -15.8327
 170   2.0000      -0.577527       -15.7153
 171   2.0000      -0.571332       -15.5467
 172   2.0000      -0.569479       -15.4963
 173   2.0000      -0.566233       -15.4080
 174   2.0000      -0.563148       -15.3240
 175   2.0000      -0.559918       -15.2361
 176   2.0000      -0.554770       -15.0961
 177   2.0000      -0.552788       -15.0421
 178   2.0000      -0.549976       -14.9656
 179   2.0000      -0.546742       -14.8776
 180   2.0000      -0.545726       -14.8500
 181   2.0000      -0.543924       -14.8009
 182   2.0000      -0.542982       -14.7753
 183   2.0000      -0.541406       -14.7324
 184   2.0000      -0.539792       -14.6885
 185   2.0000      -0.535693       -14.5769
 186   2.0000      -0.533758       -14.5243
 187   2.0000      -0.532655       -14.4943
 188   2.0000      -0.528866       -14.3912
 189   2.0000      -0.527491       -14.3538
 190   2.0000      -0.526294       -14.3212
 191   2.0000      -0.524872       -14.2825
 192   2.0000      -0.521087       -14.1795
 193   2.0000      -0.517114       -14.0714
 194   2.0000      -0.515586       -14.0298
 195   2.0000      -0.514353       -13.9962
 196   2.0000      -0.513582       -13.9753
 197   2.0000      -0.511649       -13.9227
 198   2.0000      -0.508336       -13.8325
 199   2.0000      -0.506534       -13.7835
 200   2.0000      -0.502457       -13.6725
 201   2.0000      -0.498849       -13.5744
 202   2.0000      -0.497107       -13.5270
 203   2.0000      -0.495129       -13.4731
 204   2.0000      -0.494054       -13.4439
 205   2.0000      -0.491691       -13.3796
 206   2.0000      -0.489533       -13.3209
 207   2.0000      -0.487776       -13.2731
 208   2.0000      -0.483710       -13.1624
 209   2.0000      -0.479002       -13.0343
 210   2.0000      -0.476181       -12.9575
 211   2.0000      -0.472556       -12.8589
 212   2.0000      -0.470610       -12.8060
 213   2.0000      -0.469325       -12.7710
 214   2.0000      -0.463269       -12.6062
 215   2.0000      -0.462122       -12.5750
 216   2.0000      -0.460234       -12.5236
 217   2.0000      -0.459600       -12.5064
 218   2.0000      -0.450705       -12.2643
 219   2.0000      -0.448772       -12.2117
 220   2.0000      -0.446861       -12.1597
 221   2.0000      -0.445387       -12.1196
 222   2.0000      -0.444276       -12.0894
 223   2.0000      -0.442827       -12.0499
 224   2.0000      -0.441099       -12.0029
 225   2.0000      -0.440191       -11.9782
 226   2.0000      -0.439470       -11.9586
 227   2.0000      -0.438460       -11.9311
 228   2.0000      -0.434552       -11.8248
 229   2.0000      -0.434040       -11.8108
 230   2.0000      -0.433469       -11.7953
 231   2.0000      -0.432307       -11.7637
 232   2.0000      -0.429910       -11.6984
 233   2.0000      -0.429080       -11.6759
 234   2.0000      -0.427246       -11.6260
 235   2.0000      -0.423829       -11.5330
 236   2.0000      -0.422734       -11.5032
 237   2.0000      -0.420463       -11.4414
 238   2.0000      -0.419271       -11.4089
 239   2.0000      -0.416597       -11.3362
 240   2.0000      -0.415096       -11.2953
 241   2.0000      -0.411684       -11.2025
 242   2.0000      -0.410589       -11.1727
 243   2.0000      -0.406929       -11.0731
 244   2.0000      -0.404269       -11.0007
 245   2.0000      -0.401923       -10.9369
 246   2.0000      -0.400569       -10.9000
 247   2.0000      -0.395516       -10.7625
 248   2.0000      -0.386415       -10.5149
 249   2.0000      -0.380658       -10.3582
 250   2.0000      -0.378573       -10.3015
 251   2.0000      -0.376092       -10.2340
 252   2.0000      -0.366574        -9.9750
 253   2.0000      -0.363572        -9.8933
 254   2.0000      -0.361701        -9.8424
 255   2.0000      -0.356460        -9.6998
 256   2.0000      -0.337310        -9.1787
 257   2.0000      -0.333584        -9.0773
 258   2.0000      -0.327601        -8.9145
 259   2.0000      -0.326731        -8.8908
 260   2.0000      -0.323428        -8.8009
 261   2.0000      -0.319773        -8.7015
 262   2.0000      -0.313332        -8.5262
 263   2.0000      -0.311044        -8.4639
 264   2.0000      -0.303520        -8.2592
 265   2.0000      -0.296744        -8.0748
 266   2.0000      -0.290003        -7.8914
 267   2.0000      -0.270514        -7.3611
 268   2.0000      -0.252706        -6.8765
 269   0.0000      -0.108324        -2.9476
 270   0.0000      -0.096893        -2.6366
 271   0.0000      -0.069419        -1.8890
 272   0.0000      -0.055699        -1.5157
 273   0.0000      -0.045414        -1.2358

MULLIKEN ATOMIC CHARGES
-----------------------
   0 C :    0.279003
   1 C :   -0.326988
   2 C :   -0.176843
   3 N :    0.149087
   4 C :   -0.231455
   5 N :    0.176540
   6 C :    0.047607
   7 C :    0.015344
   8 C :   -0.082001
   9 C :    0.093238
  10 C :    0.094813
  11 C :   -0.073806
  12 C :   -0.017258
  13 C :    0.035899
  14 C :    0.034086
  15 C :   -0.016145
  16 C :    0.134064
  17 O :   -0.164910
  18 C :   -0.137732
  19 C :    0.030862
  20 C :   -0.142587
  21 S :    0.233658
  22 C :   -0.196683
  23 C :    0.134769
  24 C :    0.171049
  25 C :   -0.061719
  26 C :    0.125800
  27 O :   -0.233759
  28 O :   -0.151505
  29 C :    0.038027
  30 C :   -0.047791
  31 C :    0.119721
  32 O :   -0.173787
  33 C :   -0.162691
  34 C :    0.208163
  35 C :    0.077931
  36 C :   -0.042097
  37 C :   -0.097438
  38 C :    0.042122
  39 C :   -0.002460
  40 C :   -0.059671
  41 S :    0.180409
  42 C :   -0.142464
  43 N :    0.106626
  44 C :   -0.284192
  45 S :    0.266722
  46 C :   -0.163806
  47 C :    0.081832
  48 C :    0.212490
  49 C :   -0.059790
  50 C :    0.106141
  51 O :   -0.208133
  52 O :   -0.169299
  53 C :    0.036792
  54 C :   -0.059042
  55 C :    0.149991
  56 O :   -0.175509
  57 C :   -0.002840
  58 C :   -0.124094
  59 C :    0.304201
  60 C :   -0.342133
  61 C :   -0.186233
  62 N :    0.142344
  63 C :   -0.210976
  64 N :    0.165901
  65 C :    0.055116
  66 C :   -0.004924
  67 C :    0.171968
  68 O :   -0.243221
  69 C :   -0.079869
  70 C :    0.094451
  71 C :    0.097090
  72 C :   -0.083752
  73 C :   -0.018061
  74 C :    0.036389
  75 C :    0.035674
  76 C :   -0.015969
  77 H :   -0.016503
  78 H :   -0.008460
  79 H :   -0.012920
  80 H :   -0.007020
  81 H :   -0.007546
  82 H :   -0.019563
  83 H :    0.006470
  84 H :    0.203285
  85 H :   -0.007892
  86 H :   -0.024879
  87 H :    0.202903
  88 H :   -0.005477
  89 H :    0.003111
  90 H :   -0.007916
  91 H :    0.194895
  92 H :    0.006228
  93 H :   -0.004172
  94 H :    0.203479
  95 H :    0.051118
  96 H :   -0.019369
  97 H :   -0.008157
  98 H :   -0.007697
  99 H :   -0.003070
 100 H :   -0.004657
 101 H :   -0.018486
Sum of atomic charges:   -0.0000000

LOEWDIN ATOMIC CHARGES
----------------------
   0 C :    0.070284
   1 C :   -0.154162
   2 C :   -0.018639
   3 N :   -0.056454
   4 C :   -0.044490
   5 N :   -0.048995
   6 C :   -0.014569
   7 C :   -0.055638
   8 C :    0.030387
   9 C :   -0.009807
  10 C :   -0.004600
  11 C :    0.018554
  12 C :   -0.006993
  13 C :   -0.014530
  14 C :   -0.015154
  15 C :   -0.009915
  16 C :    0.082405
  17 O :   -0.162940
  18 C :   -0.104703
  19 C :    0.045990
  20 C :   -0.185530
  21 S :    0.589299
  22 C :   -0.168787
  23 C :   -0.059898
  24 C :   -0.000463
  25 C :   -0.085395
  26 C :    0.086774
  27 O :   -0.188237
  28 O :   -0.009348
  29 C :    0.028429
  30 C :   -0.079818
  31 C :    0.069728
  32 O :   -0.030445
  33 C :   -0.174061
  34 C :   -0.061487
  35 C :   -0.038478
  36 C :    0.017327
  37 C :   -0.070460
  38 C :    0.007183
  39 C :   -0.029204
  40 C :   -0.142444
  41 S :    0.441381
  42 C :   -0.030418
  43 N :   -0.054795
  44 C :   -0.150540
  45 S :    0.603611
  46 C :   -0.192149
  47 C :   -0.038575
  48 C :   -0.027700
  49 C :   -0.105999
  50 C :    0.071001
  51 O :   -0.198274
  52 O :   -0.027091
  53 C :    0.038583
  54 C :   -0.071149
  55 C :    0.082432
  56 O :   -0.020711
  57 C :    0.063020
  58 C :   -0.123455
  59 C :    0.073919
  60 C :   -0.142889
  61 C :   -0.017456
  62 N :   -0.057395
  63 C :   -0.027248
  64 N :   -0.050320
  65 C :   -0.023171
  66 C :   -0.057097
  67 C :    0.091596
  68 O :   -0.210748
  69 C :    0.031114
  70 C :   -0.010812
  71 C :   -0.005282
  72 C :    0.019488
  73 C :   -0.005089
  74 C :   -0.011503
  75 C :   -0.012605
  76 C :   -0.009238
  77 H :    0.037878
  78 H :    0.038355
  79 H :    0.033517
  80 H :    0.032232
  81 H :    0.031767
  82 H :    0.031032
  83 H :    0.041026
  84 H :    0.109927
  85 H :    0.037813
  86 H :    0.031627
  87 H :    0.084006
  88 H :    0.036637
  89 H :    0.041815
  90 H :    0.037221
  91 H :    0.102989
  92 H :    0.040994
  93 H :    0.037458
  94 H :    0.098616
  95 H :    0.050282
  96 H :    0.036422
  97 H :    0.039597
  98 H :    0.035372
  99 H :    0.033840
 100 H :    0.033060
 101 H :    0.031365

  Mayer bond orders larger than 0.100000
B(  0-C ,  1-C ) :   1.6324 B(  0-C ,  6-C ) :   1.0054 B(  0-C , 18-C ) :   1.0351
B(  1-C ,  2-C ) :   1.1400 B(  1-C ,  4-C ) :   1.1561 B(  2-C ,  3-N ) :   2.9883
B(  4-C ,  5-N ) :   3.0159 B(  6-C ,  7-C ) :   1.2105 B(  6-C , 11-C ) :   1.4688
B(  7-C ,  8-C ) :   1.4780 B(  7-C , 16-C ) :   0.9373 B(  8-C ,  9-C ) :   1.1803
B(  8-C , 77-H ) :   1.0157 B(  9-C , 10-C ) :   1.2612 B(  9-C , 15-C ) :   1.2444
B( 10-C , 11-C ) :   1.1981 B( 10-C , 12-C ) :   1.2435 B( 11-C , 78-H ) :   0.9925
B( 12-C , 13-C ) :   1.4859 B( 12-C , 79-H ) :   0.9970 B( 13-C , 14-C ) :   1.2633
B( 13-C , 80-H ) :   0.9884 B( 14-C , 15-C ) :   1.4879 B( 14-C , 81-H ) :   0.9888
B( 15-C , 82-H ) :   0.9973 B( 16-C , 17-O ) :   2.2012 B( 16-C , 18-C ) :   0.9549
B( 18-C , 19-C ) :   1.6234 B( 19-C , 20-C ) :   1.2187 B( 19-C , 83-H ) :   0.9080
B( 20-C , 21-S ) :   1.1329 B( 20-C , 24-C ) :   1.2952 B( 21-S , 22-C ) :   1.2885
B( 22-C , 23-C ) :   1.3213 B( 22-C , 33-C ) :   1.0247 B( 23-C , 24-C ) :   1.2388
B( 23-C , 31-C ) :   1.1750 B( 24-C , 25-C ) :   1.2572 B( 25-C , 26-C ) :   0.8951
B( 25-C , 29-C ) :   1.4964 B( 26-C , 27-O ) :   2.0495 B( 26-C , 28-O ) :   1.2935
B( 28-O , 84-H ) :   0.9380 B( 29-C , 30-C ) :   1.2299 B( 29-C , 85-H ) :   0.9930
B( 30-C , 31-C ) :   1.4315 B( 30-C , 86-H ) :   0.9892 B( 31-C , 32-O ) :   1.2851
B( 32-O , 87-H ) :   0.9210 B( 33-C , 34-C ) :   1.6116 B( 33-C , 41-S ) :   1.0973
B( 34-C , 35-C ) :   1.1496 B( 34-C , 44-C ) :   0.9686 B( 35-C , 36-C ) :   1.3082
B( 35-C , 40-C ) :   1.3118 B( 36-C , 37-C ) :   1.4194 B( 36-C , 88-H ) :   0.9901
B( 37-C , 38-C ) :   1.3247 B( 37-C , 42-C ) :   1.0546 B( 38-C , 39-C ) :   1.4335
B( 38-C , 89-H ) :   0.9926 B( 39-C , 40-C ) :   1.3307 B( 39-C , 90-H ) :   0.9962
B( 40-C , 41-S ) :   1.0665 B( 42-C , 43-N ) :   3.0548 B( 44-C , 45-S ) :   1.2957
B( 44-C , 46-C ) :   0.1032 B( 44-C , 48-C ) :   1.2948 B( 45-S , 46-C ) :   1.1402
B( 46-C , 47-C ) :   1.2299 B( 46-C , 57-C ) :   1.3018 B( 47-C , 48-C ) :   1.2762
B( 47-C , 55-C ) :   1.2094 B( 48-C , 49-C ) :   1.1469 B( 49-C , 50-C ) :   0.9502
B( 49-C , 53-C ) :   1.4983 B( 50-C , 51-O ) :   2.1193 B( 50-C , 52-O ) :   1.2660
B( 52-O , 91-H ) :   0.9381 B( 53-C , 54-C ) :   1.2474 B( 53-C , 92-H ) :   0.9800
B( 54-C , 55-C ) :   1.3906 B( 54-C , 93-H ) :   0.9903 B( 55-C , 56-O ) :   1.2427
B( 56-O , 94-H ) :   0.9239 B( 57-C , 58-C ) :   1.4441 B( 57-C , 95-H ) :   0.9365
B( 58-C , 59-C ) :   1.0756 B( 58-C , 67-C ) :   1.0187 B( 59-C , 60-C ) :   1.6372
B( 59-C , 65-C ) :   0.9852 B( 60-C , 61-C ) :   1.1489 B( 60-C , 63-C ) :   1.1400
B( 61-C , 62-N ) :   2.9624 B( 63-C , 64-N ) :   2.9958 B( 65-C , 66-C ) :   1.2087
B( 65-C , 72-C ) :   1.4634 B( 66-C , 67-C ) :   0.9768 B( 66-C , 69-C ) :   1.4636
B( 67-C , 68-O ) :   2.0020 B( 69-C , 70-C ) :   1.1780 B( 69-C , 96-H ) :   1.0163
B( 70-C , 71-C ) :   1.2585 B( 70-C , 76-C ) :   1.2455 B( 71-C , 72-C ) :   1.1945
B( 71-C , 73-C ) :   1.2445 B( 72-C , 97-H ) :   0.9910 B( 73-C , 74-C ) :   1.4839
B( 73-C , 98-H ) :   0.9978 B( 74-C , 75-C ) :   1.2623 B( 74-C , 99-H ) :   0.9892
B( 75-C , 76-C ) :   1.4866 B( 75-C ,100-H ) :   0.9894 B( 76-C ,101-H ) :   0.9977

-----------------------------------------------------------------------------
         ABSORPTION SPECTRUM VIA TRANSITION ELECTRIC DIPOLE MOMENTS
-----------------------------------------------------------------------------
State   Energy  Wavelength   fosc         T2         TX        TY        TZ
        (cm-1)    (nm)                  (au**2)     (au)      (au)      (au)
-----------------------------------------------------------------------------
   0   14003.8    714.1   0.430498111  10.12048  -0.75507   2.81057   1.28493
   1   16423.6    608.9   0.102635337   2.05733  -0.82724   1.11027  -0.37459
   2   18093.7    552.7   0.177536178   3.23024  -0.40345  -1.01085  -1.43026
   3   20235.4    494.2   0.533058348   8.67238   1.01057  -2.68199  -0.67678
   4   23727.8    421.4   0.058378426   0.80997   0.19272   0.73345   0.48465
   5   24227.7    412.8   0.056162957   0.76316  -0.86790  -0.05049   0.08581
   6   24902.0    401.6   0.034019726   0.44975  -0.35901  -0.05029   0.56421
   7   25503.1    392.1   0.030094316   0.38848   0.60307  -0.11358  -0.10902
   8   25994.1    384.7   0.063176568   0.80012   0.40434  -0.74504  -0.28557
   9   26427.8    378.4   0.057570242   0.71716   0.72818   0.01858   0.43194
  10   26835.4    372.6   0.059315690   0.72767  -0.31230   0.37481  -0.69976
  11   27702.2    361.0   0.014120811   0.16781   0.21080   0.29292   0.19384
  12   27997.2    357.2   0.012660475   0.14887   0.33957   0.17098   0.06579
  13   28177.0    354.9   0.024472970   0.28594  -0.23286  -0.17250  -0.44939
  14   28713.5    348.3   0.029434623   0.33748  -0.00697   0.25458   0.52213
  15   28942.9    345.5   0.065791825   0.74835   0.59873  -0.59376  -0.19319
  16   28992.6    344.9   0.099225585   1.12671  -0.99544   0.24711   0.27341
  17   29345.7    340.8   0.148022276   1.66058  -0.63945   1.00800   0.48540
  18   29485.3    339.2   0.001404518   0.01568   0.06252  -0.03693   0.10202
  19   29656.9    337.2   0.092801637   1.03016   0.68843  -0.60944  -0.42990
  20   29765.1    336.0   0.028029262   0.31001  -0.08881   0.48769   0.25354
  21   30364.7    329.3   0.074627115   0.80910   0.47748  -0.76087  -0.04677
  22   30740.4    325.3   0.045676848   0.48917  -0.31764   0.41789  -0.46222
  23   31286.5    319.6   0.076863329   0.80879  -0.31730  -0.69249  -0.47809
  24   31442.8    318.0   0.010807374   0.11316   0.22599   0.12263   0.21690
  25   31778.0    314.7   0.035708328   0.36993   0.55753  -0.24201  -0.02289
  26   32083.8    311.7   0.233837976   2.39941   1.09232  -0.96045  -0.53271
  27   32336.9    309.2   0.537388496   5.47099  -1.72399   1.00186   1.22276
  28   32625.7    306.5   0.210913080   2.12824   1.30458  -0.62549  -0.18729
  29   32760.8    305.2   0.332024157   3.33650   1.76121  -0.47755  -0.08104
  30   32904.8    303.9   0.206117763   2.06221   0.99577  -0.44897  -0.93224
  31   33150.1    301.7   0.228664162   2.27085   1.06290  -0.63791  -0.85684
  32   33681.8    296.9   0.062252355   0.60847  -0.75834   0.18047   0.02862
  33   33870.6    295.2   0.103013682   1.00126  -0.05232   0.30944   0.95014
  34   34378.9    290.9   0.036805477   0.35245  -0.58928   0.01769  -0.06990
  35   34430.2    290.4   0.024545306   0.23470  -0.44564   0.15678   0.10735
  36   34536.7    289.5   0.042428386   0.40444  -0.08270   0.01868   0.63028
  37   34873.1    286.8   0.062067313   0.58593   0.42880  -0.21686  -0.59585
  38   35189.4    284.2   0.071638592   0.67021   0.13048  -0.02803  -0.80771
  39   35414.3    282.4   0.045845168   0.42618  -0.08090  -0.07987  -0.64285
  40   35530.1    281.5   0.002814139   0.02608   0.04997   0.12528   0.08879
  41   36155.3    276.6   0.023953953   0.21811  -0.37953  -0.27183   0.01344
  42   36720.2    272.3   0.447030054   4.00781   1.96559   0.34229   0.16455
  43   36827.9    271.5   0.027229927   0.24341   0.14796   0.32079   0.34440
  44   37040.2    270.0   0.019940341   0.17723  -0.20877   0.03082   0.36427
  45   37643.3    265.7   0.003500362   0.03061   0.11757   0.12873   0.01476
  46   37766.7    264.8   0.034110670   0.29734  -0.35139  -0.25995  -0.32603
  47   37874.0    264.0   0.030548395   0.26554  -0.51363  -0.02105  -0.03577
  48   38053.4    262.8   0.007861569   0.06801   0.02724   0.24133   0.09504
  49   38087.0    262.6   0.024320126   0.21022  -0.21728   0.39622   0.07755
  50   38509.4    259.7   0.030290309   0.25895   0.34184   0.17972  -0.33135
  51   38733.7    258.2   0.031065133   0.26403  -0.17496  -0.21524  -0.43255
  52   38958.5    256.7   0.195770936   1.65433   0.93635   0.55890   0.68206
  53   39451.9    253.5   0.003840983   0.03205  -0.13035  -0.08636   0.08720
  54   39534.6    252.9   0.082148221   0.68406   0.22928   0.62468   0.49120
  55   39646.8    252.2   0.107202613   0.89017  -0.09808   0.92243   0.17224
  56   39910.0    250.6   0.051825701   0.42750  -0.15811   0.57516   0.26776
  57   40001.3    250.0   0.038356286   0.31567  -0.12145  -0.28181  -0.47065
  58   40183.6    248.9   0.034297730   0.28099  -0.31836   0.25864   0.33577

FINAL SINGLE POINT ENERGY     -4405.279739795576

DIPOLE MOMENT
-------------
                                X             Y             Z
Electronic contribution:     -7.77782      -6.29512      -5.76290
Nuclear contribution   :      6.46104       6.10033       6.17982
                        -----------------------------------------
Total Dipole Moment    :     -1.31678      -0.19479       0.41692
                        -----------------------------------------
Magnitude (a.u.)       :      1.39487
Magnitude (Debye)      :      3.54549

Rotational constants in cm-1:     0.001533     0.000532     0.000474
Rotational constants in MHz :    45.959578    15.946506    14.223640

                             ****ORCA TERMINATED NORMALLY****
TOTAL RUN TIME: 0 days 0 hours 14 minutes 52 seconds 937 msec
