                         Program Version 4.2.0 -  RELEASE  -
|  1> # ORCA input file
|  2> # SCF done       -191.161631562168          0.000819618438
|  3> ! CAM-B3LYP def2-SVP def2/J RIJCOSX Grid4 TightSCF
|  4> %maxcore 5000
|  5> %tddft
|  6>     Mode sTDDFT
|  7>     Ethresh 5.0
|  8>     maxcore 5000
|  9> end
| 10>
| 11> %pal
| 12>   nprocs 6
| 13>   end
| 14> * xyz 0 1
| 15>    C       -4.33972         1.15497         1.72427
| 16>    C       -5.01636         2.12041         2.42040
| 17>    C       -6.38018         2.02682         2.76719
| 18>    N       -7.48933         2.00957         3.06161
| 19>    C       -4.41917         3.28721         2.94028
| 20>    N       -3.98530         4.23928         3.41192
| 21>    C       -4.85912        -0.16248         1.38143
| 22>    C       -3.76123        -1.02084         1.08067
| 23>    C       -3.94634        -2.33430         0.75774
| 24>    C       -5.25967        -2.85374         0.70788
| 25>    C       -6.36211        -1.99511         0.98755
| 26>    C       -6.14056        -0.64121         1.32747
| 27>    C       -7.66771        -2.52299         0.92373
| 28>    C       -7.87684        -3.83657         0.60344
| 29>    C       -6.79093        -4.68206         0.33124
| 30>    C       -5.51066        -4.20134         0.38267
| 31>    C       -2.50520        -0.25483         1.16523
| 32>    O       -1.37404        -0.65575         1.02844
| 33>    C       -2.92699         1.16232         1.39570
| 34>    C       -2.03688         2.16060         1.19638
| 35>    C       -2.26333         3.57041         1.02893
| 36>    C       -3.34640         4.14854         0.36729
| 37>    C       -3.48980         5.55182         0.21381
| 38>    N       -4.60393         5.92828        -0.47656
| 39>    C       -5.28295         4.93031        -0.87304
| 40>    S       -4.66638         3.35338        -0.43860
| 41>    C       -2.56312         6.44651         0.76110
| 42>    C       -1.47948         5.87599         1.41570
| 43>    C       -1.30102         4.47346         1.51553
| 44>    N       -0.15878         4.09798         2.15057
| 45>    C        0.52810         5.10869         2.51912
| 46>    S       -0.13244         6.67918         2.15577
| 47>    C       -2.76393         7.88950         0.65588
| 48>    C       -3.07212         8.53022        -0.53621
| 49>    C       -3.28984         9.93076        -0.61851
| 50>    N       -3.56822        10.37881        -1.87596
| 51>    C       -3.54719         9.43397        -2.73063
| 52>    S       -3.20143         7.83653        -2.12324
| 53>    C       -3.24089        10.74102         0.52182
| 54>    C       -2.93978        10.09941         1.71576
| 55>    C       -2.68187         8.70517         1.79078
| 56>    N       -2.38316         8.26090         3.04332
| 57>    C       -2.38135         9.20944         3.89391
| 58>    S       -2.75973        10.80222         3.29229
| 59>    C       -3.52115        12.17196         0.44303
| 60>    C       -2.94567        13.01245        -0.50206
| 61>    C       -3.25200        14.39314        -0.57461
| 62>    N       -2.57987        15.06439        -1.54847
| 63>    C       -1.79703        14.29341        -2.19848
| 64>    S       -1.76410        12.62110        -1.71223
| 65>    C       -4.14430        15.00773         0.32761
| 66>    C       -4.73555        14.15462         1.26147
| 67>    C       -4.43979        12.76617         1.31651
| 68>    N       -5.16655        12.07414         2.23919
| 69>    C       -5.98451        12.83025         2.85818
| 70>    S       -5.97627        14.51381         2.41235
| 71>    C       -4.42466        16.40330         0.14634
| 72>    C       -4.67583        17.33981         1.09656
| 73>    C       -5.06636        18.71982         0.84242
| 74>    C       -5.54421        19.21860        -0.33873
| 75>    C       -5.93407        20.56167        -0.52777
| 76>    N       -6.25866        21.64114        -0.74527
| 77>    C       -5.75443        18.46597        -1.51473
| 78>    N       -5.98509        17.92545        -2.50101
| 79>    C       -4.95181        19.45318         2.09554
| 80>    C       -4.55000        18.54618         3.11756
| 81>    C       -4.38284        17.20091         2.54623
| 82>    O       -4.01659        16.20295         3.13242
| 83>    C       -4.37072        18.94823         4.40975
| 84>    C       -4.59603        20.30130         4.74766
| 85>    C       -4.99678        21.21585         3.73109
| 86>    C       -5.16820        20.77146         2.40021
| 87>    C       -5.22039        22.56338         4.07999
| 88>    C       -5.05773        22.98883         5.37023
| 89>    C       -4.66206        22.08777         6.37006
| 90>    C       -4.43641        20.77278         6.06547
| 91>    H       -3.10109        -2.97068         0.54164
| 92>    H       -6.99266        -0.01024         1.52621
| 93>    H       -8.49992        -1.86859         1.13785
| 94>    H       -8.88057        -4.23184         0.55872
| 95>    H       -6.97410        -5.71606         0.08016
| 96>    H       -4.67103        -4.84796         0.17375
| 97>    H       -0.99681         1.85716         1.12874
| 98>    H       -6.19161         5.01026        -1.43655
| 99>    H        1.46658         5.02500         3.03195
|100>    H       -3.73451         9.58187        -3.77635
|101>    H       -2.16586         9.06474         4.93461
|102>    H       -1.18290        14.62957        -3.01115
|103>    H       -6.64755        12.47910         3.62477
|104>    H       -4.36383        16.71793        -0.88856
|105>    H       -4.06555        18.24050         5.16626
|106>    H       -5.46504        21.48923         1.65203
|107>    H       -5.52592        23.25292         3.30676
|108>    H       -5.23339        24.02250         5.62782
|109>    H       -4.53720        22.44083         7.38281
|110>    H       -4.13184        20.07440         6.83126
|111> *
|112>
|113>                          ****END OF INPUT****

CARTESIAN COORDINATES (ANGSTROEM)
---------------------------------
  C     -4.339720    1.154970    1.724270
  C     -5.016360    2.120410    2.420400
  C     -6.380180    2.026820    2.767190
  N     -7.489330    2.009570    3.061610
  C     -4.419170    3.287210    2.940280
  N     -3.985300    4.239280    3.411920
  C     -4.859120   -0.162480    1.381430
  C     -3.761230   -1.020840    1.080670
  C     -3.946340   -2.334300    0.757740
  C     -5.259670   -2.853740    0.707880
  C     -6.362110   -1.995110    0.987550
  C     -6.140560   -0.641210    1.327470
  C     -7.667710   -2.522990    0.923730
  C     -7.876840   -3.836570    0.603440
  C     -6.790930   -4.682060    0.331240
  C     -5.510660   -4.201340    0.382670
  C     -2.505200   -0.254830    1.165230
  O     -1.374040   -0.655750    1.028440
  C     -2.926990    1.162320    1.395700
  C     -2.036880    2.160600    1.196380
  C     -2.263330    3.570410    1.028930
  C     -3.346400    4.148540    0.367290
  C     -3.489800    5.551820    0.213810
  N     -4.603930    5.928280   -0.476560
  C     -5.282950    4.930310   -0.873040
  S     -4.666380    3.353380   -0.438600
  C     -2.563120    6.446510    0.761100
  C     -1.479480    5.875990    1.415700
  C     -1.301020    4.473460    1.515530
  N     -0.158780    4.097980    2.150570
  C      0.528100    5.108690    2.519120
  S     -0.132440    6.679180    2.155770
  C     -2.763930    7.889500    0.655880
  C     -3.072120    8.530220   -0.536210
  C     -3.289840    9.930760   -0.618510
  N     -3.568220   10.378810   -1.875960
  C     -3.547190    9.433970   -2.730630
  S     -3.201430    7.836530   -2.123240
  C     -3.240890   10.741020    0.521820
  C     -2.939780   10.099410    1.715760
  C     -2.681870    8.705170    1.790780
  N     -2.383160    8.260900    3.043320
  C     -2.381350    9.209440    3.893910
  S     -2.759730   10.802220    3.292290
  C     -3.521150   12.171960    0.443030
  C     -2.945670   13.012450   -0.502060
  C     -3.252000   14.393140   -0.574610
  N     -2.579870   15.064390   -1.548470
  C     -1.797030   14.293410   -2.198480
  S     -1.764100   12.621100   -1.712230
  C     -4.144300   15.007730    0.327610
  C     -4.735550   14.154620    1.261470
  C     -4.439790   12.766170    1.316510
  N     -5.166550   12.074140    2.239190
  C     -5.984510   12.830250    2.858180
  S     -5.976270   14.513810    2.412350
  C     -4.424660   16.403300    0.146340
  C     -4.675830   17.339810    1.096560
  C     -5.066360   18.719820    0.842420
  C     -5.544210   19.218600   -0.338730
  C     -5.934070   20.561670   -0.527770
  N     -6.258660   21.641140   -0.745270
  C     -5.754430   18.465970   -1.514730
  N     -5.985090   17.925450   -2.501010
  C     -4.951810   19.453180    2.095540
  C     -4.550000   18.546180    3.117560
  C     -4.382840   17.200910    2.546230
  O     -4.016590   16.202950    3.132420
  C     -4.370720   18.948230    4.409750
  C     -4.596030   20.301300    4.747660
  C     -4.996780   21.215850    3.731090
  C     -5.168200   20.771460    2.400210
  C     -5.220390   22.563380    4.079990
  C     -5.057730   22.988830    5.370230
  C     -4.662060   22.087770    6.370060
  C     -4.436410   20.772780    6.065470
  H     -3.101090   -2.970680    0.541640
  H     -6.992660   -0.010240    1.526210
  H     -8.499920   -1.868590    1.137850
  H     -8.880570   -4.231840    0.558720
  H     -6.974100   -5.716060    0.080160
  H     -4.671030   -4.847960    0.173750
  H     -0.996810    1.857160    1.128740
  H     -6.191610    5.010260   -1.436550
  H      1.466580    5.025000    3.031950
  H     -3.734510    9.581870   -3.776350
  H     -2.165860    9.064740    4.934610
  H     -1.182900   14.629570   -3.011150
  H     -6.647550   12.479100    3.624770
  H     -4.363830   16.717930   -0.888560
  H     -4.065550   18.240500    5.166260
  H     -5.465040   21.489230    1.652030
  H     -5.525920   23.252920    3.306760
  H     -5.233390   24.022500    5.627820
  H     -4.537200   22.440830    7.382810
  H     -4.131840   20.074400    6.831260

 Total Charge           Charge          ....    0
 Multiplicity           Mult            ....    1
 Number of Electrons    NEL             ....  550
 Basis Dimension        Dim             .... 1188

ORBITAL ENERGIES
----------------

  NO   OCC          E(Eh)            E(eV)
   0   2.0000     -88.969199     -2420.9750
   1   2.0000     -88.960806     -2420.7466
   2   2.0000     -88.960208     -2420.7303
   3   2.0000     -88.959992     -2420.7244
   4   2.0000     -88.958859     -2420.6936
   5   2.0000     -88.956701     -2420.6349
   6   2.0000     -19.213377      -522.8226
   7   2.0000     -19.212035      -522.7860
   8   2.0000     -14.417520      -392.3207
   9   2.0000     -14.414572      -392.2405
  10   2.0000     -14.412511      -392.1844
  11   2.0000     -14.412092      -392.1730
  12   2.0000     -14.411373      -392.1534
  13   2.0000     -14.411012      -392.1436
  14   2.0000     -14.410652      -392.1338
  15   2.0000     -14.409958      -392.1149
  16   2.0000     -14.409935      -392.1143
  17   2.0000     -14.407571      -392.0499
  18   2.0000     -10.362838      -281.9872
  19   2.0000     -10.362433      -281.9761
  20   2.0000     -10.342155      -281.4243
  21   2.0000     -10.341745      -281.4132
  22   2.0000     -10.339248      -281.3453
  23   2.0000     -10.337500      -281.2977
  24   2.0000     -10.337027      -281.2848
  25   2.0000     -10.336767      -281.2777
  26   2.0000     -10.336153      -281.2610
  27   2.0000     -10.335707      -281.2489
  28   2.0000     -10.334611      -281.2191
  29   2.0000     -10.333061      -281.1769
  30   2.0000     -10.318266      -280.7743
  31   2.0000     -10.317076      -280.7419
  32   2.0000     -10.316984      -280.7394
  33   2.0000     -10.316864      -280.7361
  34   2.0000     -10.316488      -280.7259
  35   2.0000     -10.314685      -280.6768
  36   2.0000     -10.313816      -280.6532
  37   2.0000     -10.313508      -280.6448
  38   2.0000     -10.313344      -280.6403
  39   2.0000     -10.312722      -280.6234
  40   2.0000     -10.312289      -280.6117
  41   2.0000     -10.312285      -280.6115
  42   2.0000     -10.312068      -280.6056
  43   2.0000     -10.311530      -280.5910
  44   2.0000     -10.310335      -280.5585
  45   2.0000     -10.310210      -280.5551
  46   2.0000     -10.309724      -280.5418
  47   2.0000     -10.308600      -280.5113
  48   2.0000     -10.307306      -280.4761
  49   2.0000     -10.306801      -280.4623
  50   2.0000     -10.302678      -280.3501
  51   2.0000     -10.301447      -280.3166
  52   2.0000     -10.300757      -280.2979
  53   2.0000     -10.300462      -280.2898
  54   2.0000     -10.300352      -280.2868
  55   2.0000     -10.299699      -280.2691
  56   2.0000     -10.296436      -280.1803
  57   2.0000     -10.296406      -280.1794
  58   2.0000     -10.296031      -280.1692
  59   2.0000     -10.295978      -280.1678
  60   2.0000     -10.295564      -280.1565
  61   2.0000     -10.295307      -280.1495
  62   2.0000     -10.295205      -280.1468
  63   2.0000     -10.294723      -280.1337
  64   2.0000     -10.294139      -280.1178
  65   2.0000     -10.293768      -280.1077
  66   2.0000     -10.287158      -279.9278
  67   2.0000     -10.285801      -279.8909
  68   2.0000     -10.285301      -279.8773
  69   2.0000     -10.284894      -279.8662
  70   2.0000     -10.284845      -279.8649
  71   2.0000     -10.284665      -279.8600
  72   2.0000     -10.284190      -279.8470
  73   2.0000     -10.284152      -279.8460
  74   2.0000     -10.283929      -279.8399
  75   2.0000     -10.283409      -279.8258
  76   2.0000      -8.064664      -219.4507
  77   2.0000      -8.056545      -219.2297
  78   2.0000      -8.056045      -219.2161
  79   2.0000      -8.055721      -219.2073
  80   2.0000      -8.054656      -219.1783
  81   2.0000      -8.052473      -219.1189
  82   2.0000      -6.034046      -164.1947
  83   2.0000      -6.029842      -164.0803
  84   2.0000      -6.026573      -163.9914
  85   2.0000      -6.025940      -163.9742
  86   2.0000      -6.025399      -163.9594
  87   2.0000      -6.025114      -163.9517
  88   2.0000      -6.024080      -163.9235
  89   2.0000      -6.021904      -163.8643
  90   2.0000      -6.021713      -163.8591
  91   2.0000      -6.021097      -163.8424
  92   2.0000      -6.020887      -163.8367
  93   2.0000      -6.019848      -163.8084
  94   2.0000      -6.018324      -163.7669
  95   2.0000      -6.017960      -163.7570
  96   2.0000      -6.017650      -163.7486
  97   2.0000      -6.017517      -163.7450
  98   2.0000      -6.016393      -163.7144
  99   2.0000      -6.014220      -163.6553
 100   2.0000      -1.128670       -30.7127
 101   2.0000      -1.127400       -30.6781
 102   2.0000      -1.078394       -29.3446
 103   2.0000      -1.074923       -29.2501
 104   2.0000      -1.070013       -29.1165
 105   2.0000      -1.067989       -29.0614
 106   2.0000      -1.065957       -29.0062
 107   2.0000      -1.063363       -28.9356
 108   2.0000      -1.016163       -27.6512
 109   2.0000      -1.014125       -27.5958
 110   2.0000      -0.996127       -27.1060
 111   2.0000      -0.994962       -27.0743
 112   2.0000      -0.991344       -26.9759
 113   2.0000      -0.989275       -26.9195
 114   2.0000      -0.970675       -26.4134
 115   2.0000      -0.969542       -26.3826
 116   2.0000      -0.964503       -26.2455
 117   2.0000      -0.959642       -26.1132
 118   2.0000      -0.948655       -25.8142
 119   2.0000      -0.942938       -25.6587
 120   2.0000      -0.923734       -25.1361
 121   2.0000      -0.919876       -25.0311
 122   2.0000      -0.916300       -24.9338
 123   2.0000      -0.902688       -24.5634
 124   2.0000      -0.896265       -24.3886
 125   2.0000      -0.892191       -24.2778
 126   2.0000      -0.889268       -24.1982
 127   2.0000      -0.886827       -24.1318
 128   2.0000      -0.881471       -23.9861
 129   2.0000      -0.879590       -23.9349
 130   2.0000      -0.878595       -23.9078
 131   2.0000      -0.866212       -23.5708
 132   2.0000      -0.864998       -23.5378
 133   2.0000      -0.849347       -23.1119
 134   2.0000      -0.838582       -22.8190
 135   2.0000      -0.833363       -22.6770
 136   2.0000      -0.826732       -22.4965
 137   2.0000      -0.825820       -22.4717
 138   2.0000      -0.819051       -22.2875
 139   2.0000      -0.817674       -22.2500
 140   2.0000      -0.808415       -21.9981
 141   2.0000      -0.791628       -21.5413
 142   2.0000      -0.775494       -21.1023
 143   2.0000      -0.758904       -20.6508
 144   2.0000      -0.758442       -20.6383
 145   2.0000      -0.748770       -20.3751
 146   2.0000      -0.738647       -20.0996
 147   2.0000      -0.734714       -19.9926
 148   2.0000      -0.722965       -19.6729
 149   2.0000      -0.716726       -19.5031
 150   2.0000      -0.705736       -19.2040
 151   2.0000      -0.702082       -19.1046
 152   2.0000      -0.700373       -19.0581
 153   2.0000      -0.697305       -18.9746
 154   2.0000      -0.694850       -18.9078
 155   2.0000      -0.683225       -18.5915
 156   2.0000      -0.682674       -18.5765
 157   2.0000      -0.674427       -18.3521
 158   2.0000      -0.672586       -18.3020
 159   2.0000      -0.669511       -18.2183
 160   2.0000      -0.659924       -17.9574
 161   2.0000      -0.656074       -17.8527
 162   2.0000      -0.653821       -17.7914
 163   2.0000      -0.650425       -17.6990
 164   2.0000      -0.639910       -17.4128
 165   2.0000      -0.636828       -17.3290
 166   2.0000      -0.631348       -17.1799
 167   2.0000      -0.628333       -17.0978
 168   2.0000      -0.623405       -16.9637
 169   2.0000      -0.609550       -16.5867
 170   2.0000      -0.605942       -16.4885
 171   2.0000      -0.604512       -16.4496
 172   2.0000      -0.603890       -16.4327
 173   2.0000      -0.599725       -16.3194
 174   2.0000      -0.588209       -16.0060
 175   2.0000      -0.587177       -15.9779
 176   2.0000      -0.582660       -15.8550
 177   2.0000      -0.580487       -15.7958
 178   2.0000      -0.577008       -15.7012
 179   2.0000      -0.552634       -15.0379
 180   2.0000      -0.551057       -14.9950
 181   2.0000      -0.550100       -14.9690
 182   2.0000      -0.548142       -14.9157
 183   2.0000      -0.547563       -14.9000
 184   2.0000      -0.545282       -14.8379
 185   2.0000      -0.544373       -14.8132
 186   2.0000      -0.542673       -14.7669
 187   2.0000      -0.539671       -14.6852
 188   2.0000      -0.536776       -14.6064
 189   2.0000      -0.535635       -14.5754
 190   2.0000      -0.534661       -14.5489
 191   2.0000      -0.534206       -14.5365
 192   2.0000      -0.532859       -14.4998
 193   2.0000      -0.531780       -14.4705
 194   2.0000      -0.528002       -14.3677
 195   2.0000      -0.525594       -14.3021
 196   2.0000      -0.524789       -14.2802
 197   2.0000      -0.516282       -14.0487
 198   2.0000      -0.515774       -14.0349
 199   2.0000      -0.513802       -13.9813
 200   2.0000      -0.510831       -13.9004
 201   2.0000      -0.508320       -13.8321
 202   2.0000      -0.507144       -13.8001
 203   2.0000      -0.504844       -13.7375
 204   2.0000      -0.502649       -13.6778
 205   2.0000      -0.500916       -13.6306
 206   2.0000      -0.498095       -13.5539
 207   2.0000      -0.496760       -13.5175
 208   2.0000      -0.494779       -13.4636
 209   2.0000      -0.492689       -13.4068
 210   2.0000      -0.491508       -13.3746
 211   2.0000      -0.490134       -13.3372
 212   2.0000      -0.484222       -13.1764
 213   2.0000      -0.483402       -13.1540
 214   2.0000      -0.482542       -13.1306
 215   2.0000      -0.480938       -13.0870
 216   2.0000      -0.478953       -13.0330
 217   2.0000      -0.475733       -12.9454
 218   2.0000      -0.462775       -12.5928
 219   2.0000      -0.462458       -12.5841
 220   2.0000      -0.456738       -12.4285
 221   2.0000      -0.453786       -12.3481
 222   2.0000      -0.450911       -12.2699
 223   2.0000      -0.448518       -12.2048
 224   2.0000      -0.444808       -12.1038
 225   2.0000      -0.442043       -12.0286
 226   2.0000      -0.441334       -12.0093
 227   2.0000      -0.440021       -11.9736
 228   2.0000      -0.438659       -11.9365
 229   2.0000      -0.437806       -11.9133
 230   2.0000      -0.435867       -11.8605
 231   2.0000      -0.431907       -11.7528
 232   2.0000      -0.430890       -11.7251
 233   2.0000      -0.430113       -11.7040
 234   2.0000      -0.428896       -11.6708
 235   2.0000      -0.427476       -11.6322
 236   2.0000      -0.424359       -11.5474
 237   2.0000      -0.422675       -11.5016
 238   2.0000      -0.421046       -11.4572
 239   2.0000      -0.416543       -11.3347
 240   2.0000      -0.416026       -11.3207
 241   2.0000      -0.414595       -11.2817
 242   2.0000      -0.413142       -11.2422
 243   2.0000      -0.408003       -11.1023
 244   2.0000      -0.404158       -10.9977
 245   2.0000      -0.401385       -10.9222
 246   2.0000      -0.393047       -10.6953
 247   2.0000      -0.389722       -10.6049
 248   2.0000      -0.388346       -10.5674
 249   2.0000      -0.386856       -10.5269
 250   2.0000      -0.374659       -10.1950
 251   2.0000      -0.374166       -10.1816
 252   2.0000      -0.373397       -10.1606
 253   2.0000      -0.369417       -10.0524
 254   2.0000      -0.362278        -9.8581
 255   2.0000      -0.356463        -9.6999
 256   2.0000      -0.353241        -9.6122
 257   2.0000      -0.345774        -9.4090
 258   2.0000      -0.341974        -9.3056
 259   2.0000      -0.339594        -9.2408
 260   2.0000      -0.332672        -9.0525
 261   2.0000      -0.331893        -9.0313
 262   2.0000      -0.329581        -8.9684
 263   2.0000      -0.328565        -8.9407
 264   2.0000      -0.323673        -8.8076
 265   2.0000      -0.313092        -8.5197
 266   2.0000      -0.310495        -8.4490
 267   2.0000      -0.305502        -8.3131
 268   2.0000      -0.304140        -8.2761
 269   2.0000      -0.301643        -8.2081
 270   2.0000      -0.293933        -7.9983
 271   2.0000      -0.291646        -7.9361
 272   2.0000      -0.290057        -7.8929
 273   2.0000      -0.280873        -7.6429
 274   2.0000      -0.265079        -7.2132
 275   0.0000      -0.091218        -2.4822
 276   0.0000      -0.087062        -2.3691
 277   0.0000      -0.057088        -1.5534
 278   0.0000      -0.053347        -1.4516
 279   0.0000      -0.038299        -1.0422

MULLIKEN ATOMIC CHARGES
-----------------------
   0 C :    0.271716
   1 C :   -0.326214
   2 C :   -0.183874
   3 N :    0.156071
   4 C :   -0.189786
   5 N :    0.182663
   6 C :    0.032157
   7 C :    0.016547
   8 C :   -0.082269
   9 C :    0.094218
  10 C :    0.095209
  11 C :   -0.084052
  12 C :   -0.017899
  13 C :    0.034809
  14 C :    0.036317
  15 C :   -0.015658
  16 C :    0.137203
  17 O :   -0.135361
  18 C :   -0.121344
  19 C :   -0.002988
  20 C :   -0.020614
  21 C :   -0.119448
  22 C :    0.028747
  23 N :   -0.049525
  24 C :    0.027499
  25 S :    0.104047
  26 C :   -0.012086
  27 C :   -0.081787
  28 C :    0.038786
  29 N :   -0.060648
  30 C :    0.017738
  31 S :    0.148961
  32 C :   -0.036357
  33 C :   -0.081890
  34 C :   -0.004646
  35 N :   -0.061252
  36 C :    0.016223
  37 S :    0.135402
  38 C :   -0.028485
  39 C :   -0.084273
  40 C :   -0.002299
  41 N :   -0.054684
  42 C :    0.019090
  43 S :    0.141328
  44 C :   -0.025904
  45 C :   -0.083512
  46 C :    0.018504
  47 N :   -0.065286
  48 C :    0.015017
  49 S :    0.148557
  50 C :    0.016015
  51 C :   -0.074989
  52 C :   -0.000062
  53 N :   -0.057885
  54 C :    0.019447
  55 S :    0.138325
  56 C :   -0.070442
  57 C :   -0.080134
  58 C :    0.309625
  59 C :   -0.340968
  60 C :   -0.183995
  61 N :    0.150410
  62 C :   -0.204755
  63 N :    0.169266
  64 C :    0.049192
  65 C :   -0.007323
  66 C :    0.137914
  67 O :   -0.145056
  68 C :   -0.078371
  69 C :    0.096136
  70 C :    0.093620
  71 C :   -0.081188
  72 C :   -0.018002
  73 C :    0.036274
  74 C :    0.036861
  75 C :   -0.016138
  76 H :   -0.012070
  77 H :   -0.009410
  78 H :   -0.011013
  79 H :   -0.005642
  80 H :   -0.005695
  81 H :   -0.017653
  82 H :    0.039671
  83 H :    0.045492
  84 H :    0.042697
  85 H :    0.041068
  86 H :    0.042432
  87 H :    0.044911
  88 H :    0.042862
  89 H :    0.048680
  90 H :   -0.015605
  91 H :   -0.009249
  92 H :   -0.009431
  93 H :   -0.005668
  94 H :   -0.006325
  95 H :   -0.018497
Sum of atomic charges:    0.0000000

LOEWDIN ATOMIC CHARGES
----------------------
   0 C :    0.052665
   1 C :   -0.136727
   2 C :   -0.017280
   3 N :   -0.051482
   4 C :   -0.021669
   5 N :   -0.036271
   6 C :   -0.022639
   7 C :   -0.057369
   8 C :    0.032724
   9 C :   -0.009441
  10 C :   -0.005481
  11 C :    0.014400
  12 C :   -0.007051
  13 C :   -0.013456
  14 C :   -0.013768
  15 C :   -0.009223
  16 C :    0.085388
  17 O :   -0.135590
  18 C :   -0.090848
  19 C :    0.081628
  20 C :   -0.058795
  21 C :   -0.156183
  22 C :   -0.033324
  23 N :   -0.090377
  24 C :   -0.099394
  25 S :    0.412179
  26 C :   -0.014976
  27 C :   -0.151601
  28 C :   -0.007989
  29 N :   -0.095921
  30 C :   -0.096706
  31 S :    0.433400
  32 C :   -0.038078
  33 C :   -0.152714
  34 C :   -0.032538
  35 N :   -0.105303
  36 C :   -0.103014
  37 S :    0.419819
  38 C :   -0.038754
  39 C :   -0.150969
  40 C :   -0.031060
  41 N :   -0.099488
  42 C :   -0.099546
  43 S :    0.424252
  44 C :   -0.015359
  45 C :   -0.160880
  46 C :   -0.010764
  47 N :   -0.097064
  48 C :   -0.097558
  49 S :    0.431450
  50 C :   -0.054990
  51 C :   -0.143967
  52 C :   -0.038428
  53 N :   -0.100446
  54 C :   -0.101576
  55 S :    0.440517
  56 C :    0.084764
  57 C :   -0.094404
  58 C :    0.076125
  59 C :   -0.132450
  60 C :   -0.016013
  61 N :   -0.053140
  62 C :   -0.025131
  63 N :   -0.044122
  64 C :   -0.026379
  65 C :   -0.053925
  66 C :    0.068857
  67 O :   -0.148866
  68 C :    0.029925
  69 C :   -0.008165
  70 C :   -0.006811
  71 C :    0.019728
  72 C :   -0.005335
  73 C :   -0.014292
  74 C :   -0.012759
  75 C :   -0.010413
  76 H :    0.039281
  77 H :    0.037912
  78 H :    0.034039
  79 H :    0.032822
  80 H :    0.032494
  81 H :    0.031810
  82 H :    0.053269
  83 H :    0.022539
  84 H :    0.021495
  85 H :    0.020394
  86 H :    0.021349
  87 H :    0.022035
  88 H :    0.021605
  89 H :    0.051147
  90 H :    0.038097
  91 H :    0.038804
  92 H :    0.034697
  93 H :    0.032842
  94 H :    0.032353
  95 H :    0.031454

  Mayer bond orders larger than 0.100000
B(  0-C ,  1-C ) :   1.6545 B(  0-C ,  6-C ) :   1.0015 B(  0-C , 18-C ) :   1.0199
B(  1-C ,  2-C ) :   1.1339 B(  1-C ,  4-C ) :   1.1672 B(  2-C ,  3-N ) :   2.9885
B(  4-C ,  5-N ) :   2.9999 B(  6-C ,  7-C ) :   1.2174 B(  6-C , 11-C ) :   1.4572
B(  7-C ,  8-C ) :   1.4716 B(  7-C , 16-C ) :   0.9174 B(  8-C ,  9-C ) :   1.1854
B(  8-C , 76-H ) :   1.0154 B(  9-C , 10-C ) :   1.2576 B(  9-C , 15-C ) :   1.2436
B( 10-C , 11-C ) :   1.2032 B( 10-C , 12-C ) :   1.2401 B( 11-C , 77-H ) :   0.9938
B( 12-C , 13-C ) :   1.4896 B( 12-C , 78-H ) :   0.9974 B( 13-C , 14-C ) :   1.2600
B( 13-C , 79-H ) :   0.9890 B( 14-C , 15-C ) :   1.4905 B( 14-C , 80-H ) :   0.9884
B( 15-C , 81-H ) :   0.9972 B( 16-C , 17-O ) :   2.2824 B( 16-C , 18-C ) :   0.9259
B( 18-C , 19-C ) :   1.6942 B( 19-C , 20-C ) :   1.0593 B( 19-C , 82-H ) :   0.9404
B( 20-C , 21-C ) :   1.3556 B( 20-C , 26-C ) :   0.1045 B( 20-C , 28-C ) :   1.3230
B( 21-C , 22-C ) :   1.2691 B( 21-C , 25-S ) :   1.0861 B( 22-C , 23-N ) :   1.3281
B( 22-C , 26-C ) :   1.4156 B( 23-N , 24-C ) :   1.7647 B( 23-N , 25-S ) :   0.1020
B( 24-C , 25-S ) :   1.0990 B( 24-C , 83-H ) :   0.9623 B( 26-C , 27-C ) :   1.4289
B( 26-C , 32-C ) :   0.9118 B( 27-C , 28-C ) :   1.2822 B( 27-C , 31-S ) :   1.0756
B( 28-C , 29-N ) :   1.3785 B( 29-N , 30-C ) :   1.7346 B( 29-N , 31-S ) :   0.1071
B( 30-C , 31-S ) :   1.1427 B( 30-C , 84-H ) :   0.9630 B( 32-C , 33-C ) :   1.4385
B( 32-C , 38-C ) :   0.1051 B( 32-C , 40-C ) :   1.4006 B( 33-C , 34-C ) :   1.2675
B( 33-C , 37-S ) :   1.0695 B( 34-C , 35-N ) :   1.3330 B( 34-C , 38-C ) :   1.3991
B( 35-N , 36-C ) :   1.7408 B( 35-N , 37-S ) :   0.1080 B( 36-C , 37-S ) :   1.1306
B( 36-C , 85-H ) :   0.9628 B( 38-C , 39-C ) :   1.4382 B( 38-C , 44-C ) :   0.9133
B( 39-C , 40-C ) :   1.2654 B( 39-C , 43-S ) :   1.0754 B( 40-C , 41-N ) :   1.3360
B( 41-N , 42-C ) :   1.7424 B( 41-N , 43-S ) :   0.1072 B( 42-C , 43-S ) :   1.1286
B( 42-C , 86-H ) :   0.9626 B( 44-C , 45-C ) :   1.4302 B( 44-C , 52-C ) :   1.4026
B( 45-C , 46-C ) :   1.2821 B( 45-C , 49-S ) :   1.0721 B( 46-C , 47-N ) :   1.3584
B( 46-C , 50-C ) :   1.2981 B( 47-N , 48-C ) :   1.7350 B( 47-N , 49-S ) :   0.1070
B( 48-C , 49-S ) :   1.1434 B( 48-C , 87-H ) :   0.9633 B( 50-C , 51-C ) :   1.3573
B( 50-C , 56-C ) :   1.1261 B( 51-C , 52-C ) :   1.2703 B( 51-C , 55-S ) :   1.0969
B( 52-C , 53-N ) :   1.3351 B( 53-N , 54-C ) :   1.7465 B( 53-N , 55-S ) :   0.1053
B( 54-C , 55-S ) :   1.1265 B( 54-C , 88-H ) :   0.9630 B( 56-C , 57-C ) :   1.6193
B( 56-C , 89-H ) :   0.9348 B( 57-C , 58-C ) :   1.0371 B( 57-C , 66-C ) :   0.9433
B( 58-C , 59-C ) :   1.6581 B( 58-C , 64-C ) :   0.9942 B( 59-C , 60-C ) :   1.1434
B( 59-C , 62-C ) :   1.1394 B( 60-C , 61-N ) :   2.9683 B( 62-C , 63-N ) :   2.9936
B( 64-C , 65-C ) :   1.2131 B( 64-C , 71-C ) :   1.4484 B( 65-C , 66-C ) :   0.9407
B( 65-C , 68-C ) :   1.4753 B( 66-C , 67-O ) :   2.2162 B( 68-C , 69-C ) :   1.1805
B( 68-C , 90-H ) :   1.0141 B( 69-C , 70-C ) :   1.2571 B( 69-C , 75-C ) :   1.2440
B( 70-C , 71-C ) :   1.2082 B( 70-C , 72-C ) :   1.2400 B( 71-C , 91-H ) :   0.9884
B( 72-C , 73-C ) :   1.4911 B( 72-C , 92-H ) :   0.9957 B( 73-C , 74-C ) :   1.2604
B( 73-C , 93-H ) :   0.9880 B( 74-C , 75-C ) :   1.4901 B( 74-C , 94-H ) :   0.9883
B( 75-C , 95-H ) :   0.9963

-----------------------------------------------------------------------------
         ABSORPTION SPECTRUM VIA TRANSITION ELECTRIC DIPOLE MOMENTS
-----------------------------------------------------------------------------
State   Energy  Wavelength   fosc         T2         TX        TY        TZ
        (cm-1)    (nm)                  (au**2)     (au)      (au)      (au)
-----------------------------------------------------------------------------
   0   21748.0    459.8   1.308613935  19.80924   0.23715   4.44387  -0.07104
   1   22903.4    436.6   0.206897989   2.97393   1.19812  -1.10329  -0.56674
   2   26717.3    374.3   0.003512445   0.04328   0.19275  -0.07736   0.01196
   3   27155.8    368.2   0.031490154   0.38176  -0.01640   0.59632   0.16090
   4   27497.7    363.7   0.084001063   1.00569  -0.13220   0.61972   0.77728
   5   27747.4    360.4   0.012548068   0.14888   0.27095  -0.25002  -0.11381
   6   28091.0    356.0   0.043310630   0.50758  -0.22241  -0.55541  -0.38683
   7   28371.4    352.5   0.048888628   0.56729  -0.70518   0.05669  -0.25846
   8   28645.6    349.1   0.052928775   0.60829   0.67303   0.38903  -0.06309
   9   29052.9    344.2   0.154726460   1.75328   0.14258  -1.10010  -0.72299
  10   29325.4    341.0   0.017573741   0.19729  -0.15573  -0.01962   0.41551
  11   30421.1    328.7   0.028734380   0.31096   0.06493  -0.54938  -0.07014
  12   30589.9    326.9   0.195058850   2.09925  -0.01066   0.81658   1.19680
  13   30913.1    323.5   0.145651256   1.55113  -0.10431  -1.19644   0.32983
  14   31309.5    319.4   0.016914394   0.17785   0.07331  -0.13588   0.39244
  15   31896.1    313.5   0.022503737   0.23227  -0.24807  -0.37308  -0.17761
  16   32509.8    307.6   0.003810444   0.03859   0.02892   0.16858  -0.09661
  17   33099.5    302.1   0.055250508   0.54953   0.27545  -0.33609   0.60059
  18   33262.9    300.6   0.022181812   0.21954  -0.08776   0.39654   0.23365
  19   33553.7    298.0   0.553393945   5.42962  -0.07347   2.18883   0.79578
  20   33981.1    294.3   0.028834011   0.27935   0.01356   0.10600   0.51762
  21   34130.1    293.0   0.537503808   5.18465   0.42157   0.79449   2.09182
  22   34573.6    289.2   0.119157662   1.13463   0.34313   0.93274   0.38326
  23   34801.9    287.3   0.316195871   2.99109  -0.36745  -1.66698  -0.27791
  24   34903.3    286.5   0.057486654   0.54222   0.01918   0.18392  -0.71276
  25   35127.6    284.7   0.005136925   0.04814  -0.02077  -0.06518   0.20848
  26   35369.8    282.7   0.039189907   0.36477   0.54441   0.17354  -0.19564
  27   35588.7    281.0   0.065884626   0.60946   0.39802  -0.60645  -0.28855
  28   35885.6    278.7   0.011216624   0.10290   0.26051  -0.07875  -0.16980
  29   36236.6    276.0   0.014569599   0.13237   0.28586  -0.01110  -0.22478
  30   36398.5    274.7   0.026318377   0.23804  -0.38690   0.14817  -0.25767
  31   36826.2    271.5   0.301828605   2.69823   0.70101   1.33782   0.64579
  32   37074.3    269.7   0.126616642   1.12433   0.02255  -1.03677  -0.22120
  33   37176.9    269.0   0.067921487   0.60146  -0.12525   0.41300   0.64436
  34   37420.1    267.2   0.138590022   1.21928   0.51267   0.97792   0.01039
  35   37549.2    266.3   0.058285523   0.51102  -0.01381  -0.21475  -0.68170
  36   37639.3    265.7   0.051080207   0.44677   0.09982   0.58264   0.31199
  37   37910.0    263.8   0.025535959   0.22176  -0.26632  -0.36034  -0.14487
  38   38111.7    262.4   0.010662441   0.09210  -0.30022  -0.03644   0.02538
  39   38439.8    260.1   0.064126069   0.54920  -0.67499  -0.24968  -0.17675
  40   38540.7    259.5   0.101725445   0.86893   0.21436  -0.55823  -0.71510
  41   38639.1    258.8   0.040224919   0.34272   0.07490   0.10573  -0.57091
  42   39027.9    256.2   0.037483645   0.31619  -0.14439  -0.19674  -0.50659
  43   39305.4    254.4   0.303442055   2.54155   0.60590  -1.47058   0.10883
  44   39571.6    252.7   0.134966007   1.12284   1.00239   0.31886  -0.12801
  45   39944.5    250.3   0.084883768   0.69959   0.26763  -0.77516  -0.16460
  46   40166.3    249.0   0.000132629   0.00109  -0.00203  -0.03060  -0.01210
  47   40314.9    248.0   0.000606837   0.00496   0.00491  -0.01578  -0.06843

FINAL SINGLE POINT ENERGY     -5304.915417993384

DIPOLE MOMENT
-------------
                                X             Y             Z
Electronic contribution:     12.54592       2.94685     -12.21305
Nuclear contribution   :    -11.93288      -4.28218      12.97178
                        -----------------------------------------
Total Dipole Moment    :      0.61305      -1.33533       0.75873
                        -----------------------------------------
Magnitude (a.u.)       :      1.65366
Magnitude (Debye)      :      4.20328

Rotational constants in cm-1:     0.002241     0.000261     0.000258
Rotational constants in MHz :    67.173071     7.827065     7.732629

                             ****ORCA TERMINATED NORMALLY****
TOTAL RUN TIME: 0 days 0 hours 10 minutes 46 seconds 303 msec
