                         Program Version 4.2.0 -  RELEASE  -
|  1> # ORCA input file
|  2> # SCF done       -161.320338116599          0.000558177103
|  3> ! CAM-B3LYP def2-SVP def2/J RIJCOSX Grid4 TightSCF
|  4> %maxcore 5000
|  5> %tddft
|  6>     Mode sTDDFT
|  7>     Ethresh 5.0
|  8>     maxcore 5000
|  9> end
| 10>
| 11> %pal
| 12>   nprocs 6
| 13>   end
| 14> * xyz 0 1
| 15>    C       -1.62024         1.38005         3.14136
| 16>    C       -0.69398         0.60078         3.78902
| 17>    C       -1.01902        -0.40163         4.72397
| 18>    N       -1.22432        -1.24532         5.47534
| 19>    C        0.69818         0.74554         3.62956
| 20>    N        1.84034         0.84494         3.55291
| 21>    C       -3.05476         1.40267         3.38847
| 22>    C       -3.62345         2.48496         2.65694
| 23>    C       -4.95397         2.77816         2.72516
| 24>    C       -5.79179         1.98728         3.54406
| 25>    C       -5.23215         0.89618         4.26928
| 26>    C       -3.84922         0.61597         4.17807
| 27>    C       -6.07854         0.11313         5.07979
| 28>    C       -7.41446         0.39447         5.17457
| 29>    C       -7.96447         1.47022         4.46226
| 30>    C       -7.17038         2.24945         3.66479
| 31>    C       -2.57086         3.17310         1.89456
| 32>    O       -2.70627         4.07482         1.09378
| 33>    C       -1.31572         2.43516         2.20450
| 34>    C       -0.12644         2.63080         1.55362
| 35>    C        0.23879         3.80159         0.85884
| 36>    S        1.27216         3.66081        -0.52907
| 37>    C        1.13644         5.33918        -0.91924
| 38>    C        0.34371         6.00721         0.03765
| 39>    C       -0.11448         5.14734         1.08093
| 40>    C       -0.80600         5.69373         2.18972
| 41>    C       -1.08495         4.95466         3.45340
| 42>    O       -2.13777         4.97636         4.02658
| 43>    O       -0.03187         4.30416         3.99313
| 44>    C       -1.18634         7.01555         2.13948
| 45>    C       -0.82258         7.84067         1.07448
| 46>    C       -0.03292         7.37399         0.04631
| 47>    O        0.39126         8.18753        -0.94820
| 48>    C        1.78647         5.89098        -2.04012
| 49>    C        2.55644         5.18176        -2.90938
| 50>    C        3.25990         5.74408        -3.99547
| 51>    C        4.05481         5.06205        -4.90792
| 52>    C        4.64046         5.91545        -5.83720
| 53>    C        4.29362         7.26427        -5.63554
| 54>    S        3.23961         7.47633        -4.30924
| 55>    C        4.95529         8.05155        -6.60897
| 56>    C        5.72010         7.20145        -7.43120
| 57>    C        5.54346         5.83263        -6.97761
| 58>    C        6.10446         4.70674        -7.50440
| 59>    C        5.85489         3.42448        -6.97100
| 60>    N        5.65268         2.38265        -6.53736
| 61>    C        6.97000         4.75043        -8.61795
| 62>    N        7.67288         4.78594        -9.52296
| 63>    C        6.42661         7.89082        -8.41675
| 64>    C        6.20511         9.25325        -8.34432
| 65>    S        5.10070         9.69504        -7.04248
| 66>    C        6.74950        10.23933        -9.14416
| 67>    C        7.20723        11.14387        -9.81372
| 68>    C        7.74259        12.16404       -10.57985
| 69>    C        7.53010        13.52149       -10.42116
| 70>    C        8.21934        14.30687       -11.35856
| 71>    C        8.96759        13.55972       -12.24546
| 72>    S        8.81494        11.86082       -11.91436
| 73>    C        9.76254        14.03323       -13.29144
| 74>    N       10.41357        14.42009       -14.15291
| 75>    F        8.15784        15.63566       -11.38794
| 76>    F        6.74541        14.02821        -9.46674
| 77>    H       -5.36045         3.61076         2.17107
| 78>    H       -3.45198        -0.21682         4.73708
| 79>    H       -5.64928        -0.71230         5.62865
| 80>    H       -8.05420        -0.20984         5.80028
| 81>    H       -9.02046         1.67887         4.54884
| 82>    H       -7.58880         3.07970         3.11480
| 83>    H        0.58415         1.81389         1.50769
| 84>    H        0.77157         4.36442         3.45930
| 85>    H       -1.75599         7.42232         2.96045
| 86>    H       -1.13907         8.87441         1.07396
| 87>    H        0.03236         9.07557        -0.81956
| 88>    H        1.66273         6.95374        -2.18942
| 89>    H        2.66986         4.11302        -2.77704
| 90>    H        4.18888         3.99610        -4.87497
| 91>    H        7.07373         7.44615        -9.15078
| 92> *
| 93>
| 94>                          ****END OF INPUT****

CARTESIAN COORDINATES (ANGSTROEM)
---------------------------------
  C     -1.620240    1.380050    3.141360
  C     -0.693980    0.600780    3.789020
  C     -1.019020   -0.401630    4.723970
  N     -1.224320   -1.245320    5.475340
  C      0.698180    0.745540    3.629560
  N      1.840340    0.844940    3.552910
  C     -3.054760    1.402670    3.388470
  C     -3.623450    2.484960    2.656940
  C     -4.953970    2.778160    2.725160
  C     -5.791790    1.987280    3.544060
  C     -5.232150    0.896180    4.269280
  C     -3.849220    0.615970    4.178070
  C     -6.078540    0.113130    5.079790
  C     -7.414460    0.394470    5.174570
  C     -7.964470    1.470220    4.462260
  C     -7.170380    2.249450    3.664790
  C     -2.570860    3.173100    1.894560
  O     -2.706270    4.074820    1.093780
  C     -1.315720    2.435160    2.204500
  C     -0.126440    2.630800    1.553620
  C      0.238790    3.801590    0.858840
  S      1.272160    3.660810   -0.529070
  C      1.136440    5.339180   -0.919240
  C      0.343710    6.007210    0.037650
  C     -0.114480    5.147340    1.080930
  C     -0.806000    5.693730    2.189720
  C     -1.084950    4.954660    3.453400
  O     -2.137770    4.976360    4.026580
  O     -0.031870    4.304160    3.993130
  C     -1.186340    7.015550    2.139480
  C     -0.822580    7.840670    1.074480
  C     -0.032920    7.373990    0.046310
  O      0.391260    8.187530   -0.948200
  C      1.786470    5.890980   -2.040120
  C      2.556440    5.181760   -2.909380
  C      3.259900    5.744080   -3.995470
  C      4.054810    5.062050   -4.907920
  C      4.640460    5.915450   -5.837200
  C      4.293620    7.264270   -5.635540
  S      3.239610    7.476330   -4.309240
  C      4.955290    8.051550   -6.608970
  C      5.720100    7.201450   -7.431200
  C      5.543460    5.832630   -6.977610
  C      6.104460    4.706740   -7.504400
  C      5.854890    3.424480   -6.971000
  N      5.652680    2.382650   -6.537360
  C      6.970000    4.750430   -8.617950
  N      7.672880    4.785940   -9.522960
  C      6.426610    7.890820   -8.416750
  C      6.205110    9.253250   -8.344320
  S      5.100700    9.695040   -7.042480
  C      6.749500   10.239330   -9.144160
  C      7.207230   11.143870   -9.813720
  C      7.742590   12.164040  -10.579850
  C      7.530100   13.521490  -10.421160
  C      8.219340   14.306870  -11.358560
  C      8.967590   13.559720  -12.245460
  S      8.814940   11.860820  -11.914360
  C      9.762540   14.033230  -13.291440
  N     10.413570   14.420090  -14.152910
  F      8.157840   15.635660  -11.387940
  F      6.745410   14.028210   -9.466740
  H     -5.360450    3.610760    2.171070
  H     -3.451980   -0.216820    4.737080
  H     -5.649280   -0.712300    5.628650
  H     -8.054200   -0.209840    5.800280
  H     -9.020460    1.678870    4.548840
  H     -7.588800    3.079700    3.114800
  H      0.584150    1.813890    1.507690
  H      0.771570    4.364420    3.459300
  H     -1.755990    7.422320    2.960450
  H     -1.139070    8.874410    1.073960
  H      0.032360    9.075570   -0.819560
  H      1.662730    6.953740   -2.189420
  H      2.669860    4.113020   -2.777040
  H      4.188880    3.996100   -4.874970
  H      7.073730    7.446150   -9.150780

 Total Charge           Charge          ....    0
 Multiplicity           Mult            ....    1
 Number of Electrons    NEL             ....  446
 Basis Dimension        Dim             ....  959

ORBITAL ENERGIES
----------------

  NO   OCC          E(Eh)            E(eV)
   0   2.0000     -89.007174     -2422.0083
   1   2.0000     -89.005104     -2421.9520
   2   2.0000     -89.002703     -2421.8867
   3   2.0000     -88.988478     -2421.4996
   4   2.0000     -24.822781      -675.4622
   5   2.0000     -24.819247      -675.3661
   6   2.0000     -19.285134      -524.7752
   7   2.0000     -19.257894      -524.0339
   8   2.0000     -19.203142      -522.5441
   9   2.0000     -19.201075      -522.4878
  10   2.0000     -14.441647      -392.9772
  11   2.0000     -14.441587      -392.9755
  12   2.0000     -14.423577      -392.4855
  13   2.0000     -14.407410      -392.0456
  14   2.0000     -14.405008      -391.9802
  15   2.0000     -10.406073      -283.1636
  16   2.0000     -10.404013      -283.1076
  17   2.0000     -10.398521      -282.9581
  18   2.0000     -10.378109      -282.4027
  19   2.0000     -10.371590      -282.2253
  20   2.0000     -10.364900      -282.0433
  21   2.0000     -10.359448      -281.8949
  22   2.0000     -10.357313      -281.8368
  23   2.0000     -10.355509      -281.7877
  24   2.0000     -10.349963      -281.6368
  25   2.0000     -10.349912      -281.6354
  26   2.0000     -10.347370      -281.5663
  27   2.0000     -10.343850      -281.4705
  28   2.0000     -10.341430      -281.4046
  29   2.0000     -10.341341      -281.4022
  30   2.0000     -10.337632      -281.3013
  31   2.0000     -10.330892      -281.1179
  32   2.0000     -10.329093      -281.0689
  33   2.0000     -10.326646      -281.0023
  34   2.0000     -10.324099      -280.9330
  35   2.0000     -10.320958      -280.8475
  36   2.0000     -10.318917      -280.7920
  37   2.0000     -10.318270      -280.7744
  38   2.0000     -10.317248      -280.7466
  39   2.0000     -10.317215      -280.7457
  40   2.0000     -10.316850      -280.7357
  41   2.0000     -10.316067      -280.7144
  42   2.0000     -10.315191      -280.6906
  43   2.0000     -10.314276      -280.6657
  44   2.0000     -10.311325      -280.5854
  45   2.0000     -10.310828      -280.5719
  46   2.0000     -10.308073      -280.4969
  47   2.0000     -10.306909      -280.4653
  48   2.0000     -10.301961      -280.3306
  49   2.0000     -10.295088      -280.1436
  50   2.0000     -10.291668      -280.0505
  51   2.0000     -10.291110      -280.0353
  52   2.0000     -10.290559      -280.0204
  53   2.0000     -10.286673      -279.9146
  54   2.0000     -10.286370      -279.9064
  55   2.0000     -10.285328      -279.8780
  56   2.0000     -10.283681      -279.8332
  57   2.0000     -10.277171      -279.6560
  58   2.0000     -10.276741      -279.6443
  59   2.0000     -10.276423      -279.6357
  60   2.0000     -10.276266      -279.6314
  61   2.0000     -10.275772      -279.6180
  62   2.0000      -8.101708      -220.4587
  63   2.0000      -8.100074      -220.4142
  64   2.0000      -8.097189      -220.3357
  65   2.0000      -8.083905      -219.9742
  66   2.0000      -6.071013      -165.2007
  67   2.0000      -6.069664      -165.1640
  68   2.0000      -6.066752      -165.0847
  69   2.0000      -6.066381      -165.0746
  70   2.0000      -6.065569      -165.0525
  71   2.0000      -6.063990      -165.0096
  72   2.0000      -6.062289      -164.9633
  73   2.0000      -6.061410      -164.9393
  74   2.0000      -6.059594      -164.8899
  75   2.0000      -6.052819      -164.7056
  76   2.0000      -6.048826      -164.5969
  77   2.0000      -6.046602      -164.5364
  78   2.0000      -1.341797       -36.5121
  79   2.0000      -1.329309       -36.1723
  80   2.0000      -1.181774       -32.1577
  81   2.0000      -1.180984       -32.1362
  82   2.0000      -1.119204       -30.4551
  83   2.0000      -1.096991       -29.8506
  84   2.0000      -1.059007       -28.8171
  85   2.0000      -1.036308       -28.1994
  86   2.0000      -1.033682       -28.1279
  87   2.0000      -1.022125       -27.8134
  88   2.0000      -1.019097       -27.7310
  89   2.0000      -1.012736       -27.5579
  90   2.0000      -1.008239       -27.4356
  91   2.0000      -1.002237       -27.2723
  92   2.0000      -0.988027       -26.8856
  93   2.0000      -0.984673       -26.7943
  94   2.0000      -0.974632       -26.5211
  95   2.0000      -0.962001       -26.1774
  96   2.0000      -0.956138       -26.0178
  97   2.0000      -0.938489       -25.5376
  98   2.0000      -0.926339       -25.2070
  99   2.0000      -0.914917       -24.8962
 100   2.0000      -0.909951       -24.7610
 101   2.0000      -0.894848       -24.3500
 102   2.0000      -0.885931       -24.1074
 103   2.0000      -0.880209       -23.9517
 104   2.0000      -0.873156       -23.7598
 105   2.0000      -0.870100       -23.6766
 106   2.0000      -0.869767       -23.6676
 107   2.0000      -0.863036       -23.4844
 108   2.0000      -0.859092       -23.3771
 109   2.0000      -0.855430       -23.2774
 110   2.0000      -0.831330       -22.6216
 111   2.0000      -0.817692       -22.2505
 112   2.0000      -0.807555       -21.9747
 113   2.0000      -0.792854       -21.5747
 114   2.0000      -0.787061       -21.4170
 115   2.0000      -0.768463       -20.9109
 116   2.0000      -0.755780       -20.5658
 117   2.0000      -0.750617       -20.4253
 118   2.0000      -0.746577       -20.3154
 119   2.0000      -0.726824       -19.7779
 120   2.0000      -0.724197       -19.7064
 121   2.0000      -0.715627       -19.4732
 122   2.0000      -0.709999       -19.3201
 123   2.0000      -0.699468       -19.0335
 124   2.0000      -0.696183       -18.9441
 125   2.0000      -0.693264       -18.8647
 126   2.0000      -0.691331       -18.8121
 127   2.0000      -0.690443       -18.7879
 128   2.0000      -0.684969       -18.6389
 129   2.0000      -0.674825       -18.3629
 130   2.0000      -0.666450       -18.1350
 131   2.0000      -0.656633       -17.8679
 132   2.0000      -0.648058       -17.6346
 133   2.0000      -0.643201       -17.5024
 134   2.0000      -0.641937       -17.4680
 135   2.0000      -0.631986       -17.1972
 136   2.0000      -0.627594       -17.0777
 137   2.0000      -0.624838       -17.0027
 138   2.0000      -0.619866       -16.8674
 139   2.0000      -0.607907       -16.5420
 140   2.0000      -0.607203       -16.5228
 141   2.0000      -0.604281       -16.4433
 142   2.0000      -0.598595       -16.2886
 143   2.0000      -0.596407       -16.2291
 144   2.0000      -0.584130       -15.8950
 145   2.0000      -0.581521       -15.8240
 146   2.0000      -0.569237       -15.4897
 147   2.0000      -0.568788       -15.4775
 148   2.0000      -0.563392       -15.3307
 149   2.0000      -0.561276       -15.2731
 150   2.0000      -0.553269       -15.0552
 151   2.0000      -0.547434       -14.8964
 152   2.0000      -0.546717       -14.8769
 153   2.0000      -0.540942       -14.7198
 154   2.0000      -0.538074       -14.6417
 155   2.0000      -0.535563       -14.5734
 156   2.0000      -0.531564       -14.4646
 157   2.0000      -0.528858       -14.3909
 158   2.0000      -0.525397       -14.2968
 159   2.0000      -0.524894       -14.2831
 160   2.0000      -0.518282       -14.1032
 161   2.0000      -0.516824       -14.0635
 162   2.0000      -0.512343       -13.9416
 163   2.0000      -0.511229       -13.9112
 164   2.0000      -0.510167       -13.8823
 165   2.0000      -0.508214       -13.8292
 166   2.0000      -0.507229       -13.8024
 167   2.0000      -0.506649       -13.7866
 168   2.0000      -0.503122       -13.6907
 169   2.0000      -0.502271       -13.6675
 170   2.0000      -0.499837       -13.6013
 171   2.0000      -0.496535       -13.5114
 172   2.0000      -0.492811       -13.4101
 173   2.0000      -0.492143       -13.3919
 174   2.0000      -0.488676       -13.2975
 175   2.0000      -0.484684       -13.1889
 176   2.0000      -0.482284       -13.1236
 177   2.0000      -0.474125       -12.9016
 178   2.0000      -0.471900       -12.8410
 179   2.0000      -0.470688       -12.8081
 180   2.0000      -0.469679       -12.7806
 181   2.0000      -0.467332       -12.7167
 182   2.0000      -0.465868       -12.6769
 183   2.0000      -0.458392       -12.4735
 184   2.0000      -0.456020       -12.4089
 185   2.0000      -0.453866       -12.3503
 186   2.0000      -0.451330       -12.2813
 187   2.0000      -0.450610       -12.2617
 188   2.0000      -0.450453       -12.2575
 189   2.0000      -0.450195       -12.2504
 190   2.0000      -0.446401       -12.1472
 191   2.0000      -0.441423       -12.0117
 192   2.0000      -0.438767       -11.9394
 193   2.0000      -0.436160       -11.8685
 194   2.0000      -0.433781       -11.8038
 195   2.0000      -0.432620       -11.7722
 196   2.0000      -0.429845       -11.6967
 197   2.0000      -0.425101       -11.5676
 198   2.0000      -0.424569       -11.5531
 199   2.0000      -0.421087       -11.4584
 200   2.0000      -0.417837       -11.3699
 201   2.0000      -0.413964       -11.2645
 202   2.0000      -0.413525       -11.2526
 203   2.0000      -0.410690       -11.1755
 204   2.0000      -0.401406       -10.9228
 205   2.0000      -0.396932       -10.8011
 206   2.0000      -0.385758       -10.4970
 207   2.0000      -0.383500       -10.4356
 208   2.0000      -0.378396       -10.2967
 209   2.0000      -0.365323        -9.9410
 210   2.0000      -0.364059        -9.9066
 211   2.0000      -0.356219        -9.6932
 212   2.0000      -0.350365        -9.5339
 213   2.0000      -0.348717        -9.4891
 214   2.0000      -0.345139        -9.3917
 215   2.0000      -0.336260        -9.1501
 216   2.0000      -0.331070        -9.0089
 217   2.0000      -0.318820        -8.6755
 218   2.0000      -0.314602        -8.5607
 219   2.0000      -0.302049        -8.2192
 220   2.0000      -0.286497        -7.7960
 221   2.0000      -0.279563        -7.6073
 222   2.0000      -0.247132        -6.7248
 223   0.0000      -0.123758        -3.3676
 224   0.0000      -0.102671        -2.7938
 225   0.0000      -0.073307        -1.9948
 226   0.0000      -0.059982        -1.6322
 227   0.0000      -0.040078        -1.0906

MULLIKEN ATOMIC CHARGES
-----------------------
   0 C :    0.323368
   1 C :   -0.337044
   2 C :   -0.180542
   3 N :    0.141596
   4 C :   -0.205435
   5 N :    0.145232
   6 C :    0.057723
   7 C :    0.013505
   8 C :   -0.075700
   9 C :    0.098902
  10 C :    0.096551
  11 C :   -0.090343
  12 C :   -0.019279
  13 C :    0.033931
  14 C :    0.034068
  15 C :   -0.017391
  16 C :    0.141502
  17 O :   -0.150513
  18 C :   -0.096609
  19 C :   -0.047946
  20 C :   -0.192673
  21 S :    0.178752
  22 C :   -0.106682
  23 C :    0.082219
  24 C :    0.184168
  25 C :   -0.053661
  26 C :    0.114488
  27 O :   -0.175686
  28 O :   -0.155032
  29 C :    0.012868
  30 C :   -0.064605
  31 C :    0.127826
  32 O :   -0.174086
  33 C :   -0.020944
  34 C :    0.019110
  35 C :   -0.045906
  36 C :   -0.036112
  37 C :    0.019563
  38 C :   -0.091778
  39 S :    0.179584
  40 C :   -0.096856
  41 C :    0.002813
  42 C :    0.297069
  43 C :   -0.287902
  44 C :   -0.187922
  45 N :    0.179800
  46 C :   -0.190277
  47 N :    0.180708
  48 C :    0.015378
  49 C :   -0.155847
  50 S :    0.231235
  51 C :    0.025518
  52 C :    0.017499
  53 C :   -0.213723
  54 C :    0.219199
  55 C :    0.289784
  56 C :   -0.338611
  57 S :    0.265331
  58 C :   -0.137877
  59 N :    0.146655
  60 F :   -0.143059
  61 F :   -0.155551
  62 H :   -0.019602
  63 H :   -0.009671
  64 H :   -0.012195
  65 H :   -0.008127
  66 H :   -0.008597
  67 H :   -0.021441
  68 H :    0.031161
  69 H :    0.192813
  70 H :    0.006325
  71 H :   -0.031814
  72 H :    0.193033
  73 H :    0.013888
  74 H :    0.011235
  75 H :    0.013056
  76 H :    0.019582
Sum of atomic charges:    0.0000000

LOEWDIN ATOMIC CHARGES
----------------------
   0 C :    0.080456
   1 C :   -0.140603
   2 C :   -0.017143
   3 N :   -0.057889
   4 C :   -0.019388
   5 N :   -0.067477
   6 C :   -0.021336
   7 C :   -0.043746
   8 C :    0.032713
   9 C :   -0.007040
  10 C :   -0.006985
  11 C :    0.018555
  12 C :   -0.006211
  13 C :   -0.017261
  14 C :   -0.015707
  15 C :   -0.010921
  16 C :    0.073635
  17 O :   -0.145674
  18 C :   -0.093569
  19 C :    0.019387
  20 C :   -0.199950
  21 S :    0.499736
  22 C :   -0.130289
  23 C :   -0.065089
  24 C :   -0.009433
  25 C :   -0.088994
  26 C :    0.079087
  27 O :   -0.148296
  28 O :   -0.026354
  29 C :    0.039187
  30 C :   -0.090223
  31 C :    0.079336
  32 O :   -0.035452
  33 C :   -0.054106
  34 C :   -0.021969
  35 C :   -0.159158
  36 C :   -0.019327
  37 C :   -0.065639
  38 C :   -0.178320
  39 S :    0.479063
  40 C :   -0.174381
  41 C :   -0.070227
  42 C :    0.079060
  43 C :   -0.094992
  44 C :   -0.016967
  45 N :   -0.025736
  46 C :   -0.017456
  47 N :   -0.025318
  48 C :   -0.001835
  49 C :   -0.186197
  50 S :    0.498468
  51 C :   -0.023952
  52 C :   -0.047510
  53 C :   -0.205294
  54 C :    0.035646
  55 C :    0.056737
  56 C :   -0.252972
  57 S :    0.513673
  58 C :   -0.055169
  59 N :   -0.028912
  60 F :   -0.026950
  61 F :   -0.038215
  62 H :    0.037434
  63 H :    0.038177
  64 H :    0.033563
  65 H :    0.031573
  66 H :    0.031105
  67 H :    0.030301
  68 H :    0.043116
  69 H :    0.094762
  70 H :    0.043275
  71 H :    0.029332
  72 H :    0.104375
  73 H :    0.027255
  74 H :    0.034670
  75 H :    0.043961
  76 H :    0.047995

  Mayer bond orders larger than 0.100000
B(  0-C ,  1-C ) :   1.6288 B(  0-C ,  6-C ) :   0.9955 B(  0-C , 18-C ) :   1.0842
B(  1-C ,  2-C ) :   1.1408 B(  1-C ,  4-C ) :   1.1521 B(  2-C ,  3-N ) :   2.9663
B(  4-C ,  5-N ) :   2.9837 B(  6-C ,  7-C ) :   1.2174 B(  6-C , 11-C ) :   1.4481
B(  7-C ,  8-C ) :   1.4840 B(  7-C , 16-C ) :   0.9412 B(  8-C ,  9-C ) :   1.1725
B(  8-C , 62-H ) :   1.0160 B(  9-C , 10-C ) :   1.2594 B(  9-C , 15-C ) :   1.2455
B( 10-C , 11-C ) :   1.2021 B( 10-C , 12-C ) :   1.2411 B( 11-C , 63-H ) :   0.9899
B( 12-C , 13-C ) :   1.4882 B( 12-C , 64-H ) :   0.9970 B( 13-C , 14-C ) :   1.2616
B( 13-C , 65-H ) :   0.9886 B( 14-C , 15-C ) :   1.4863 B( 14-C , 66-H ) :   0.9884
B( 15-C , 67-H ) :   0.9973 B( 16-C , 17-O ) :   2.2086 B( 16-C , 18-C ) :   0.9446
B( 18-C , 19-C ) :   1.5386 B( 19-C , 20-C ) :   1.2064 B( 19-C , 68-H ) :   0.9386
B( 20-C , 21-S ) :   1.1046 B( 20-C , 24-C ) :   1.3195 B( 21-S , 22-C ) :   1.1859
B( 22-C , 23-C ) :   1.2922 B( 22-C , 33-C ) :   1.2200 B( 23-C , 24-C ) :   1.2458
B( 23-C , 31-C ) :   1.1876 B( 24-C , 25-C ) :   1.2096 B( 25-C , 26-C ) :   0.9135
B( 25-C , 29-C ) :   1.5283 B( 26-C , 27-O ) :   2.1672 B( 26-C , 28-O ) :   1.2074
B( 28-O , 69-H ) :   0.9428 B( 29-C , 30-C ) :   1.2196 B( 29-C , 70-H ) :   0.9910
B( 30-C , 31-C ) :   1.4386 B( 30-C , 71-H ) :   0.9843 B( 31-C , 32-O ) :   1.2289
B( 32-O , 72-H ) :   0.9487 B( 33-C , 34-C ) :   1.5710 B( 33-C , 73-H ) :   0.9530
B( 34-C , 35-C ) :   1.1951 B( 34-C , 74-H ) :   0.9740 B( 35-C , 36-C ) :   1.4122
B( 35-C , 39-S ) :   1.0911 B( 36-C , 37-C ) :   1.2921 B( 36-C , 75-H ) :   1.0034
B( 37-C , 38-C ) :   1.4288 B( 37-C , 42-C ) :   0.9960 B( 38-C , 39-S ) :   1.1240
B( 38-C , 40-C ) :   1.2032 B( 40-C , 41-C ) :   1.4232 B( 40-C , 50-S ) :   1.1332
B( 41-C , 42-C ) :   0.9953 B( 41-C , 48-C ) :   1.2953 B( 42-C , 43-C ) :   1.7204
B( 43-C , 44-C ) :   1.1328 B( 43-C , 46-C ) :   1.1337 B( 44-C , 45-N ) :   2.9935
B( 46-C , 47-N ) :   2.9945 B( 48-C , 49-C ) :   1.4544 B( 48-C , 76-H ) :   1.0010
B( 49-C , 50-S ) :   1.0766 B( 49-C , 51-C ) :   0.9966 B( 51-C , 52-C ) :   2.3502
B( 52-C , 53-C ) :   0.9731 B( 53-C , 54-C ) :   1.4485 B( 53-C , 56-C ) :   0.1451
B( 53-C , 57-S ) :   1.1040 B( 54-C , 55-C ) :   1.2164 B( 54-C , 61-F ) :   1.2007
B( 55-C , 56-C ) :   1.4633 B( 55-C , 60-F ) :   1.2152 B( 56-C , 57-S ) :   1.1131
B( 56-C , 58-C ) :   1.1920 B( 58-C , 59-N ) :   3.0163

-----------------------------------------------------------------------------
         ABSORPTION SPECTRUM VIA TRANSITION ELECTRIC DIPOLE MOMENTS
-----------------------------------------------------------------------------
State   Energy  Wavelength   fosc         T2         TX        TY        TZ
        (cm-1)    (nm)                  (au**2)     (au)      (au)      (au)
-----------------------------------------------------------------------------
   0   11459.2    872.7   0.529442898  15.21044  -1.99419  -1.84124   2.80062
   1   15672.9    638.0   1.115435125  23.42996  -2.47145  -2.41063   3.39275
   2   19805.9    504.9   0.061888030   1.02870  -0.50273  -0.57870   0.66412
   3   23084.7    433.2   0.010447728   0.14900   0.21874   0.01275   0.31778
   4   23211.8    430.8   0.132253901   1.87575   0.92410   0.25288  -0.97869
   5   23854.0    419.2   0.490368801   6.76764   1.58866   0.49822  -1.99889
   6   25339.1    394.6   0.025373830   0.32966  -0.06844   0.31779  -0.47328
   7   26531.8    376.9   0.291478772   3.61673   0.48163   1.59758  -0.91241
   8   27015.6    370.2   0.125202761   1.52572   0.45877  -1.02751   0.50938
   9   27492.7    363.7   0.002003281   0.02399   0.09589   0.11637   0.03536
  10   28381.5    352.3   0.147430155   1.71012   0.12958   1.29444   0.13330
  11   29193.9    342.5   0.052981286   0.59746  -0.77168   0.00697  -0.04373
  12   29924.3    334.2   0.160530805   1.76608   0.87779   0.96815  -0.24135
  13   30974.8    322.8   0.481179257   5.11416   0.98388  -1.77036  -1.00597
  14   31217.4    320.3   0.289646766   3.05455  -1.40265   0.65920   0.80783
  15   31832.6    314.1   0.341964599   3.53659  -1.61182  -0.85305   0.45929
  16   32127.5    311.3   0.122703512   1.25735  -0.06138   0.97243  -0.55494
  17   32686.5    305.9   0.091160046   0.91815   0.19367   0.57928   0.73829
  18   32974.1    303.3   0.122769268   1.22572   0.26317  -0.97309   0.45778
  19   33014.7    302.9   0.066463178   0.66275  -0.27275   0.76404   0.06782
  20   33587.0    297.7   0.134135611   1.31477  -0.34026  -0.89685   0.62821
  21   33931.7    294.7   0.040318322   0.39118  -0.00201  -0.23020  -0.58153
  22   34171.1    292.6   0.148376013   1.42949   1.17345   0.22752   0.02722
  23   34598.8    289.0   0.160438472   1.52659  -0.87559   0.52930   0.69266
  24   35495.2    281.7   0.042989141   0.39872   0.59509  -0.17381  -0.11992
  25   36152.2    276.6   0.010844345   0.09875   0.19346   0.23570  -0.07598
  26   36169.7    276.5   0.040119270   0.36516   0.02566   0.33008  -0.50552
  27   36581.8    273.4   0.064096546   0.57683   0.24348   0.20525  -0.68951
  28   36720.6    272.3   0.036335933   0.32576   0.41066  -0.11776   0.37849
  29   37007.3    270.2   0.171580117   1.52635  -1.04216   0.28483   0.59928
  30   37123.5    269.4   0.012000214   0.10642   0.26433  -0.19112  -0.00479
  31   37184.3    268.9   0.092193483   0.81624  -0.58605   0.68513  -0.05810
  32   37290.6    268.2   0.016318050   0.14406  -0.14969   0.32539   0.12560
  33   37654.2    265.6   0.304344220   2.66090  -1.24746   1.03587  -0.17809
  34   38804.7    257.7   0.023534634   0.19966  -0.38451   0.14347  -0.17671
  35   39746.8    251.6   0.036486201   0.30221  -0.52540   0.13999  -0.08098
  36   39878.9    250.8   0.006101958   0.05037  -0.07891   0.17879  -0.11037
  37   40235.8    248.5   0.007775720   0.06362  -0.09176   0.22737  -0.05921

FINAL SINGLE POINT ENERGY     -4163.283507466195

DIPOLE MOMENT
-------------
                                X             Y             Z
Electronic contribution:     61.32546      47.45128     -68.39041
Nuclear contribution   :    -63.31084     -44.71156      67.89132
                        -----------------------------------------
Total Dipole Moment    :     -1.98537       2.73972      -0.49909
                        -----------------------------------------
Magnitude (a.u.)       :      3.42007
Magnitude (Debye)      :      8.69313

Rotational constants in cm-1:     0.003145     0.000270     0.000258
Rotational constants in MHz :    94.290096     8.103883     7.731791

                             ****ORCA TERMINATED NORMALLY****
TOTAL RUN TIME: 0 days 0 hours 7 minutes 18 seconds 956 msec
