                         Program Version 4.2.0 -  RELEASE  -
|  1> # ORCA input file
|  2> # SCF done       -209.903698772384          0.000932608180
|  3> ! CAM-B3LYP def2-SVP def2/J RIJCOSX Grid4 TightSCF
|  4> %maxcore 5000
|  5> %tddft
|  6>     Mode sTDDFT
|  7>     Ethresh 5.0
|  8>     maxcore 5000
|  9> end
| 10>
| 11> %pal
| 12>   nprocs 6
| 13>   end
| 14> * xyz 0 1
| 15>    C       -2.74851         6.06071        -3.75559
| 16>    C       -2.16244         5.41045        -2.69728
| 17>    C       -2.87525         4.91686        -1.58771
| 18>    N       -3.39856         4.51414        -0.64813
| 19>    C       -0.79045         5.09895        -2.62402
| 20>    N        0.31546         4.80305        -2.52819
| 21>    C       -4.18849         6.14948        -3.97991
| 22>    C       -4.41519         6.40085        -5.36423
| 23>    C       -5.67481         6.48828        -5.88111
| 24>    C       -6.78499         6.33655        -5.01927
| 25>    C       -6.56499         6.10620        -3.63075
| 26>    C       -5.24766         6.01354        -3.12457
| 27>    C       -7.68068         5.96570        -2.78096
| 28>    C       -8.95345         6.04341        -3.27726
| 29>    C       -9.16914         6.26768        -4.64498
| 30>    C       -8.10794         6.41102        -5.49721
| 31>    C       -3.11797         6.55089        -6.04977
| 32>    O       -2.91490         6.74175        -7.22710
| 33>    C       -2.09642         6.49907        -4.96818
| 34>    C       -0.81721         6.89502        -5.24549
| 35>    C        0.16232         7.32922        -4.32950
| 36>    S       -0.33062         8.00530        -2.80543
| 37>    C        1.28503         8.13678        -2.22958
| 38>    C        2.19532         7.61699        -3.16620
| 39>    C        1.57033         7.26987        -4.41005
| 40>    C        2.37836         6.82256        -5.48309
| 41>    C        1.90543         6.62798        -6.88381
| 42>    O        2.16156         5.67028        -7.55208
| 43>    O        1.22454         7.67496        -7.40675
| 44>    C        3.72228         6.60273        -5.25847
| 45>    C        4.30663         6.81705        -4.01411
| 46>    C        3.56862         7.31474        -2.96082
| 47>    O        4.18108         7.44245        -1.76960
| 48>    C        1.50083         8.71604        -0.94864
| 49>    S        0.36790         8.36042         0.31803
| 50>    C        1.25806         9.25219         1.49252
| 51>    C        2.41861         9.79299         0.92670
| 52>    C        2.51422         9.56808        -0.48432
| 53>    C        3.55400        10.20927        -1.21500
| 54>    C        3.59875        10.35955        -2.68381
| 55>    O        4.60867        10.48767        -3.32722
| 56>    O        2.38319        10.45445        -3.25385
| 57>    C        4.54930        10.85465        -0.51526
| 58>    C        4.54251        10.93100         0.87885
| 59>    C        3.48676        10.43552         1.60877
| 60>    O        3.44325        10.51190         2.95506
| 61>    C        0.77116         9.33673         2.82780
| 62>    S        0.12106         7.91716         3.56496
| 63>    C       -0.19532         8.72386         5.06330
| 64>    C        0.26216        10.04878         5.00517
| 65>    C        0.72865        10.42647         3.71007
| 66>    C        1.05104        11.78686         3.45475
| 67>    C        1.22103        12.32202         2.09207
| 68>    O        0.66403        11.91689         1.10169
| 69>    O        2.04511        13.38492         2.04929
| 70>    C        1.07086        12.66501         4.51596
| 71>    C        0.79279        12.24877         5.81881
| 72>    C        0.38828        10.96027         6.08747
| 73>    O        0.16978        10.52852         7.34520
| 74>    C       -0.85693         8.01681         6.08957
| 75>    C       -1.72566         8.55607         6.99722
| 76>    C       -2.27928         7.87971         8.15042
| 77>    C       -1.79989         6.72589         8.71610
| 78>    C       -2.34718         6.12811         9.86940
| 79>    N       -2.74741         5.59912        10.80674
| 80>    C       -0.67428         6.01399         8.25253
| 81>    N        0.24298         5.39461         7.94601
| 82>    C       -3.36168         8.70248         8.67690
| 83>    C       -3.43791         9.89445         7.90179
| 84>    C       -2.42069         9.85863         6.83547
| 85>    O       -2.26690        10.68927         5.96274
| 86>    C       -4.35710        10.86818         8.16522
| 87>    C       -5.25663        10.69434         9.24126
| 88>    C       -5.19107         9.50167        10.01754
| 89>    C       -4.23077         8.50761         9.71685
| 90>    C       -6.09730         9.33595        11.08427
| 91>    C       -7.02296        10.30154        11.37358
| 92>    C       -7.08590        11.47587        10.60913
| 93>    C       -6.22103        11.66822         9.56595
| 94>    H       -5.82434         6.66874        -6.93520
| 95>    H       -5.10898         5.84713        -2.06770
| 96>    H       -7.50924         5.78909        -1.72918
| 97>    H       -9.80152         5.93126        -2.61832
| 98>    H      -10.18001         6.32623        -5.02006
| 99>    H       -8.26781         6.58374        -6.55151
|100>    H       -0.58791         6.91869        -6.30532
|101>    H        1.11569         8.39954        -6.77736
|102>    H        4.32588         6.24038        -6.07607
|103>    H        5.34579         6.58976        -3.84572
|104>    H        3.54831         7.64658        -1.06890
|105>    H        2.48995        10.65326        -4.19721
|106>    H        5.34640        11.32149        -1.07254
|107>    H        5.36193        11.41652         1.38937
|108>    H        4.23577        10.95468         3.28698
|109>    H        2.06475        13.74403         1.14816
|110>    H        1.30934        13.70145         4.33605
|111>    H        0.87406        12.95997         6.62942
|112>    H        0.28925        11.25853         7.96741
|113>    H       -0.70617         6.94385         6.09026
|114>    H       -4.39722        11.76232         7.56055
|115>    H       -4.21279         7.61114        10.31616
|116>    H       -6.04443         8.43039        11.67062
|117>    H       -7.71222        10.16537        12.19338
|118>    H       -7.82327        12.22699        10.85007
|119>    H       -6.26563        12.57011         8.97282
|120> *
|121>
|122>                          ****END OF INPUT****

CARTESIAN COORDINATES (ANGSTROEM)
---------------------------------
  C     -2.748510    6.060710   -3.755590
  C     -2.162440    5.410450   -2.697280
  C     -2.875250    4.916860   -1.587710
  N     -3.398560    4.514140   -0.648130
  C     -0.790450    5.098950   -2.624020
  N      0.315460    4.803050   -2.528190
  C     -4.188490    6.149480   -3.979910
  C     -4.415190    6.400850   -5.364230
  C     -5.674810    6.488280   -5.881110
  C     -6.784990    6.336550   -5.019270
  C     -6.564990    6.106200   -3.630750
  C     -5.247660    6.013540   -3.124570
  C     -7.680680    5.965700   -2.780960
  C     -8.953450    6.043410   -3.277260
  C     -9.169140    6.267680   -4.644980
  C     -8.107940    6.411020   -5.497210
  C     -3.117970    6.550890   -6.049770
  O     -2.914900    6.741750   -7.227100
  C     -2.096420    6.499070   -4.968180
  C     -0.817210    6.895020   -5.245490
  C      0.162320    7.329220   -4.329500
  S     -0.330620    8.005300   -2.805430
  C      1.285030    8.136780   -2.229580
  C      2.195320    7.616990   -3.166200
  C      1.570330    7.269870   -4.410050
  C      2.378360    6.822560   -5.483090
  C      1.905430    6.627980   -6.883810
  O      2.161560    5.670280   -7.552080
  O      1.224540    7.674960   -7.406750
  C      3.722280    6.602730   -5.258470
  C      4.306630    6.817050   -4.014110
  C      3.568620    7.314740   -2.960820
  O      4.181080    7.442450   -1.769600
  C      1.500830    8.716040   -0.948640
  S      0.367900    8.360420    0.318030
  C      1.258060    9.252190    1.492520
  C      2.418610    9.792990    0.926700
  C      2.514220    9.568080   -0.484320
  C      3.554000   10.209270   -1.215000
  C      3.598750   10.359550   -2.683810
  O      4.608670   10.487670   -3.327220
  O      2.383190   10.454450   -3.253850
  C      4.549300   10.854650   -0.515260
  C      4.542510   10.931000    0.878850
  C      3.486760   10.435520    1.608770
  O      3.443250   10.511900    2.955060
  C      0.771160    9.336730    2.827800
  S      0.121060    7.917160    3.564960
  C     -0.195320    8.723860    5.063300
  C      0.262160   10.048780    5.005170
  C      0.728650   10.426470    3.710070
  C      1.051040   11.786860    3.454750
  C      1.221030   12.322020    2.092070
  O      0.664030   11.916890    1.101690
  O      2.045110   13.384920    2.049290
  C      1.070860   12.665010    4.515960
  C      0.792790   12.248770    5.818810
  C      0.388280   10.960270    6.087470
  O      0.169780   10.528520    7.345200
  C     -0.856930    8.016810    6.089570
  C     -1.725660    8.556070    6.997220
  C     -2.279280    7.879710    8.150420
  C     -1.799890    6.725890    8.716100
  C     -2.347180    6.128110    9.869400
  N     -2.747410    5.599120   10.806740
  C     -0.674280    6.013990    8.252530
  N      0.242980    5.394610    7.946010
  C     -3.361680    8.702480    8.676900
  C     -3.437910    9.894450    7.901790
  C     -2.420690    9.858630    6.835470
  O     -2.266900   10.689270    5.962740
  C     -4.357100   10.868180    8.165220
  C     -5.256630   10.694340    9.241260
  C     -5.191070    9.501670   10.017540
  C     -4.230770    8.507610    9.716850
  C     -6.097300    9.335950   11.084270
  C     -7.022960   10.301540   11.373580
  C     -7.085900   11.475870   10.609130
  C     -6.221030   11.668220    9.565950
  H     -5.824340    6.668740   -6.935200
  H     -5.108980    5.847130   -2.067700
  H     -7.509240    5.789090   -1.729180
  H     -9.801520    5.931260   -2.618320
  H    -10.180010    6.326230   -5.020060
  H     -8.267810    6.583740   -6.551510
  H     -0.587910    6.918690   -6.305320
  H      1.115690    8.399540   -6.777360
  H      4.325880    6.240380   -6.076070
  H      5.345790    6.589760   -3.845720
  H      3.548310    7.646580   -1.068900
  H      2.489950   10.653260   -4.197210
  H      5.346400   11.321490   -1.072540
  H      5.361930   11.416520    1.389370
  H      4.235770   10.954680    3.286980
  H      2.064750   13.744030    1.148160
  H      1.309340   13.701450    4.336050
  H      0.874060   12.959970    6.629420
  H      0.289250   11.258530    7.967410
  H     -0.706170    6.943850    6.090260
  H     -4.397220   11.762320    7.560550
  H     -4.212790    7.611140   10.316160
  H     -6.044430    8.430390   11.670620
  H     -7.712220   10.165370   12.193380
  H     -7.823270   12.226990   10.850070
  H     -6.265630   12.570110    8.972820

 Total Charge           Charge          ....    0
 Multiplicity           Mult            ....    1
 Number of Electrons    NEL             ....  556
 Basis Dimension        Dim             .... 1248

ORBITAL ENERGIES
----------------

  NO   OCC          E(Eh)            E(eV)
   0   2.0000     -88.992970     -2421.6218
   1   2.0000     -88.991594     -2421.5844
   2   2.0000     -88.982349     -2421.3328
   3   2.0000     -19.281953      -524.6886
   4   2.0000     -19.276229      -524.5329
   5   2.0000     -19.273750      -524.4654
   6   2.0000     -19.267405      -524.2928
   7   2.0000     -19.257555      -524.0247
   8   2.0000     -19.253712      -523.9201
   9   2.0000     -19.213807      -522.8343
  10   2.0000     -19.213489      -522.8256
  11   2.0000     -19.207600      -522.6654
  12   2.0000     -19.200167      -522.4631
  13   2.0000     -19.190724      -522.2062
  14   2.0000     -14.414289      -392.2327
  15   2.0000     -14.413982      -392.2244
  16   2.0000     -14.404513      -391.9667
  17   2.0000     -14.404180      -391.9577
  18   2.0000     -10.414144      -283.3833
  19   2.0000     -10.409620      -283.2602
  20   2.0000     -10.393771      -282.8289
  21   2.0000     -10.371825      -282.2317
  22   2.0000     -10.366432      -282.0850
  23   2.0000     -10.366019      -282.0737
  24   2.0000     -10.353219      -281.7254
  25   2.0000     -10.351766      -281.6859
  26   2.0000     -10.342245      -281.4268
  27   2.0000     -10.342134      -281.4238
  28   2.0000     -10.341191      -281.3981
  29   2.0000     -10.339342      -281.3478
  30   2.0000     -10.338895      -281.3356
  31   2.0000     -10.333174      -281.1800
  32   2.0000     -10.330797      -281.1153
  33   2.0000     -10.329119      -281.0696
  34   2.0000     -10.327531      -281.0264
  35   2.0000     -10.321840      -280.8716
  36   2.0000     -10.318576      -280.7827
  37   2.0000     -10.317040      -280.7409
  38   2.0000     -10.316723      -280.7323
  39   2.0000     -10.316322      -280.7214
  40   2.0000     -10.311677      -280.5950
  41   2.0000     -10.311299      -280.5847
  42   2.0000     -10.310705      -280.5686
  43   2.0000     -10.310402      -280.5603
  44   2.0000     -10.308295      -280.5030
  45   2.0000     -10.308132      -280.4985
  46   2.0000     -10.307317      -280.4764
  47   2.0000     -10.303276      -280.3664
  48   2.0000     -10.303236      -280.3653
  49   2.0000     -10.301679      -280.3229
  50   2.0000     -10.301582      -280.3203
  51   2.0000     -10.299771      -280.2710
  52   2.0000     -10.299228      -280.2562
  53   2.0000     -10.298844      -280.2458
  54   2.0000     -10.298532      -280.2373
  55   2.0000     -10.298497      -280.2363
  56   2.0000     -10.297839      -280.2184
  57   2.0000     -10.297520      -280.2098
  58   2.0000     -10.293241      -280.0933
  59   2.0000     -10.292009      -280.0598
  60   2.0000     -10.291398      -280.0432
  61   2.0000     -10.289547      -279.9928
  62   2.0000     -10.288855      -279.9740
  63   2.0000     -10.288582      -279.9666
  64   2.0000     -10.288497      -279.9642
  65   2.0000     -10.288453      -279.9630
  66   2.0000     -10.288009      -279.9509
  67   2.0000     -10.287526      -279.9378
  68   2.0000     -10.286981      -279.9230
  69   2.0000     -10.286977      -279.9229
  70   2.0000     -10.286705      -279.9155
  71   2.0000     -10.283950      -279.8405
  72   2.0000     -10.282516      -279.8015
  73   2.0000     -10.278673      -279.6969
  74   2.0000     -10.278581      -279.6944
  75   2.0000     -10.278237      -279.6850
  76   2.0000     -10.277967      -279.6777
  77   2.0000     -10.277577      -279.6671
  78   2.0000     -10.267985      -279.4061
  79   2.0000      -8.088096      -220.0883
  80   2.0000      -8.086863      -220.0547
  81   2.0000      -8.076999      -219.7863
  82   2.0000      -6.057062      -164.8210
  83   2.0000      -6.055703      -164.7841
  84   2.0000      -6.052880      -164.7072
  85   2.0000      -6.051592      -164.6722
  86   2.0000      -6.050860      -164.6523
  87   2.0000      -6.049820      -164.6240
  88   2.0000      -6.046120      -164.5233
  89   2.0000      -6.041811      -164.4060
  90   2.0000      -6.039671      -164.3478
  91   2.0000      -1.200455       -32.6660
  92   2.0000      -1.195088       -32.5200
  93   2.0000      -1.179817       -32.1045
  94   2.0000      -1.175224       -31.9795
  95   2.0000      -1.174224       -31.9523
  96   2.0000      -1.157575       -31.4992
  97   2.0000      -1.128180       -30.6993
  98   2.0000      -1.115654       -30.3585
  99   2.0000      -1.103330       -30.0231
 100   2.0000      -1.097398       -29.8617
 101   2.0000      -1.089920       -29.6582
 102   2.0000      -1.033433       -28.1211
 103   2.0000      -1.019818       -27.7507
 104   2.0000      -1.016868       -27.6704
 105   2.0000      -1.010096       -27.4861
 106   2.0000      -1.002653       -27.2836
 107   2.0000      -0.998321       -27.1657
 108   2.0000      -0.992586       -27.0096
 109   2.0000      -0.988123       -26.8882
 110   2.0000      -0.982816       -26.7438
 111   2.0000      -0.972466       -26.4621
 112   2.0000      -0.962161       -26.1817
 113   2.0000      -0.958342       -26.0778
 114   2.0000      -0.953299       -25.9406
 115   2.0000      -0.942213       -25.6389
 116   2.0000      -0.927895       -25.2493
 117   2.0000      -0.921191       -25.0669
 118   2.0000      -0.912574       -24.8324
 119   2.0000      -0.903084       -24.5742
 120   2.0000      -0.892322       -24.2813
 121   2.0000      -0.884492       -24.0682
 122   2.0000      -0.881605       -23.9897
 123   2.0000      -0.875859       -23.8333
 124   2.0000      -0.871596       -23.7173
 125   2.0000      -0.868607       -23.6360
 126   2.0000      -0.864462       -23.5232
 127   2.0000      -0.855926       -23.2909
 128   2.0000      -0.852323       -23.1929
 129   2.0000      -0.848172       -23.0799
 130   2.0000      -0.841258       -22.8918
 131   2.0000      -0.829336       -22.5674
 132   2.0000      -0.825168       -22.4540
 133   2.0000      -0.819179       -22.2910
 134   2.0000      -0.807466       -21.9723
 135   2.0000      -0.788660       -21.4605
 136   2.0000      -0.776673       -21.1343
 137   2.0000      -0.764925       -20.8147
 138   2.0000      -0.761251       -20.7147
 139   2.0000      -0.759194       -20.6587
 140   2.0000      -0.749605       -20.3978
 141   2.0000      -0.738973       -20.1085
 142   2.0000      -0.734078       -19.9753
 143   2.0000      -0.732727       -19.9385
 144   2.0000      -0.724914       -19.7259
 145   2.0000      -0.718014       -19.5381
 146   2.0000      -0.711958       -19.3734
 147   2.0000      -0.707703       -19.2576
 148   2.0000      -0.704482       -19.1699
 149   2.0000      -0.697834       -18.9890
 150   2.0000      -0.697406       -18.9774
 151   2.0000      -0.695555       -18.9270
 152   2.0000      -0.692009       -18.8305
 153   2.0000      -0.685735       -18.6598
 154   2.0000      -0.679460       -18.4890
 155   2.0000      -0.675928       -18.3929
 156   2.0000      -0.671097       -18.2615
 157   2.0000      -0.665370       -18.1056
 158   2.0000      -0.665069       -18.0975
 159   2.0000      -0.650511       -17.7013
 160   2.0000      -0.642365       -17.4796
 161   2.0000      -0.640589       -17.4313
 162   2.0000      -0.634311       -17.2605
 163   2.0000      -0.628273       -17.0962
 164   2.0000      -0.623208       -16.9583
 165   2.0000      -0.614577       -16.7235
 166   2.0000      -0.610688       -16.6177
 167   2.0000      -0.607536       -16.5319
 168   2.0000      -0.600677       -16.3452
 169   2.0000      -0.598100       -16.2751
 170   2.0000      -0.597804       -16.2671
 171   2.0000      -0.593234       -16.1427
 172   2.0000      -0.586815       -15.9681
 173   2.0000      -0.583188       -15.8694
 174   2.0000      -0.580453       -15.7949
 175   2.0000      -0.574064       -15.6211
 176   2.0000      -0.573620       -15.6090
 177   2.0000      -0.567090       -15.4313
 178   2.0000      -0.563455       -15.3324
 179   2.0000      -0.562122       -15.2961
 180   2.0000      -0.559581       -15.2270
 181   2.0000      -0.556821       -15.1519
 182   2.0000      -0.553634       -15.0651
 183   2.0000      -0.549296       -14.9471
 184   2.0000      -0.546920       -14.8825
 185   2.0000      -0.545191       -14.8354
 186   2.0000      -0.543074       -14.7778
 187   2.0000      -0.540180       -14.6990
 188   2.0000      -0.537376       -14.6227
 189   2.0000      -0.536826       -14.6078
 190   2.0000      -0.535951       -14.5840
 191   2.0000      -0.532250       -14.4833
 192   2.0000      -0.529846       -14.4178
 193   2.0000      -0.527451       -14.3527
 194   2.0000      -0.525939       -14.3115
 195   2.0000      -0.522917       -14.2293
 196   2.0000      -0.522099       -14.2070
 197   2.0000      -0.519564       -14.1381
 198   2.0000      -0.518651       -14.1132
 199   2.0000      -0.514364       -13.9966
 200   2.0000      -0.513242       -13.9660
 201   2.0000      -0.512640       -13.9496
 202   2.0000      -0.508887       -13.8475
 203   2.0000      -0.508371       -13.8335
 204   2.0000      -0.505731       -13.7617
 205   2.0000      -0.504903       -13.7391
 206   2.0000      -0.502221       -13.6661
 207   2.0000      -0.500833       -13.6284
 208   2.0000      -0.498493       -13.5647
 209   2.0000      -0.496185       -13.5019
 210   2.0000      -0.495320       -13.4783
 211   2.0000      -0.494072       -13.4444
 212   2.0000      -0.492098       -13.3907
 213   2.0000      -0.490638       -13.3509
 214   2.0000      -0.489461       -13.3189
 215   2.0000      -0.485876       -13.2213
 216   2.0000      -0.484443       -13.1824
 217   2.0000      -0.477123       -12.9832
 218   2.0000      -0.475836       -12.9482
 219   2.0000      -0.472702       -12.8629
 220   2.0000      -0.470684       -12.8080
 221   2.0000      -0.468356       -12.7446
 222   2.0000      -0.465526       -12.6676
 223   2.0000      -0.463390       -12.6095
 224   2.0000      -0.458433       -12.4746
 225   2.0000      -0.455922       -12.4063
 226   2.0000      -0.454437       -12.3659
 227   2.0000      -0.451399       -12.2832
 228   2.0000      -0.448086       -12.1930
 229   2.0000      -0.447700       -12.1825
 230   2.0000      -0.446135       -12.1400
 231   2.0000      -0.443910       -12.0794
 232   2.0000      -0.441131       -12.0038
 233   2.0000      -0.440732       -11.9929
 234   2.0000      -0.435484       -11.8501
 235   2.0000      -0.434815       -11.8319
 236   2.0000      -0.434305       -11.8180
 237   2.0000      -0.433702       -11.8016
 238   2.0000      -0.433004       -11.7826
 239   2.0000      -0.430807       -11.7229
 240   2.0000      -0.428415       -11.6578
 241   2.0000      -0.426190       -11.5972
 242   2.0000      -0.424761       -11.5583
 243   2.0000      -0.423348       -11.5199
 244   2.0000      -0.421258       -11.4630
 245   2.0000      -0.419255       -11.4085
 246   2.0000      -0.417286       -11.3549
 247   2.0000      -0.413369       -11.2483
 248   2.0000      -0.410647       -11.1743
 249   2.0000      -0.408457       -11.1147
 250   2.0000      -0.405838       -11.0434
 251   2.0000      -0.404458       -11.0059
 252   2.0000      -0.401488       -10.9250
 253   2.0000      -0.395750       -10.7689
 254   2.0000      -0.391504       -10.6534
 255   2.0000      -0.385328       -10.4853
 256   2.0000      -0.381978       -10.3941
 257   2.0000      -0.375993       -10.2313
 258   2.0000      -0.369007       -10.0412
 259   2.0000      -0.363275        -9.8852
 260   2.0000      -0.361771        -9.8443
 261   2.0000      -0.357337        -9.7236
 262   2.0000      -0.348189        -9.4747
 263   2.0000      -0.344533        -9.3752
 264   2.0000      -0.343279        -9.3411
 265   2.0000      -0.338318        -9.2061
 266   2.0000      -0.333724        -9.0811
 267   2.0000      -0.328527        -8.9397
 268   2.0000      -0.323722        -8.8089
 269   2.0000      -0.321005        -8.7350
 270   2.0000      -0.314290        -8.5523
 271   2.0000      -0.308837        -8.4039
 272   2.0000      -0.303709        -8.2643
 273   2.0000      -0.299927        -8.1614
 274   2.0000      -0.293701        -7.9920
 275   2.0000      -0.285323        -7.7640
 276   2.0000      -0.266774        -7.2593
 277   2.0000      -0.239233        -6.5099
 278   0.0000      -0.112449        -3.0599
 279   0.0000      -0.093381        -2.5410
 280   0.0000      -0.067716        -1.8426
 281   0.0000      -0.058542        -1.5930
 282   0.0000      -0.044905        -1.2219

MULLIKEN ATOMIC CHARGES
-----------------------
   0 C :    0.266399
   1 C :   -0.347026
   2 C :   -0.178894
   3 N :    0.143617
   4 C :   -0.197420
   5 N :    0.163648
   6 C :    0.030048
   7 C :    0.012499
   8 C :   -0.082389
   9 C :    0.093550
  10 C :    0.093734
  11 C :   -0.079563
  12 C :   -0.018428
  13 C :    0.033075
  14 C :    0.033812
  15 C :   -0.015047
  16 C :    0.137377
  17 O :   -0.144497
  18 C :   -0.155323
  19 C :    0.023588
  20 C :   -0.233722
  21 S :    0.196742
  22 C :   -0.104704
  23 C :    0.108372
  24 C :    0.177699
  25 C :   -0.129367
  26 C :    0.140194
  27 O :   -0.160817
  28 O :   -0.171294
  29 C :    0.054434
  30 C :   -0.040471
  31 C :    0.108037
  32 O :   -0.153590
  33 C :   -0.248316
  34 S :    0.235739
  35 C :   -0.139207
  36 C :    0.122704
  37 C :    0.113087
  38 C :   -0.058520
  39 C :    0.102739
  40 O :   -0.189345
  41 O :   -0.175058
  42 C :    0.016328
  43 C :   -0.071504
  44 C :    0.122740
  45 O :   -0.158707
  46 C :   -0.185442
  47 S :    0.226261
  48 C :   -0.163570
  49 C :    0.122058
  50 C :    0.184327
  51 C :   -0.026615
  52 C :    0.100402
  53 O :   -0.185501
  54 O :   -0.185136
  55 C :    0.009636
  56 C :   -0.066180
  57 C :    0.140676
  58 O :   -0.164649
  59 C :    0.009774
  60 C :   -0.059347
  61 C :    0.293127
  62 C :   -0.343279
  63 C :   -0.180533
  64 N :    0.149675
  65 C :   -0.207956
  66 N :    0.161723
  67 C :    0.055593
  68 C :   -0.014913
  69 C :    0.138330
  70 O :   -0.156626
  71 C :   -0.087271
  72 C :    0.098214
  73 C :    0.095501
  74 C :   -0.086166
  75 C :   -0.019207
  76 C :    0.034811
  77 C :    0.034636
  78 C :   -0.016312
  79 H :   -0.013745
  80 H :   -0.008365
  81 H :   -0.013201
  82 H :   -0.007465
  83 H :   -0.008615
  84 H :   -0.018278
  85 H :    0.036897
  86 H :    0.183429
  87 H :    0.005428
  88 H :   -0.011034
  89 H :    0.196044
  90 H :    0.190258
  91 H :    0.008115
  92 H :   -0.030955
  93 H :    0.193888
  94 H :    0.192422
  95 H :   -0.003514
  96 H :   -0.032554
  97 H :    0.190107
  98 H :    0.029891
  99 H :   -0.016689
 100 H :   -0.007729
 101 H :   -0.008435
 102 H :   -0.004198
 103 H :   -0.005162
 104 H :   -0.019530
Sum of atomic charges:   -0.0000000

LOEWDIN ATOMIC CHARGES
----------------------
   0 C :    0.060496
   1 C :   -0.156791
   2 C :   -0.020097
   3 N :   -0.063475
   4 C :   -0.034474
   5 N :   -0.059589
   6 C :   -0.021713
   7 C :   -0.054547
   8 C :    0.029358
   9 C :   -0.009841
  10 C :   -0.006635
  11 C :    0.012838
  12 C :   -0.007732
  13 C :   -0.016274
  14 C :   -0.015955
  15 C :   -0.010209
  16 C :    0.079817
  17 O :   -0.145457
  18 C :   -0.111148
  19 C :    0.038082
  20 C :   -0.213175
  21 S :    0.525353
  22 C :   -0.153543
  23 C :   -0.077556
  24 C :   -0.010293
  25 C :   -0.110407
  26 C :    0.077267
  27 O :   -0.139571
  28 O :   -0.034333
  29 C :    0.041593
  30 C :   -0.059593
  31 C :    0.079043
  32 O :   -0.016395
  33 C :   -0.228842
  34 S :    0.519542
  35 C :   -0.167100
  36 C :   -0.062294
  37 C :   -0.029932
  38 C :   -0.094629
  39 C :    0.078219
  40 O :   -0.174087
  41 O :   -0.032116
  42 C :    0.038552
  43 C :   -0.095347
  44 C :    0.072420
  45 O :   -0.015141
  46 C :   -0.178469
  47 S :    0.523961
  48 C :   -0.172286
  49 C :   -0.035700
  50 C :   -0.012414
  51 C :   -0.081220
  52 C :    0.080608
  53 O :   -0.171875
  54 O :   -0.040696
  55 C :    0.019104
  56 C :   -0.080633
  57 C :    0.081629
  58 O :   -0.018538
  59 C :    0.036061
  60 C :   -0.080211
  61 C :    0.073705
  62 C :   -0.138437
  63 C :   -0.017581
  64 N :   -0.054412
  65 C :   -0.024602
  66 N :   -0.051235
  67 C :   -0.025377
  68 C :   -0.054381
  69 C :    0.075819
  70 O :   -0.147022
  71 C :    0.026828
  72 C :   -0.009401
  73 C :   -0.006992
  74 C :    0.018052
  75 C :   -0.005531
  76 C :   -0.014040
  77 C :   -0.013244
  78 C :   -0.011188
  79 H :    0.038606
  80 H :    0.037593
  81 H :    0.033215
  82 H :    0.031782
  83 H :    0.031330
  84 H :    0.031252
  85 H :    0.045230
  86 H :    0.089926
  87 H :    0.043105
  88 H :    0.039372
  89 H :    0.085042
  90 H :    0.098660
  91 H :    0.043084
  92 H :    0.030120
  93 H :    0.105389
  94 H :    0.100566
  95 H :    0.036229
  96 H :    0.028845
  97 H :    0.102931
  98 H :    0.045255
  99 H :    0.037131
 100 H :    0.038965
 101 H :    0.034926
 102 H :    0.033253
 103 H :    0.032656
 104 H :    0.030963

  Mayer bond orders larger than 0.100000
B(  0-C ,  1-C ) :   1.6259 B(  0-C ,  6-C ) :   0.9972 B(  0-C , 18-C ) :   1.0508
B(  1-C ,  2-C ) :   1.1424 B(  1-C ,  4-C ) :   1.1638 B(  2-C ,  3-N ) :   2.9836
B(  4-C ,  5-N ) :   3.0008 B(  6-C ,  7-C ) :   1.2149 B(  6-C , 11-C ) :   1.4606
B(  7-C ,  8-C ) :   1.4822 B(  7-C , 16-C ) :   0.9229 B(  8-C ,  9-C ) :   1.1790
B(  8-C , 79-H ) :   1.0155 B(  9-C , 10-C ) :   1.2592 B(  9-C , 15-C ) :   1.2468
B( 10-C , 11-C ) :   1.2027 B( 10-C , 12-C ) :   1.2422 B( 11-C , 80-H ) :   0.9931
B( 12-C , 13-C ) :   1.4891 B( 12-C , 81-H ) :   0.9969 B( 13-C , 14-C ) :   1.2610
B( 13-C , 82-H ) :   0.9888 B( 14-C , 15-C ) :   1.4871 B( 14-C , 83-H ) :   0.9894
B( 15-C , 84-H ) :   0.9974 B( 16-C , 17-O ) :   2.2502 B( 16-C , 18-C ) :   0.9514
B( 18-C , 19-C ) :   1.6063 B( 19-C , 20-C ) :   1.1774 B( 19-C , 85-H ) :   0.9125
B( 20-C , 21-S ) :   1.1062 B( 20-C , 22-C ) :   0.1144 B( 20-C , 24-C ) :   1.2918
B( 21-S , 22-C ) :   1.2246 B( 22-C , 23-C ) :   1.3306 B( 22-C , 33-C ) :   1.1173
B( 23-C , 24-C ) :   1.2062 B( 23-C , 31-C ) :   1.1199 B( 24-C , 25-C ) :   1.2191
B( 25-C , 26-C ) :   0.8980 B( 25-C , 29-C ) :   1.5037 B( 26-C , 27-O ) :   2.2191
B( 26-C , 28-O ) :   1.1528 B( 28-O , 86-H ) :   0.9504 B( 29-C , 30-C ) :   1.2376
B( 29-C , 87-H ) :   0.9886 B( 30-C , 31-C ) :   1.4685 B( 30-C , 88-H ) :   0.9915
B( 31-C , 32-O ) :   1.2786 B( 32-O , 89-H ) :   0.9479 B( 33-C , 34-S ) :   1.1479
B( 33-C , 35-C ) :   0.1266 B( 33-C , 37-C ) :   1.3775 B( 34-S , 35-C ) :   1.2018
B( 35-C , 36-C ) :   1.3832 B( 35-C , 46-C ) :   1.1054 B( 36-C , 37-C ) :   1.2257
B( 36-C , 44-C ) :   1.1647 B( 37-C , 38-C ) :   1.1602 B( 38-C , 39-C ) :   0.9273
B( 38-C , 42-C ) :   1.5417 B( 39-C , 40-O ) :   2.1674 B( 39-C , 41-O ) :   1.2362
B( 41-O , 90-H ) :   0.9429 B( 42-C , 43-C ) :   1.2030 B( 42-C , 91-H ) :   0.9864
B( 43-C , 44-C ) :   1.4383 B( 43-C , 92-H ) :   0.9894 B( 44-C , 45-O ) :   1.2529
B( 45-O , 93-H ) :   0.9465 B( 46-C , 47-S ) :   1.2070 B( 46-C , 48-C ) :   0.1179
B( 46-C , 50-C ) :   1.3705 B( 47-S , 48-C ) :   1.1388 B( 48-C , 49-C ) :   1.3257
B( 48-C , 59-C ) :   1.1810 B( 49-C , 50-C ) :   1.2702 B( 49-C , 57-C ) :   1.1764
B( 50-C , 51-C ) :   1.1787 B( 51-C , 52-C ) :   0.9287 B( 51-C , 55-C ) :   1.5142
B( 52-C , 53-O ) :   2.1323 B( 52-C , 54-O ) :   1.2610 B( 54-O , 94-H ) :   0.9425
B( 55-C , 56-C ) :   1.2136 B( 55-C , 95-H ) :   0.9874 B( 56-C , 57-C ) :   1.4373
B( 56-C , 96-H ) :   0.9858 B( 57-C , 58-O ) :   1.2476 B( 58-O , 97-H ) :   0.9508
B( 59-C , 60-C ) :   1.5950 B( 59-C , 98-H ) :   0.9327 B( 60-C , 61-C ) :   1.0883
B( 60-C , 69-C ) :   0.9371 B( 61-C , 62-C ) :   1.6377 B( 61-C , 67-C ) :   0.9888
B( 62-C , 63-C ) :   1.1445 B( 62-C , 65-C ) :   1.1433 B( 63-C , 64-N ) :   2.9670
B( 65-C , 66-N ) :   2.9947 B( 67-C , 68-C ) :   1.2105 B( 67-C , 74-C ) :   1.4496
B( 68-C , 69-C ) :   0.9446 B( 68-C , 71-C ) :   1.4772 B( 69-C , 70-O ) :   2.2084
B( 71-C , 72-C ) :   1.1741 B( 71-C , 99-H ) :   1.0164 B( 72-C , 73-C ) :   1.2567
B( 72-C , 78-C ) :   1.2474 B( 73-C , 74-C ) :   1.2041 B( 73-C , 75-C ) :   1.2399
B( 74-C ,100-H ) :   0.9906 B( 75-C , 76-C ) :   1.4888 B( 75-C ,101-H ) :   0.9974
B( 76-C , 77-C ) :   1.2606 B( 76-C ,102-H ) :   0.9889 B( 77-C , 78-C ) :   1.4868
B( 77-C ,103-H ) :   0.9889 B( 78-C ,104-H ) :   0.9972

-----------------------------------------------------------------------------
         ABSORPTION SPECTRUM VIA TRANSITION ELECTRIC DIPOLE MOMENTS
-----------------------------------------------------------------------------
State   Energy  Wavelength   fosc         T2         TX        TY        TZ
        (cm-1)    (nm)                  (au**2)     (au)      (au)      (au)
-----------------------------------------------------------------------------
   0   12374.4    808.1   0.608091421  16.17784   0.89057   1.09109   3.76753
   1   16399.4    609.8   0.689725920  13.84599  -3.03225  -1.33563   1.69339
   2   18426.0    542.7   0.249046665   4.44965  -1.00509  -0.42730   1.80468
   3   22078.1    452.9   0.131522474   1.96116   0.18160  -0.96527  -0.99822
   4   22706.5    440.4   0.084721712   1.22835   0.64660   0.49639  -0.75091
   5   23016.9    434.5   0.006975688   0.09977   0.27157   0.04389  -0.15524
   6   24004.4    416.6   0.032557327   0.44651   0.54175  -0.29983   0.25124
   7   24861.1    402.2   0.036212966   0.47953   0.01287   0.01822  -0.69212
   8   24952.2    400.8   0.034206807   0.45131   0.07099   0.23788   0.62425
   9   25553.7    391.3   0.092435675   1.19086  -0.94634   0.41068  -0.35588
  10   26363.8    379.3   0.010876725   0.13582  -0.31134   0.19718   0.00285
  11   26544.4    376.7   0.016674125   0.20680  -0.36602  -0.26016   0.07171
  12   27599.5    362.3   0.002833167   0.03379   0.14957  -0.10602   0.01354
  13   27903.1    358.4   0.103164122   1.21717   0.14304   0.05876   1.09236
  14   28106.4    355.8   0.068554147   0.80298   0.82306   0.31256  -0.16688
  15   28329.8    353.0   0.014444099   0.16785  -0.34769   0.21598  -0.01774
  16   28682.8    348.6   0.105254913   1.20808   0.74468  -0.32807  -0.73885
  17   29103.7    343.6   0.054861617   0.62058  -0.65567  -0.42596  -0.09607
  18   29382.0    340.3   0.067264098   0.75366   0.64529  -0.05349   0.57827
  19   29983.1    333.5   0.209021894   2.29504  -1.38658   0.45137   0.41073
  20   30356.1    329.4   0.078970072   0.85643   0.82307   0.20273  -0.37132
  21   31173.3    320.8   0.041703933   0.44042   0.64904  -0.08398  -0.11008
  22   31362.5    318.9   0.183198180   1.92303   1.16348  -0.49698  -0.56775
  23   31935.7    313.1   0.044627414   0.46005  -0.08795   0.66290  -0.11345
  24   32121.7    311.3   0.058582751   0.60041  -0.66849   0.14485  -0.36408
  25   32206.9    310.5   0.115518642   1.18081  -0.92474  -0.01540   0.57046
  26   32570.1    307.0   0.136203274   1.37672  -0.52726  -0.95450  -0.43317
  27   32642.4    306.4   0.509453134   5.13804  -2.03278   0.87264   0.49435
  28   33077.8    302.3   0.189493988   1.88597   1.17314   0.11215   0.70507
  29   33449.3    299.0   0.086960875   0.85588   0.75393  -0.53609  -0.00853
  30   33745.1    296.3   0.006718470   0.06554   0.15911   0.06804  -0.18867
  31   34051.1    293.7   0.100418817   0.97087   0.89405  -0.40680  -0.07782
  32   34412.5    290.6   0.038035690   0.36387   0.24902  -0.00287   0.54941
  33   34504.0    289.8   0.081358396   0.77626  -0.85525   0.20653   0.04637
  34   34664.3    288.5   0.030824724   0.29275   0.49513   0.11954  -0.18249
  35   34766.9    287.6   0.005356694   0.05072  -0.20050   0.00222   0.10255
  36   35147.8    284.5   0.050096206   0.46923   0.58292   0.32955   0.14430
  37   35342.1    282.9   0.039445785   0.36744  -0.22555   0.05969  -0.55947
  38   35612.4    280.8   0.063123709   0.58353  -0.40732  -0.25776  -0.59261
  39   35731.7    279.9   0.025911248   0.23873   0.25165  -0.22966   0.35023
  40   35835.8    279.1   0.038715413   0.35567   0.29614  -0.27099   0.44105
  41   36021.6    277.6   0.131334997   1.20031  -0.84432   0.67712  -0.17013
  42   36291.3    275.5   0.031372135   0.28459  -0.50986  -0.15552   0.02108
  43   36669.2    272.7   0.166772877   1.49727  -0.18933   0.95436  -0.74203
  44   36715.8    272.4   0.086540335   0.77596  -0.69745  -0.11458   0.52574
  45   37118.8    269.4   0.055279677   0.49028   0.46976  -0.48735  -0.17916
  46   37396.2    267.4   0.018369857   0.16172   0.19164  -0.29290  -0.19800
  47   37416.8    267.3   0.037795041   0.33254   0.42501  -0.36352   0.14055
  48   37573.7    266.1   0.002507920   0.02197  -0.04017  -0.14225   0.01118
  49   37766.4    264.8   0.004902777   0.04274   0.12969   0.06100  -0.14899
  50   37941.7    263.6   0.127917315   1.10991   0.81131  -0.65941  -0.12984
  51   38067.7    262.7   0.038873763   0.33618  -0.10451  -0.56948  -0.03095
  52   38192.7    261.8   0.010489681   0.09042   0.28143  -0.10379  -0.02104
  53   38347.0    260.8   0.077865504   0.66848  -0.33043   0.68085  -0.30942
  54   38588.0    259.1   0.048085096   0.41024   0.30903  -0.28939   0.48061
  55   38754.8    258.0   0.109598435   0.93101  -0.07553   0.48212   0.83239
  56   38933.1    256.9   0.051156556   0.43257  -0.30654  -0.46193   0.35387
  57   39377.6    254.0   0.061190044   0.51157  -0.04739   0.32690  -0.63440
  58   39810.1    251.2   0.019250280   0.15919   0.18059  -0.26374   0.23879
  59   39979.6    250.1   0.031208655   0.25699   0.27308  -0.36703  -0.21841
  60   40078.8    249.5   0.039810317   0.32701   0.46266   0.27580  -0.19206
  61   40283.5    248.2   0.165887523   1.35569  -0.08016  -0.45684   1.06797

FINAL SINGLE POINT ENERGY     -4576.628891947244

DIPOLE MOMENT
-------------
                                X             Y             Z
Electronic contribution:     22.24623     -13.17165      -8.08785
Nuclear contribution   :    -23.21292      19.22918      11.47032
                        -----------------------------------------
Total Dipole Moment    :     -0.96669       6.05753       3.38247
                        -----------------------------------------
Magnitude (a.u.)       :      7.00494
Magnitude (Debye)      :     17.80515

Rotational constants in cm-1:     0.001005     0.000445     0.000347
Rotational constants in MHz :    30.140596    13.354326    10.417186

                             ****ORCA TERMINATED NORMALLY****
TOTAL RUN TIME: 0 days 0 hours 14 minutes 18 seconds 614 msec
