                         Program Version 4.2.0 -  RELEASE  -
|  1> # ORCA input file
|  2> # SCF done       -207.764058927654          0.000661642205
|  3> ! CAM-B3LYP def2-SVP def2/J RIJCOSX Grid4 TightSCF
|  4> %maxcore 5000
|  5> %tddft
|  6>     Mode sTDDFT
|  7>     Ethresh 5.0
|  8>     maxcore 5000
|  9> end
| 10>
| 11> %pal
| 12>   nprocs 6
| 13>   end
| 14> * xyz 0 1
| 15>    C       -1.01383         2.90382         2.20940
| 16>    C       -2.03767         3.54181         1.55732
| 17>    C       -2.73479         2.98986         0.46575
| 18>    N       -3.31854         2.58948        -0.43844
| 19>    C       -2.56375         4.77898         1.98140
| 20>    N       -3.04723         5.75939         2.33236
| 21>    C       -0.64030         1.50534         2.02787
| 22>    C        0.02951         1.06368         3.20655
| 23>    C        0.46143        -0.22360         3.34349
| 24>    C        0.25257        -1.13726         2.28504
| 25>    C       -0.39977        -0.69582         1.09785
| 26>    C       -0.84696         0.64141         0.98772
| 27>    C       -0.59211        -1.61514         0.04694
| 28>    C       -0.16493        -2.91000         0.16174
| 29>    C        0.47519        -3.34454         1.33167
| 30>    C        0.67887        -2.47722         2.37055
| 31>    C        0.16326         2.19510         4.14430
| 32>    O        0.62650         2.18830         5.26243
| 33>    C       -0.33074         3.38082         3.39096
| 34>    C        0.01308         4.63060         3.81222
| 35>    C        0.08205         5.83860         3.08618
| 36>    C        0.28063         7.09939         3.63052
| 37>    C        0.41423         8.09953         2.67005
| 38>    C        0.33651         7.60572         1.36647
| 39>    S        0.10604         5.90280         1.33869
| 40>    C        0.41181         8.51244         0.28791
| 41>    C        0.71375         9.83992         0.54345
| 42>    C        1.05885        10.26826         1.93897
| 43>    O        0.55348         9.41168         2.96047
| 44>    C        0.71178        10.62382        -0.61055
| 45>    C        0.40446         9.90820        -1.74992
| 46>    S        0.10670         8.22757        -1.38773
| 47>    C        0.33539        10.37892        -3.08982
| 48>    C       -0.04237         9.65816        -4.18827
| 49>    C        0.01591        10.38567        -5.40475
| 50>    C        0.47258        11.71021        -5.17371
| 51>    S        0.78232        12.02329        -3.48938
| 52>    C        0.68773        12.68128        -6.14251
| 53>    O        1.12840        13.86633        -5.63980
| 54>    C        1.31025        14.99187        -6.46065
| 55>    C        0.43923        12.30977        -7.47783
| 56>    C       -0.04561        10.99436        -7.70309
| 57>    C       -0.27434        10.02721        -6.73304
| 58>    O       -0.74162         8.85337        -7.23185
| 59>    C       -1.14267         7.80071        -6.39020
| 60>    S       -0.32286        10.66230        -9.38518
| 61>    C        0.23096        12.26609        -9.80633
| 62>    C        0.58726        13.00244        -8.70853
| 63>    C        0.28722        12.66606       -11.17287
| 64>    C        0.81777        13.82540       -11.70332
| 65>    C        0.74121        13.86644       -13.09994
| 66>    C        0.12619        12.73807       -13.64075
| 67>    S       -0.33295        11.61435       -12.41055
| 68>    C       -0.08654        12.67521       -15.03248
| 69>    C        0.47912        13.66044       -15.84332
| 70>    C        1.37788        14.69454       -15.23118
| 71>    O        1.16266        14.91361       -13.83719
| 72>    C        0.16863        13.50357       -17.18313
| 73>    C       -0.63856        12.39893       -17.43499
| 74>    S       -1.02666        11.56039       -15.93527
| 75>    C       -1.19854        11.87025       -18.60865
| 76>    C       -0.98896        12.17384       -19.93037
| 77>    C       -1.69670        11.51820       -21.01592
| 78>    C       -2.85341        10.78557       -20.92415
| 79>    C       -3.49531        10.18741       -22.02798
| 80>    N       -4.06607         9.67061       -22.88011
| 81>    C       -3.59790        10.55920       -19.74791
| 82>    N       -4.27854        10.34665       -18.84705
| 83>    C       -1.00671        11.83889       -22.26003
| 84>    C        0.03462        12.76257       -21.96695
| 85>    C        0.04987        13.04710       -20.52034
| 86>    O        0.79182        13.83394       -19.96453
| 87>    C        0.85957        13.25332       -22.93680
| 88>    C        0.68174        12.82676       -24.27227
| 89>    C       -0.35520        11.89802       -24.57358
| 90>    C       -1.19789        11.41218       -23.54691
| 91>    C       -0.52092        11.47515       -25.90789
| 92>    C        0.29778        11.94518       -26.89852
| 93>    C        1.31923        12.85903       -26.60053
| 94>    C        1.50641        13.29105       -25.31546
| 95>    H        0.95808        -0.54331         4.24751
| 96>    H       -1.33196         0.95495         0.07626
| 97>    H       -1.08874        -1.27641        -0.85046
| 98>    H       -0.31866        -3.60698        -0.64853
| 99>    H        0.80630        -4.36963         1.40570
|100>    H        1.17141        -2.80640         3.27385
|101>    H        0.38214         4.68552         4.83220
|102>    H        0.29926         7.28558         4.68813
|103>    H        0.64653        11.25782         2.15607
|104>    H        2.15704        10.32315         2.04145
|105>    H        0.92681        11.67687        -0.63259
|106>    H       -0.33946         8.63121        -4.09082
|107>    H        1.55966        15.80421        -5.77845
|108>    H        0.39571        15.24680        -7.00343
|109>    H        2.13893        14.84810        -7.16048
|110>    H       -1.89288         8.12748        -5.66512
|111>    H       -0.28878         7.35148        -5.87461
|112>    H       -1.58573         7.05922        -7.05435
|113>    H        0.94524        14.00792        -8.80942
|114>    H        1.25444        14.61265       -11.11916
|115>    H        1.23434        15.66807       -15.70747
|116>    H        2.42938        14.39277       -15.37468
|117>    H        0.51652        14.14795       -17.96911
|118>    H       -1.89248        11.05969       -18.41674
|119>    H        1.64163        13.95541       -22.68795
|120>    H       -1.96959        10.70545       -23.80709
|121>    H       -1.30959        10.77195       -26.13222
|122>    H        0.16275        11.61480       -27.91760
|123>    H        1.95723        13.21888       -27.39402
|124>    H        2.29148        13.99487       -25.07994
|125> *
|126>
|127>                          ****END OF INPUT****

CARTESIAN COORDINATES (ANGSTROEM)
---------------------------------
  C     -1.013830    2.903820    2.209400
  C     -2.037670    3.541810    1.557320
  C     -2.734790    2.989860    0.465750
  N     -3.318540    2.589480   -0.438440
  C     -2.563750    4.778980    1.981400
  N     -3.047230    5.759390    2.332360
  C     -0.640300    1.505340    2.027870
  C      0.029510    1.063680    3.206550
  C      0.461430   -0.223600    3.343490
  C      0.252570   -1.137260    2.285040
  C     -0.399770   -0.695820    1.097850
  C     -0.846960    0.641410    0.987720
  C     -0.592110   -1.615140    0.046940
  C     -0.164930   -2.910000    0.161740
  C      0.475190   -3.344540    1.331670
  C      0.678870   -2.477220    2.370550
  C      0.163260    2.195100    4.144300
  O      0.626500    2.188300    5.262430
  C     -0.330740    3.380820    3.390960
  C      0.013080    4.630600    3.812220
  C      0.082050    5.838600    3.086180
  C      0.280630    7.099390    3.630520
  C      0.414230    8.099530    2.670050
  C      0.336510    7.605720    1.366470
  S      0.106040    5.902800    1.338690
  C      0.411810    8.512440    0.287910
  C      0.713750    9.839920    0.543450
  C      1.058850   10.268260    1.938970
  O      0.553480    9.411680    2.960470
  C      0.711780   10.623820   -0.610550
  C      0.404460    9.908200   -1.749920
  S      0.106700    8.227570   -1.387730
  C      0.335390   10.378920   -3.089820
  C     -0.042370    9.658160   -4.188270
  C      0.015910   10.385670   -5.404750
  C      0.472580   11.710210   -5.173710
  S      0.782320   12.023290   -3.489380
  C      0.687730   12.681280   -6.142510
  O      1.128400   13.866330   -5.639800
  C      1.310250   14.991870   -6.460650
  C      0.439230   12.309770   -7.477830
  C     -0.045610   10.994360   -7.703090
  C     -0.274340   10.027210   -6.733040
  O     -0.741620    8.853370   -7.231850
  C     -1.142670    7.800710   -6.390200
  S     -0.322860   10.662300   -9.385180
  C      0.230960   12.266090   -9.806330
  C      0.587260   13.002440   -8.708530
  C      0.287220   12.666060  -11.172870
  C      0.817770   13.825400  -11.703320
  C      0.741210   13.866440  -13.099940
  C      0.126190   12.738070  -13.640750
  S     -0.332950   11.614350  -12.410550
  C     -0.086540   12.675210  -15.032480
  C      0.479120   13.660440  -15.843320
  C      1.377880   14.694540  -15.231180
  O      1.162660   14.913610  -13.837190
  C      0.168630   13.503570  -17.183130
  C     -0.638560   12.398930  -17.434990
  S     -1.026660   11.560390  -15.935270
  C     -1.198540   11.870250  -18.608650
  C     -0.988960   12.173840  -19.930370
  C     -1.696700   11.518200  -21.015920
  C     -2.853410   10.785570  -20.924150
  C     -3.495310   10.187410  -22.027980
  N     -4.066070    9.670610  -22.880110
  C     -3.597900   10.559200  -19.747910
  N     -4.278540   10.346650  -18.847050
  C     -1.006710   11.838890  -22.260030
  C      0.034620   12.762570  -21.966950
  C      0.049870   13.047100  -20.520340
  O      0.791820   13.833940  -19.964530
  C      0.859570   13.253320  -22.936800
  C      0.681740   12.826760  -24.272270
  C     -0.355200   11.898020  -24.573580
  C     -1.197890   11.412180  -23.546910
  C     -0.520920   11.475150  -25.907890
  C      0.297780   11.945180  -26.898520
  C      1.319230   12.859030  -26.600530
  C      1.506410   13.291050  -25.315460
  H      0.958080   -0.543310    4.247510
  H     -1.331960    0.954950    0.076260
  H     -1.088740   -1.276410   -0.850460
  H     -0.318660   -3.606980   -0.648530
  H      0.806300   -4.369630    1.405700
  H      1.171410   -2.806400    3.273850
  H      0.382140    4.685520    4.832200
  H      0.299260    7.285580    4.688130
  H      0.646530   11.257820    2.156070
  H      2.157040   10.323150    2.041450
  H      0.926810   11.676870   -0.632590
  H     -0.339460    8.631210   -4.090820
  H      1.559660   15.804210   -5.778450
  H      0.395710   15.246800   -7.003430
  H      2.138930   14.848100   -7.160480
  H     -1.892880    8.127480   -5.665120
  H     -0.288780    7.351480   -5.874610
  H     -1.585730    7.059220   -7.054350
  H      0.945240   14.007920   -8.809420
  H      1.254440   14.612650  -11.119160
  H      1.234340   15.668070  -15.707470
  H      2.429380   14.392770  -15.374680
  H      0.516520   14.147950  -17.969110
  H     -1.892480   11.059690  -18.416740
  H      1.641630   13.955410  -22.687950
  H     -1.969590   10.705450  -23.807090
  H     -1.309590   10.771950  -26.132220
  H      0.162750   11.614800  -27.917600
  H      1.957230   13.218880  -27.394020
  H      2.291480   13.994870  -25.079940

 Total Charge           Charge          ....    0
 Multiplicity           Mult            ....    1
 Number of Electrons    NEL             ....  586
 Basis Dimension        Dim             .... 1294

ORBITAL ENERGIES
----------------

  NO   OCC          E(Eh)            E(eV)
   0   2.0000     -88.973151     -2421.0825
   1   2.0000     -88.972589     -2421.0672
   2   2.0000     -88.971642     -2421.0415
   3   2.0000     -88.971534     -2421.0385
   4   2.0000     -88.952871     -2420.5307
   5   2.0000     -88.952821     -2420.5293
   6   2.0000     -19.264488      -524.2134
   7   2.0000     -19.259141      -524.0679
   8   2.0000     -19.255896      -523.9796
   9   2.0000     -19.254039      -523.9290
  10   2.0000     -19.209910      -522.7282
  11   2.0000     -19.206958      -522.6479
  12   2.0000     -14.410480      -392.1291
  13   2.0000     -14.406545      -392.0220
  14   2.0000     -14.406114      -392.0103
  15   2.0000     -14.404137      -391.9565
  16   2.0000     -10.361259      -281.9442
  17   2.0000     -10.359376      -281.8930
  18   2.0000     -10.352970      -281.7186
  19   2.0000     -10.346932      -281.5543
  20   2.0000     -10.346156      -281.5332
  21   2.0000     -10.346056      -281.5305
  22   2.0000     -10.342740      -281.4403
  23   2.0000     -10.341638      -281.4103
  24   2.0000     -10.336300      -281.2650
  25   2.0000     -10.335205      -281.2352
  26   2.0000     -10.333207      -281.1809
  27   2.0000     -10.330821      -281.1159
  28   2.0000     -10.330506      -281.1074
  29   2.0000     -10.329677      -281.0848
  30   2.0000     -10.329512      -281.0803
  31   2.0000     -10.326907      -281.0094
  32   2.0000     -10.321074      -280.8507
  33   2.0000     -10.320063      -280.8232
  34   2.0000     -10.318792      -280.7886
  35   2.0000     -10.317502      -280.7535
  36   2.0000     -10.316789      -280.7341
  37   2.0000     -10.316703      -280.7318
  38   2.0000     -10.314994      -280.6852
  39   2.0000     -10.314020      -280.6588
  40   2.0000     -10.313267      -280.6383
  41   2.0000     -10.311752      -280.5970
  42   2.0000     -10.309834      -280.5449
  43   2.0000     -10.309562      -280.5375
  44   2.0000     -10.308665      -280.5130
  45   2.0000     -10.307856      -280.4910
  46   2.0000     -10.300216      -280.2831
  47   2.0000     -10.300089      -280.2797
  48   2.0000     -10.298366      -280.2328
  49   2.0000     -10.296208      -280.1741
  50   2.0000     -10.294807      -280.1359
  51   2.0000     -10.294334      -280.1231
  52   2.0000     -10.294248      -280.1207
  53   2.0000     -10.293861      -280.1102
  54   2.0000     -10.293483      -280.0999
  55   2.0000     -10.293059      -280.0884
  56   2.0000     -10.292109      -280.0625
  57   2.0000     -10.291863      -280.0558
  58   2.0000     -10.291367      -280.0423
  59   2.0000     -10.290938      -280.0306
  60   2.0000     -10.290507      -280.0189
  61   2.0000     -10.290273      -280.0126
  62   2.0000     -10.290147      -280.0091
  63   2.0000     -10.289259      -279.9850
  64   2.0000     -10.288985      -279.9775
  65   2.0000     -10.288735      -279.9707
  66   2.0000     -10.288316      -279.9593
  67   2.0000     -10.287582      -279.9393
  68   2.0000     -10.287474      -279.9364
  69   2.0000     -10.284503      -279.8556
  70   2.0000     -10.284396      -279.8526
  71   2.0000     -10.282659      -279.8054
  72   2.0000     -10.282312      -279.7959
  73   2.0000     -10.282047      -279.7887
  74   2.0000     -10.281595      -279.7764
  75   2.0000     -10.280940      -279.7586
  76   2.0000     -10.280779      -279.7542
  77   2.0000     -10.280408      -279.7441
  78   2.0000     -10.279974      -279.7323
  79   2.0000     -10.279408      -279.7169
  80   2.0000      -8.068381      -219.5518
  81   2.0000      -8.067359      -219.5240
  82   2.0000      -8.067150      -219.5183
  83   2.0000      -8.067081      -219.5164
  84   2.0000      -8.048153      -219.0014
  85   2.0000      -8.047839      -218.9928
  86   2.0000      -6.037725      -164.2949
  87   2.0000      -6.036760      -164.2686
  88   2.0000      -6.036587      -164.2639
  89   2.0000      -6.036307      -164.2563
  90   2.0000      -6.033693      -164.1851
  91   2.0000      -6.032723      -164.1587
  92   2.0000      -6.032496      -164.1526
  93   2.0000      -6.032269      -164.1464
  94   2.0000      -6.030314      -164.0932
  95   2.0000      -6.029222      -164.0635
  96   2.0000      -6.029215      -164.0633
  97   2.0000      -6.028822      -164.0526
  98   2.0000      -6.017870      -163.7546
  99   2.0000      -6.017584      -163.7468
 100   2.0000      -6.013694      -163.6409
 101   2.0000      -6.013464      -163.6347
 102   2.0000      -6.009415      -163.5245
 103   2.0000      -6.009039      -163.5143
 104   2.0000      -1.171242       -31.8711
 105   2.0000      -1.166643       -31.7460
 106   2.0000      -1.159512       -31.5519
 107   2.0000      -1.157606       -31.5001
 108   2.0000      -1.123984       -30.5852
 109   2.0000      -1.122186       -30.5362
 110   2.0000      -1.014248       -27.5991
 111   2.0000      -1.011164       -27.5152
 112   2.0000      -1.009850       -27.4794
 113   2.0000      -1.008422       -27.4406
 114   2.0000      -1.001173       -27.2433
 115   2.0000      -0.995897       -27.0997
 116   2.0000      -0.992571       -27.0092
 117   2.0000      -0.990329       -26.9482
 118   2.0000      -0.988749       -26.9052
 119   2.0000      -0.985431       -26.8149
 120   2.0000      -0.983776       -26.7699
 121   2.0000      -0.974503       -26.5176
 122   2.0000      -0.966112       -26.2892
 123   2.0000      -0.963826       -26.2270
 124   2.0000      -0.921984       -25.0885
 125   2.0000      -0.919963       -25.0335
 126   2.0000      -0.917430       -24.9646
 127   2.0000      -0.904123       -24.6024
 128   2.0000      -0.901698       -24.5365
 129   2.0000      -0.888425       -24.1753
 130   2.0000      -0.882035       -24.0014
 131   2.0000      -0.881047       -23.9745
 132   2.0000      -0.878934       -23.9170
 133   2.0000      -0.875980       -23.8366
 134   2.0000      -0.873714       -23.7750
 135   2.0000      -0.872054       -23.7298
 136   2.0000      -0.858627       -23.3644
 137   2.0000      -0.855661       -23.2837
 138   2.0000      -0.851929       -23.1822
 139   2.0000      -0.845385       -23.0041
 140   2.0000      -0.844326       -22.9753
 141   2.0000      -0.828712       -22.5504
 142   2.0000      -0.823756       -22.4155
 143   2.0000      -0.821712       -22.3599
 144   2.0000      -0.820613       -22.3300
 145   2.0000      -0.814382       -22.1605
 146   2.0000      -0.806131       -21.9360
 147   2.0000      -0.798656       -21.7325
 148   2.0000      -0.793271       -21.5860
 149   2.0000      -0.790020       -21.4975
 150   2.0000      -0.765980       -20.8434
 151   2.0000      -0.755499       -20.5582
 152   2.0000      -0.753624       -20.5072
 153   2.0000      -0.748970       -20.3805
 154   2.0000      -0.745325       -20.2813
 155   2.0000      -0.733725       -19.9657
 156   2.0000      -0.721637       -19.6367
 157   2.0000      -0.704303       -19.1650
 158   2.0000      -0.700346       -19.0574
 159   2.0000      -0.697689       -18.9851
 160   2.0000      -0.696501       -18.9528
 161   2.0000      -0.693229       -18.8637
 162   2.0000      -0.689586       -18.7646
 163   2.0000      -0.686534       -18.6816
 164   2.0000      -0.680119       -18.5070
 165   2.0000      -0.674238       -18.3469
 166   2.0000      -0.671522       -18.2730
 167   2.0000      -0.668479       -18.1902
 168   2.0000      -0.667895       -18.1743
 169   2.0000      -0.659831       -17.9549
 170   2.0000      -0.653346       -17.7785
 171   2.0000      -0.642933       -17.4951
 172   2.0000      -0.641987       -17.4693
 173   2.0000      -0.639533       -17.4026
 174   2.0000      -0.626700       -17.0534
 175   2.0000      -0.625723       -17.0268
 176   2.0000      -0.616015       -16.7626
 177   2.0000      -0.613416       -16.6919
 178   2.0000      -0.609441       -16.5837
 179   2.0000      -0.606760       -16.5108
 180   2.0000      -0.602818       -16.4035
 181   2.0000      -0.599566       -16.3150
 182   2.0000      -0.597969       -16.2716
 183   2.0000      -0.592776       -16.1303
 184   2.0000      -0.589332       -16.0365
 185   2.0000      -0.586752       -15.9663
 186   2.0000      -0.582952       -15.8629
 187   2.0000      -0.580777       -15.8037
 188   2.0000      -0.572287       -15.5727
 189   2.0000      -0.571431       -15.5494
 190   2.0000      -0.567973       -15.4553
 191   2.0000      -0.560942       -15.2640
 192   2.0000      -0.560538       -15.2530
 193   2.0000      -0.558268       -15.1912
 194   2.0000      -0.555412       -15.1135
 195   2.0000      -0.550824       -14.9887
 196   2.0000      -0.549903       -14.9636
 197   2.0000      -0.545603       -14.8466
 198   2.0000      -0.542101       -14.7513
 199   2.0000      -0.539987       -14.6938
 200   2.0000      -0.538086       -14.6421
 201   2.0000      -0.536722       -14.6050
 202   2.0000      -0.536073       -14.5873
 203   2.0000      -0.532542       -14.4912
 204   2.0000      -0.529030       -14.3956
 205   2.0000      -0.528771       -14.3886
 206   2.0000      -0.524282       -14.2664
 207   2.0000      -0.522585       -14.2203
 208   2.0000      -0.516390       -14.0517
 209   2.0000      -0.513240       -13.9660
 210   2.0000      -0.512368       -13.9422
 211   2.0000      -0.511660       -13.9230
 212   2.0000      -0.509776       -13.8717
 213   2.0000      -0.508138       -13.8271
 214   2.0000      -0.507425       -13.8077
 215   2.0000      -0.505449       -13.7540
 216   2.0000      -0.503841       -13.7102
 217   2.0000      -0.503316       -13.6959
 218   2.0000      -0.500004       -13.6058
 219   2.0000      -0.498924       -13.5764
 220   2.0000      -0.493692       -13.4340
 221   2.0000      -0.492664       -13.4061
 222   2.0000      -0.490296       -13.3416
 223   2.0000      -0.489557       -13.3215
 224   2.0000      -0.488991       -13.3061
 225   2.0000      -0.487036       -13.2529
 226   2.0000      -0.484954       -13.1963
 227   2.0000      -0.481744       -13.1089
 228   2.0000      -0.480219       -13.0674
 229   2.0000      -0.479085       -13.0366
 230   2.0000      -0.477655       -12.9976
 231   2.0000      -0.471435       -12.8284
 232   2.0000      -0.469023       -12.7628
 233   2.0000      -0.468911       -12.7597
 234   2.0000      -0.463876       -12.6227
 235   2.0000      -0.460143       -12.5211
 236   2.0000      -0.459956       -12.5160
 237   2.0000      -0.457891       -12.4599
 238   2.0000      -0.452286       -12.3073
 239   2.0000      -0.448459       -12.2032
 240   2.0000      -0.445426       -12.1207
 241   2.0000      -0.442744       -12.0477
 242   2.0000      -0.442661       -12.0454
 243   2.0000      -0.440662       -11.9910
 244   2.0000      -0.438643       -11.9361
 245   2.0000      -0.437979       -11.9180
 246   2.0000      -0.436889       -11.8884
 247   2.0000      -0.435472       -11.8498
 248   2.0000      -0.433992       -11.8095
 249   2.0000      -0.433612       -11.7992
 250   2.0000      -0.432603       -11.7717
 251   2.0000      -0.428052       -11.6479
 252   2.0000      -0.427362       -11.6291
 253   2.0000      -0.425852       -11.5880
 254   2.0000      -0.425058       -11.5664
 255   2.0000      -0.424865       -11.5612
 256   2.0000      -0.424060       -11.5393
 257   2.0000      -0.420813       -11.4509
 258   2.0000      -0.420200       -11.4342
 259   2.0000      -0.416274       -11.3274
 260   2.0000      -0.412364       -11.2210
 261   2.0000      -0.410691       -11.1755
 262   2.0000      -0.409231       -11.1357
 263   2.0000      -0.407589       -11.0911
 264   2.0000      -0.405394       -11.0313
 265   2.0000      -0.403744       -10.9864
 266   2.0000      -0.400606       -10.9010
 267   2.0000      -0.398638       -10.8475
 268   2.0000      -0.396324       -10.7845
 269   2.0000      -0.392909       -10.6916
 270   2.0000      -0.380885       -10.3644
 271   2.0000      -0.379518       -10.3272
 272   2.0000      -0.369233       -10.0473
 273   2.0000      -0.367439        -9.9985
 274   2.0000      -0.355623        -9.6770
 275   2.0000      -0.344856        -9.3840
 276   2.0000      -0.340322        -9.2606
 277   2.0000      -0.337921        -9.1953
 278   2.0000      -0.336226        -9.1492
 279   2.0000      -0.333754        -9.0819
 280   2.0000      -0.330810        -9.0018
 281   2.0000      -0.329359        -8.9623
 282   2.0000      -0.316058        -8.6004
 283   2.0000      -0.313612        -8.5338
 284   2.0000      -0.312880        -8.5139
 285   2.0000      -0.309350        -8.4178
 286   2.0000      -0.306721        -8.3463
 287   2.0000      -0.293980        -7.9996
 288   2.0000      -0.289257        -7.8711
 289   2.0000      -0.285244        -7.7619
 290   2.0000      -0.251415        -6.8413
 291   2.0000      -0.249312        -6.7841
 292   2.0000      -0.230440        -6.2706
 293   0.0000      -0.095330        -2.5941
 294   0.0000      -0.089638        -2.4392
 295   0.0000      -0.056179        -1.5287
 296   0.0000      -0.051475        -1.4007
 297   0.0000      -0.044494        -1.2108

MULLIKEN ATOMIC CHARGES
-----------------------
   0 C :    0.248431
   1 C :   -0.325852
   2 C :   -0.172723
   3 N :    0.147116
   4 C :   -0.215144
   5 N :    0.177794
   6 C :    0.036012
   7 C :    0.014071
   8 C :   -0.085627
   9 C :    0.095462
  10 C :    0.095836
  11 C :   -0.082595
  12 C :   -0.018288
  13 C :    0.034110
  14 C :    0.035782
  15 C :   -0.015479
  16 C :    0.140082
  17 O :   -0.146759
  18 C :   -0.142485
  19 C :    0.053670
  20 C :   -0.067850
  21 C :   -0.011235
  22 C :    0.216193
  23 C :   -0.148776
  24 S :    0.169119
  25 C :   -0.056505
  26 C :   -0.120217
  27 C :    0.357567
  28 O :   -0.302159
  29 C :   -0.051098
  30 C :   -0.040387
  31 S :    0.151450
  32 C :    0.011081
  33 C :   -0.132418
  34 C :    0.073256
  35 C :   -0.143493
  36 S :    0.140175
  37 C :    0.138673
  38 O :   -0.312874
  39 C :    0.184950
  40 C :    0.070668
  41 C :   -0.146386
  42 C :    0.142920
  43 O :   -0.311663
  44 C :    0.181158
  45 S :    0.147289
  46 C :    0.001498
  47 C :   -0.111501
  48 C :   -0.019071
  49 C :   -0.066266
  50 C :    0.216346
  51 C :   -0.179545
  52 S :    0.167579
  53 C :   -0.030828
  54 C :   -0.146666
  55 C :    0.353287
  56 O :   -0.298437
  57 C :    0.009276
  58 C :   -0.109771
  59 S :    0.170781
  60 C :    0.046154
  61 C :   -0.100540
  62 C :    0.308373
  63 C :   -0.359863
  64 C :   -0.182765
  65 N :    0.142149
  66 C :   -0.202998
  67 N :    0.152519
  68 C :    0.047528
  69 C :    0.002372
  70 C :    0.156734
  71 O :   -0.168518
  72 C :   -0.088670
  73 C :    0.100361
  74 C :    0.096295
  75 C :   -0.085329
  76 C :   -0.020524
  77 C :    0.036947
  78 C :    0.035549
  79 C :   -0.019650
  80 H :   -0.013415
  81 H :   -0.007753
  82 H :   -0.013321
  83 H :   -0.005739
  84 H :   -0.006958
  85 H :   -0.018858
  86 H :    0.023817
  87 H :   -0.002512
  88 H :    0.028214
  89 H :    0.029763
  90 H :   -0.010763
  91 H :   -0.027812
  92 H :    0.037745
  93 H :    0.031540
  94 H :    0.030641
  95 H :    0.034752
  96 H :    0.031991
  97 H :    0.041245
  98 H :   -0.040583
  99 H :   -0.021048
 100 H :    0.031685
 101 H :    0.033525
 102 H :    0.008784
 103 H :    0.012008
 104 H :   -0.017795
 105 H :   -0.008995
 106 H :   -0.009997
 107 H :   -0.007683
 108 H :   -0.007685
 109 H :   -0.020455
Sum of atomic charges:   -0.0000000

LOEWDIN ATOMIC CHARGES
----------------------
   0 C :    0.060805
   1 C :   -0.147308
   2 C :   -0.018858
   3 N :   -0.057344
   4 C :   -0.038877
   5 N :   -0.048715
   6 C :   -0.021531
   7 C :   -0.055485
   8 C :    0.030425
   9 C :   -0.009775
  10 C :   -0.005929
  11 C :    0.013140
  12 C :   -0.007494
  13 C :   -0.014655
  14 C :   -0.014807
  15 C :   -0.009798
  16 C :    0.082497
  17 O :   -0.148763
  18 C :   -0.103530
  19 C :    0.051892
  20 C :   -0.175007
  21 C :   -0.024662
  22 C :    0.023688
  23 C :   -0.209134
  24 S :    0.475093
  25 C :   -0.195038
  26 C :   -0.067258
  27 C :    0.108247
  28 O :   -0.098057
  29 C :   -0.056864
  30 C :   -0.166770
  31 S :    0.448984
  32 C :   -0.171322
  33 C :   -0.067581
  34 C :   -0.070869
  35 C :   -0.170950
  36 S :    0.415496
  37 C :    0.022588
  38 O :   -0.108045
  39 C :    0.078990
  40 C :   -0.072779
  41 C :   -0.170881
  42 C :    0.022687
  43 O :   -0.106726
  44 C :    0.080188
  45 S :    0.415349
  46 C :   -0.177538
  47 C :   -0.053827
  48 C :   -0.157128
  49 C :   -0.072343
  50 C :    0.045724
  51 C :   -0.257135
  52 S :    0.445357
  53 C :   -0.156389
  54 C :   -0.091393
  55 C :    0.109018
  56 O :   -0.092594
  57 C :    0.000597
  58 C :   -0.182764
  59 S :    0.461172
  60 C :    0.045274
  61 C :   -0.107764
  62 C :    0.077351
  63 C :   -0.150229
  64 C :   -0.017351
  65 N :   -0.062118
  66 C :   -0.026428
  67 N :   -0.058212
  68 C :   -0.025048
  69 C :   -0.053240
  70 C :    0.086678
  71 O :   -0.155433
  72 C :    0.027377
  73 C :   -0.009383
  74 C :   -0.007279
  75 C :    0.017390
  76 C :   -0.006028
  77 C :   -0.015831
  78 C :   -0.014980
  79 C :   -0.011371
  80 H :    0.038697
  81 H :    0.037792
  82 H :    0.033370
  83 H :    0.032517
  84 H :    0.032059
  85 H :    0.031282
  86 H :    0.051817
  87 H :    0.042681
  88 H :    0.035376
  89 H :    0.025081
  90 H :    0.030143
  91 H :    0.020026
  92 H :    0.031386
  93 H :    0.017944
  94 H :    0.015992
  95 H :    0.019381
  96 H :    0.016664
  97 H :    0.032676
  98 H :    0.024316
  99 H :    0.034545
 100 H :    0.037044
 101 H :    0.027032
 102 H :    0.035656
 103 H :    0.043084
 104 H :    0.036797
 105 H :    0.038588
 106 H :    0.034335
 107 H :    0.032064
 108 H :    0.031687
 109 H :    0.030573

  Mayer bond orders larger than 0.100000
B(  0-C ,  1-C ) :   1.6490 B(  0-C ,  6-C ) :   1.0008 B(  0-C , 18-C ) :   1.0416
B(  1-C ,  2-C ) :   1.1389 B(  1-C ,  4-C ) :   1.1498 B(  2-C ,  3-N ) :   2.9879
B(  4-C ,  5-N ) :   3.0318 B(  6-C ,  7-C ) :   1.2166 B(  6-C , 11-C ) :   1.4634
B(  7-C ,  8-C ) :   1.4781 B(  7-C , 16-C ) :   0.9205 B(  8-C ,  9-C ) :   1.1831
B(  8-C , 80-H ) :   1.0155 B(  9-C , 10-C ) :   1.2602 B(  9-C , 15-C ) :   1.2458
B( 10-C , 11-C ) :   1.1999 B( 10-C , 12-C ) :   1.2435 B( 11-C , 81-H ) :   0.9942
B( 12-C , 13-C ) :   1.4882 B( 12-C , 82-H ) :   0.9969 B( 13-C , 14-C ) :   1.2629
B( 13-C , 83-H ) :   0.9883 B( 14-C , 15-C ) :   1.4886 B( 14-C , 84-H ) :   0.9882
B( 15-C , 85-H ) :   0.9970 B( 16-C , 17-O ) :   2.2667 B( 16-C , 18-C ) :   0.9436
B( 18-C , 19-C ) :   1.6090 B( 19-C , 20-C ) :   1.1765 B( 19-C , 86-H ) :   0.9465
B( 20-C , 21-C ) :   1.3741 B( 20-C , 24-S ) :   1.0927 B( 21-C , 22-C ) :   1.2929
B( 21-C , 87-H ) :   1.0159 B( 22-C , 23-C ) :   1.4119 B( 22-C , 28-O ) :   1.1518
B( 23-C , 24-S ) :   1.1175 B( 23-C , 25-C ) :   1.1603 B( 25-C , 26-C ) :   1.5362
B( 25-C , 31-S ) :   1.1048 B( 26-C , 27-C ) :   1.0246 B( 26-C , 29-C ) :   1.2789
B( 27-C , 28-O ) :   0.9502 B( 27-C , 88-H ) :   0.9355 B( 27-C , 89-H ) :   0.9315
B( 29-C , 30-C ) :   1.4827 B( 29-C , 90-H ) :   1.0008 B( 30-C , 31-S ) :   1.1263
B( 30-C , 32-C ) :   1.1472 B( 32-C , 33-C ) :   1.5716 B( 32-C , 36-S ) :   1.0634
B( 33-C , 34-C ) :   1.1619 B( 33-C , 91-H ) :   0.9909 B( 34-C , 35-C ) :   1.3216
B( 34-C , 42-C ) :   1.2064 B( 35-C , 36-S ) :   1.0374 B( 35-C , 37-C ) :   1.4211
B( 37-C , 38-O ) :   1.2533 B( 37-C , 40-C ) :   1.2000 B( 38-O , 39-C ) :   0.9526
B( 39-C , 92-H ) :   0.9740 B( 39-C , 93-H ) :   0.9683 B( 39-C , 94-H ) :   0.9685
B( 40-C , 41-C ) :   1.3240 B( 40-C , 47-C ) :   1.1547 B( 41-C , 42-C ) :   1.4121
B( 41-C , 45-S ) :   1.0457 B( 42-C , 43-O ) :   1.2608 B( 43-O , 44-C ) :   0.9473
B( 44-C , 95-H ) :   0.9687 B( 44-C , 96-H ) :   0.9692 B( 44-C , 97-H ) :   0.9744
B( 45-S , 46-C ) :   1.0592 B( 46-C , 47-C ) :   1.5994 B( 46-C , 48-C ) :   1.1050
B( 47-C , 98-H ) :   0.9954 B( 48-C , 49-C ) :   1.4723 B( 48-C , 51-C ) :   0.1044
B( 48-C , 52-S ) :   1.1314 B( 49-C , 50-C ) :   1.2633 B( 49-C , 99-H ) :   1.0113
B( 50-C , 51-C ) :   1.4339 B( 50-C , 56-O ) :   1.1721 B( 51-C , 52-S ) :   1.0645
B( 51-C , 53-C ) :   1.1756 B( 53-C , 54-C ) :   1.4511 B( 53-C , 59-S ) :   1.1667
B( 54-C , 55-C ) :   1.0220 B( 54-C , 57-C ) :   1.3357 B( 55-C , 56-O ) :   0.9417
B( 55-C ,100-H ) :   0.9369 B( 55-C ,101-H ) :   0.9353 B( 57-C , 58-C ) :   1.3935
B( 57-C ,102-H ) :   0.9804 B( 58-C , 59-S ) :   1.0705 B( 58-C , 60-C ) :   1.2546
B( 60-C , 61-C ) :   1.5456 B( 60-C ,103-H ) :   0.9185 B( 61-C , 62-C ) :   1.0908
B( 61-C , 70-C ) :   0.9533 B( 62-C , 63-C ) :   1.6126 B( 62-C , 68-C ) :   0.9809
B( 63-C , 64-C ) :   1.1486 B( 63-C , 66-C ) :   1.1418 B( 64-C , 65-N ) :   2.9652
B( 66-C , 67-N ) :   2.9874 B( 68-C , 69-C ) :   1.2177 B( 68-C , 75-C ) :   1.4542
B( 69-C , 70-C ) :   0.9528 B( 69-C , 72-C ) :   1.4724 B( 70-C , 71-O ) :   2.1576
B( 72-C , 73-C ) :   1.1742 B( 72-C ,104-H ) :   1.0167 B( 73-C , 74-C ) :   1.2607
B( 73-C , 79-C ) :   1.2451 B( 74-C , 75-C ) :   1.1998 B( 74-C , 76-C ) :   1.2411
B( 75-C ,105-H ) :   0.9912 B( 76-C , 77-C ) :   1.4869 B( 76-C ,106-H ) :   0.9977
B( 77-C , 78-C ) :   1.2614 B( 77-C ,107-H ) :   0.9887 B( 78-C , 79-C ) :   1.4873
B( 78-C ,108-H ) :   0.9884 B( 79-C ,109-H ) :   0.9979

-----------------------------------------------------------------------------
         ABSORPTION SPECTRUM VIA TRANSITION ELECTRIC DIPOLE MOMENTS
-----------------------------------------------------------------------------
State   Energy  Wavelength   fosc         T2         TX        TY        TZ
        (cm-1)    (nm)                  (au**2)     (au)      (au)      (au)
-----------------------------------------------------------------------------
   0   15544.1    643.3   1.418687604  30.04673  -0.25795  -2.90294   4.64253
   1   17646.5    566.7   1.493585284  27.86417   1.31364   1.71365   4.81683
   2   20889.5    478.7   0.044238838   0.69719   0.23324   0.79640  -0.09243
   3   22017.9    454.2   0.037909534   0.56682   0.37024   0.46706   0.46001
   4   24936.3    401.0   0.646855354   8.53985  -0.10534  -1.25740   2.63585
   5   25677.2    389.5   0.028944635   0.37110  -0.17849  -0.48684   0.31974
   6   25966.4    385.1   0.019932555   0.25271   0.20023  -0.39439  -0.23892
   7   26384.1    379.0   0.060589562   0.75602   0.12248  -0.69701   0.50517
   8   26692.6    374.6   0.110592454   1.36398  -0.72631   0.39035  -0.82710
   9   27296.2    366.4   0.214555779   2.58770   0.46425  -0.59868  -1.41907
  10   27741.2    360.5   0.057527577   0.68269  -0.45441  -0.67656   0.13589
  11   28204.3    354.6   0.072731543   0.84895  -0.45719   0.44094  -0.66746
  12   29042.2    344.3   0.009842481   0.11157   0.22457   0.21978  -0.11329
  13   29401.0    340.1   0.108395232   1.21373   0.03720  -0.91520   0.61218
  14   29866.6    334.8   0.010624538   0.11711   0.19630   0.26716   0.08488
  15   29944.2    334.0   0.037145930   0.40839   0.37187  -0.41509  -0.31273
  16   30052.6    332.8   0.029579222   0.32403  -0.01660  -0.15299   0.54804
  17   30310.7    329.9   0.071804646   0.77989   0.10492   0.59199  -0.64686
  18   30741.6    325.3   0.030705027   0.32882  -0.37269  -0.15232  -0.40831
  19   31335.6    319.1   0.226261799   2.37711  -0.38947  -0.97955  -1.12512
  20   32313.5    309.5   0.050832748   0.51789  -0.32534  -0.37497  -0.52100
  21   32459.4    308.1   0.035661955   0.36169   0.17144   0.26443  -0.51223
  22   33323.3    300.1   0.236985623   2.34126   0.29847   0.81027  -1.26319
  23   34043.8    293.7   0.323907936   3.13227   0.91221   0.46045  -1.44503
  24   34085.0    293.4   0.555462720   5.36497  -0.66034   2.21855   0.08334
  25   34262.9    291.9   0.277569127   2.66700  -1.17870   0.40607   1.05488
  26   34539.2    289.5   0.133800122   1.27532   0.47475  -0.53328  -0.87496
  27   34820.0    287.2   0.042499334   0.40182  -0.54292   0.06082   0.32150
  28   35095.8    284.9   0.155137340   1.45525  -0.12428  -1.17598   0.23847
  29   35278.5    283.5   0.011259339   0.10507  -0.05966   0.03587   0.31658
  30   35931.9    278.3   0.024711170   0.22641  -0.22554   0.38089  -0.17452
  31   36052.9    277.4   0.044492959   0.40628  -0.53347  -0.26664   0.22492
  32   36705.4    272.4   0.004114755   0.03691   0.07692   0.00286  -0.17601
  33   37226.0    268.6   0.151405948   1.33897  -0.17557  -0.25315   1.11538
  34   37285.9    268.2   0.111826382   0.98736  -0.45804  -0.80735  -0.35460
  35   37562.4    266.2   0.034593484   0.30319  -0.21067  -0.37176   0.34728
  36   37694.7    265.3   0.036338098   0.31736   0.04846  -0.11092  -0.55019
  37   37941.4    263.6   0.101084128   0.87709  -0.05680   0.93408   0.03692
  38   38196.3    261.8   0.015980173   0.13773  -0.21936   0.16366  -0.25066
  39   38652.5    258.7   0.011606505   0.09886   0.17204   0.02416   0.26206
  40   38909.8    257.0   0.083333181   0.70507  -0.67109   0.50445  -0.01538
  41   38983.1    256.5   0.133508963   1.12748  -0.80509  -0.68603  -0.09312
  42   39434.3    253.6   0.030767448   0.25686  -0.46151  -0.18895  -0.09037
  43   39581.6    252.6   0.058531590   0.48682   0.29564   0.57280  -0.26706
  44   39936.1    250.4   0.103382380   0.85223   0.31328   0.84020  -0.21944
  45   40104.2    249.4   0.038668753   0.31743  -0.24166   0.06834   0.50434
  46   40261.7    248.4   0.154848561   1.26617  -0.58557  -0.58469  -0.76250

FINAL SINGLE POINT ENERGY     -5511.632339490930

DIPOLE MOMENT
-------------
                                X             Y             Z
Electronic contribution:    -14.07441       1.38528      16.23324
Nuclear contribution   :     18.32989      -0.03529     -16.02114
                        -----------------------------------------
Total Dipole Moment    :      4.25548       1.34999       0.21210
                        -----------------------------------------
Magnitude (a.u.)       :      4.46952
Magnitude (Debye)      :     11.36061

Rotational constants in cm-1:     0.001214     0.000138     0.000126
Rotational constants in MHz :    36.402651     4.128846     3.788424

                             ****ORCA TERMINATED NORMALLY****
TOTAL RUN TIME: 0 days 0 hours 12 minutes 34 seconds 161 msec
