                         Program Version 4.2.0 -  RELEASE  -
|  1> # ORCA input file
|  2> # SCF done       -197.331704219318          0.000498267368
|  3> ! CAM-B3LYP def2-SVP def2/J RIJCOSX Grid4 TightSCF
|  4> %maxcore 5000
|  5> %tddft
|  6>     Mode sTDDFT
|  7>     Ethresh 5.0
|  8>     maxcore 5000
|  9> end
| 10>
| 11> %pal
| 12>   nprocs 6
| 13>   end
| 14> * xyz 0 1
| 15>    C        3.76567         2.66538        -0.53673
| 16>    C        2.48601         2.55883        -1.02245
| 17>    C        1.66155         1.43494        -0.82040
| 18>    N        0.94342         0.55164        -0.66942
| 19>    C        1.88745         3.52788        -1.85011
| 20>    N        1.37694         4.28148        -2.55027
| 21>    C        4.51421         1.58478         0.09858
| 22>    C        5.90439         1.88656         0.00961
| 23>    C        6.85430         1.03647         0.49623
| 24>    C        6.44909        -0.16665         1.11848
| 25>    C        5.06022        -0.46438         1.22695
| 26>    C        4.09810         0.42999         0.70256
| 27>    C        4.66951        -1.66093         1.86090
| 28>    C        5.60427        -2.52567         2.36186
| 29>    C        6.97165        -2.23323         2.25241
| 30>    C        7.38486        -1.07932         1.64337
| 31>    C        6.07447         3.20312        -0.63323
| 32>    O        7.10697         3.76412        -0.92516
| 33>    C        4.69530         3.73975        -0.79378
| 34>    C        4.53131         5.07245        -1.03974
| 35>    C        3.40195         5.88291        -0.81412
| 36>    C        2.29367         5.65399        -0.01413
| 37>    C        1.42858         6.73727         0.01700
| 38>    C        1.84958         7.82463        -0.76883
| 39>    S        3.35863         7.49206        -1.52639
| 40>    C        0.94156         8.88422        -0.70827
| 41>    C       -0.15614         8.59977         0.12811
| 42>    S       -0.08748         7.01447         0.83803
| 43>    C       -0.97360         9.72107         0.14181
| 44>    C       -0.36644        10.67065        -0.68939
| 45>    N        0.79626        10.14250        -1.20224
| 46>    C        1.76281        10.77088        -2.06072
| 47>    C       -0.88438        11.99051        -0.92962
| 48>    C       -1.72406        12.57166        -0.01410
| 49>    C       -2.35073        13.81231        -0.15252
| 50>    C       -2.24147        14.57378        -1.40643
| 51>    C       -1.44621        14.21093        -2.43418
| 52>    S       -0.47163        12.79731        -2.44019
| 53>    C       -3.11627        15.68301        -1.25124
| 54>    C       -3.72734        15.62373         0.00166
| 55>    C       -4.61042        16.70412         0.21576
| 56>    C       -4.64864        17.53636        -0.85787
| 57>    S       -3.62007        17.05115        -2.16336
| 58>    C       -3.23307        14.47402         0.71407
| 59>    C       -3.62321        14.12278         2.03400
| 60>    C       -2.90059        13.37023         2.89925
| 61>    C       -3.34429        12.93955         4.17436
| 62>    C       -2.61829        12.19294         5.08162
| 63>    C       -3.35715        11.86796         6.21773
| 64>    C       -4.66722        12.36290         6.19661
| 65>    S       -4.97431        13.25577         4.74625
| 66>    C       -5.38806        11.98088         7.33028
| 67>    C       -4.61169        11.18979         8.21544
| 68>    S       -2.98415        10.93454         7.64639
| 69>    C       -5.40882        10.83696         9.28365
| 70>    C       -6.67450        11.41025         9.04696
| 71>    N       -6.62545        12.11416         7.84525
| 72>    C       -7.69517        12.84851         7.22385
| 73>    C       -7.86729        11.38571         9.78331
| 74>    C       -8.22531        10.74157        10.94280
| 75>    C       -9.53245        10.89474        11.55310
| 76>    C      -10.49767        11.82181        11.23516
| 77>    C      -11.74218        11.92136        11.88956
| 78>    N      -12.77507        12.06328        12.37189
| 79>    C      -10.39636        12.82160        10.24871
| 80>    N      -10.39011        13.66956         9.47068
| 81>    C       -9.64318         9.92001        12.63288
| 82>    C       -8.40183         9.23510        12.74392
| 83>    C       -7.46488         9.74226        11.72353
| 84>    O       -6.31542         9.37482        11.58183
| 85>    C       -8.19366         8.25919        13.67369
| 86>    C       -9.24474         7.90968        14.55152
| 87>    C      -10.49422         8.58419        14.44253
| 88>    C      -10.67664         9.59581        13.47087
| 89>    C      -11.53829         8.22329        15.31796
| 90>    C      -11.35843         7.24428        16.25703
| 91>    C      -10.12699         6.58163        16.36402
| 92>    C       -9.09245         6.90776        15.52935
| 93>    H        7.90332         1.27837         0.41121
| 94>    H        3.05229         0.18465         0.80446
| 95>    H        3.61533        -1.88309         1.93970
| 96>    H        5.29465        -3.44031         2.84508
| 97>    H        7.69609        -2.92623         2.65356
| 98>    H        8.43667        -0.84869         1.55672
| 99>    H        5.42717         5.58684        -1.37464
|100>    H        2.15062         4.75667         0.55934
|101>    H       -1.90717         9.82759         0.65433
|102>    H        1.99013        11.77886        -1.71199
|103>    H        1.40132        10.82500        -3.08998
|104>    H        2.67525        10.17621        -2.04325
|105>    H       -1.92684        12.00579         0.88134
|106>    H       -1.35465        14.79223        -3.33800
|107>    H       -5.18725        16.86110         1.10908
|108>    H       -5.22898        18.43063        -0.97544
|109>    H       -4.57420        14.52033         2.37001
|110>    H       -1.89466        13.06642         2.64650
|111>    H       -1.60030        11.89279         4.91442
|112>    H       -5.15279        10.23953        10.13374
|113>    H       -8.09549        13.60907         7.89726
|114>    H       -8.50744        12.18058         6.92729
|115>    H       -7.30457        13.33859         6.33360
|116>    H       -8.65453        11.97583         9.33527
|117>    H       -7.23948         7.75725        13.73688
|118>    H      -11.63655        10.08356        13.41288
|119>    H      -12.48458         8.73730        15.23251
|120>    H      -12.16481         6.97516        16.92288
|121>    H      -10.00199         5.81122        17.11037
|122>    H       -8.14159         6.40066        15.60635
|123> *
|124>
|125>                          ****END OF INPUT****

CARTESIAN COORDINATES (ANGSTROEM)
---------------------------------
  C      3.765670    2.665380   -0.536730
  C      2.486010    2.558830   -1.022450
  C      1.661550    1.434940   -0.820400
  N      0.943420    0.551640   -0.669420
  C      1.887450    3.527880   -1.850110
  N      1.376940    4.281480   -2.550270
  C      4.514210    1.584780    0.098580
  C      5.904390    1.886560    0.009610
  C      6.854300    1.036470    0.496230
  C      6.449090   -0.166650    1.118480
  C      5.060220   -0.464380    1.226950
  C      4.098100    0.429990    0.702560
  C      4.669510   -1.660930    1.860900
  C      5.604270   -2.525670    2.361860
  C      6.971650   -2.233230    2.252410
  C      7.384860   -1.079320    1.643370
  C      6.074470    3.203120   -0.633230
  O      7.106970    3.764120   -0.925160
  C      4.695300    3.739750   -0.793780
  C      4.531310    5.072450   -1.039740
  C      3.401950    5.882910   -0.814120
  C      2.293670    5.653990   -0.014130
  C      1.428580    6.737270    0.017000
  C      1.849580    7.824630   -0.768830
  S      3.358630    7.492060   -1.526390
  C      0.941560    8.884220   -0.708270
  C     -0.156140    8.599770    0.128110
  S     -0.087480    7.014470    0.838030
  C     -0.973600    9.721070    0.141810
  C     -0.366440   10.670650   -0.689390
  N      0.796260   10.142500   -1.202240
  C      1.762810   10.770880   -2.060720
  C     -0.884380   11.990510   -0.929620
  C     -1.724060   12.571660   -0.014100
  C     -2.350730   13.812310   -0.152520
  C     -2.241470   14.573780   -1.406430
  C     -1.446210   14.210930   -2.434180
  S     -0.471630   12.797310   -2.440190
  C     -3.116270   15.683010   -1.251240
  C     -3.727340   15.623730    0.001660
  C     -4.610420   16.704120    0.215760
  C     -4.648640   17.536360   -0.857870
  S     -3.620070   17.051150   -2.163360
  C     -3.233070   14.474020    0.714070
  C     -3.623210   14.122780    2.034000
  C     -2.900590   13.370230    2.899250
  C     -3.344290   12.939550    4.174360
  C     -2.618290   12.192940    5.081620
  C     -3.357150   11.867960    6.217730
  C     -4.667220   12.362900    6.196610
  S     -4.974310   13.255770    4.746250
  C     -5.388060   11.980880    7.330280
  C     -4.611690   11.189790    8.215440
  S     -2.984150   10.934540    7.646390
  C     -5.408820   10.836960    9.283650
  C     -6.674500   11.410250    9.046960
  N     -6.625450   12.114160    7.845250
  C     -7.695170   12.848510    7.223850
  C     -7.867290   11.385710    9.783310
  C     -8.225310   10.741570   10.942800
  C     -9.532450   10.894740   11.553100
  C    -10.497670   11.821810   11.235160
  C    -11.742180   11.921360   11.889560
  N    -12.775070   12.063280   12.371890
  C    -10.396360   12.821600   10.248710
  N    -10.390110   13.669560    9.470680
  C     -9.643180    9.920010   12.632880
  C     -8.401830    9.235100   12.743920
  C     -7.464880    9.742260   11.723530
  O     -6.315420    9.374820   11.581830
  C     -8.193660    8.259190   13.673690
  C     -9.244740    7.909680   14.551520
  C    -10.494220    8.584190   14.442530
  C    -10.676640    9.595810   13.470870
  C    -11.538290    8.223290   15.317960
  C    -11.358430    7.244280   16.257030
  C    -10.126990    6.581630   16.364020
  C     -9.092450    6.907760   15.529350
  H      7.903320    1.278370    0.411210
  H      3.052290    0.184650    0.804460
  H      3.615330   -1.883090    1.939700
  H      5.294650   -3.440310    2.845080
  H      7.696090   -2.926230    2.653560
  H      8.436670   -0.848690    1.556720
  H      5.427170    5.586840   -1.374640
  H      2.150620    4.756670    0.559340
  H     -1.907170    9.827590    0.654330
  H      1.990130   11.778860   -1.711990
  H      1.401320   10.825000   -3.089980
  H      2.675250   10.176210   -2.043250
  H     -1.926840   12.005790    0.881340
  H     -1.354650   14.792230   -3.338000
  H     -5.187250   16.861100    1.109080
  H     -5.228980   18.430630   -0.975440
  H     -4.574200   14.520330    2.370010
  H     -1.894660   13.066420    2.646500
  H     -1.600300   11.892790    4.914420
  H     -5.152790   10.239530   10.133740
  H     -8.095490   13.609070    7.897260
  H     -8.507440   12.180580    6.927290
  H     -7.304570   13.338590    6.333600
  H     -8.654530   11.975830    9.335270
  H     -7.239480    7.757250   13.736880
  H    -11.636550   10.083560   13.412880
  H    -12.484580    8.737300   15.232510
  H    -12.164810    6.975160   16.922880
  H    -10.001990    5.811220   17.110370
  H     -8.141590    6.400660   15.606350

 Total Charge           Charge          ....    0
 Multiplicity           Mult            ....    1
 Number of Electrons    NEL             ....  568
 Basis Dimension        Dim             .... 1266

ORBITAL ENERGIES
----------------

  NO   OCC          E(Eh)            E(eV)
   0   2.0000     -88.982713     -2421.3427
   1   2.0000     -88.973036     -2421.0794
   2   2.0000     -88.966820     -2420.9103
   3   2.0000     -88.960454     -2420.7370
   4   2.0000     -88.959285     -2420.7052
   5   2.0000     -88.955878     -2420.6125
   6   2.0000     -19.206610      -522.6384
   7   2.0000     -19.203715      -522.5596
   8   2.0000     -14.487639      -394.2287
   9   2.0000     -14.477444      -393.9513
  10   2.0000     -14.409142      -392.0927
  11   2.0000     -14.409017      -392.0893
  12   2.0000     -14.408739      -392.0817
  13   2.0000     -14.400893      -391.8682
  14   2.0000     -10.358468      -281.8682
  15   2.0000     -10.355028      -281.7746
  16   2.0000     -10.335352      -281.2392
  17   2.0000     -10.334694      -281.2213
  18   2.0000     -10.332540      -281.1627
  19   2.0000     -10.332048      -281.1493
  20   2.0000     -10.331885      -281.1449
  21   2.0000     -10.330829      -281.1162
  22   2.0000     -10.328601      -281.0555
  23   2.0000     -10.326798      -281.0065
  24   2.0000     -10.325388      -280.9681
  25   2.0000     -10.323470      -280.9159
  26   2.0000     -10.320075      -280.8235
  27   2.0000     -10.319646      -280.8118
  28   2.0000     -10.317043      -280.7410
  29   2.0000     -10.315326      -280.6943
  30   2.0000     -10.314992      -280.6852
  31   2.0000     -10.313958      -280.6571
  32   2.0000     -10.313363      -280.6409
  33   2.0000     -10.312356      -280.6135
  34   2.0000     -10.310590      -280.5654
  35   2.0000     -10.310009      -280.5496
  36   2.0000     -10.309915      -280.5471
  37   2.0000     -10.309811      -280.5442
  38   2.0000     -10.309376      -280.5324
  39   2.0000     -10.305399      -280.4242
  40   2.0000     -10.303000      -280.3589
  41   2.0000     -10.302127      -280.3351
  42   2.0000     -10.301581      -280.3203
  43   2.0000     -10.299662      -280.2681
  44   2.0000     -10.297844      -280.2186
  45   2.0000     -10.297694      -280.2145
  46   2.0000     -10.293819      -280.1091
  47   2.0000     -10.293068      -280.0886
  48   2.0000     -10.292739      -280.0797
  49   2.0000     -10.291794      -280.0539
  50   2.0000     -10.291530      -280.0468
  51   2.0000     -10.290671      -280.0234
  52   2.0000     -10.289352      -279.9875
  53   2.0000     -10.289152      -279.9821
  54   2.0000     -10.289017      -279.9784
  55   2.0000     -10.287487      -279.9368
  56   2.0000     -10.287078      -279.9256
  57   2.0000     -10.287057      -279.9250
  58   2.0000     -10.286559      -279.9115
  59   2.0000     -10.285600      -279.8854
  60   2.0000     -10.284765      -279.8627
  61   2.0000     -10.284615      -279.8586
  62   2.0000     -10.283749      -279.8350
  63   2.0000     -10.283569      -279.8301
  64   2.0000     -10.282390      -279.7981
  65   2.0000     -10.282031      -279.7883
  66   2.0000     -10.281778      -279.7814
  67   2.0000     -10.281334      -279.7693
  68   2.0000     -10.279857      -279.7291
  69   2.0000     -10.278409      -279.6897
  70   2.0000     -10.278016      -279.6790
  71   2.0000     -10.277671      -279.6697
  72   2.0000     -10.277217      -279.6573
  73   2.0000     -10.276917      -279.6491
  74   2.0000     -10.276427      -279.6358
  75   2.0000     -10.276416      -279.6355
  76   2.0000     -10.276274      -279.6316
  77   2.0000     -10.275859      -279.6203
  78   2.0000      -8.077818      -219.8086
  79   2.0000      -8.067757      -219.5348
  80   2.0000      -8.061393      -219.3617
  81   2.0000      -8.055503      -219.2014
  82   2.0000      -8.054720      -219.1801
  83   2.0000      -8.050978      -219.0782
  84   2.0000      -6.047484      -164.5604
  85   2.0000      -6.042821      -164.4335
  86   2.0000      -6.039670      -164.3478
  87   2.0000      -6.037327      -164.2840
  88   2.0000      -6.033253      -164.1732
  89   2.0000      -6.030960      -164.1108
  90   2.0000      -6.029378      -164.0677
  91   2.0000      -6.027003      -164.0031
  92   2.0000      -6.025434      -163.9604
  93   2.0000      -6.024191      -163.9266
  94   2.0000      -6.022941      -163.8926
  95   2.0000      -6.021510      -163.8536
  96   2.0000      -6.020912      -163.8374
  97   2.0000      -6.019931      -163.8106
  98   2.0000      -6.017001      -163.7309
  99   2.0000      -6.016691      -163.7225
 100   2.0000      -6.016164      -163.7082
 101   2.0000      -6.011604      -163.5841
 102   2.0000      -1.121689       -30.5227
 103   2.0000      -1.118273       -30.4298
 104   2.0000      -1.111284       -30.2396
 105   2.0000      -1.102873       -30.0107
 106   2.0000      -1.015968       -27.6459
 107   2.0000      -1.010071       -27.4854
 108   2.0000      -1.008414       -27.4403
 109   2.0000      -1.007952       -27.4278
 110   2.0000      -1.005701       -27.3665
 111   2.0000      -0.992469       -27.0064
 112   2.0000      -0.988819       -26.9071
 113   2.0000      -0.987317       -26.8663
 114   2.0000      -0.982474       -26.7345
 115   2.0000      -0.975372       -26.5412
 116   2.0000      -0.966938       -26.3117
 117   2.0000      -0.960854       -26.1462
 118   2.0000      -0.954350       -25.9692
 119   2.0000      -0.950479       -25.8638
 120   2.0000      -0.931562       -25.3491
 121   2.0000      -0.920795       -25.0561
 122   2.0000      -0.916672       -24.9439
 123   2.0000      -0.914477       -24.8842
 124   2.0000      -0.905299       -24.6344
 125   2.0000      -0.897874       -24.4324
 126   2.0000      -0.891266       -24.2526
 127   2.0000      -0.886288       -24.1171
 128   2.0000      -0.876729       -23.8570
 129   2.0000      -0.875892       -23.8342
 130   2.0000      -0.872574       -23.7440
 131   2.0000      -0.872027       -23.7291
 132   2.0000      -0.869502       -23.6604
 133   2.0000      -0.856858       -23.3163
 134   2.0000      -0.853542       -23.2260
 135   2.0000      -0.842429       -22.9237
 136   2.0000      -0.827085       -22.5061
 137   2.0000      -0.823485       -22.4082
 138   2.0000      -0.819836       -22.3089
 139   2.0000      -0.818341       -22.2682
 140   2.0000      -0.817196       -22.2370
 141   2.0000      -0.809160       -22.0184
 142   2.0000      -0.802558       -21.8387
 143   2.0000      -0.790863       -21.5205
 144   2.0000      -0.786142       -21.3920
 145   2.0000      -0.775577       -21.1045
 146   2.0000      -0.773334       -21.0435
 147   2.0000      -0.757830       -20.6216
 148   2.0000      -0.752586       -20.4789
 149   2.0000      -0.750459       -20.4210
 150   2.0000      -0.738406       -20.0931
 151   2.0000      -0.730924       -19.8894
 152   2.0000      -0.713264       -19.4089
 153   2.0000      -0.706188       -19.2164
 154   2.0000      -0.698335       -19.0027
 155   2.0000      -0.695150       -18.9160
 156   2.0000      -0.694602       -18.9011
 157   2.0000      -0.690602       -18.7922
 158   2.0000      -0.684689       -18.6313
 159   2.0000      -0.677687       -18.4408
 160   2.0000      -0.673052       -18.3147
 161   2.0000      -0.670445       -18.2437
 162   2.0000      -0.666283       -18.1305
 163   2.0000      -0.655770       -17.8444
 164   2.0000      -0.652496       -17.7553
 165   2.0000      -0.647266       -17.6130
 166   2.0000      -0.644766       -17.5450
 167   2.0000      -0.643474       -17.5098
 168   2.0000      -0.636725       -17.3262
 169   2.0000      -0.627356       -17.0712
 170   2.0000      -0.626792       -17.0559
 171   2.0000      -0.625651       -17.0248
 172   2.0000      -0.621872       -16.9220
 173   2.0000      -0.609525       -16.5860
 174   2.0000      -0.603767       -16.4293
 175   2.0000      -0.602218       -16.3872
 176   2.0000      -0.599675       -16.3180
 177   2.0000      -0.596256       -16.2249
 178   2.0000      -0.595389       -16.2014
 179   2.0000      -0.586065       -15.9476
 180   2.0000      -0.583996       -15.8913
 181   2.0000      -0.581595       -15.8260
 182   2.0000      -0.580031       -15.7834
 183   2.0000      -0.574226       -15.6255
 184   2.0000      -0.570381       -15.5208
 185   2.0000      -0.561118       -15.2688
 186   2.0000      -0.558641       -15.2014
 187   2.0000      -0.553932       -15.0733
 188   2.0000      -0.548037       -14.9129
 189   2.0000      -0.543590       -14.7918
 190   2.0000      -0.542588       -14.7646
 191   2.0000      -0.540114       -14.6973
 192   2.0000      -0.538382       -14.6501
 193   2.0000      -0.536669       -14.6035
 194   2.0000      -0.533787       -14.5251
 195   2.0000      -0.531042       -14.4504
 196   2.0000      -0.529979       -14.4215
 197   2.0000      -0.528755       -14.3882
 198   2.0000      -0.524423       -14.2703
 199   2.0000      -0.523088       -14.2340
 200   2.0000      -0.519765       -14.1435
 201   2.0000      -0.518489       -14.1088
 202   2.0000      -0.515921       -14.0389
 203   2.0000      -0.515503       -14.0276
 204   2.0000      -0.512613       -13.9489
 205   2.0000      -0.511367       -13.9150
 206   2.0000      -0.510170       -13.8824
 207   2.0000      -0.508048       -13.8247
 208   2.0000      -0.506798       -13.7907
 209   2.0000      -0.505130       -13.7453
 210   2.0000      -0.503685       -13.7060
 211   2.0000      -0.500232       -13.6120
 212   2.0000      -0.499617       -13.5953
 213   2.0000      -0.496612       -13.5135
 214   2.0000      -0.493911       -13.4400
 215   2.0000      -0.491496       -13.3743
 216   2.0000      -0.489938       -13.3319
 217   2.0000      -0.487369       -13.2620
 218   2.0000      -0.485548       -13.2124
 219   2.0000      -0.483760       -13.1638
 220   2.0000      -0.480216       -13.0674
 221   2.0000      -0.477305       -12.9881
 222   2.0000      -0.476042       -12.9538
 223   2.0000      -0.473555       -12.8861
 224   2.0000      -0.470144       -12.7933
 225   2.0000      -0.468310       -12.7434
 226   2.0000      -0.464135       -12.6297
 227   2.0000      -0.462754       -12.5922
 228   2.0000      -0.460991       -12.5442
 229   2.0000      -0.459001       -12.4900
 230   2.0000      -0.456815       -12.4306
 231   2.0000      -0.453326       -12.3356
 232   2.0000      -0.450057       -12.2467
 233   2.0000      -0.444019       -12.0824
 234   2.0000      -0.443199       -12.0600
 235   2.0000      -0.442220       -12.0334
 236   2.0000      -0.438755       -11.9391
 237   2.0000      -0.436001       -11.8642
 238   2.0000      -0.434775       -11.8308
 239   2.0000      -0.434118       -11.8130
 240   2.0000      -0.432254       -11.7622
 241   2.0000      -0.430759       -11.7215
 242   2.0000      -0.429963       -11.6999
 243   2.0000      -0.429517       -11.6877
 244   2.0000      -0.425928       -11.5901
 245   2.0000      -0.424970       -11.5640
 246   2.0000      -0.423954       -11.5364
 247   2.0000      -0.423425       -11.5220
 248   2.0000      -0.422664       -11.5013
 249   2.0000      -0.421101       -11.4588
 250   2.0000      -0.419549       -11.4165
 251   2.0000      -0.416770       -11.3409
 252   2.0000      -0.415746       -11.3130
 253   2.0000      -0.411902       -11.2084
 254   2.0000      -0.410793       -11.1782
 255   2.0000      -0.408958       -11.1283
 256   2.0000      -0.408065       -11.1040
 257   2.0000      -0.403070       -10.9681
 258   2.0000      -0.396846       -10.7987
 259   2.0000      -0.395152       -10.7526
 260   2.0000      -0.393462       -10.7066
 261   2.0000      -0.392962       -10.6930
 262   2.0000      -0.380136       -10.3440
 263   2.0000      -0.373911       -10.1746
 264   2.0000      -0.368443       -10.0258
 265   2.0000      -0.360812        -9.8182
 266   2.0000      -0.354620        -9.6497
 267   2.0000      -0.343859        -9.3569
 268   2.0000      -0.339036        -9.2256
 269   2.0000      -0.338751        -9.2179
 270   2.0000      -0.331473        -9.0198
 271   2.0000      -0.325694        -8.8626
 272   2.0000      -0.322237        -8.7685
 273   2.0000      -0.313656        -8.5350
 274   2.0000      -0.310608        -8.4521
 275   2.0000      -0.305734        -8.3194
 276   2.0000      -0.291147        -7.9225
 277   2.0000      -0.288183        -7.8419
 278   2.0000      -0.286152        -7.7866
 279   2.0000      -0.284430        -7.7397
 280   2.0000      -0.281594        -7.6626
 281   2.0000      -0.267785        -7.2868
 282   2.0000      -0.249525        -6.7899
 283   2.0000      -0.222619        -6.0578
 284   0.0000      -0.092542        -2.5182
 285   0.0000      -0.084582        -2.3016
 286   0.0000      -0.060020        -1.6332
 287   0.0000      -0.050074        -1.3626
 288   0.0000      -0.045381        -1.2349

MULLIKEN ATOMIC CHARGES
-----------------------
   0 C :    0.263966
   1 C :   -0.342612
   2 C :   -0.175029
   3 N :    0.150308
   4 C :   -0.209404
   5 N :    0.171100
   6 C :    0.033902
   7 C :    0.019670
   8 C :   -0.091075
   9 C :    0.098455
  10 C :    0.097551
  11 C :   -0.088293
  12 C :   -0.021971
  13 C :    0.037133
  14 C :    0.036209
  15 C :   -0.019263
  16 C :    0.137562
  17 O :   -0.150751
  18 C :   -0.144471
  19 C :    0.085275
  20 C :   -0.101563
  21 C :    0.016549
  22 C :   -0.066510
  23 C :   -0.039791
  24 S :    0.151972
  25 C :    0.018503
  26 C :   -0.010234
  27 S :    0.164124
  28 C :   -0.140257
  29 C :    0.132435
  30 N :   -0.178910
  31 C :    0.124152
  32 C :   -0.085525
  33 C :   -0.071757
  34 C :    0.058653
  35 C :    0.063924
  36 C :   -0.120457
  37 S :    0.097033
  38 C :   -0.110700
  39 C :    0.057222
  40 C :    0.007888
  41 C :   -0.068486
  42 S :    0.129157
  43 C :    0.071385
  44 C :   -0.033901
  45 C :   -0.011342
  46 C :   -0.020960
  47 C :   -0.048111
  48 C :   -0.030033
  49 C :   -0.085362
  50 S :    0.121644
  51 C :    0.060610
  52 C :   -0.025203
  53 S :    0.154853
  54 C :   -0.108776
  55 C :    0.138522
  56 N :   -0.182102
  57 C :    0.130438
  58 C :   -0.047076
  59 C :   -0.094063
  60 C :    0.318951
  61 C :   -0.376971
  62 C :   -0.184959
  63 N :    0.137676
  64 C :   -0.178308
  65 N :    0.126905
  66 C :    0.040246
  67 C :    0.003935
  68 C :    0.152605
  69 O :   -0.163162
  70 C :   -0.087385
  71 C :    0.098691
  72 C :    0.093415
  73 C :   -0.081818
  74 C :   -0.017128
  75 C :    0.033168
  76 C :    0.033601
  77 C :   -0.017730
  78 H :   -0.013647
  79 H :   -0.006617
  80 H :   -0.011527
  81 H :   -0.007036
  82 H :   -0.006722
  83 H :   -0.018240
  84 H :    0.019262
  85 H :    0.005568
  86 H :   -0.011296
  87 H :    0.049669
  88 H :    0.058590
  89 H :    0.042451
  90 H :   -0.021719
  91 H :    0.037706
  92 H :   -0.017122
  93 H :    0.028422
  94 H :   -0.009972
  95 H :   -0.004636
  96 H :   -0.016005
  97 H :    0.009605
  98 H :    0.067103
  99 H :    0.050332
 100 H :    0.035757
 101 H :   -0.020733
 102 H :   -0.018045
 103 H :   -0.010344
 104 H :   -0.011858
 105 H :   -0.008102
 106 H :   -0.007784
 107 H :   -0.020997
Sum of atomic charges:   -0.0000000

LOEWDIN ATOMIC CHARGES
----------------------
   0 C :    0.065529
   1 C :   -0.149098
   2 C :   -0.020951
   3 N :   -0.058089
   4 C :   -0.019939
   5 N :   -0.045931
   6 C :   -0.022729
   7 C :   -0.055709
   8 C :    0.029926
   9 C :   -0.009844
  10 C :   -0.006336
  11 C :    0.013290
  12 C :   -0.007237
  13 C :   -0.014661
  14 C :   -0.014875
  15 C :   -0.010237
  16 C :    0.082035
  17 O :   -0.151156
  18 C :   -0.102680
  19 C :    0.047915
  20 C :   -0.182271
  21 C :   -0.016218
  22 C :   -0.187656
  23 C :   -0.190954
  24 S :    0.434256
  25 C :   -0.049509
  26 C :   -0.177498
  27 S :    0.403309
  28 C :   -0.079183
  29 C :   -0.010707
  30 N :    0.049344
  31 C :    0.026041
  32 C :   -0.177931
  33 C :   -0.019118
  34 C :   -0.020763
  35 C :   -0.044451
  36 C :   -0.143736
  37 S :    0.450871
  38 C :   -0.206728
  39 C :   -0.037723
  40 C :   -0.064336
  41 C :   -0.163036
  42 S :    0.421319
  43 C :   -0.054784
  44 C :   -0.015405
  45 C :   -0.056398
  46 C :   -0.144151
  47 C :   -0.073164
  48 C :   -0.171156
  49 C :   -0.228579
  50 S :    0.414085
  51 C :   -0.009100
  52 C :   -0.195678
  53 S :    0.394887
  54 C :   -0.016927
  55 C :   -0.019862
  56 N :    0.052281
  57 C :    0.035525
  58 C :    0.050390
  59 C :   -0.111909
  60 C :    0.081090
  61 C :   -0.161839
  62 C :   -0.018513
  63 N :   -0.067098
  64 C :   -0.017214
  65 N :   -0.076371
  66 C :   -0.026020
  67 C :   -0.051768
  68 C :    0.084433
  69 O :   -0.152870
  70 C :    0.026141
  71 C :   -0.009051
  72 C :   -0.008355
  73 C :    0.017081
  74 C :   -0.006216
  75 C :   -0.017504
  76 C :   -0.015433
  77 C :   -0.011744
  78 H :    0.038536
  79 H :    0.038124
  80 H :    0.033839
  81 H :    0.032309
  82 H :    0.032084
  83 H :    0.031321
  84 H :    0.044738
  85 H :    0.039255
  86 H :    0.030669
  87 H :    0.030242
  88 H :    0.028883
  89 H :    0.031992
  90 H :    0.036745
  91 H :    0.037015
  92 H :    0.030751
  93 H :    0.024090
  94 H :    0.023461
  95 H :    0.033999
  96 H :    0.033816
  97 H :    0.034023
  98 H :    0.040341
  99 H :    0.036034
 100 H :    0.030807
 101 H :    0.043198
 102 H :    0.036804
 103 H :    0.038193
 104 H :    0.033763
 105 H :    0.031756
 106 H :    0.031356
 107 H :    0.030506

  Mayer bond orders larger than 0.100000
B(  0-C ,  1-C ) :   1.6323 B(  0-C ,  6-C ) :   0.9954 B(  0-C , 18-C ) :   1.0559
B(  1-C ,  2-C ) :   1.1319 B(  1-C ,  4-C ) :   1.1671 B(  2-C ,  3-N ) :   2.9871
B(  4-C ,  5-N ) :   3.0056 B(  6-C ,  7-C ) :   1.2163 B(  6-C , 11-C ) :   1.4605
B(  7-C ,  8-C ) :   1.4749 B(  7-C , 16-C ) :   0.9167 B(  8-C ,  9-C ) :   1.1788
B(  8-C , 78-H ) :   1.0176 B(  9-C , 10-C ) :   1.2608 B(  9-C , 15-C ) :   1.2447
B( 10-C , 11-C ) :   1.1971 B( 10-C , 12-C ) :   1.2421 B( 11-C , 79-H ) :   0.9954
B( 12-C , 13-C ) :   1.4883 B( 12-C , 80-H ) :   0.9980 B( 13-C , 14-C ) :   1.2617
B( 13-C , 81-H ) :   0.9880 B( 14-C , 15-C ) :   1.4868 B( 14-C , 82-H ) :   0.9890
B( 15-C , 83-H ) :   0.9984 B( 16-C , 17-O ) :   2.2622 B( 16-C , 18-C ) :   0.9496
B( 18-C , 19-C ) :   1.6273 B( 19-C , 20-C ) :   1.1675 B( 19-C , 84-H ) :   0.9287
B( 20-C , 21-C ) :   1.4309 B( 20-C , 24-S ) :   1.0536 B( 21-C , 22-C ) :   1.3629
B( 21-C , 85-H ) :   0.9865 B( 22-C , 23-C ) :   1.4024 B( 22-C , 27-S ) :   1.0449
B( 23-C , 24-S ) :   1.0786 B( 23-C , 25-C ) :   1.2827 B( 25-C , 26-C ) :   1.3786
B( 25-C , 30-N ) :   1.1888 B( 26-C , 27-S ) :   1.0251 B( 26-C , 28-C ) :   1.3311
B( 28-C , 29-C ) :   1.4325 B( 28-C , 86-H ) :   1.0104 B( 29-C , 30-N ) :   1.1790
B( 29-C , 32-C ) :   1.0497 B( 30-N , 31-C ) :   0.9618 B( 31-C , 87-H ) :   0.9647
B( 31-C , 88-H ) :   0.9653 B( 31-C , 89-H ) :   0.9643 B( 32-C , 33-C ) :   1.5601
B( 32-C , 37-S ) :   1.0398 B( 33-C , 34-C ) :   1.2050 B( 33-C , 90-H ) :   0.9688
B( 34-C , 35-C ) :   1.0460 B( 34-C , 43-C ) :   1.4093 B( 35-C , 36-C ) :   1.6165
B( 35-C , 38-C ) :   1.1780 B( 36-C , 37-S ) :   1.1262 B( 36-C , 91-H ) :   0.9389
B( 38-C , 39-C ) :   1.4412 B( 38-C , 42-S ) :   1.0730 B( 39-C , 40-C ) :   1.2229
B( 39-C , 43-C ) :   1.0984 B( 40-C , 41-C ) :   1.5827 B( 40-C , 92-H ) :   0.9984
B( 41-C , 42-S ) :   1.1571 B( 41-C , 93-H ) :   0.9663 B( 43-C , 44-C ) :   1.1486
B( 44-C , 45-C ) :   1.6234 B( 44-C , 94-H ) :   0.9563 B( 45-C , 46-C ) :   1.1651
B( 45-C , 95-H ) :   0.9744 B( 46-C , 47-C ) :   1.4772 B( 46-C , 50-S ) :   1.0821
B( 47-C , 48-C ) :   1.2651 B( 47-C , 96-H ) :   1.0080 B( 48-C , 49-C ) :   1.4439
B( 48-C , 53-S ) :   1.0542 B( 49-C , 50-S ) :   1.0365 B( 49-C , 51-C ) :   1.2809
B( 51-C , 52-C ) :   1.3076 B( 51-C , 56-N ) :   1.2621 B( 52-C , 53-S ) :   1.0051
B( 52-C , 54-C ) :   1.3685 B( 54-C , 55-C ) :   1.3380 B( 54-C , 97-H ) :   1.0020
B( 55-C , 56-N ) :   1.0858 B( 55-C , 58-C ) :   1.2389 B( 56-N , 57-C ) :   0.9591
B( 57-C , 98-H ) :   0.9571 B( 57-C , 99-H ) :   0.9642 B( 57-C ,100-H ) :   0.9636
B( 58-C , 59-C ) :   1.4962 B( 58-C ,101-H ) :   0.9108 B( 59-C , 60-C ) :   1.1137
B( 59-C , 68-C ) :   0.9460 B( 60-C , 61-C ) :   1.5830 B( 60-C , 66-C ) :   0.9766
B( 61-C , 62-C ) :   1.1540 B( 61-C , 64-C ) :   1.1529 B( 62-C , 63-N ) :   2.9609
B( 64-C , 65-N ) :   2.9533 B( 66-C , 67-C ) :   1.2163 B( 66-C , 73-C ) :   1.4577
B( 67-C , 68-C ) :   0.9497 B( 67-C , 70-C ) :   1.4775 B( 68-C , 69-O ) :   2.1696
B( 70-C , 71-C ) :   1.1714 B( 70-C ,102-H ) :   1.0159 B( 71-C , 72-C ) :   1.2603
B( 71-C , 77-C ) :   1.2461 B( 72-C , 73-C ) :   1.2003 B( 72-C , 74-C ) :   1.2440
B( 73-C ,103-H ) :   0.9887 B( 74-C , 75-C ) :   1.4855 B( 74-C ,104-H ) :   0.9965
B( 75-C , 76-C ) :   1.2629 B( 75-C ,105-H ) :   0.9882 B( 76-C , 77-C ) :   1.4863
B( 76-C ,106-H ) :   0.9889 B( 77-C ,107-H ) :   0.9971

-----------------------------------------------------------------------------
         ABSORPTION SPECTRUM VIA TRANSITION ELECTRIC DIPOLE MOMENTS
-----------------------------------------------------------------------------
State   Energy  Wavelength   fosc         T2         TX        TY        TZ
        (cm-1)    (nm)                  (au**2)     (au)      (au)      (au)
-----------------------------------------------------------------------------
   0   14958.3    668.5   1.672067462  36.79991   4.04556  -2.69644  -3.62802
   1   17666.9    566.0   1.054086076  19.64223  -1.03521  -3.14260   2.94867
   2   20489.5    488.1   0.216934633   3.48556  -0.79930  -1.25159   1.13146
   3   21717.2    460.5   0.168645334   2.55650  -0.24770   1.45083  -0.62470
   4   23107.3    432.8   0.075087173   1.06977  -0.80671  -0.21195   0.61161
   5   24561.3    407.1   0.242285186   3.24751  -1.04635   0.56472   1.35416
   6   25446.6    393.0   0.227504713   2.94331   0.65040  -1.40236   0.74409
   7   25665.6    389.6   0.058685586   0.75276   0.65610   0.34947  -0.44739
   8   26042.3    384.0   0.155851033   1.97018   0.83052  -0.93889   0.63158
   9   26591.6    376.1   0.005720820   0.07083  -0.02148  -0.23213  -0.12837
  10   27311.2    366.2   0.619141764   7.46321   0.90125  -1.70787   1.93239
  11   27447.6    364.3   0.050432282   0.60490   0.59597   0.07893  -0.49344
  12   27980.8    357.4   0.029494965   0.34703   0.35209   0.05912  -0.46858
  13   28362.2    352.6   0.057438705   0.66671   0.72805   0.35495  -0.10326
  14   28737.7    348.0   0.023966731   0.27456  -0.48403   0.16253  -0.11772
  15   29316.1    341.1   0.008361551   0.09390  -0.25625  -0.10502   0.13116
  16   29894.8    334.5   0.006937056   0.07639   0.00869  -0.12989  -0.24382
  17   30114.4    332.1   0.016737842   0.18298  -0.17895   0.17966  -0.34450
  18   30250.5    330.6   0.062153046   0.67640   0.19569  -0.68456   0.41168
  19   30388.4    329.1   0.010666455   0.11555  -0.19734   0.08541   0.26328
  20   30826.2    324.4   0.139394454   1.48868  -0.41246  -0.59153   0.98420
  21   31648.1    316.0   0.093193650   0.96943   0.58788  -0.74873   0.25144
  22   32013.3    312.4   0.080269733   0.82546   0.74583  -0.48528  -0.18357
  23   32109.3    311.4   0.021354907   0.21895   0.28535  -0.32492   0.17876
  24   32882.1    304.1   0.031626694   0.31664  -0.22322  -0.45759   0.23963
  25   32977.8    303.2   0.683121473   6.81948  -1.33474   2.00486  -1.00921
  26   33223.0    301.0   0.171028321   1.69475  -0.74067   1.00264  -0.37533
  27   33445.9    299.0   0.083848265   0.82533  -0.83485   0.15630  -0.32236
  28   33639.8    297.3   0.133200604   1.30355   0.82619  -0.13641  -0.77612
  29   33832.5    295.6   0.019143668   0.18628  -0.33665   0.17643   0.20450
  30   34234.3    292.1   0.317290680   3.05121   0.06824   1.40558  -1.03484
  31   34475.5    290.1   0.347329795   3.31670  -0.74724   0.94745  -1.36406
  32   34894.1    286.6   0.067678180   0.63852   0.52445  -0.56914   0.19889
  33   35116.0    284.8   0.010469577   0.09815   0.21261   0.20604  -0.10245
  34   35676.8    280.3   0.057004992   0.52602  -0.13782   0.55468  -0.44649
  35   36037.1    277.5   0.095461394   0.87208   0.34037  -0.58553   0.64295
  36   36421.7    274.6   0.049081422   0.44364   0.23688   0.35713  -0.50989
  37   36501.0    274.0   0.041200163   0.37160  -0.20308   0.49784  -0.28724
  38   36555.0    273.6   0.032405452   0.29184  -0.48360   0.24012  -0.01792
  39   36777.6    271.9   0.308959882   2.76563   0.98600  -1.25614   0.46427
  40   37120.2    269.4   0.014525477   0.12882   0.02560  -0.34813   0.08350
  41   37286.6    268.2   0.045438280   0.40119   0.28315  -0.35293  -0.44323
  42   37815.3    264.4   0.009011010   0.07845  -0.01320   0.08088   0.26783
  43   37902.8    263.8   0.008913038   0.07742   0.18353  -0.18827   0.09103
  44   38080.1    262.6   0.010224488   0.08839   0.05966   0.15203  -0.24844
  45   38216.1    261.7   0.007865806   0.06776  -0.01106  -0.15992  -0.20509
  46   38807.6    257.7   0.003678965   0.03121  -0.05734  -0.11888   0.11743
  47   38918.4    256.9   0.035520533   0.30047  -0.41872   0.28038  -0.21570
  48   39117.5    255.6   0.035036079   0.29486   0.42748   0.31984   0.09914
  49   39306.7    254.4   0.034734351   0.29092   0.18968   0.50213  -0.05298
  50   39543.0    252.9   0.236761870   1.97114  -1.19195   0.60765  -0.42563
  51   39642.1    252.3   0.063810052   0.52992   0.63672  -0.22698   0.27015
  52   40273.4    248.3   0.138295172   1.13048   0.94012  -0.26050  -0.42284

FINAL SINGLE POINT ENERGY     -5320.427915894757

DIPOLE MOMENT
-------------
                                X             Y             Z
Electronic contribution:      7.58700      13.35665     -26.13882
Nuclear contribution   :     -5.01630     -12.92577      25.54734
                        -----------------------------------------
Total Dipole Moment    :      2.57071       0.43088      -0.59148
                        -----------------------------------------
Magnitude (a.u.)       :      2.67283
Magnitude (Debye)      :      6.79381

Rotational constants in cm-1:     0.000605     0.000240     0.000177
Rotational constants in MHz :    18.137293     7.186637     5.294017

                             ****ORCA TERMINATED NORMALLY****
TOTAL RUN TIME: 0 days 0 hours 11 minutes 27 seconds 948 msec
