                         Program Version 4.2.0 -  RELEASE  -
|  1> # ORCA input file
|  2> # SCF done       -199.183072849853          0.000419071556
|  3> ! CAM-B3LYP def2-SVP def2/J RIJCOSX Grid4 TightSCF
|  4> %maxcore 5000
|  5> %tddft
|  6>     Mode sTDDFT
|  7>     Ethresh 5.0
|  8>     maxcore 5000
|  9> end
| 10>
| 11> %pal
| 12>   nprocs 6
| 13>   end
| 14> * xyz 0 1
| 15>    C       -1.34974         0.54237        -1.19735
| 16>    C       -0.41499        -0.36817        -1.62288
| 17>    C       -0.72755        -1.66168        -2.08751
| 18>    N       -0.90996        -2.72538        -2.48130
| 19>    C        0.97768        -0.15842        -1.67648
| 20>    N        2.12011        -0.07231        -1.76793
| 21>    C       -2.79020         0.30222        -1.14223
| 22>    C       -3.42463         1.47460        -0.64322
| 23>    C       -4.77456         1.54823        -0.46339
| 24>    C       -5.57325         0.42530        -0.77911
| 25>    C       -4.94894        -0.75040        -1.28438
| 26>    C       -3.54557        -0.79412        -1.46110
| 27>    C       -5.75430        -1.86323        -1.59977
| 28>    C       -7.11080        -1.81950        -1.42381
| 29>    C       -7.72407        -0.66145        -0.92441
| 30>    C       -6.97110         0.43696        -0.60838
| 31>    C       -2.40211         2.49996        -0.37243
| 32>    O       -2.60582         3.64781        -0.01694
| 33>    C       -1.10692         1.87164        -0.68117
| 34>    C        0.11797         2.47916        -0.57111
| 35>    C        0.45621         3.68631         0.06098
| 36>    S        1.87145         4.46349        -0.60245
| 37>    C        1.65897         5.90665         0.32170
| 38>    C        0.53012         5.77937         1.15878
| 39>    C       -0.08989         4.48632         1.07986
| 40>    C       -1.10715         4.14880         2.01347
| 41>    C       -1.54933         2.76677         2.25085
| 42>    O       -0.95674         1.76516         1.92205
| 43>    O       -2.69482         2.69040         2.95353
| 44>    C       -1.62795         5.14799         2.81168
| 45>    C       -1.16126         6.45468         2.74228
| 46>    C       -0.07896         6.78334         1.95296
| 47>    O        0.38751         8.04984         1.91323
| 48>    C        2.62058         6.93553         0.15357
| 49>    N        3.43776         6.92701        -0.96487
| 50>    C        4.32110         7.95133        -0.86941
| 51>    C        5.36884         8.59816        -1.51207
| 52>    C        5.74459         9.65589        -0.66899
| 53>    N        4.94975         9.64596         0.45986
| 54>    C        4.06613         8.62174         0.35771
| 55>    C        3.01078         7.98538         0.99713
| 56>    C        6.72409        10.66131        -0.83579
| 57>    C        7.57523        10.77987        -1.88903
| 58>    C        8.50207        11.83904        -2.03794
| 59>    S        9.99143        11.52870        -2.85370
| 60>    C       10.70937        13.01483        -2.30598
| 61>    C        9.74764        13.80164        -1.64857
| 62>    C        8.48566        13.14879        -1.51381
| 63>    C        7.39714        13.84902        -0.93996
| 64>    C        5.98446        13.41335        -1.02603
| 65>    O        5.17142        13.50518        -0.14007
| 66>    O        5.65932        12.98045        -2.25286
| 67>    C        7.62317        15.09573        -0.39569
| 68>    C        8.85398        15.73559        -0.53138
| 69>    C        9.89468        15.14478        -1.21644
| 70>    O       11.00964        15.83083        -1.54090
| 71>    C       12.08099        13.21206        -2.52950
| 72>    C       12.94046        13.87949        -1.69313
| 73>    C       14.30021        14.25981        -1.98991
| 74>    C       14.91040        14.22256        -3.22012
| 75>    C       16.23428        14.64090        -3.45785
| 76>    N       17.30614        14.96363        -3.71615
| 77>    C       14.29825        13.78932        -4.41297
| 78>    N       13.86584        13.46520        -5.42714
| 79>    C       14.89655        14.78308        -0.76436
| 80>    C       13.91501        14.74440         0.26589
| 81>    C       12.66658        14.16567        -0.26732
| 82>    O       11.66978        13.89472         0.37548
| 83>    C       14.18066        15.17827         1.53147
| 84>    C       15.46495        15.68798         1.83106
| 85>    C       16.45425        15.72459         0.80764
| 86>    C       16.15001        15.26220        -0.49448
| 87>    C       17.73363        16.22733         1.11850
| 88>    C       18.02365        16.67495         2.37886
| 89>    C       17.04806        16.63975         3.38564
| 90>    C       15.79565        16.15728         3.11704
| 91>    H       -5.22772         2.45063        -0.07970
| 92>    H       -3.10600        -1.70084        -1.84483
| 93>    H       -5.27729        -2.75323        -1.98348
| 94>    H       -7.71868        -2.67779        -1.66852
| 95>    H       -8.79568        -0.64329        -0.79161
| 96>    H       -7.43764         1.33252        -0.22397
| 97>    H        0.94697         2.00904        -1.08714
| 98>    H       -2.91821         1.75768         3.09571
| 99>    H       -2.41828         4.90466         3.50291
|100>    H       -1.63184         7.22284         3.34087
|101>    H       -0.18242         8.62162         2.44520
|102>    H        3.36108         6.26252        -1.71600
|103>    H        5.81633         8.35909        -2.45479
|104>    H        4.99699        10.33580         1.19057
|105>    H        2.58636         8.21667         1.94920
|106>    H        6.78874        11.38594        -0.03464
|107>    H        7.62099         9.99291        -2.62816
|108>    H        4.71737        12.75095        -2.28877
|109>    H        6.80323        15.61262         0.07907
|110>    H        8.97236        16.74051        -0.14989
|111>    H       10.96556        16.72083        -1.16661
|112>    H       12.48755        12.72194        -3.40574
|113>    H       13.42007        15.13506         2.29732
|114>    H       16.92356        15.29538        -1.24514
|115>    H       18.48142        16.25293         0.33941
|116>    H       19.00704        17.05835         2.60676
|117>    H       17.29350        16.99578         4.37522
|118>    H       15.04042        16.12650         3.88913
|119> *
|120>
|121>                          ****END OF INPUT****

CARTESIAN COORDINATES (ANGSTROEM)
---------------------------------
  C     -1.349740    0.542370   -1.197350
  C     -0.414990   -0.368170   -1.622880
  C     -0.727550   -1.661680   -2.087510
  N     -0.909960   -2.725380   -2.481300
  C      0.977680   -0.158420   -1.676480
  N      2.120110   -0.072310   -1.767930
  C     -2.790200    0.302220   -1.142230
  C     -3.424630    1.474600   -0.643220
  C     -4.774560    1.548230   -0.463390
  C     -5.573250    0.425300   -0.779110
  C     -4.948940   -0.750400   -1.284380
  C     -3.545570   -0.794120   -1.461100
  C     -5.754300   -1.863230   -1.599770
  C     -7.110800   -1.819500   -1.423810
  C     -7.724070   -0.661450   -0.924410
  C     -6.971100    0.436960   -0.608380
  C     -2.402110    2.499960   -0.372430
  O     -2.605820    3.647810   -0.016940
  C     -1.106920    1.871640   -0.681170
  C      0.117970    2.479160   -0.571110
  C      0.456210    3.686310    0.060980
  S      1.871450    4.463490   -0.602450
  C      1.658970    5.906650    0.321700
  C      0.530120    5.779370    1.158780
  C     -0.089890    4.486320    1.079860
  C     -1.107150    4.148800    2.013470
  C     -1.549330    2.766770    2.250850
  O     -0.956740    1.765160    1.922050
  O     -2.694820    2.690400    2.953530
  C     -1.627950    5.147990    2.811680
  C     -1.161260    6.454680    2.742280
  C     -0.078960    6.783340    1.952960
  O      0.387510    8.049840    1.913230
  C      2.620580    6.935530    0.153570
  N      3.437760    6.927010   -0.964870
  C      4.321100    7.951330   -0.869410
  C      5.368840    8.598160   -1.512070
  C      5.744590    9.655890   -0.668990
  N      4.949750    9.645960    0.459860
  C      4.066130    8.621740    0.357710
  C      3.010780    7.985380    0.997130
  C      6.724090   10.661310   -0.835790
  C      7.575230   10.779870   -1.889030
  C      8.502070   11.839040   -2.037940
  S      9.991430   11.528700   -2.853700
  C     10.709370   13.014830   -2.305980
  C      9.747640   13.801640   -1.648570
  C      8.485660   13.148790   -1.513810
  C      7.397140   13.849020   -0.939960
  C      5.984460   13.413350   -1.026030
  O      5.171420   13.505180   -0.140070
  O      5.659320   12.980450   -2.252860
  C      7.623170   15.095730   -0.395690
  C      8.853980   15.735590   -0.531380
  C      9.894680   15.144780   -1.216440
  O     11.009640   15.830830   -1.540900
  C     12.080990   13.212060   -2.529500
  C     12.940460   13.879490   -1.693130
  C     14.300210   14.259810   -1.989910
  C     14.910400   14.222560   -3.220120
  C     16.234280   14.640900   -3.457850
  N     17.306140   14.963630   -3.716150
  C     14.298250   13.789320   -4.412970
  N     13.865840   13.465200   -5.427140
  C     14.896550   14.783080   -0.764360
  C     13.915010   14.744400    0.265890
  C     12.666580   14.165670   -0.267320
  O     11.669780   13.894720    0.375480
  C     14.180660   15.178270    1.531470
  C     15.464950   15.687980    1.831060
  C     16.454250   15.724590    0.807640
  C     16.150010   15.262200   -0.494480
  C     17.733630   16.227330    1.118500
  C     18.023650   16.674950    2.378860
  C     17.048060   16.639750    3.385640
  C     15.795650   16.157280    3.117040
  H     -5.227720    2.450630   -0.079700
  H     -3.106000   -1.700840   -1.844830
  H     -5.277290   -2.753230   -1.983480
  H     -7.718680   -2.677790   -1.668520
  H     -8.795680   -0.643290   -0.791610
  H     -7.437640    1.332520   -0.223970
  H      0.946970    2.009040   -1.087140
  H     -2.918210    1.757680    3.095710
  H     -2.418280    4.904660    3.502910
  H     -1.631840    7.222840    3.340870
  H     -0.182420    8.621620    2.445200
  H      3.361080    6.262520   -1.716000
  H      5.816330    8.359090   -2.454790
  H      4.996990   10.335800    1.190570
  H      2.586360    8.216670    1.949200
  H      6.788740   11.385940   -0.034640
  H      7.620990    9.992910   -2.628160
  H      4.717370   12.750950   -2.288770
  H      6.803230   15.612620    0.079070
  H      8.972360   16.740510   -0.149890
  H     10.965560   16.720830   -1.166610
  H     12.487550   12.721940   -3.405740
  H     13.420070   15.135060    2.297320
  H     16.923560   15.295380   -1.245140
  H     18.481420   16.252930    0.339410
  H     19.007040   17.058350    2.606760
  H     17.293500   16.995780    4.375220
  H     15.040420   16.126500    3.889130

 Total Charge           Charge          ....    0
 Multiplicity           Mult            ....    1
 Number of Electrons    NEL             ....  526
 Basis Dimension        Dim             .... 1212

ORBITAL ENERGIES
----------------

  NO   OCC          E(Eh)            E(eV)
   0   2.0000     -88.979762     -2421.2624
   1   2.0000     -88.975832     -2421.1555
   2   2.0000     -19.276039      -524.5277
   3   2.0000     -19.268705      -524.3281
   4   2.0000     -19.267910      -524.3065
   5   2.0000     -19.251513      -523.8603
   6   2.0000     -19.212149      -522.7891
   7   2.0000     -19.200073      -522.4606
   8   2.0000     -19.197170      -522.3815
   9   2.0000     -19.193942      -522.2937
  10   2.0000     -14.472285      -393.8109
  11   2.0000     -14.471908      -393.8006
  12   2.0000     -14.403991      -391.9525
  13   2.0000     -14.403033      -391.9264
  14   2.0000     -14.399096      -391.8193
  15   2.0000     -14.396745      -391.7553
  16   2.0000     -10.413327      -283.3610
  17   2.0000     -10.393861      -282.8313
  18   2.0000     -10.364283      -282.0265
  19   2.0000     -10.359326      -281.8916
  20   2.0000     -10.353133      -281.7231
  21   2.0000     -10.345119      -281.5050
  22   2.0000     -10.340727      -281.3855
  23   2.0000     -10.331812      -281.1429
  24   2.0000     -10.327891      -281.0362
  25   2.0000     -10.327869      -281.0356
  26   2.0000     -10.327245      -281.0186
  27   2.0000     -10.324029      -280.9311
  28   2.0000     -10.321467      -280.8614
  29   2.0000     -10.320392      -280.8321
  30   2.0000     -10.315685      -280.7041
  31   2.0000     -10.312127      -280.6072
  32   2.0000     -10.309687      -280.5408
  33   2.0000     -10.308004      -280.4950
  34   2.0000     -10.307886      -280.4918
  35   2.0000     -10.307536      -280.4823
  36   2.0000     -10.306807      -280.4625
  37   2.0000     -10.304806      -280.4080
  38   2.0000     -10.302964      -280.3579
  39   2.0000     -10.302750      -280.3521
  40   2.0000     -10.301867      -280.3281
  41   2.0000     -10.301510      -280.3183
  42   2.0000     -10.301363      -280.3143
  43   2.0000     -10.300855      -280.3005
  44   2.0000     -10.300848      -280.3003
  45   2.0000     -10.297682      -280.2142
  46   2.0000     -10.296296      -280.1764
  47   2.0000     -10.295047      -280.1425
  48   2.0000     -10.293412      -280.0980
  49   2.0000     -10.292057      -280.0611
  50   2.0000     -10.290731      -280.0250
  51   2.0000     -10.290156      -280.0094
  52   2.0000     -10.288413      -279.9620
  53   2.0000     -10.288062      -279.9524
  54   2.0000     -10.287522      -279.9377
  55   2.0000     -10.287094      -279.9261
  56   2.0000     -10.285221      -279.8751
  57   2.0000     -10.284549      -279.8568
  58   2.0000     -10.283623      -279.8316
  59   2.0000     -10.283482      -279.8278
  60   2.0000     -10.282247      -279.7942
  61   2.0000     -10.281990      -279.7872
  62   2.0000     -10.281176      -279.7650
  63   2.0000     -10.281095      -279.7628
  64   2.0000     -10.281075      -279.7623
  65   2.0000     -10.280749      -279.7534
  66   2.0000     -10.280624      -279.7500
  67   2.0000     -10.279981      -279.7325
  68   2.0000     -10.279652      -279.7236
  69   2.0000     -10.279462      -279.7184
  70   2.0000     -10.276346      -279.6336
  71   2.0000     -10.275710      -279.6163
  72   2.0000     -10.275070      -279.5989
  73   2.0000     -10.274805      -279.5917
  74   2.0000     -10.274544      -279.5846
  75   2.0000     -10.273386      -279.5531
  76   2.0000      -8.075460      -219.7444
  77   2.0000      -8.071789      -219.6445
  78   2.0000      -6.044363      -164.4755
  79   2.0000      -6.040798      -164.3785
  80   2.0000      -6.040325      -164.3656
  81   2.0000      -6.038185      -164.3074
  82   2.0000      -6.036723      -164.2676
  83   2.0000      -6.034276      -164.2010
  84   2.0000      -1.196822       -32.5672
  85   2.0000      -1.180401       -32.1204
  86   2.0000      -1.173882       -31.9430
  87   2.0000      -1.167615       -31.7724
  88   2.0000      -1.114576       -30.3292
  89   2.0000      -1.111730       -30.2517
  90   2.0000      -1.106412       -30.1070
  91   2.0000      -1.100320       -29.9412
  92   2.0000      -1.082130       -29.4463
  93   2.0000      -1.070619       -29.1330
  94   2.0000      -1.012893       -27.5622
  95   2.0000      -1.006672       -27.3929
  96   2.0000      -1.006284       -27.3824
  97   2.0000      -1.000371       -27.2215
  98   2.0000      -0.988672       -26.9031
  99   2.0000      -0.983095       -26.7514
 100   2.0000      -0.982279       -26.7292
 101   2.0000      -0.976643       -26.5758
 102   2.0000      -0.962994       -26.2044
 103   2.0000      -0.956802       -26.0359
 104   2.0000      -0.948833       -25.8191
 105   2.0000      -0.944317       -25.6962
 106   2.0000      -0.927404       -25.2359
 107   2.0000      -0.913877       -24.8678
 108   2.0000      -0.912670       -24.8350
 109   2.0000      -0.901275       -24.5249
 110   2.0000      -0.894872       -24.3507
 111   2.0000      -0.883617       -24.0445
 112   2.0000      -0.880913       -23.9709
 113   2.0000      -0.876280       -23.8448
 114   2.0000      -0.873403       -23.7665
 115   2.0000      -0.869422       -23.6582
 116   2.0000      -0.867142       -23.5961
 117   2.0000      -0.860143       -23.4057
 118   2.0000      -0.852310       -23.1925
 119   2.0000      -0.851082       -23.1591
 120   2.0000      -0.847468       -23.0608
 121   2.0000      -0.834267       -22.7016
 122   2.0000      -0.820697       -22.3323
 123   2.0000      -0.818561       -22.2742
 124   2.0000      -0.815121       -22.1806
 125   2.0000      -0.798038       -21.7157
 126   2.0000      -0.782191       -21.2845
 127   2.0000      -0.767397       -20.8819
 128   2.0000      -0.760316       -20.6892
 129   2.0000      -0.751134       -20.4394
 130   2.0000      -0.749621       -20.3982
 131   2.0000      -0.745255       -20.2794
 132   2.0000      -0.740468       -20.1491
 133   2.0000      -0.725055       -19.7297
 134   2.0000      -0.716067       -19.4852
 135   2.0000      -0.709644       -19.3104
 136   2.0000      -0.707369       -19.2485
 137   2.0000      -0.705060       -19.1857
 138   2.0000      -0.702640       -19.1198
 139   2.0000      -0.695888       -18.9361
 140   2.0000      -0.691363       -18.8129
 141   2.0000      -0.690715       -18.7953
 142   2.0000      -0.687556       -18.7094
 143   2.0000      -0.684152       -18.6167
 144   2.0000      -0.677616       -18.4389
 145   2.0000      -0.675507       -18.3815
 146   2.0000      -0.667793       -18.1716
 147   2.0000      -0.659550       -17.9473
 148   2.0000      -0.657540       -17.8926
 149   2.0000      -0.649982       -17.6869
 150   2.0000      -0.641441       -17.4545
 151   2.0000      -0.635217       -17.2851
 152   2.0000      -0.627657       -17.0794
 153   2.0000      -0.623958       -16.9788
 154   2.0000      -0.618216       -16.8225
 155   2.0000      -0.611803       -16.6480
 156   2.0000      -0.606450       -16.5024
 157   2.0000      -0.598875       -16.2962
 158   2.0000      -0.598357       -16.2821
 159   2.0000      -0.595511       -16.2047
 160   2.0000      -0.593310       -16.1448
 161   2.0000      -0.589217       -16.0334
 162   2.0000      -0.583985       -15.8910
 163   2.0000      -0.580612       -15.7993
 164   2.0000      -0.571413       -15.5489
 165   2.0000      -0.568811       -15.4781
 166   2.0000      -0.565068       -15.3763
 167   2.0000      -0.560724       -15.2581
 168   2.0000      -0.558651       -15.2017
 169   2.0000      -0.554758       -15.0957
 170   2.0000      -0.551878       -15.0174
 171   2.0000      -0.550826       -14.9887
 172   2.0000      -0.547974       -14.9111
 173   2.0000      -0.542531       -14.7630
 174   2.0000      -0.540774       -14.7152
 175   2.0000      -0.538801       -14.6615
 176   2.0000      -0.538086       -14.6421
 177   2.0000      -0.537346       -14.6219
 178   2.0000      -0.534915       -14.5558
 179   2.0000      -0.533569       -14.5192
 180   2.0000      -0.532527       -14.4908
 181   2.0000      -0.531235       -14.4556
 182   2.0000      -0.529140       -14.3986
 183   2.0000      -0.525689       -14.3047
 184   2.0000      -0.523747       -14.2519
 185   2.0000      -0.520060       -14.1516
 186   2.0000      -0.518940       -14.1211
 187   2.0000      -0.512768       -13.9531
 188   2.0000      -0.509326       -13.8595
 189   2.0000      -0.509045       -13.8518
 190   2.0000      -0.507787       -13.8176
 191   2.0000      -0.505633       -13.7590
 192   2.0000      -0.502773       -13.6811
 193   2.0000      -0.501346       -13.6423
 194   2.0000      -0.499369       -13.5885
 195   2.0000      -0.496993       -13.5239
 196   2.0000      -0.494637       -13.4598
 197   2.0000      -0.492812       -13.4101
 198   2.0000      -0.489390       -13.3170
 199   2.0000      -0.488378       -13.2894
 200   2.0000      -0.487408       -13.2630
 201   2.0000      -0.484619       -13.1872
 202   2.0000      -0.483248       -13.1498
 203   2.0000      -0.480071       -13.0634
 204   2.0000      -0.478453       -13.0194
 205   2.0000      -0.475497       -12.9389
 206   2.0000      -0.472202       -12.8493
 207   2.0000      -0.470720       -12.8089
 208   2.0000      -0.463400       -12.6097
 209   2.0000      -0.462588       -12.5877
 210   2.0000      -0.459829       -12.5126
 211   2.0000      -0.457345       -12.4450
 212   2.0000      -0.454875       -12.3778
 213   2.0000      -0.452277       -12.3071
 214   2.0000      -0.450804       -12.2670
 215   2.0000      -0.444713       -12.1013
 216   2.0000      -0.441414       -12.0115
 217   2.0000      -0.440029       -11.9738
 218   2.0000      -0.438377       -11.9288
 219   2.0000      -0.435582       -11.8528
 220   2.0000      -0.434178       -11.8146
 221   2.0000      -0.433256       -11.7895
 222   2.0000      -0.432476       -11.7683
 223   2.0000      -0.430544       -11.7157
 224   2.0000      -0.426320       -11.6008
 225   2.0000      -0.425928       -11.5901
 226   2.0000      -0.423001       -11.5105
 227   2.0000      -0.420907       -11.4534
 228   2.0000      -0.419909       -11.4263
 229   2.0000      -0.418709       -11.3937
 230   2.0000      -0.414955       -11.2915
 231   2.0000      -0.412275       -11.2186
 232   2.0000      -0.410724       -11.1764
 233   2.0000      -0.409963       -11.1556
 234   2.0000      -0.409601       -11.1458
 235   2.0000      -0.404261       -11.0005
 236   2.0000      -0.401262       -10.9189
 237   2.0000      -0.398844       -10.8531
 238   2.0000      -0.397132       -10.8065
 239   2.0000      -0.390322       -10.6212
 240   2.0000      -0.388286       -10.5658
 241   2.0000      -0.385401       -10.4873
 242   2.0000      -0.374323       -10.1859
 243   2.0000      -0.370896       -10.0926
 244   2.0000      -0.365592        -9.9483
 245   2.0000      -0.361712        -9.8427
 246   2.0000      -0.357016        -9.7149
 247   2.0000      -0.346340        -9.4244
 248   2.0000      -0.338996        -9.2245
 249   2.0000      -0.336014        -9.1434
 250   2.0000      -0.333661        -9.0794
 251   2.0000      -0.326399        -8.8818
 252   2.0000      -0.322195        -8.7674
 253   2.0000      -0.313132        -8.5208
 254   2.0000      -0.307893        -8.3782
 255   2.0000      -0.304227        -8.2784
 256   2.0000      -0.300665        -8.1815
 257   2.0000      -0.293069        -7.9748
 258   2.0000      -0.290311        -7.8998
 259   2.0000      -0.286018        -7.7829
 260   2.0000      -0.279278        -7.5996
 261   2.0000      -0.255613        -6.9556
 262   2.0000      -0.224823        -6.1177
 263   0.0000      -0.103581        -2.8186
 264   0.0000      -0.082864        -2.2548
 265   0.0000      -0.056942        -1.5495
 266   0.0000      -0.051908        -1.4125
 267   0.0000      -0.036231        -0.9859

MULLIKEN ATOMIC CHARGES
-----------------------
   0 C :    0.332303
   1 C :   -0.366072
   2 C :   -0.185164
   3 N :    0.137285
   4 C :   -0.190287
   5 N :    0.137398
   6 C :    0.053296
   7 C :   -0.000719
   8 C :   -0.102641
   9 C :    0.102926
  10 C :    0.097337
  11 C :   -0.096708
  12 C :   -0.020575
  13 C :    0.034507
  14 C :    0.031982
  15 C :   -0.020555
  16 C :    0.109383
  17 O :   -0.166455
  18 C :   -0.045216
  19 C :    0.027320
  20 C :   -0.163790
  21 S :    0.140070
  22 C :   -0.114928
  23 C :    0.086052
  24 C :    0.140405
  25 C :    0.015120
  26 C :    0.091990
  27 O :   -0.194757
  28 O :   -0.179534
  29 C :    0.011511
  30 C :   -0.049678
  31 C :    0.104901
  32 O :   -0.165357
  33 C :    0.077647
  34 N :   -0.053491
  35 C :    0.125333
  36 C :   -0.167234
  37 C :    0.074602
  38 N :   -0.023642
  39 C :    0.103932
  40 C :   -0.118484
  41 C :    0.026767
  42 C :    0.025236
  43 C :   -0.139603
  44 S :    0.197854
  45 C :   -0.185637
  46 C :    0.164495
  47 C :    0.135355
  48 C :   -0.025317
  49 C :    0.067585
  50 O :   -0.208121
  51 O :   -0.167581
  52 C :    0.002581
  53 C :   -0.063542
  54 C :    0.128723
  55 O :   -0.163052
  56 C :    0.015702
  57 C :   -0.074367
  58 C :    0.309449
  59 C :   -0.361661
  60 C :   -0.184621
  61 N :    0.140858
  62 C :   -0.204658
  63 N :    0.152404
  64 C :    0.055482
  65 C :   -0.008504
  66 C :    0.133918
  67 O :   -0.167771
  68 C :   -0.099373
  69 C :    0.103933
  70 C :    0.099793
  71 C :   -0.096821
  72 C :   -0.023640
  73 C :    0.035437
  74 C :    0.035586
  75 C :   -0.023282
  76 H :   -0.021625
  77 H :   -0.010943
  78 H :   -0.011789
  79 H :   -0.009563
  80 H :   -0.009404
  81 H :   -0.023826
  82 H :    0.003527
  83 H :    0.188063
  84 H :    0.004138
  85 H :   -0.038215
  86 H :    0.190311
  87 H :    0.131822
  88 H :   -0.027530
  89 H :    0.131884
  90 H :   -0.032191
  91 H :    0.005682
  92 H :   -0.007251
  93 H :    0.191529
  94 H :   -0.000117
  95 H :   -0.031427
  96 H :    0.189692
  97 H :    0.021595
  98 H :   -0.020385
  99 H :   -0.009821
 100 H :   -0.009384
 101 H :   -0.008164
 102 H :   -0.009105
 103 H :   -0.021118
Sum of atomic charges:    0.0000000

LOEWDIN ATOMIC CHARGES
----------------------
   0 C :    0.082584
   1 C :   -0.150582
   2 C :   -0.016684
   3 N :   -0.068104
   4 C :   -0.018741
   5 N :   -0.066252
   6 C :   -0.021381
   7 C :   -0.050478
   8 C :    0.018999
   9 C :   -0.010786
  10 C :   -0.009217
  11 C :    0.015441
  12 C :   -0.006509
  13 C :   -0.019124
  14 C :   -0.017540
  15 C :   -0.013948
  16 C :    0.069632
  17 O :   -0.152624
  18 C :   -0.095837
  19 C :    0.035443
  20 C :   -0.182499
  21 S :    0.481107
  22 C :   -0.127110
  23 C :   -0.074383
  24 C :    0.007720
  25 C :   -0.078208
  26 C :    0.080153
  27 O :   -0.179225
  28 O :   -0.041647
  29 C :    0.043100
  30 C :   -0.099296
  31 C :    0.083652
  32 O :   -0.022426
  33 C :   -0.023700
  34 N :    0.063668
  35 C :   -0.005004
  36 C :   -0.087092
  37 C :    0.003257
  38 N :    0.077588
  39 C :   -0.020319
  40 C :   -0.058754
  41 C :   -0.014171
  42 C :   -0.048490
  43 C :   -0.137151
  44 S :    0.506748
  45 C :   -0.178288
  46 C :   -0.033839
  47 C :   -0.031378
  48 C :   -0.080397
  49 C :    0.075990
  50 O :   -0.192323
  51 O :   -0.028345
  52 C :    0.018494
  53 C :   -0.071505
  54 C :    0.080750
  55 O :   -0.016384
  56 C :    0.032764
  57 C :   -0.097432
  58 C :    0.075127
  59 C :   -0.150460
  60 C :   -0.018037
  61 N :   -0.064612
  62 C :   -0.022847
  63 N :   -0.061779
  64 C :   -0.024131
  65 C :   -0.052447
  66 C :    0.072614
  67 O :   -0.160591
  68 C :    0.021118
  69 C :   -0.010317
  70 C :   -0.008503
  71 C :    0.015260
  72 C :   -0.006447
  73 C :   -0.017170
  74 C :   -0.015831
  75 C :   -0.013209
  76 H :    0.035260
  77 H :    0.037959
  78 H :    0.033674
  79 H :    0.031147
  80 H :    0.030644
  81 H :    0.029254
  82 H :    0.038295
  83 H :    0.098183
  84 H :    0.038776
  85 H :    0.026712
  86 H :    0.102245
  87 H :    0.080352
  88 H :    0.026630
  89 H :    0.095354
  90 H :    0.023511
  91 H :    0.037194
  92 H :    0.031474
  93 H :    0.100254
  94 H :    0.039184
  95 H :    0.029681
  96 H :    0.102549
  97 H :    0.043264
  98 H :    0.035353
  99 H :    0.038248
 100 H :    0.034243
 101 H :    0.031823
 102 H :    0.031143
 103 H :    0.029936

  Mayer bond orders larger than 0.100000
B(  0-C ,  1-C ) :   1.6009 B(  0-C ,  6-C ) :   0.9772 B(  0-C , 18-C ) :   1.1124
B(  1-C ,  2-C ) :   1.1490 B(  1-C ,  4-C ) :   1.1499 B(  2-C ,  3-N ) :   2.9581
B(  4-C ,  5-N ) :   2.9595 B(  6-C ,  7-C ) :   1.2128 B(  6-C , 11-C ) :   1.4545
B(  7-C ,  8-C ) :   1.4767 B(  7-C , 16-C ) :   0.9399 B(  8-C ,  9-C ) :   1.1649
B(  8-C , 76-H ) :   1.0170 B(  9-C , 10-C ) :   1.2623 B(  9-C , 15-C ) :   1.2469
B( 10-C , 11-C ) :   1.1958 B( 10-C , 12-C ) :   1.2450 B( 11-C , 77-H ) :   0.9886
B( 12-C , 13-C ) :   1.4852 B( 12-C , 78-H ) :   0.9964 B( 13-C , 14-C ) :   1.2637
B( 13-C , 79-H ) :   0.9879 B( 14-C , 15-C ) :   1.4843 B( 14-C , 80-H ) :   0.9889
B( 15-C , 81-H ) :   0.9969 B( 16-C , 17-O ) :   2.1749 B( 16-C , 18-C ) :   0.9743
B( 18-C , 19-C ) :   1.5258 B( 19-C , 20-C ) :   1.2612 B( 19-C , 82-H ) :   0.9063
B( 20-C , 21-S ) :   1.0834 B( 20-C , 22-C ) :   0.1004 B( 20-C , 24-C ) :   1.3342
B( 21-S , 22-C ) :   1.2023 B( 22-C , 23-C ) :   1.3113 B( 22-C , 33-C ) :   1.1184
B( 23-C , 24-C ) :   1.2453 B( 23-C , 31-C ) :   1.1952 B( 24-C , 25-C ) :   1.2286
B( 25-C , 26-C ) :   0.9417 B( 25-C , 29-C ) :   1.4602 B( 26-C , 27-O ) :   2.1174
B( 26-C , 28-O ) :   1.2744 B( 28-O , 83-H ) :   0.9428 B( 29-C , 30-C ) :   1.2440
B( 29-C , 84-H ) :   0.9839 B( 30-C , 31-C ) :   1.4030 B( 30-C , 85-H ) :   0.9835
B( 31-C , 32-O ) :   1.2487 B( 32-O , 86-H ) :   0.9487 B( 33-C , 34-N ) :   1.1752
B( 33-C , 40-C ) :   1.4011 B( 34-N , 35-C ) :   1.1791 B( 34-N , 87-H ) :   0.9255
B( 35-C , 36-C ) :   1.2730 B( 35-C , 39-C ) :   1.2847 B( 36-C , 37-C ) :   1.3823
B( 36-C , 88-H ) :   1.0324 B( 37-C , 38-N ) :   1.1819 B( 37-C , 41-C ) :   1.1656
B( 38-N , 39-C ) :   1.1683 B( 38-N , 89-H ) :   0.9318 B( 39-C , 40-C ) :   1.2757
B( 40-C , 90-H ) :   1.0223 B( 41-C , 42-C ) :   1.6456 B( 41-C , 91-H ) :   0.9293
B( 42-C , 43-C ) :   1.1466 B( 42-C , 92-H ) :   0.9531 B( 43-C , 44-S ) :   1.1967
B( 43-C , 47-C ) :   1.2935 B( 44-S , 45-C ) :   1.1184 B( 45-C , 46-C ) :   1.2856
B( 45-C , 56-C ) :   1.2344 B( 46-C , 47-C ) :   1.2778 B( 46-C , 54-C ) :   1.1895
B( 47-C , 48-C ) :   1.1988 B( 48-C , 49-C ) :   0.9129 B( 48-C , 52-C ) :   1.5282
B( 49-C , 50-O ) :   2.1392 B( 49-C , 51-O ) :   1.2465 B( 51-O , 93-H ) :   0.9440
B( 52-C , 53-C ) :   1.2372 B( 52-C , 94-H ) :   0.9879 B( 53-C , 54-C ) :   1.4210
B( 53-C , 95-H ) :   0.9856 B( 54-C , 55-O ) :   1.2459 B( 55-O , 96-H ) :   0.9498
B( 56-C , 57-C ) :   1.5349 B( 56-C , 97-H ) :   0.9273 B( 57-C , 58-C ) :   1.1175
B( 57-C , 66-C ) :   0.9531 B( 58-C , 59-C ) :   1.6086 B( 58-C , 64-C ) :   0.9804
B( 59-C , 60-C ) :   1.1513 B( 59-C , 62-C ) :   1.1489 B( 60-C , 61-N ) :   2.9610
B( 62-C , 63-N ) :   2.9841 B( 64-C , 65-C ) :   1.2151 B( 64-C , 71-C ) :   1.4539
B( 65-C , 66-C ) :   0.9381 B( 65-C , 68-C ) :   1.4758 B( 66-C , 67-O ) :   2.2017
B( 68-C , 69-C ) :   1.1692 B( 68-C , 98-H ) :   1.0177 B( 69-C , 70-C ) :   1.2621
B( 69-C , 75-C ) :   1.2451 B( 70-C , 71-C ) :   1.1964 B( 70-C , 72-C ) :   1.2422
B( 71-C , 99-H ) :   0.9910 B( 72-C , 73-C ) :   1.4864 B( 72-C ,100-H ) :   0.9977
B( 73-C , 74-C ) :   1.2632 B( 73-C ,101-H ) :   0.9881 B( 74-C , 75-C ) :   1.4867
B( 74-C ,102-H ) :   0.9882 B( 75-C ,103-H ) :   0.9977

-----------------------------------------------------------------------------
         ABSORPTION SPECTRUM VIA TRANSITION ELECTRIC DIPOLE MOMENTS
-----------------------------------------------------------------------------
State   Energy  Wavelength   fosc         T2         TX        TY        TZ
        (cm-1)    (nm)                  (au**2)     (au)      (au)      (au)
-----------------------------------------------------------------------------
   0   12305.0    812.7   2.344663046  62.72983  -6.10918  -5.03023   0.32326
   1   17136.4    583.6   0.202458392   3.88948  -0.67493   1.69989   0.73778
   2   20719.6    482.6   0.042631322   0.67737   0.77341  -0.25427  -0.12064
   3   22927.3    436.2   0.041856130   0.60101   0.27932  -0.07464  -0.71932
   4   23349.3    428.3   0.078533888   1.10728  -0.74685   0.26526   0.69220
   5   23944.8    417.6   0.012903070   0.17740  -0.17504   0.37928  -0.05394
   6   24244.5    412.5   0.050327419   0.68339   0.08142   0.19224   0.79988
   7   24818.1    402.9   0.025737576   0.34141  -0.33403  -0.28356   0.38655
   8   26115.1    382.9   0.060808066   0.76656   0.34026   0.20124   0.78121
   9   26707.0    374.4   0.051370523   0.63323  -0.45291   0.24890  -0.60510
  10   27119.2    368.7   0.057629703   0.69959  -0.65408  -0.40476   0.32855
  11   27817.6    359.5   0.023777935   0.28140  -0.32097   0.23362  -0.35186
  12   28048.1    356.5   0.035088817   0.41185   0.15173   0.41436  -0.46598
  13   28446.5    351.5   0.029690885   0.34361  -0.04139  -0.26665  -0.52038
  14   28774.4    347.5   0.010970395   0.12551   0.17503  -0.30740  -0.01954
  15   29140.3    343.2   0.011793101   0.13323  -0.10059  -0.30196  -0.17871
  16   30135.8    331.8   0.087674057   0.95777  -0.54547  -0.81255   0.00201
  17   30483.4    328.0   0.086092554   0.92977   0.26734   0.64451   0.66552
  18   30825.4    324.4   0.049782203   0.53167  -0.34863   0.18106   0.61428
  19   30954.0    323.1   0.116277007   1.23667   1.04627   0.14983  -0.34573
  20   31744.0    315.0   0.042643100   0.44225   0.06443  -0.52631  -0.40136
  21   31885.9    313.6   0.073321642   0.75702   0.59752  -0.05047   0.63043
  22   32114.7    311.4   0.030631752   0.31401  -0.54356   0.13557  -0.01299
  23   32543.4    307.3   0.235244592   2.37975   1.28614   0.41251   0.74527
  24   32787.7    305.0   0.092557998   0.92935  -0.11009  -0.46305  -0.83834
  25   33142.6    301.7   0.479051714   4.75852  -1.25487  -0.79483  -1.59752
  26   33238.7    300.9   0.269161152   2.66590  -1.54368  -0.33887   0.41002
  27   33744.7    296.3   0.073620932   0.71824  -0.47182   0.42576  -0.56067
  28   33912.7    294.9   0.106515813   1.03402  -1.01662   0.00080   0.02229
  29   34406.4    290.6   0.071370264   0.68290  -0.60850  -0.20300  -0.52097
  30   34652.9    288.6   0.006550540   0.06223  -0.09694  -0.21679  -0.07639
  31   35242.2    283.8   0.046870000   0.43783  -0.43996  -0.40474  -0.28365
  32   35722.0    279.9   0.013169684   0.12137   0.13940  -0.27466   0.16278
  33   35776.5    279.5   0.018758833   0.17262   0.03507   0.26591   0.31730
  34   35887.7    278.6   0.068584931   0.62916  -0.30396  -0.72306  -0.11809
  35   36035.7    277.5   0.054771879   0.50038  -0.54161   0.08928   0.44617
  36   36519.0    273.8   0.036805707   0.33180   0.19778   0.54099   0.00321
  37   36663.4    272.8   0.412151673   3.70083   1.30506  -1.02974  -0.96814
  38   37065.6    269.8   0.189966865   1.68726  -1.03169   0.40111   0.67969
  39   37173.9    269.0   0.031276327   0.27698   0.49442  -0.05867  -0.17056
  40   37435.0    267.1   0.330714102   2.90837   1.02313   0.08034  -1.36203
  41   37658.4    265.5   0.032456717   0.28374   0.22707   0.00352   0.48183
  42   38223.2    261.6   0.154685530   1.33229  -1.08707   0.31550   0.22588
  43   38413.6    260.3   0.132815000   1.13825   0.82508   0.49808   0.45762
  44   38570.6    259.3   0.027927394   0.23837   0.43424  -0.20104  -0.09689
  45   39033.6    256.2   0.017482742   0.14745   0.30582   0.05555   0.22548
  46   39286.2    254.5   0.026013600   0.21799  -0.03004  -0.19798  -0.42177
  47   39473.6    253.3   0.043845613   0.36567  -0.41131  -0.10367  -0.43099
  48   39684.6    252.0   0.031773842   0.26359   0.13319  -0.45006  -0.20806
  49   39716.2    251.8   0.105416719   0.87381   0.48608  -0.67528  -0.42606
  50   40072.0    249.6   0.030671625   0.25198   0.07328   0.40972   0.28062
  51   40224.4    248.6   0.023775224   0.19459  -0.00758  -0.31630  -0.30739
  52   40317.7    248.0   0.061749830   0.50421  -0.34332   0.31984   0.53296

FINAL SINGLE POINT ENERGY     -4025.625487412361

DIPOLE MOMENT
-------------
                                X             Y             Z
Electronic contribution:      9.41834      -9.00587     -16.32467
Nuclear contribution   :    -12.33421      13.03607      19.93495
                        -----------------------------------------
Total Dipole Moment    :     -2.91587       4.03020       3.61028
                        -----------------------------------------
Magnitude (a.u.)       :      6.14645
Magnitude (Debye)      :     15.62305

Rotational constants in cm-1:     0.002469     0.000187     0.000183
Rotational constants in MHz :    74.012881     5.618086     5.496177

                             ****ORCA TERMINATED NORMALLY****
TOTAL RUN TIME: 0 days 0 hours 15 minutes 15 seconds 869 msec
