                         Program Version 4.2.0 -  RELEASE  -
|  1> # ORCA input file
|  2> # SCF done       -205.802167594509          0.000279824699
|  3> ! CAM-B3LYP def2-SVP def2/J RIJCOSX Grid4 TightSCF
|  4> %maxcore 5000
|  5> %tddft
|  6>     Mode sTDDFT
|  7>     Ethresh 5.0
|  8>     maxcore 5000
|  9> end
| 10>
| 11> %pal
| 12>   nprocs 6
| 13>   end
| 14> * xyz 0 1
| 15>    C        1.10084         2.89015        -2.89863
| 16>    C        2.22244         3.35844        -2.26071
| 17>    C        3.28139         2.53762        -1.82885
| 18>    N        4.16133         1.91482        -1.43230
| 19>    C        2.48021         4.72501        -2.03396
| 20>    N        2.75173         5.82808        -1.86387
| 21>    C        0.93538         1.53187        -3.40724
| 22>    C       -0.06356         1.54894        -4.42410
| 23>    C       -0.39958         0.42279        -5.11728
| 24>    C        0.25104        -0.79471        -4.81237
| 25>    C        1.23680        -0.82171        -3.78440
| 26>    C        1.56992         0.36278        -3.08724
| 27>    C        1.87363        -2.04328        -3.48635
| 28>    C        1.55735        -3.18402        -4.17257
| 29>    C        0.58802        -3.15624        -5.18599
| 30>    C       -0.05105        -1.98715        -5.49873
| 31>    C       -0.61071         2.91390        -4.54250
| 32>    O       -1.43383         3.32230        -5.33216
| 33>    C        0.02480         3.68680        -3.44337
| 34>    C       -0.49242         4.90232        -3.10208
| 35>    C       -0.33634         5.61556        -1.89580
| 36>    S       -0.03844         4.72685        -0.42590
| 37>    C        0.05782         6.14595         0.51866
| 38>    C       -0.08061         7.28316        -0.26603
| 39>    C       -0.38996         6.99617        -1.63810
| 40>    C       -0.58680         8.08914        -2.52225
| 41>    C       -1.05806         8.03052        -3.92583
| 42>    O       -0.66622         8.76201        -4.79906
| 43>    O       -2.05136         7.15194        -4.13211
| 44>    C       -0.37695         9.36831        -2.04852
| 45>    C       -0.01122         9.63813        -0.72950
| 46>    C        0.13506         8.61739         0.17745
| 47>    O        0.53502         8.81993         1.44634
| 48>    C        0.24770         6.06281         1.94668
| 49>    C        1.25606         5.42359         2.61157
| 50>    O        1.11721         5.56521         3.93757
| 51>    C        0.00397         6.26544         4.15455
| 52>    C       -0.60293         6.60616         2.97227
| 53>    C       -1.84852         7.35694         2.76851
| 54>    O       -2.12498         7.92650         1.72887
| 55>    C       -2.77344         7.38887         3.90215
| 56>    C       -3.01217         6.47376         4.90272
| 57>    C       -4.06759         6.84194         5.73543
| 58>    C       -4.66425         8.03431         5.36907
| 59>    S       -3.88814         8.71211         3.97272
| 60>    C       -5.68348         8.71880         6.09192
| 61>    S       -5.77111         8.45081         7.79497
| 62>    C       -6.97931         9.67059         8.02567
| 63>    C       -7.23513        10.32830         6.81275
| 64>    C       -6.58205         9.72215         5.69448
| 65>    C       -6.90613        10.16947         4.38544
| 66>    C       -6.64661         9.42215         3.13534
| 67>    O       -6.51821         9.93185         2.05269
| 68>    O       -6.68001         8.08890         3.30140
| 69>    C       -7.66455        11.31110         4.25115
| 70>    C       -8.13164        12.02152         5.35799
| 71>    C       -7.94551        11.54613         6.63611
| 72>    O       -8.35569        12.23640         7.72066
| 73>    C       -7.53805         9.82799         9.31013
| 74>    C       -8.80855        10.25465         9.58379
| 75>    C       -9.33224        10.60674        10.88600
| 76>    C       -8.61413        10.74208        12.04756
| 77>    C       -9.17575        11.12174        13.28381
| 78>    N       -9.57046        11.42089        14.31994
| 79>    C       -7.22484        10.53957        12.17518
| 80>    N       -6.09882        10.40569        12.35917
| 81>    C      -10.75786        10.87956        10.73612
| 82>    C      -11.11240        10.69535         9.36978
| 83>    C       -9.92463        10.27724         8.60415
| 84>    O       -9.90761         9.92680         7.44112
| 85>    C      -12.38679        10.88769         8.92167
| 86>    C      -13.38499        11.29424         9.83566
| 87>    C      -13.03986        11.47824        11.20533
| 88>    C      -11.71212        11.26061        11.64154
| 89>    C      -14.04347        11.88100        12.10946
| 90>    C      -15.32600        12.09479        11.68264
| 91>    C      -15.66433        11.91398        10.33345
| 92>    C      -14.71420        11.52235         9.42953
| 93>    H       -1.15170         0.45824        -5.89141
| 94>    H        2.31498         0.31404        -2.30840
| 95>    H        2.62217        -2.05843        -2.70767
| 96>    H        2.05345        -4.11422        -3.93885
| 97>    H        0.35033        -4.06550        -5.71779
| 98>    H       -0.79828        -1.95987        -6.27845
| 99>    H       -1.17473         5.32125        -3.83131
|100>    H       -2.35010         7.19664        -5.05543
|101>    H       -0.50505        10.19047        -2.73642
|102>    H        0.15595        10.66085        -0.42260
|103>    H        0.62741         9.76804         1.60912
|104>    H        2.10924         4.88643         2.24759
|105>    H       -0.24093         6.49954         5.17186
|106>    H       -2.46655         5.55352         5.00389
|107>    H       -4.40943         6.25605         6.57008
|108>    H       -6.56599         7.65388         2.44124
|109>    H       -7.90104        11.65442         3.25577
|110>    H       -8.67553        12.94354         5.20600
|111>    H       -8.81810        13.03757         7.44000
|112>    H       -6.90508         9.51836        10.13249
|113>    H      -12.63029        10.73590         7.88032
|114>    H      -11.48612        11.40005        12.68667
|115>    H      -13.77807        12.01945        13.14729
|116>    H      -16.08723        12.40454        12.38286
|117>    H      -16.68127        12.08593        10.01376
|118>    H      -14.96893        11.38037         8.38929
|119> *
|120>
|121>                          ****END OF INPUT****

CARTESIAN COORDINATES (ANGSTROEM)
---------------------------------
  C      1.100840    2.890150   -2.898630
  C      2.222440    3.358440   -2.260710
  C      3.281390    2.537620   -1.828850
  N      4.161330    1.914820   -1.432300
  C      2.480210    4.725010   -2.033960
  N      2.751730    5.828080   -1.863870
  C      0.935380    1.531870   -3.407240
  C     -0.063560    1.548940   -4.424100
  C     -0.399580    0.422790   -5.117280
  C      0.251040   -0.794710   -4.812370
  C      1.236800   -0.821710   -3.784400
  C      1.569920    0.362780   -3.087240
  C      1.873630   -2.043280   -3.486350
  C      1.557350   -3.184020   -4.172570
  C      0.588020   -3.156240   -5.185990
  C     -0.051050   -1.987150   -5.498730
  C     -0.610710    2.913900   -4.542500
  O     -1.433830    3.322300   -5.332160
  C      0.024800    3.686800   -3.443370
  C     -0.492420    4.902320   -3.102080
  C     -0.336340    5.615560   -1.895800
  S     -0.038440    4.726850   -0.425900
  C      0.057820    6.145950    0.518660
  C     -0.080610    7.283160   -0.266030
  C     -0.389960    6.996170   -1.638100
  C     -0.586800    8.089140   -2.522250
  C     -1.058060    8.030520   -3.925830
  O     -0.666220    8.762010   -4.799060
  O     -2.051360    7.151940   -4.132110
  C     -0.376950    9.368310   -2.048520
  C     -0.011220    9.638130   -0.729500
  C      0.135060    8.617390    0.177450
  O      0.535020    8.819930    1.446340
  C      0.247700    6.062810    1.946680
  C      1.256060    5.423590    2.611570
  O      1.117210    5.565210    3.937570
  C      0.003970    6.265440    4.154550
  C     -0.602930    6.606160    2.972270
  C     -1.848520    7.356940    2.768510
  O     -2.124980    7.926500    1.728870
  C     -2.773440    7.388870    3.902150
  C     -3.012170    6.473760    4.902720
  C     -4.067590    6.841940    5.735430
  C     -4.664250    8.034310    5.369070
  S     -3.888140    8.712110    3.972720
  C     -5.683480    8.718800    6.091920
  S     -5.771110    8.450810    7.794970
  C     -6.979310    9.670590    8.025670
  C     -7.235130   10.328300    6.812750
  C     -6.582050    9.722150    5.694480
  C     -6.906130   10.169470    4.385440
  C     -6.646610    9.422150    3.135340
  O     -6.518210    9.931850    2.052690
  O     -6.680010    8.088900    3.301400
  C     -7.664550   11.311100    4.251150
  C     -8.131640   12.021520    5.357990
  C     -7.945510   11.546130    6.636110
  O     -8.355690   12.236400    7.720660
  C     -7.538050    9.827990    9.310130
  C     -8.808550   10.254650    9.583790
  C     -9.332240   10.606740   10.886000
  C     -8.614130   10.742080   12.047560
  C     -9.175750   11.121740   13.283810
  N     -9.570460   11.420890   14.319940
  C     -7.224840   10.539570   12.175180
  N     -6.098820   10.405690   12.359170
  C    -10.757860   10.879560   10.736120
  C    -11.112400   10.695350    9.369780
  C     -9.924630   10.277240    8.604150
  O     -9.907610    9.926800    7.441120
  C    -12.386790   10.887690    8.921670
  C    -13.384990   11.294240    9.835660
  C    -13.039860   11.478240   11.205330
  C    -11.712120   11.260610   11.641540
  C    -14.043470   11.881000   12.109460
  C    -15.326000   12.094790   11.682640
  C    -15.664330   11.913980   10.333450
  C    -14.714200   11.522350    9.429530
  H     -1.151700    0.458240   -5.891410
  H      2.314980    0.314040   -2.308400
  H      2.622170   -2.058430   -2.707670
  H      2.053450   -4.114220   -3.938850
  H      0.350330   -4.065500   -5.717790
  H     -0.798280   -1.959870   -6.278450
  H     -1.174730    5.321250   -3.831310
  H     -2.350100    7.196640   -5.055430
  H     -0.505050   10.190470   -2.736420
  H      0.155950   10.660850   -0.422600
  H      0.627410    9.768040    1.609120
  H      2.109240    4.886430    2.247590
  H     -0.240930    6.499540    5.171860
  H     -2.466550    5.553520    5.003890
  H     -4.409430    6.256050    6.570080
  H     -6.565990    7.653880    2.441240
  H     -7.901040   11.654420    3.255770
  H     -8.675530   12.943540    5.206000
  H     -8.818100   13.037570    7.440000
  H     -6.905080    9.518360   10.132490
  H    -12.630290   10.735900    7.880320
  H    -11.486120   11.400050   12.686670
  H    -13.778070   12.019450   13.147290
  H    -16.087230   12.404540   12.382860
  H    -16.681270   12.085930   10.013760
  H    -14.968930   11.380370    8.389290

 Total Charge           Charge          ....    0
 Multiplicity           Mult            ....    1
 Number of Electrons    NEL             ....  548
 Basis Dimension        Dim             .... 1234

ORBITAL ENERGIES
----------------

  NO   OCC          E(Eh)            E(eV)
   0   2.0000     -88.988543     -2421.5014
   1   2.0000     -88.975756     -2421.1534
   2   2.0000     -88.974025     -2421.1063
   3   2.0000     -19.314094      -525.5632
   4   2.0000     -19.273700      -524.4640
   5   2.0000     -19.263142      -524.1767
   6   2.0000     -19.260465      -524.1039
   7   2.0000     -19.257767      -524.0305
   8   2.0000     -19.212359      -522.7949
   9   2.0000     -19.209451      -522.7157
  10   2.0000     -19.201608      -522.5023
  11   2.0000     -19.201029      -522.4866
  12   2.0000     -19.193031      -522.2689
  13   2.0000     -14.413646      -392.2153
  14   2.0000     -14.412112      -392.1735
  15   2.0000     -14.404808      -391.9748
  16   2.0000     -14.402665      -391.9164
  17   2.0000     -10.404446      -283.1194
  18   2.0000     -10.395820      -282.8847
  19   2.0000     -10.376278      -282.3529
  20   2.0000     -10.363510      -282.0055
  21   2.0000     -10.362667      -281.9825
  22   2.0000     -10.352472      -281.7051
  23   2.0000     -10.352310      -281.7007
  24   2.0000     -10.349908      -281.6353
  25   2.0000     -10.341420      -281.4043
  26   2.0000     -10.338873      -281.3350
  27   2.0000     -10.338399      -281.3221
  28   2.0000     -10.337323      -281.2929
  29   2.0000     -10.329810      -281.0884
  30   2.0000     -10.328846      -281.0622
  31   2.0000     -10.328346      -281.0486
  32   2.0000     -10.326902      -281.0093
  33   2.0000     -10.323671      -280.9214
  34   2.0000     -10.318561      -280.7823
  35   2.0000     -10.316781      -280.7339
  36   2.0000     -10.315342      -280.6947
  37   2.0000     -10.312368      -280.6138
  38   2.0000     -10.310426      -280.5610
  39   2.0000     -10.308410      -280.5061
  40   2.0000     -10.307162      -280.4721
  41   2.0000     -10.306486      -280.4538
  42   2.0000     -10.305474      -280.4262
  43   2.0000     -10.303421      -280.3704
  44   2.0000     -10.301811      -280.3265
  45   2.0000     -10.301320      -280.3132
  46   2.0000     -10.301218      -280.3104
  47   2.0000     -10.299126      -280.2535
  48   2.0000     -10.297440      -280.2076
  49   2.0000     -10.297012      -280.1960
  50   2.0000     -10.296527      -280.1827
  51   2.0000     -10.295945      -280.1669
  52   2.0000     -10.295692      -280.1600
  53   2.0000     -10.295559      -280.1564
  54   2.0000     -10.294271      -280.1214
  55   2.0000     -10.293551      -280.1018
  56   2.0000     -10.293540      -280.1015
  57   2.0000     -10.293421      -280.0982
  58   2.0000     -10.289614      -279.9946
  59   2.0000     -10.289479      -279.9910
  60   2.0000     -10.289152      -279.9821
  61   2.0000     -10.289060      -279.9796
  62   2.0000     -10.287692      -279.9423
  63   2.0000     -10.287468      -279.9362
  64   2.0000     -10.287120      -279.9268
  65   2.0000     -10.286979      -279.9229
  66   2.0000     -10.286469      -279.9091
  67   2.0000     -10.286399      -279.9072
  68   2.0000     -10.285872      -279.8928
  69   2.0000     -10.285376      -279.8793
  70   2.0000     -10.280864      -279.7565
  71   2.0000     -10.279368      -279.7158
  72   2.0000     -10.279335      -279.7149
  73   2.0000     -10.278963      -279.7048
  74   2.0000     -10.278916      -279.7035
  75   2.0000     -10.278695      -279.6975
  76   2.0000     -10.278213      -279.6844
  77   2.0000     -10.269976      -279.4603
  78   2.0000      -8.083848      -219.9727
  79   2.0000      -8.070478      -219.6089
  80   2.0000      -8.068958      -219.5675
  81   2.0000      -6.052731      -164.7032
  82   2.0000      -6.048654      -164.5922
  83   2.0000      -6.046705      -164.5392
  84   2.0000      -6.039475      -164.3425
  85   2.0000      -6.038264      -164.3095
  86   2.0000      -6.035186      -164.2257
  87   2.0000      -6.033894      -164.1906
  88   2.0000      -6.033404      -164.1773
  89   2.0000      -6.031250      -164.1187
  90   2.0000      -1.235613       -33.6227
  91   2.0000      -1.188756       -32.3477
  92   2.0000      -1.183395       -32.2018
  93   2.0000      -1.172481       -31.9048
  94   2.0000      -1.161240       -31.5990
  95   2.0000      -1.131544       -30.7909
  96   2.0000      -1.124542       -30.6003
  97   2.0000      -1.115649       -30.3583
  98   2.0000      -1.092301       -29.7230
  99   2.0000      -1.084691       -29.5160
 100   2.0000      -1.023122       -27.8406
 101   2.0000      -1.015523       -27.6338
 102   2.0000      -1.011408       -27.5218
 103   2.0000      -1.002298       -27.2739
 104   2.0000      -0.996989       -27.1294
 105   2.0000      -0.995890       -27.0995
 106   2.0000      -0.991344       -26.9758
 107   2.0000      -0.988036       -26.8858
 108   2.0000      -0.982073       -26.7236
 109   2.0000      -0.970357       -26.4047
 110   2.0000      -0.961996       -26.1773
 111   2.0000      -0.951062       -25.8797
 112   2.0000      -0.941846       -25.6289
 113   2.0000      -0.928285       -25.2599
 114   2.0000      -0.924831       -25.1659
 115   2.0000      -0.913790       -24.8655
 116   2.0000      -0.910625       -24.7794
 117   2.0000      -0.895775       -24.3753
 118   2.0000      -0.889501       -24.2046
 119   2.0000      -0.880531       -23.9605
 120   2.0000      -0.879388       -23.9294
 121   2.0000      -0.872556       -23.7435
 122   2.0000      -0.866990       -23.5920
 123   2.0000      -0.864438       -23.5226
 124   2.0000      -0.859728       -23.3944
 125   2.0000      -0.851089       -23.1593
 126   2.0000      -0.850457       -23.1421
 127   2.0000      -0.845630       -23.0108
 128   2.0000      -0.838942       -22.8288
 129   2.0000      -0.827538       -22.5184
 130   2.0000      -0.819730       -22.3060
 131   2.0000      -0.818075       -22.2610
 132   2.0000      -0.811932       -22.0938
 133   2.0000      -0.786623       -21.4051
 134   2.0000      -0.778626       -21.1875
 135   2.0000      -0.764695       -20.8084
 136   2.0000      -0.759469       -20.6662
 137   2.0000      -0.750890       -20.4328
 138   2.0000      -0.750433       -20.4203
 139   2.0000      -0.745407       -20.2836
 140   2.0000      -0.728704       -19.8290
 141   2.0000      -0.723823       -19.6962
 142   2.0000      -0.715891       -19.4804
 143   2.0000      -0.710839       -19.3429
 144   2.0000      -0.707808       -19.2604
 145   2.0000      -0.702617       -19.1192
 146   2.0000      -0.697523       -18.9806
 147   2.0000      -0.696781       -18.9604
 148   2.0000      -0.695403       -18.9229
 149   2.0000      -0.693219       -18.8635
 150   2.0000      -0.684701       -18.6317
 151   2.0000      -0.675869       -18.3913
 152   2.0000      -0.672090       -18.2885
 153   2.0000      -0.666051       -18.1242
 154   2.0000      -0.664850       -18.0915
 155   2.0000      -0.661279       -17.9943
 156   2.0000      -0.656541       -17.8654
 157   2.0000      -0.640948       -17.4411
 158   2.0000      -0.637856       -17.3569
 159   2.0000      -0.632255       -17.2045
 160   2.0000      -0.630333       -17.1522
 161   2.0000      -0.629050       -17.1173
 162   2.0000      -0.621172       -16.9029
 163   2.0000      -0.613286       -16.6884
 164   2.0000      -0.612399       -16.6642
 165   2.0000      -0.605781       -16.4841
 166   2.0000      -0.598848       -16.2955
 167   2.0000      -0.598472       -16.2852
 168   2.0000      -0.591296       -16.0900
 169   2.0000      -0.582703       -15.8562
 170   2.0000      -0.578962       -15.7544
 171   2.0000      -0.577466       -15.7137
 172   2.0000      -0.570631       -15.5276
 173   2.0000      -0.568693       -15.4749
 174   2.0000      -0.566829       -15.4242
 175   2.0000      -0.559090       -15.2136
 176   2.0000      -0.557671       -15.1750
 177   2.0000      -0.556480       -15.1426
 178   2.0000      -0.550292       -14.9742
 179   2.0000      -0.547517       -14.8987
 180   2.0000      -0.547275       -14.8921
 181   2.0000      -0.545907       -14.8549
 182   2.0000      -0.543905       -14.8004
 183   2.0000      -0.541624       -14.7383
 184   2.0000      -0.538517       -14.6538
 185   2.0000      -0.538199       -14.6451
 186   2.0000      -0.535012       -14.5584
 187   2.0000      -0.533650       -14.5213
 188   2.0000      -0.532237       -14.4829
 189   2.0000      -0.530610       -14.4386
 190   2.0000      -0.527324       -14.3492
 191   2.0000      -0.527017       -14.3409
 192   2.0000      -0.523972       -14.2580
 193   2.0000      -0.523022       -14.2322
 194   2.0000      -0.521042       -14.1783
 195   2.0000      -0.517062       -14.0700
 196   2.0000      -0.516032       -14.0419
 197   2.0000      -0.513071       -13.9614
 198   2.0000      -0.511694       -13.9239
 199   2.0000      -0.510680       -13.8963
 200   2.0000      -0.509086       -13.8529
 201   2.0000      -0.505954       -13.7677
 202   2.0000      -0.505534       -13.7563
 203   2.0000      -0.502963       -13.6863
 204   2.0000      -0.497803       -13.5459
 205   2.0000      -0.496822       -13.5192
 206   2.0000      -0.494833       -13.4651
 207   2.0000      -0.493948       -13.4410
 208   2.0000      -0.492545       -13.4028
 209   2.0000      -0.492195       -13.3933
 210   2.0000      -0.489453       -13.3187
 211   2.0000      -0.486723       -13.2444
 212   2.0000      -0.480118       -13.0647
 213   2.0000      -0.477727       -12.9996
 214   2.0000      -0.476763       -12.9734
 215   2.0000      -0.475994       -12.9525
 216   2.0000      -0.472685       -12.8624
 217   2.0000      -0.466116       -12.6837
 218   2.0000      -0.465532       -12.6678
 219   2.0000      -0.463866       -12.6224
 220   2.0000      -0.461785       -12.5658
 221   2.0000      -0.455987       -12.4080
 222   2.0000      -0.452526       -12.3138
 223   2.0000      -0.450513       -12.2591
 224   2.0000      -0.446748       -12.1566
 225   2.0000      -0.444063       -12.0836
 226   2.0000      -0.443093       -12.0572
 227   2.0000      -0.442701       -12.0465
 228   2.0000      -0.440251       -11.9798
 229   2.0000      -0.439728       -11.9656
 230   2.0000      -0.438432       -11.9303
 231   2.0000      -0.434569       -11.8252
 232   2.0000      -0.433513       -11.7965
 233   2.0000      -0.432998       -11.7825
 234   2.0000      -0.432241       -11.7619
 235   2.0000      -0.428922       -11.6716
 236   2.0000      -0.426759       -11.6127
 237   2.0000      -0.425783       -11.5861
 238   2.0000      -0.424625       -11.5546
 239   2.0000      -0.422207       -11.4888
 240   2.0000      -0.421228       -11.4622
 241   2.0000      -0.417828       -11.3697
 242   2.0000      -0.417405       -11.3582
 243   2.0000      -0.412401       -11.2220
 244   2.0000      -0.406203       -11.0533
 245   2.0000      -0.405855       -11.0439
 246   2.0000      -0.401440       -10.9237
 247   2.0000      -0.399654       -10.8751
 248   2.0000      -0.395229       -10.7547
 249   2.0000      -0.390273       -10.6199
 250   2.0000      -0.386347       -10.5130
 251   2.0000      -0.381514       -10.3815
 252   2.0000      -0.371616       -10.1122
 253   2.0000      -0.370077       -10.0703
 254   2.0000      -0.365818        -9.9544
 255   2.0000      -0.357040        -9.7155
 256   2.0000      -0.355993        -9.6871
 257   2.0000      -0.346902        -9.4397
 258   2.0000      -0.345152        -9.3921
 259   2.0000      -0.343766        -9.3544
 260   2.0000      -0.335365        -9.1257
 261   2.0000      -0.331669        -9.0252
 262   2.0000      -0.326501        -8.8845
 263   2.0000      -0.324743        -8.8367
 264   2.0000      -0.324491        -8.8298
 265   2.0000      -0.320678        -8.7261
 266   2.0000      -0.317819        -8.6483
 267   2.0000      -0.311206        -8.4683
 268   2.0000      -0.306790        -8.3482
 269   2.0000      -0.302785        -8.2392
 270   2.0000      -0.293976        -7.9995
 271   2.0000      -0.285725        -7.7750
 272   2.0000      -0.258170        -7.0252
 273   2.0000      -0.249650        -6.7933
 274   0.0000      -0.106250        -2.8912
 275   0.0000      -0.086343        -2.3495
 276   0.0000      -0.064150        -1.7456
 277   0.0000      -0.049120        -1.3366
 278   0.0000      -0.044896        -1.2217

MULLIKEN ATOMIC CHARGES
-----------------------
   0 C :    0.268554
   1 C :   -0.345450
   2 C :   -0.182467
   3 N :    0.144763
   4 C :   -0.204044
   5 N :    0.170128
   6 C :    0.033091
   7 C :    0.015500
   8 C :   -0.090492
   9 C :    0.099385
  10 C :    0.098579
  11 C :   -0.087733
  12 C :   -0.022926
  13 C :    0.035801
  14 C :    0.034885
  15 C :   -0.020710
  16 C :    0.142195
  17 O :   -0.157863
  18 C :   -0.150512
  19 C :    0.032758
  20 C :   -0.226574
  21 S :    0.207122
  22 C :   -0.165008
  23 C :    0.150661
  24 C :    0.235129
  25 C :   -0.055522
  26 C :    0.106533
  27 O :   -0.196966
  28 O :   -0.177921
  29 C :    0.036791
  30 C :   -0.091321
  31 C :    0.166425
  32 O :   -0.160814
  33 C :    0.017105
  34 C :    0.082379
  35 O :   -0.158275
  36 C :    0.069858
  37 C :    0.011788
  38 C :    0.180324
  39 O :   -0.177891
  40 C :   -0.187852
  41 C :    0.038817
  42 C :   -0.016783
  43 C :   -0.064320
  44 S :    0.193903
  45 C :   -0.103247
  46 S :    0.200658
  47 C :   -0.167426
  48 C :    0.129082
  49 C :    0.130872
  50 C :   -0.045516
  51 C :    0.092891
  52 O :   -0.186863
  53 O :   -0.178785
  54 C :    0.017272
  55 C :   -0.057540
  56 C :    0.141653
  57 O :   -0.167154
  58 C :    0.013101
  59 C :   -0.063369
  60 C :    0.312013
  61 C :   -0.354465
  62 C :   -0.183238
  63 N :    0.146118
  64 C :   -0.200206
  65 N :    0.153383
  66 C :    0.054016
  67 C :   -0.010758
  68 C :    0.134998
  69 O :   -0.156012
  70 C :   -0.092889
  71 C :    0.099924
  72 C :    0.097591
  73 C :   -0.091682
  74 C :   -0.020317
  75 C :    0.035532
  76 C :    0.037456
  77 C :   -0.019622
  78 H :   -0.014355
  79 H :   -0.007288
  80 H :   -0.011650
  81 H :   -0.008166
  82 H :   -0.008368
  83 H :   -0.018304
  84 H :    0.021362
  85 H :    0.202827
  86 H :    0.006159
  87 H :   -0.036661
  88 H :    0.188900
  89 H :    0.024142
  90 H :    0.023546
  91 H :   -0.002966
  92 H :   -0.003361
  93 H :    0.194255
  94 H :    0.007957
  95 H :   -0.030294
  96 H :    0.190804
  97 H :    0.019325
  98 H :   -0.017463
  99 H :   -0.008503
 100 H :   -0.009598
 101 H :   -0.004893
 102 H :   -0.006495
 103 H :   -0.019412
Sum of atomic charges:    0.0000000

LOEWDIN ATOMIC CHARGES
----------------------
   0 C :    0.062776
   1 C :   -0.155844
   2 C :   -0.020351
   3 N :   -0.064571
   4 C :   -0.034853
   5 N :   -0.056695
   6 C :   -0.021640
   7 C :   -0.054605
   8 C :    0.028442
   9 C :   -0.009981
  10 C :   -0.006669
  11 C :    0.012552
  12 C :   -0.007863
  13 C :   -0.016051
  14 C :   -0.016089
  15 C :   -0.010642
  16 C :    0.082458
  17 O :   -0.155766
  18 C :   -0.115395
  19 C :    0.051293
  20 C :   -0.197616
  21 S :    0.530145
  22 C :   -0.130829
  23 C :   -0.051754
  24 C :    0.011276
  25 C :   -0.091006
  26 C :    0.082268
  27 O :   -0.177249
  28 O :   -0.028795
  29 C :    0.048282
  30 C :   -0.097180
  31 C :    0.095072
  32 O :   -0.019259
  33 C :   -0.075207
  34 C :    0.052333
  35 O :    0.043771
  36 C :    0.060012
  37 C :   -0.095212
  38 C :    0.057597
  39 O :   -0.150950
  40 C :   -0.211185
  41 C :   -0.038958
  42 C :   -0.061601
  43 C :   -0.176700
  44 S :    0.512760
  45 C :   -0.162679
  46 S :    0.521460
  47 C :   -0.176400
  48 C :   -0.034003
  49 C :   -0.028288
  50 C :   -0.086835
  51 C :    0.058529
  52 O :   -0.174816
  53 O :   -0.040985
  54 C :    0.034217
  55 C :   -0.073272
  56 C :    0.080293
  57 O :   -0.019250
  58 C :    0.034132
  59 C :   -0.085055
  60 C :    0.075203
  61 C :   -0.143022
  62 C :   -0.017589
  63 N :   -0.057927
  64 C :   -0.022198
  65 N :   -0.056111
  66 C :   -0.025312
  67 C :   -0.053877
  68 C :    0.074266
  69 O :   -0.149467
  70 C :    0.024908
  71 C :   -0.009320
  72 C :   -0.007532
  73 C :    0.017490
  74 C :   -0.005576
  75 C :   -0.015003
  76 C :   -0.013246
  77 C :   -0.011653
  78 H :    0.038023
  79 H :    0.037649
  80 H :    0.033426
  81 H :    0.031755
  82 H :    0.031429
  83 H :    0.031027
  84 H :    0.039563
  85 H :    0.105172
  86 H :    0.041644
  87 H :    0.027970
  88 H :    0.102704
  89 H :    0.031883
  90 H :    0.028424
  91 H :    0.033648
  92 H :    0.028810
  93 H :    0.100758
  94 H :    0.042283
  95 H :    0.030260
  96 H :    0.103259
  97 H :    0.042370
  98 H :    0.036791
  99 H :    0.038722
 100 H :    0.034576
 101 H :    0.033052
 102 H :    0.032271
 103 H :    0.030925

  Mayer bond orders larger than 0.100000
B(  0-C ,  1-C ) :   1.6337 B(  0-C ,  6-C ) :   0.9982 B(  0-C , 18-C ) :   1.0421
B(  1-C ,  2-C ) :   1.1416 B(  1-C ,  4-C ) :   1.1621 B(  2-C ,  3-N ) :   2.9844
B(  4-C ,  5-N ) :   3.0110 B(  6-C ,  7-C ) :   1.2144 B(  6-C , 11-C ) :   1.4604
B(  7-C ,  8-C ) :   1.4785 B(  7-C , 16-C ) :   0.9227 B(  8-C ,  9-C ) :   1.1790
B(  8-C , 78-H ) :   1.0168 B(  9-C , 10-C ) :   1.2598 B(  9-C , 15-C ) :   1.2446
B( 10-C , 11-C ) :   1.1998 B( 10-C , 12-C ) :   1.2409 B( 11-C , 79-H ) :   0.9944
B( 12-C , 13-C ) :   1.4891 B( 12-C , 80-H ) :   0.9981 B( 13-C , 14-C ) :   1.2605
B( 13-C , 81-H ) :   0.9886 B( 14-C , 15-C ) :   1.4888 B( 14-C , 82-H ) :   0.9886
B( 15-C , 83-H ) :   0.9982 B( 16-C , 17-O ) :   2.2384 B( 16-C , 18-C ) :   0.9559
B( 18-C , 19-C ) :   1.6008 B( 19-C , 20-C ) :   1.1629 B( 19-C , 84-H ) :   0.9167
B( 20-C , 21-S ) :   1.1117 B( 20-C , 22-C ) :   0.1155 B( 20-C , 24-C ) :   1.3294
B( 21-S , 22-C ) :   1.2445 B( 22-C , 23-C ) :   1.4058 B( 22-C , 33-C ) :   1.0056
B( 23-C , 24-C ) :   1.2183 B( 23-C , 31-C ) :   1.1578 B( 24-C , 25-C ) :   1.1805
B( 25-C , 26-C ) :   0.9127 B( 25-C , 29-C ) :   1.5380 B( 26-C , 27-O ) :   2.1581
B( 26-C , 28-O ) :   1.2004 B( 28-O , 85-H ) :   0.9325 B( 29-C , 30-C ) :   1.2216
B( 29-C , 86-H ) :   0.9822 B( 30-C , 31-C ) :   1.4307 B( 30-C , 87-H ) :   0.9895
B( 31-C , 32-O ) :   1.2541 B( 32-O , 88-H ) :   0.9520 B( 33-C , 34-C ) :   1.5601
B( 33-C , 37-C ) :   1.2572 B( 34-C , 35-O ) :   1.1458 B( 34-C , 89-H ) :   1.0109
B( 35-O , 36-C ) :   1.1918 B( 36-C , 37-C ) :   1.4870 B( 36-C , 90-H ) :   0.9987
B( 37-C , 38-C ) :   0.9377 B( 38-C , 39-O ) :   2.1867 B( 38-C , 40-C ) :   0.9748
B( 40-C , 41-C ) :   1.5064 B( 40-C , 43-C ) :   0.1114 B( 40-C , 44-S ) :   1.1507
B( 41-C , 42-C ) :   1.2796 B( 41-C , 91-H ) :   0.9951 B( 42-C , 43-C ) :   1.4821
B( 42-C , 92-H ) :   0.9963 B( 43-C , 44-S ) :   1.1533 B( 43-C , 45-C ) :   1.1164
B( 45-C , 46-S ) :   1.2091 B( 45-C , 47-C ) :   0.1066 B( 45-C , 49-C ) :   1.3526
B( 46-S , 47-C ) :   1.1326 B( 47-C , 48-C ) :   1.3209 B( 47-C , 58-C ) :   1.1978
B( 48-C , 49-C ) :   1.2621 B( 48-C , 56-C ) :   1.1835 B( 49-C , 50-C ) :   1.1533
B( 50-C , 51-C ) :   0.9233 B( 50-C , 54-C ) :   1.5606 B( 51-C , 52-O ) :   2.1629
B( 51-C , 53-O ) :   1.2409 B( 53-O , 93-H ) :   0.9424 B( 54-C , 55-C ) :   1.2135
B( 54-C , 94-H ) :   0.9840 B( 55-C , 56-C ) :   1.4380 B( 55-C , 95-H ) :   0.9861
B( 56-C , 57-O ) :   1.2411 B( 57-O , 96-H ) :   0.9503 B( 58-C , 59-C ) :   1.5796
B( 58-C , 97-H ) :   0.9272 B( 59-C , 60-C ) :   1.1016 B( 59-C , 68-C ) :   0.9373
B( 60-C , 61-C ) :   1.6188 B( 60-C , 66-C ) :   0.9837 B( 61-C , 62-C ) :   1.1488
B( 61-C , 64-C ) :   1.1465 B( 62-C , 63-N ) :   2.9621 B( 64-C , 65-N ) :   2.9783
B( 66-C , 67-C ) :   1.2157 B( 66-C , 73-C ) :   1.4493 B( 67-C , 68-C ) :   0.9377
B( 67-C , 70-C ) :   1.4732 B( 68-C , 69-O ) :   2.2153 B( 70-C , 71-C ) :   1.1726
B( 70-C , 98-H ) :   1.0176 B( 71-C , 72-C ) :   1.2611 B( 71-C , 77-C ) :   1.2441
B( 72-C , 73-C ) :   1.2017 B( 72-C , 74-C ) :   1.2407 B( 73-C , 99-H ) :   0.9896
B( 74-C , 75-C ) :   1.4889 B( 74-C ,100-H ) :   0.9971 B( 75-C , 76-C ) :   1.2619
B( 75-C ,101-H ) :   0.9874 B( 76-C , 77-C ) :   1.4889 B( 76-C ,102-H ) :   0.9880
B( 77-C ,103-H ) :   0.9976

-----------------------------------------------------------------------------
         ABSORPTION SPECTRUM VIA TRANSITION ELECTRIC DIPOLE MOMENTS
-----------------------------------------------------------------------------
State   Energy  Wavelength   fosc         T2         TX        TY        TZ
        (cm-1)    (nm)                  (au**2)     (au)      (au)      (au)
-----------------------------------------------------------------------------
   0   16463.6    607.4   1.245670290  24.90887   2.79064  -1.89141  -3.68019
   1   17425.1    573.9   0.187326041   3.53915   0.01086  -1.80816  -0.51921
   2   21627.9    462.4   0.003980927   0.06060   0.00779  -0.19198   0.15388
   3   23152.9    431.9   0.004293476   0.06105   0.23146  -0.05655  -0.06541
   4   24916.9    401.3   0.002143381   0.02832   0.09379  -0.09214   0.10503
   5   25765.0    388.1   0.122896583   1.57031  -1.20398   0.34271  -0.05730
   6   26134.1    382.6   0.042292982   0.53277   0.12114  -0.48072   0.53572
   7   27170.0    368.1   0.258702822   3.13464   0.55588   1.29543   1.07121
   8   27593.2    362.4   0.023607731   0.28166  -0.47328   0.07201   0.22910
   9   27745.2    360.4   0.060922551   0.72288  -0.48652   0.39036   0.57775
  10   28326.7    353.0   0.019208883   0.22324  -0.46550   0.06948   0.04153
  11   28528.8    350.5   0.125998914   1.45398   1.11456  -0.45316   0.07992
  12   28845.0    346.7   0.046979948   0.53619   0.49977   0.39135  -0.36505
  13   29353.7    340.7   0.125928848   1.41234  -0.73474   0.85574   0.37443
  14   29498.8    339.0   0.023393152   0.26107  -0.13975   0.08593  -0.48390
  15   30260.3    330.5   0.088534815   0.96320  -0.04777   0.89394   0.40223
  16   31073.6    321.8   0.095061154   1.00713   0.33248  -0.09692   0.94191
  17   31333.3    319.1   0.004867245   0.05114  -0.05347   0.14410   0.16587
  18   31745.2    315.0   0.040856076   0.42370  -0.20190   0.31247  -0.53413
  19   31892.2    313.6   0.032235444   0.33276  -0.24952  -0.01489  -0.51988
  20   31997.0    312.5   0.069946153   0.71966   0.72085  -0.42987   0.12351
  21   32557.1    307.2   0.010339407   0.10455   0.17381   0.25431   0.09833
  22   32955.6    303.4   0.420716084   4.20277  -2.01886  -0.32846   0.13819
  23   33019.9    302.8   0.421003357   4.19744   1.62925  -1.22370   0.21343
  24   33134.4    301.8   0.043196662   0.42919   0.62298   0.06055   0.19343
  25   33429.6    299.1   0.327884218   3.22897   0.90066   1.04394   1.15238
  26   33696.2    296.8   0.001879366   0.01836  -0.04051  -0.02209  -0.12741
  27   34009.5    294.0   0.012797564   0.12388   0.12772  -0.06883  -0.32067
  28   34108.3    293.2   0.059428108   0.57360  -0.08665   0.64283  -0.39097
  29   34552.1    289.4   0.338302088   3.22334   0.28867   1.72151   0.42000
  30   34841.1    287.0   0.327829828   3.09765   0.18147   1.62893   0.64134
  31   35844.1    279.0   0.004769409   0.04380  -0.14580   0.11894   0.09165
  32   36127.5    276.8   0.040161239   0.36597  -0.41163  -0.11590  -0.42790
  33   36420.0    274.6   0.109797757   0.99250  -0.19843  -0.45054  -0.86610
  34   37026.5    270.1   0.064839405   0.57650   0.40936  -0.46859   0.43514
  35   37109.1    269.5   0.006775726   0.06011   0.06627  -0.15897  -0.17449
  36   37387.9    267.5   0.001337993   0.01178  -0.07817  -0.05694   0.04928
  37   37554.5    266.3   0.004722810   0.04140  -0.16318  -0.10096   0.06768
  38   37698.3    265.3   0.019121591   0.16699  -0.28665   0.18499  -0.22493
  39   38061.9    262.7   0.025240429   0.21831  -0.07021   0.20414  -0.41438
  40   38078.5    262.6   0.069525517   0.60109   0.37569   0.55536  -0.38926
  41   38107.5    262.4   0.285429444   2.46584  -0.71722   0.31110  -1.36185
  42   38175.1    262.0   0.001900878   0.01639  -0.01512   0.07209  -0.10472
  43   38236.2    261.5   0.004752422   0.04092  -0.05219  -0.17539  -0.08620
  44   38725.7    258.2   0.053265803   0.45282  -0.39462   0.16671   0.51895
  45   39103.2    255.7   0.041963966   0.35330   0.58656   0.09465   0.01673
  46   39428.0    253.6   0.006990962   0.05837  -0.04800  -0.09644  -0.21626
  47   39752.4    251.6   0.014186826   0.11749  -0.03694   0.09638  -0.32686
  48   39926.2    250.5   0.176424086   1.45471  -0.39084  -0.12592  -1.13406
  49   39985.8    250.1   0.022157352   0.18243  -0.13159  -0.04541  -0.40379
  50   40196.0    248.8   0.017477851   0.14315  -0.03364  -0.19648  -0.32157
  51   40290.6    248.2   0.009787563   0.07997  -0.20862  -0.03111  -0.18837

FINAL SINGLE POINT ENERGY     -4501.453177838465

DIPOLE MOMENT
-------------
                                X             Y             Z
Electronic contribution:     19.43279       7.26350       5.37622
Nuclear contribution   :    -22.62878      -7.44199      -4.61446
                        -----------------------------------------
Total Dipole Moment    :     -3.19600      -0.17849       0.76176
                        -----------------------------------------
Magnitude (a.u.)       :      3.29037
Magnitude (Debye)      :      8.36345

Rotational constants in cm-1:     0.001811     0.000229     0.000229
Rotational constants in MHz :    54.294650     6.860413     6.850761

                             ****ORCA TERMINATED NORMALLY****
TOTAL RUN TIME: 0 days 0 hours 10 minutes 52 seconds 826 msec
