                         Program Version 4.2.0 -  RELEASE  -
|  1> # ORCA input file
|  2> # SCF done       -193.533430433502          0.000928611440
|  3> ! CAM-B3LYP def2-SVP def2/J RIJCOSX Grid4 TightSCF
|  4> %maxcore 5000
|  5> %tddft
|  6>     Mode sTDDFT
|  7>     Ethresh 5.0
|  8>     maxcore 5000
|  9> end
| 10>
| 11> %pal
| 12>   nprocs 6
| 13>   end
| 14> * xyz 0 1
| 15>    C       -7.36582         3.04505        -3.35922
| 16>    C       -6.09752         3.45046        -3.04281
| 17>    C       -5.58957         4.73384        -3.32929
| 18>    N       -5.13565         5.77252        -3.51153
| 19>    C       -5.10647         2.60770        -2.49853
| 20>    N       -4.22867         1.95793        -2.14389
| 21>    C       -8.30004         3.78002        -4.20594
| 22>    C       -9.27890         2.86844        -4.70155
| 23>    C      -10.25672         3.26665        -5.56734
| 24>    C      -10.30678         4.61825        -5.97666
| 25>    C       -9.34334         5.53794        -5.46981
| 26>    C       -8.33886         5.09668        -4.57800
| 27>    C       -9.40772         6.88463        -5.88144
| 28>    C      -10.37335         7.30420        -6.75537
| 29>    C      -11.32022         6.39777        -7.25553
| 30>    C      -11.28788         5.08380        -6.87428
| 31>    C       -9.04085         1.53455        -4.12373
| 32>    O       -9.63772         0.50512        -4.33997
| 33>    C       -7.92898         1.72819        -3.14735
| 34>    C       -7.71260         0.78702        -2.18931
| 35>    C       -6.99294         0.93210        -0.98660
| 36>    S       -6.60065        -0.51556        -0.01823
| 37>    C       -5.84249         0.52139         1.10308
| 38>    C       -5.95780         1.86281         0.68915
| 39>    N       -6.58505         2.05718        -0.45462
| 40>    C       -5.28273         2.78021         1.65500
| 41>    C       -4.76532         1.80200         2.66720
| 42>    C       -5.10946         0.49028         2.30582
| 43>    S       -4.51821        -0.67212         3.41254
| 44>    C       -3.80152         0.60070         4.38337
| 45>    C       -4.03233         1.86049         3.84058
| 46>    C       -3.08627         0.24022         5.54888
| 47>    C       -2.52413         1.10784         6.42801
| 48>    C       -1.79682         0.69836         7.56915
| 49>    C       -1.21714         1.51093         8.52534
| 50>    C       -1.04502         2.94762         8.77173
| 51>    O       -1.44313         3.90423         8.15677
| 52>    N       -0.26423         3.01686         9.93242
| 53>    C        0.16386         4.26195        10.52170
| 54>    C        0.06670         1.78235        10.45508
| 55>    O        0.73236         1.59542        11.45057
| 56>    C       -0.54844         0.80887         9.54412
| 57>    C       -0.57265        -0.56018         9.39472
| 58>    S       -1.47279        -0.98549         7.95477
| 59>    C        0.08039        -1.52118        10.19961
| 60>    C        0.30026        -2.85998         9.95682
| 61>    C       -0.03523        -3.83421         8.91017
| 62>    O       -0.71148        -3.70448         7.91870
| 63>    N        0.59629        -5.00611         9.30510
| 64>    C        0.52947        -6.22861         8.54274
| 65>    C        1.29931        -4.89694        10.50359
| 66>    O        1.90215        -5.79168        11.03498
| 67>    C        1.10180        -3.49505        10.92299
| 68>    C        1.53099        -2.66091        11.93150
| 69>    S        0.85430        -1.05844        11.69255
| 70>    C        2.35086        -2.98115        13.04557
| 71>    C        3.03923        -2.12028        13.83591
| 72>    C        3.46447        -2.54266        15.20367
| 73>    O        3.54351        -3.66731        15.62829
| 74>    C        3.68696        -1.27296        15.93310
| 75>    C        3.56502        -0.18746        15.04604
| 76>    C        3.69343         1.11212        15.50950
| 77>    C        3.94914         1.29539        16.85968
| 78>    C        4.08542         0.21326        17.73304
| 79>    C        3.95331        -1.08809        17.27659
| 80>    F        4.34079         0.43853        19.02611
| 81>    F        4.06446         2.53823        17.33633
| 82>    C        3.33992        -0.70263        13.69819
| 83>    C        3.63823        -0.04116        12.54099
| 84>    C        3.69413        -0.67214        11.27787
| 85>    N        3.80172        -1.15572        10.24308
| 86>    C        3.99465         1.32305        12.47878
| 87>    N        4.28250         2.42791        12.37178
| 88>    H      -10.98302         2.55858        -5.93793
| 89>    H       -7.62657         5.81503        -4.20324
| 90>    H       -8.67424         7.57768        -5.49625
| 91>    H      -10.41229         8.33721        -7.06709
| 92>    H      -12.07516         6.74592        -7.94447
| 93>    H      -12.01427         4.38146        -7.25629
| 94>    H       -8.21209        -0.16423        -2.33712
| 95>    H       -5.97526         3.50502         2.08658
| 96>    H       -4.47719         3.33661         1.17153
| 97>    H       -3.66580         2.76510         4.28934
| 98>    H       -2.98739        -0.82176         5.73914
| 99>    H       -2.60796         2.17726         6.29577
|100>    H        0.04840         5.04528         9.77479
|101>    H        1.20641         4.17561        10.82676
|102>    H       -0.44386         4.50018        11.39678
|103>    H        1.05353        -6.10972         7.59329
|104>    H       -0.51161        -6.48195         8.34178
|105>    H        1.00261        -7.01355         9.12976
|106>    H        2.37508        -4.02904        13.32892
|107>    H        3.58752         1.97300        14.86945
|108>    H        4.05524        -1.92303        17.95148
|109> *
|110>
|111>                          ****END OF INPUT****

CARTESIAN COORDINATES (ANGSTROEM)
---------------------------------
  C     -7.365820    3.045050   -3.359220
  C     -6.097520    3.450460   -3.042810
  C     -5.589570    4.733840   -3.329290
  N     -5.135650    5.772520   -3.511530
  C     -5.106470    2.607700   -2.498530
  N     -4.228670    1.957930   -2.143890
  C     -8.300040    3.780020   -4.205940
  C     -9.278900    2.868440   -4.701550
  C    -10.256720    3.266650   -5.567340
  C    -10.306780    4.618250   -5.976660
  C     -9.343340    5.537940   -5.469810
  C     -8.338860    5.096680   -4.578000
  C     -9.407720    6.884630   -5.881440
  C    -10.373350    7.304200   -6.755370
  C    -11.320220    6.397770   -7.255530
  C    -11.287880    5.083800   -6.874280
  C     -9.040850    1.534550   -4.123730
  O     -9.637720    0.505120   -4.339970
  C     -7.928980    1.728190   -3.147350
  C     -7.712600    0.787020   -2.189310
  C     -6.992940    0.932100   -0.986600
  S     -6.600650   -0.515560   -0.018230
  C     -5.842490    0.521390    1.103080
  C     -5.957800    1.862810    0.689150
  N     -6.585050    2.057180   -0.454620
  C     -5.282730    2.780210    1.655000
  C     -4.765320    1.802000    2.667200
  C     -5.109460    0.490280    2.305820
  S     -4.518210   -0.672120    3.412540
  C     -3.801520    0.600700    4.383370
  C     -4.032330    1.860490    3.840580
  C     -3.086270    0.240220    5.548880
  C     -2.524130    1.107840    6.428010
  C     -1.796820    0.698360    7.569150
  C     -1.217140    1.510930    8.525340
  C     -1.045020    2.947620    8.771730
  O     -1.443130    3.904230    8.156770
  N     -0.264230    3.016860    9.932420
  C      0.163860    4.261950   10.521700
  C      0.066700    1.782350   10.455080
  O      0.732360    1.595420   11.450570
  C     -0.548440    0.808870    9.544120
  C     -0.572650   -0.560180    9.394720
  S     -1.472790   -0.985490    7.954770
  C      0.080390   -1.521180   10.199610
  C      0.300260   -2.859980    9.956820
  C     -0.035230   -3.834210    8.910170
  O     -0.711480   -3.704480    7.918700
  N      0.596290   -5.006110    9.305100
  C      0.529470   -6.228610    8.542740
  C      1.299310   -4.896940   10.503590
  O      1.902150   -5.791680   11.034980
  C      1.101800   -3.495050   10.922990
  C      1.530990   -2.660910   11.931500
  S      0.854300   -1.058440   11.692550
  C      2.350860   -2.981150   13.045570
  C      3.039230   -2.120280   13.835910
  C      3.464470   -2.542660   15.203670
  O      3.543510   -3.667310   15.628290
  C      3.686960   -1.272960   15.933100
  C      3.565020   -0.187460   15.046040
  C      3.693430    1.112120   15.509500
  C      3.949140    1.295390   16.859680
  C      4.085420    0.213260   17.733040
  C      3.953310   -1.088090   17.276590
  F      4.340790    0.438530   19.026110
  F      4.064460    2.538230   17.336330
  C      3.339920   -0.702630   13.698190
  C      3.638230   -0.041160   12.540990
  C      3.694130   -0.672140   11.277870
  N      3.801720   -1.155720   10.243080
  C      3.994650    1.323050   12.478780
  N      4.282500    2.427910   12.371780
  H    -10.983020    2.558580   -5.937930
  H     -7.626570    5.815030   -4.203240
  H     -8.674240    7.577680   -5.496250
  H    -10.412290    8.337210   -7.067090
  H    -12.075160    6.745920   -7.944470
  H    -12.014270    4.381460   -7.256290
  H     -8.212090   -0.164230   -2.337120
  H     -5.975260    3.505020    2.086580
  H     -4.477190    3.336610    1.171530
  H     -3.665800    2.765100    4.289340
  H     -2.987390   -0.821760    5.739140
  H     -2.607960    2.177260    6.295770
  H      0.048400    5.045280    9.774790
  H      1.206410    4.175610   10.826760
  H     -0.443860    4.500180   11.396780
  H      1.053530   -6.109720    7.593290
  H     -0.511610   -6.481950    8.341780
  H      1.002610   -7.013550    9.129760
  H      2.375080   -4.029040   13.328920
  H      3.587520    1.973000   14.869450
  H      4.055240   -1.923030   17.951480

 Total Charge           Charge          ....    0
 Multiplicity           Mult            ....    1
 Number of Electrons    NEL             ....  524
 Basis Dimension        Dim             .... 1143

ORBITAL ENERGIES
----------------

  NO   OCC          E(Eh)            E(eV)
   0   2.0000     -88.985891     -2421.4292
   1   2.0000     -88.985389     -2421.4155
   2   2.0000     -88.982321     -2421.3320
   3   2.0000     -88.979875     -2421.2655
   4   2.0000     -24.806647      -675.0232
   5   2.0000     -24.806475      -675.0185
   6   2.0000     -19.227518      -523.2074
   7   2.0000     -19.223653      -523.1022
   8   2.0000     -19.222451      -523.0695
   9   2.0000     -19.221332      -523.0390
  10   2.0000     -19.218648      -522.9660
  11   2.0000     -19.213179      -522.8172
  12   2.0000     -14.465564      -393.6280
  13   2.0000     -14.464818      -393.6077
  14   2.0000     -14.432247      -392.7214
  15   2.0000     -14.423474      -392.4827
  16   2.0000     -14.422393      -392.4533
  17   2.0000     -14.412819      -392.1928
  18   2.0000     -14.408437      -392.0735
  19   2.0000     -10.405376      -283.1447
  20   2.0000     -10.404510      -283.1211
  21   2.0000     -10.404394      -283.1180
  22   2.0000     -10.401355      -283.0353
  23   2.0000     -10.393419      -282.8193
  24   2.0000     -10.392286      -282.7885
  25   2.0000     -10.379761      -282.4476
  26   2.0000     -10.364212      -282.0245
  27   2.0000     -10.356248      -281.8078
  28   2.0000     -10.352806      -281.7142
  29   2.0000     -10.350972      -281.6643
  30   2.0000     -10.349352      -281.6202
  31   2.0000     -10.344791      -281.4961
  32   2.0000     -10.338515      -281.3253
  33   2.0000     -10.337388      -281.2946
  34   2.0000     -10.337072      -281.2860
  35   2.0000     -10.335468      -281.2424
  36   2.0000     -10.330055      -281.0951
  37   2.0000     -10.327386      -281.0225
  38   2.0000     -10.325177      -280.9624
  39   2.0000     -10.324926      -280.9555
  40   2.0000     -10.324243      -280.9369
  41   2.0000     -10.323195      -280.9084
  42   2.0000     -10.323070      -280.9050
  43   2.0000     -10.321892      -280.8730
  44   2.0000     -10.319306      -280.8026
  45   2.0000     -10.315513      -280.6994
  46   2.0000     -10.315094      -280.6880
  47   2.0000     -10.314960      -280.6843
  48   2.0000     -10.312907      -280.6285
  49   2.0000     -10.312484      -280.6170
  50   2.0000     -10.310427      -280.5610
  51   2.0000     -10.310400      -280.5602
  52   2.0000     -10.309552      -280.5372
  53   2.0000     -10.309551      -280.5371
  54   2.0000     -10.307515      -280.4817
  55   2.0000     -10.305490      -280.4266
  56   2.0000     -10.304679      -280.4046
  57   2.0000     -10.300846      -280.3003
  58   2.0000     -10.300330      -280.2862
  59   2.0000     -10.299747      -280.2704
  60   2.0000     -10.299585      -280.2660
  61   2.0000     -10.299139      -280.2538
  62   2.0000     -10.297771      -280.2166
  63   2.0000     -10.295780      -280.1624
  64   2.0000     -10.295761      -280.1619
  65   2.0000     -10.295441      -280.1532
  66   2.0000     -10.295090      -280.1436
  67   2.0000     -10.293412      -280.0980
  68   2.0000     -10.287307      -279.9318
  69   2.0000     -10.284743      -279.8621
  70   2.0000     -10.284356      -279.8516
  71   2.0000     -10.284093      -279.8444
  72   2.0000     -10.283451      -279.8269
  73   2.0000      -8.080954      -219.8939
  74   2.0000      -8.079014      -219.8412
  75   2.0000      -8.076511      -219.7730
  76   2.0000      -8.075097      -219.7346
  77   2.0000      -6.049968      -164.6280
  78   2.0000      -6.048562      -164.5897
  79   2.0000      -6.046106      -164.5229
  80   2.0000      -6.046015      -164.5204
  81   2.0000      -6.044378      -164.4759
  82   2.0000      -6.043950      -164.4643
  83   2.0000      -6.043376      -164.4486
  84   2.0000      -6.041571      -164.3995
  85   2.0000      -6.040941      -164.3824
  86   2.0000      -6.040285      -164.3645
  87   2.0000      -6.038386      -164.3128
  88   2.0000      -6.037229      -164.2814
  89   2.0000      -1.330839       -36.2140
  90   2.0000      -1.315506       -35.7967
  91   2.0000      -1.168063       -31.7846
  92   2.0000      -1.166651       -31.7462
  93   2.0000      -1.145170       -31.1617
  94   2.0000      -1.144290       -31.1377
  95   2.0000      -1.143098       -31.1053
  96   2.0000      -1.128298       -30.7025
  97   2.0000      -1.086982       -29.5783
  98   2.0000      -1.060006       -28.8442
  99   2.0000      -1.058514       -28.8036
 100   2.0000      -1.031472       -28.0678
 101   2.0000      -1.021371       -27.7929
 102   2.0000      -1.016051       -27.6482
 103   2.0000      -1.012103       -27.5407
 104   2.0000      -1.009637       -27.4736
 105   2.0000      -1.003068       -27.2949
 106   2.0000      -0.998743       -27.1772
 107   2.0000      -0.995319       -27.0840
 108   2.0000      -0.988958       -26.9109
 109   2.0000      -0.969286       -26.3756
 110   2.0000      -0.965980       -26.2857
 111   2.0000      -0.949511       -25.8375
 112   2.0000      -0.925653       -25.1883
 113   2.0000      -0.922027       -25.0896
 114   2.0000      -0.916314       -24.9342
 115   2.0000      -0.915229       -24.9046
 116   2.0000      -0.907614       -24.6974
 117   2.0000      -0.903836       -24.5946
 118   2.0000      -0.898574       -24.4514
 119   2.0000      -0.889035       -24.1919
 120   2.0000      -0.881617       -23.9900
 121   2.0000      -0.879343       -23.9281
 122   2.0000      -0.873704       -23.7747
 123   2.0000      -0.865048       -23.5392
 124   2.0000      -0.850065       -23.1315
 125   2.0000      -0.835804       -22.7434
 126   2.0000      -0.825999       -22.4766
 127   2.0000      -0.812357       -22.1054
 128   2.0000      -0.811416       -22.0798
 129   2.0000      -0.802426       -21.8351
 130   2.0000      -0.801531       -21.8108
 131   2.0000      -0.796449       -21.6725
 132   2.0000      -0.780528       -21.2392
 133   2.0000      -0.777809       -21.1653
 134   2.0000      -0.764591       -20.8056
 135   2.0000      -0.760854       -20.7039
 136   2.0000      -0.752691       -20.4818
 137   2.0000      -0.748461       -20.3667
 138   2.0000      -0.730285       -19.8721
 139   2.0000      -0.719842       -19.5879
 140   2.0000      -0.714212       -19.4347
 141   2.0000      -0.707834       -19.2611
 142   2.0000      -0.701382       -19.0856
 143   2.0000      -0.698845       -19.0165
 144   2.0000      -0.692146       -18.8343
 145   2.0000      -0.689288       -18.7565
 146   2.0000      -0.680530       -18.5181
 147   2.0000      -0.678936       -18.4748
 148   2.0000      -0.676105       -18.3977
 149   2.0000      -0.668726       -18.1970
 150   2.0000      -0.667932       -18.1753
 151   2.0000      -0.657957       -17.9039
 152   2.0000      -0.651087       -17.7170
 153   2.0000      -0.648668       -17.6512
 154   2.0000      -0.640495       -17.4287
 155   2.0000      -0.635250       -17.2860
 156   2.0000      -0.628409       -17.0999
 157   2.0000      -0.619989       -16.8708
 158   2.0000      -0.616211       -16.7680
 159   2.0000      -0.609376       -16.5820
 160   2.0000      -0.604981       -16.4624
 161   2.0000      -0.600670       -16.3451
 162   2.0000      -0.595436       -16.2026
 163   2.0000      -0.592288       -16.1170
 164   2.0000      -0.589900       -16.0520
 165   2.0000      -0.587645       -15.9906
 166   2.0000      -0.586135       -15.9495
 167   2.0000      -0.585341       -15.9279
 168   2.0000      -0.579858       -15.7787
 169   2.0000      -0.569883       -15.5073
 170   2.0000      -0.567345       -15.4382
 171   2.0000      -0.567015       -15.4293
 172   2.0000      -0.559859       -15.2345
 173   2.0000      -0.559191       -15.2164
 174   2.0000      -0.558453       -15.1963
 175   2.0000      -0.555833       -15.1250
 176   2.0000      -0.555277       -15.1099
 177   2.0000      -0.551639       -15.0109
 178   2.0000      -0.551055       -14.9950
 179   2.0000      -0.544227       -14.8092
 180   2.0000      -0.542953       -14.7745
 181   2.0000      -0.541035       -14.7223
 182   2.0000      -0.536841       -14.6082
 183   2.0000      -0.535398       -14.5689
 184   2.0000      -0.534963       -14.5571
 185   2.0000      -0.531259       -14.4563
 186   2.0000      -0.529598       -14.4111
 187   2.0000      -0.527307       -14.3487
 188   2.0000      -0.525506       -14.2997
 189   2.0000      -0.524029       -14.2595
 190   2.0000      -0.517177       -14.0731
 191   2.0000      -0.516559       -14.0563
 192   2.0000      -0.513270       -13.9668
 193   2.0000      -0.511537       -13.9196
 194   2.0000      -0.510691       -13.8966
 195   2.0000      -0.508489       -13.8367
 196   2.0000      -0.508010       -13.8237
 197   2.0000      -0.502483       -13.6733
 198   2.0000      -0.501161       -13.6373
 199   2.0000      -0.500149       -13.6097
 200   2.0000      -0.495622       -13.4866
 201   2.0000      -0.492829       -13.4106
 202   2.0000      -0.492067       -13.3898
 203   2.0000      -0.491418       -13.3722
 204   2.0000      -0.489607       -13.3229
 205   2.0000      -0.487679       -13.2704
 206   2.0000      -0.486388       -13.2353
 207   2.0000      -0.483500       -13.1567
 208   2.0000      -0.481892       -13.1129
 209   2.0000      -0.479492       -13.0476
 210   2.0000      -0.479094       -13.0368
 211   2.0000      -0.476759       -12.9733
 212   2.0000      -0.473501       -12.8846
 213   2.0000      -0.470356       -12.7990
 214   2.0000      -0.466487       -12.6938
 215   2.0000      -0.464174       -12.6308
 216   2.0000      -0.462874       -12.5954
 217   2.0000      -0.460369       -12.5273
 218   2.0000      -0.455709       -12.4005
 219   2.0000      -0.452211       -12.3053
 220   2.0000      -0.449774       -12.2390
 221   2.0000      -0.446908       -12.1610
 222   2.0000      -0.443557       -12.0698
 223   2.0000      -0.440984       -11.9998
 224   2.0000      -0.438943       -11.9442
 225   2.0000      -0.437904       -11.9160
 226   2.0000      -0.436912       -11.8890
 227   2.0000      -0.434484       -11.8229
 228   2.0000      -0.433145       -11.7865
 229   2.0000      -0.431051       -11.7295
 230   2.0000      -0.428778       -11.6676
 231   2.0000      -0.427625       -11.6363
 232   2.0000      -0.424746       -11.5579
 233   2.0000      -0.422292       -11.4912
 234   2.0000      -0.416310       -11.3284
 235   2.0000      -0.414485       -11.2787
 236   2.0000      -0.407190       -11.0802
 237   2.0000      -0.401518       -10.9259
 238   2.0000      -0.388779       -10.5792
 239   2.0000      -0.379640       -10.3305
 240   2.0000      -0.378231       -10.2922
 241   2.0000      -0.372547       -10.1375
 242   2.0000      -0.368005       -10.0139
 243   2.0000      -0.366302        -9.9676
 244   2.0000      -0.365145        -9.9361
 245   2.0000      -0.360724        -9.8158
 246   2.0000      -0.359025        -9.7696
 247   2.0000      -0.356959        -9.7133
 248   2.0000      -0.354533        -9.6473
 249   2.0000      -0.351135        -9.5549
 250   2.0000      -0.350460        -9.5365
 251   2.0000      -0.344392        -9.3714
 252   2.0000      -0.340402        -9.2628
 253   2.0000      -0.339079        -9.2268
 254   2.0000      -0.335231        -9.1221
 255   2.0000      -0.333841        -9.0843
 256   2.0000      -0.323376        -8.7995
 257   2.0000      -0.315582        -8.5874
 258   2.0000      -0.310934        -8.4609
 259   2.0000      -0.293354        -7.9826
 260   2.0000      -0.286513        -7.7964
 261   2.0000      -0.248860        -6.7718
 262   0.0000      -0.109548        -2.9809
 263   0.0000      -0.099749        -2.7143
 264   0.0000      -0.074522        -2.0278
 265   0.0000      -0.067883        -1.8472
 266   0.0000      -0.058782        -1.5995

MULLIKEN ATOMIC CHARGES
-----------------------
   0 C :    0.285659
   1 C :   -0.304524
   2 C :   -0.184639
   3 N :    0.146484
   4 C :   -0.185076
   5 N :    0.151554
   6 C :    0.035434
   7 C :    0.007536
   8 C :   -0.079477
   9 C :    0.094332
  10 C :    0.094872
  11 C :   -0.080650
  12 C :   -0.018639
  13 C :    0.036713
  14 C :    0.034523
  15 C :   -0.015395
  16 C :    0.134837
  17 O :   -0.143171
  18 C :   -0.114273
  19 C :    0.089965
  20 C :   -0.116787
  21 S :    0.169024
  22 C :   -0.040621
  23 C :   -0.213665
  24 N :   -0.017982
  25 C :    0.395726
  26 C :   -0.157068
  27 C :   -0.098701
  28 S :    0.175132
  29 C :   -0.082464
  30 C :   -0.007246
  31 C :    0.055970
  32 C :   -0.018767
  33 C :   -0.109868
  34 C :    0.006889
  35 C :    0.188323
  36 O :   -0.157103
  37 N :   -0.311137
  38 C :    0.133180
  39 C :    0.203150
  40 O :   -0.187114
  41 C :   -0.016250
  42 C :   -0.117342
  43 S :    0.202637
  44 C :   -0.113591
  45 C :   -0.020960
  46 C :    0.193513
  47 O :   -0.169188
  48 N :   -0.317001
  49 C :    0.139129
  50 C :    0.188890
  51 O :   -0.143976
  52 C :    0.085065
  53 C :   -0.199048
  54 S :    0.210374
  55 C :    0.055717
  56 C :   -0.120231
  57 C :    0.137725
  58 O :   -0.125399
  59 C :    0.006838
  60 C :    0.028893
  61 C :   -0.083358
  62 C :    0.237567
  63 C :    0.233115
  64 C :   -0.097754
  65 F :   -0.166397
  66 F :   -0.163240
  67 C :    0.229355
  68 C :   -0.297289
  69 C :   -0.201528
  70 N :    0.176787
  71 C :   -0.169019
  72 N :    0.166757
  73 H :   -0.012705
  74 H :   -0.006801
  75 H :   -0.011243
  76 H :   -0.005718
  77 H :   -0.006149
  78 H :   -0.017756
  79 H :    0.018933
  80 H :    0.043302
  81 H :    0.051865
  82 H :   -0.007785
  83 H :    0.005621
  84 H :    0.013537
  85 H :    0.052898
  86 H :    0.053780
  87 H :    0.039278
  88 H :    0.042802
  89 H :    0.040674
  90 H :    0.055178
  91 H :    0.044138
  92 H :    0.023627
  93 H :    0.016800
Sum of atomic charges:    0.0000000

LOEWDIN ATOMIC CHARGES
----------------------
   0 C :    0.069735
   1 C :   -0.122295
   2 C :   -0.017122
   3 N :   -0.055055
   4 C :   -0.015411
   5 N :   -0.060607
   6 C :   -0.020182
   7 C :   -0.057967
   8 C :    0.032230
   9 C :   -0.009984
  10 C :   -0.004751
  11 C :    0.013765
  12 C :   -0.007082
  13 C :   -0.013274
  14 C :   -0.014379
  15 C :   -0.009440
  16 C :    0.082316
  17 O :   -0.143957
  18 C :   -0.071182
  19 C :    0.027234
  20 C :   -0.139150
  21 S :    0.449506
  22 C :   -0.195773
  23 C :   -0.022827
  24 N :   -0.053394
  25 C :   -0.009891
  26 C :   -0.033890
  27 C :   -0.198351
  28 S :    0.457814
  29 C :   -0.164909
  30 C :   -0.036496
  31 C :   -0.019818
  32 C :   -0.042477
  33 C :   -0.120383
  34 C :   -0.101366
  35 C :    0.092316
  36 O :   -0.159933
  37 N :   -0.035463
  38 C :    0.037385
  39 C :    0.086799
  40 O :   -0.181172
  41 C :   -0.086033
  42 C :   -0.162424
  43 S :    0.499243
  44 C :   -0.136940
  45 C :   -0.098739
  46 C :    0.086338
  47 O :   -0.168218
  48 N :   -0.038215
  49 C :    0.037864
  50 C :    0.090550
  51 O :   -0.148038
  52 C :   -0.057601
  53 C :   -0.156779
  54 S :    0.546315
  55 C :    0.053058
  56 C :   -0.080155
  57 C :    0.084729
  58 O :   -0.125129
  59 C :   -0.047863
  60 C :   -0.009725
  61 C :   -0.018409
  62 C :    0.076609
  63 C :    0.070683
  64 C :   -0.003267
  65 F :   -0.043334
  66 F :   -0.040747
  67 C :    0.055374
  68 C :   -0.123517
  69 C :   -0.036153
  70 N :   -0.041520
  71 C :   -0.016080
  72 N :   -0.041428
  73 H :    0.039018
  74 H :    0.038467
  75 H :    0.034130
  76 H :    0.032806
  77 H :    0.032333
  78 H :    0.031623
  79 H :    0.046517
  80 H :    0.058961
  81 H :    0.064167
  82 H :    0.037176
  83 H :    0.028202
  84 H :    0.041740
  85 H :    0.038512
  86 H :    0.039315
  87 H :    0.031360
  88 H :    0.034121
  89 H :    0.033901
  90 H :    0.039155
  91 H :    0.059953
  92 H :    0.053250
  93 H :    0.053724

  Mayer bond orders larger than 0.100000
B(  0-C ,  1-C ) :   1.6743 B(  0-C ,  6-C ) :   0.9972 B(  0-C , 18-C ) :   1.0349
B(  1-C ,  2-C ) :   1.1387 B(  1-C ,  4-C ) :   1.1606 B(  2-C ,  3-N ) :   2.9806
B(  4-C ,  5-N ) :   2.9769 B(  6-C ,  7-C ) :   1.2150 B(  6-C , 11-C ) :   1.4603
B(  7-C ,  8-C ) :   1.4741 B(  7-C , 16-C ) :   0.9207 B(  8-C ,  9-C ) :   1.1866
B(  8-C , 73-H ) :   1.0151 B(  9-C , 10-C ) :   1.2566 B(  9-C , 15-C ) :   1.2434
B( 10-C , 11-C ) :   1.2041 B( 10-C , 12-C ) :   1.2415 B( 11-C , 74-H ) :   0.9919
B( 12-C , 13-C ) :   1.4901 B( 12-C , 75-H ) :   0.9970 B( 13-C , 14-C ) :   1.2598
B( 13-C , 76-H ) :   0.9884 B( 14-C , 15-C ) :   1.4901 B( 14-C , 77-H ) :   0.9890
B( 15-C , 78-H ) :   0.9973 B( 16-C , 17-O ) :   2.2719 B( 16-C , 18-C ) :   0.9368
B( 18-C , 19-C ) :   1.6627 B( 19-C , 20-C ) :   1.1248 B( 19-C , 79-H ) :   0.9291
B( 20-C , 21-S ) :   1.0574 B( 20-C , 24-N ) :   1.5646 B( 21-S , 22-C ) :   1.1309
B( 21-S , 24-N ) :   0.1078 B( 22-C , 23-C ) :   1.4203 B( 22-C , 27-C ) :   1.2050
B( 23-C , 24-N ) :   1.4756 B( 23-C , 25-C ) :   1.0424 B( 25-C , 26-C ) :   0.9793
B( 25-C , 80-H ) :   0.8623 B( 25-C , 81-H ) :   0.8570 B( 26-C , 27-C ) :   1.4909
B( 26-C , 30-C ) :   1.3354 B( 27-C , 28-S ) :   1.0947 B( 28-S , 29-C ) :   1.1092
B( 29-C , 30-C ) :   1.4415 B( 29-C , 31-C ) :   1.1416 B( 30-C , 82-H ) :   0.9981
B( 31-C , 32-C ) :   1.6265 B( 31-C , 83-H ) :   0.9608 B( 32-C , 33-C ) :   1.1974
B( 32-C , 84-H ) :   0.9718 B( 33-C , 34-C ) :   1.4720 B( 33-C , 43-S ) :   1.0948
B( 34-C , 35-C ) :   0.9081 B( 34-C , 41-C ) :   1.2715 B( 35-C , 36-O ) :   2.1980
B( 35-C , 37-N ) :   1.0500 B( 37-N , 38-C ) :   0.9359 B( 37-N , 39-C ) :   1.1138
B( 38-C , 85-H ) :   0.9624 B( 38-C , 86-H ) :   0.9688 B( 38-C , 87-H ) :   0.9801
B( 39-C , 40-O ) :   2.1135 B( 39-C , 41-C ) :   0.8954 B( 41-C , 42-C ) :   1.4912
B( 42-C , 43-S ) :   1.1398 B( 42-C , 44-C ) :   1.1900 B( 44-C , 45-C ) :   1.4689
B( 44-C , 54-S ) :   1.1737 B( 45-C , 46-C ) :   0.8899 B( 45-C , 52-C ) :   1.2909
B( 46-C , 47-O ) :   2.1750 B( 46-C , 48-N ) :   1.0844 B( 48-N , 49-C ) :   0.9381
B( 48-N , 50-C ) :   1.0648 B( 49-C , 88-H ) :   0.9779 B( 49-C , 89-H ) :   0.9730
B( 49-C , 90-H ) :   0.9608 B( 50-C , 51-O ) :   2.2139 B( 50-C , 52-C ) :   0.8844
B( 52-C , 53-C ) :   1.4945 B( 53-C , 54-S ) :   1.1017 B( 53-C , 55-C ) :   1.1143
B( 55-C , 56-C ) :   1.6813 B( 55-C , 91-H ) :   0.9494 B( 56-C , 57-C ) :   0.9319
B( 56-C , 67-C ) :   1.0106 B( 57-C , 58-O ) :   2.2876 B( 57-C , 59-C ) :   0.9288
B( 59-C , 60-C ) :   1.3398 B( 59-C , 64-C ) :   1.3198 B( 60-C , 61-C ) :   1.3205
B( 60-C , 67-C ) :   1.0270 B( 61-C , 62-C ) :   1.3394 B( 61-C , 64-C ) :   0.1038
B( 61-C , 92-H ) :   0.9947 B( 62-C , 63-C ) :   1.2838 B( 62-C , 66-F ) :   1.1428
B( 63-C , 64-C ) :   1.3288 B( 63-C , 65-F ) :   1.1333 B( 64-C , 93-H ) :   1.0189
B( 67-C , 68-C ) :   1.6892 B( 68-C , 69-C ) :   1.1505 B( 68-C , 71-C ) :   1.1318
B( 69-C , 70-N ) :   3.0235 B( 71-C , 72-N ) :   2.9914

-----------------------------------------------------------------------------
         ABSORPTION SPECTRUM VIA TRANSITION ELECTRIC DIPOLE MOMENTS
-----------------------------------------------------------------------------
State   Energy  Wavelength   fosc         T2         TX        TY        TZ
        (cm-1)    (nm)                  (au**2)     (au)      (au)      (au)
-----------------------------------------------------------------------------
   0   16156.2    619.0   2.027259627  41.30898   3.13388  -1.39046   5.43639
   1   18931.5    528.2   0.040657219   0.70701  -0.68635  -0.33095   0.35554
   2   23884.1    418.7   0.169378398   2.33466  -0.69963   0.64529  -1.19532
   3   24817.1    402.9   0.297413295   3.94534   1.63577  -0.10791   1.12159
   4   25107.9    398.3   0.051341497   0.67318   0.48066   0.50860   0.42834
   5   26544.4    376.7   0.264761872   3.28366   0.79960   1.05674   1.23596
   6   27265.7    366.8   0.015131109   0.18270  -0.24518  -0.25901  -0.23557
   7   27553.6    362.9   0.036446531   0.43547  -0.39901  -0.52050  -0.07309
   8   27977.7    357.4   0.002502790   0.02945   0.03695   0.02026   0.16636
   9   28620.9    349.4   0.134888757   1.55156   0.24478   0.05613   1.22004
  10   28926.6    345.7   0.002394339   0.02725   0.02963  -0.14930   0.06388
  11   29492.9    339.1   0.103777549   1.15841  -0.75967   0.41484  -0.63970
  12   30028.2    333.0   0.084000193   0.92093  -0.27685  -0.05965  -0.91691
  13   30509.4    327.8   0.034079945   0.36774  -0.11267   0.44550   0.39570
  14   32120.5    311.3   0.051548825   0.52834   0.03438   0.62743  -0.36535
  15   32607.8    306.7   0.074342755   0.75057   0.53610   0.67278  -0.10260
  16   32889.3    304.1   0.133985648   1.34116  -0.88916   0.07994  -0.73767
  17   32994.4    303.1   0.256581855   2.56013  -0.89097   0.83474  -1.03417
  18   33349.7    299.9   0.191848277   1.89383   0.20579  -1.21174   0.61900
  19   33494.9    298.6   0.033559011   0.32984  -0.06522   0.10423  -0.56100
  20   33827.0    295.6   0.373612348   3.63608   1.36380  -0.81384   1.05537
  21   34096.3    293.3   0.083676076   0.80792  -0.10874  -0.88522   0.11177
  22   34178.4    292.6   0.054540975   0.52535  -0.46165   0.55169  -0.08870
  23   34276.3    291.7   0.036674603   0.35225   0.12499  -0.40530  -0.41516
  24   34897.3    286.6   0.002642529   0.02493  -0.05125  -0.14668   0.02806
  25   35036.0    285.4   0.059106745   0.55539  -0.28950  -0.54091  -0.42307
  26   35125.2    284.7   0.058010703   0.54371   0.19211   0.46863   0.53590
  27   35524.9    281.5   0.009232789   0.08556  -0.00429   0.25339  -0.14607
  28   35710.6    280.0   0.052666483   0.48553  -0.05930   0.64258  -0.26287
  29   35914.3    278.4   0.218977792   2.00728   0.24761   1.08034   0.88252
  30   36143.3    276.7   0.025581973   0.23301   0.27280  -0.13940   0.37305
  31   36652.9    272.8   0.011596629   0.10416   0.21141  -0.23006  -0.08085
  32   36904.3    271.0   0.051484692   0.45928  -0.31365   0.02918   0.60004
  33   37270.9    268.3   0.322273629   2.84662   0.11366  -0.18987   1.67262
  34   37633.1    265.7   0.200153641   1.75093  -0.58159   0.49763  -1.07938
  35   37931.9    263.6   0.057474767   0.49882  -0.36216  -0.09292   0.59919
  36   38214.5    261.7   0.113433636   0.97721  -0.49842   0.33999  -0.78307
  37   38501.4    259.7   0.125394256   1.07220  -0.48933  -0.91229  -0.02211
  38   38767.0    258.0   0.034402615   0.29215   0.18095  -0.34464   0.37501
  39   38906.3    257.0   0.022275066   0.18848  -0.36342   0.15773  -0.17756
  40   39131.7    255.5   0.114695308   0.96492  -0.49578  -0.79697  -0.28978
  41   39184.0    255.2   0.021694224   0.18227  -0.14147   0.06398  -0.39769
  42   39507.6    253.1   0.017569570   0.14641  -0.06190   0.36941   0.07817
  43   39617.3    252.4   0.039584371   0.32894   0.07776   0.55827  -0.10593
  44   39655.8    252.2   0.059830054   0.49669   0.27743   0.61519   0.20313
  45   39870.2    250.8   0.002507916   0.02071  -0.07427   0.00279   0.12322
  46   39925.3    250.5   0.035618470   0.29370  -0.31094  -0.33693  -0.28895
  47   40228.1    248.6   0.011328276   0.09271   0.05825   0.28247   0.09759

FINAL SINGLE POINT ENERGY     -4693.107419757593

DIPOLE MOMENT
-------------
                                X             Y             Z
Electronic contribution:     37.69056     -18.69892      62.09229
Nuclear contribution   :    -40.78286      19.01485     -61.95815
                        -----------------------------------------
Total Dipole Moment    :     -3.09229       0.31594       0.13414
                        -----------------------------------------
Magnitude (a.u.)       :      3.11128
Magnitude (Debye)      :      7.90825

Rotational constants in cm-1:     0.002565     0.000200     0.000189
Rotational constants in MHz :    76.902556     5.986846     5.662241

                             ****ORCA TERMINATED NORMALLY****
TOTAL RUN TIME: 0 days 0 hours 10 minutes 4 seconds 354 msec
