                         Program Version 4.2.0 -  RELEASE  -
|  1> # ORCA input file
|  2> # SCF done       -185.610070165538          0.000720781320
|  3> ! CAM-B3LYP def2-SVP def2/J RIJCOSX Grid4 TightSCF
|  4> %maxcore 5000
|  5> %tddft
|  6>     Mode sTDDFT
|  7>     Ethresh 5.0
|  8>     maxcore 5000
|  9> end
| 10>
| 11> %pal
| 12>   nprocs 6
| 13>   end
| 14> * xyz 0 1
| 15>    C        2.54783         4.62125        -3.69417
| 16>    C        1.22073         4.94320        -3.84489
| 17>    C        0.69353         5.58497        -4.98111
| 18>    N        0.22591         6.15942        -5.85917
| 19>    C        0.22476         4.59245        -2.91252
| 20>    N       -0.62227         4.22945        -2.22598
| 21>    C        3.51221         4.53424        -4.78437
| 22>    C        4.64565         3.79547        -4.33349
| 23>    C        5.68940         3.50367        -5.16326
| 24>    C        5.65569         3.95562        -6.50200
| 25>    C        4.51663         4.67480        -6.96539
| 26>    C        3.44480         4.95164        -6.08607
| 27>    C        4.48608         5.10618        -8.30617
| 28>    C        5.54056         4.86599        -9.14432
| 29>    C        6.66948         4.17522        -8.68082
| 30>    C        6.72275         3.72192        -7.39027
| 31>    C        4.46029         3.43278        -2.91891
| 32>    O        5.21123         2.80389        -2.20608
| 33>    C        3.17278         4.05978        -2.51463
| 34>    C        2.81734         4.07303        -1.20000
| 35>    C        1.83743         4.87314        -0.56302
| 36>    C        1.05510         4.51459         0.52789
| 37>    C        0.11748         5.50796         0.89348
| 38>    S       -1.18053         5.34572         2.05948
| 39>    C       -0.65881         3.86279         2.98168
| 40>    C       -0.36453         2.71007         2.05201
| 41>    S        1.24397         2.92120         1.22390
| 42>    C        0.22114         6.64536         0.11157
| 43>    S        1.46287         6.48679        -1.09177
| 44>    C       -0.59239         7.81391         0.02391
| 45>    C       -1.18110         8.61917         0.98170
| 46>    C       -1.94256         9.67243         0.41851
| 47>    S       -2.88066        10.86304         1.30412
| 48>    C       -2.18164        10.74006         2.98541
| 49>    C       -2.14201         9.31051         3.46974
| 50>    S       -0.78025         8.39916         2.67510
| 51>    C       -1.90627         9.68512        -0.97044
| 52>    S       -0.92363         8.38216        -1.57942
| 53>    C       -2.47638        10.58338        -1.92315
| 54>    C       -2.02588        10.56152        -3.22767
| 55>    C       -2.45503        11.39223        -4.25201
| 56>    C       -3.56449        12.32542        -4.03380
| 57>    C       -4.16632        12.50704        -2.83569
| 58>    S       -3.72843        11.68162        -1.39575
| 59>    C       -3.80586        12.93473        -5.29523
| 60>    C       -2.90380        12.43917        -6.23571
| 61>    C       -3.08884        13.02120        -7.50810
| 62>    C       -4.10679        13.92201        -7.50072
| 63>    S       -4.87564        14.10456        -5.96088
| 64>    C       -2.02359        11.48700        -5.60024
| 65>    C       -0.94196        10.88508        -6.26313
| 66>    C        0.07592        10.14871        -5.70947
| 67>    C        1.14780         9.66264        -6.46138
| 68>    C        2.21029         8.96284        -5.92507
| 69>    C        3.41107         8.56353        -6.61550
| 70>    C        3.72160         8.76279        -7.94097
| 71>    C        4.93291         8.36746        -8.53971
| 72>    N        5.89560         8.07385        -9.09505
| 73>    C        2.89442         9.38594        -8.89611
| 74>    N        2.29161         9.87901        -9.74160
| 75>    C        4.28684         7.90549        -5.64781
| 76>    C        3.62505         7.86325        -4.39863
| 77>    C        2.30536         8.51995        -4.52345
| 78>    O        1.48926         8.63765        -3.62535
| 79>    C        4.18330         7.28846        -3.28430
| 80>    C        5.45505         6.71925        -3.40869
| 81>    C        6.11626         6.78366        -4.65578
| 82>    C        5.55424         7.37135        -5.78232
| 83>    S        7.67505         6.01996        -4.58919
| 84>    C        7.41094         5.61310        -2.91368
| 85>    C        6.22360         6.03961        -2.42389
| 86>   Br        8.72496         4.66689        -1.97852
| 87>    H        6.53201         2.93042        -4.80446
| 88>    H        2.59537         5.49863        -6.46483
| 89>    H        3.61279         5.63579        -8.65886
| 90>    H        5.51264         5.21559       -10.16450
| 91>    H        7.49665         4.00180        -9.35216
| 92>    H        7.58739         3.18433        -7.02927
| 93>    H        3.37877         3.39919        -0.55771
| 94>    H       -1.50492         3.63681         3.63078
| 95>    H        0.20867         4.11775         3.59128
| 96>    H       -1.13216         2.60904         1.28415
| 97>    H       -0.27135         1.77405         2.60262
| 98>    H       -2.85215        11.34565         3.59541
| 99>    H       -1.18690        11.18620         2.98473
|100>    H       -3.07717         8.78857         3.26661
|101>    H       -1.92203         9.26462         4.53604
|102>    H       -1.27151         9.82233        -3.44761
|103>    H       -4.97154        13.21024        -2.69308
|104>    H       -2.50933        12.79112        -8.38345
|105>    H       -4.46885        14.50991        -8.32140
|106>    H       -0.89220        11.07278        -7.33031
|107>    H        0.11196         9.96301        -4.65128
|108>    H        1.15377         9.88143        -7.52112
|109>    H        3.65816         7.27810        -2.34210
|110>    H        6.10047         7.39007        -6.71030
|111>    H        5.89808         5.87470        -1.41280
|112> *
|113>
|114>                          ****END OF INPUT****

CARTESIAN COORDINATES (ANGSTROEM)
---------------------------------
  C      2.547830    4.621250   -3.694170
  C      1.220730    4.943200   -3.844890
  C      0.693530    5.584970   -4.981110
  N      0.225910    6.159420   -5.859170
  C      0.224760    4.592450   -2.912520
  N     -0.622270    4.229450   -2.225980
  C      3.512210    4.534240   -4.784370
  C      4.645650    3.795470   -4.333490
  C      5.689400    3.503670   -5.163260
  C      5.655690    3.955620   -6.502000
  C      4.516630    4.674800   -6.965390
  C      3.444800    4.951640   -6.086070
  C      4.486080    5.106180   -8.306170
  C      5.540560    4.865990   -9.144320
  C      6.669480    4.175220   -8.680820
  C      6.722750    3.721920   -7.390270
  C      4.460290    3.432780   -2.918910
  O      5.211230    2.803890   -2.206080
  C      3.172780    4.059780   -2.514630
  C      2.817340    4.073030   -1.200000
  C      1.837430    4.873140   -0.563020
  C      1.055100    4.514590    0.527890
  C      0.117480    5.507960    0.893480
  S     -1.180530    5.345720    2.059480
  C     -0.658810    3.862790    2.981680
  C     -0.364530    2.710070    2.052010
  S      1.243970    2.921200    1.223900
  C      0.221140    6.645360    0.111570
  S      1.462870    6.486790   -1.091770
  C     -0.592390    7.813910    0.023910
  C     -1.181100    8.619170    0.981700
  C     -1.942560    9.672430    0.418510
  S     -2.880660   10.863040    1.304120
  C     -2.181640   10.740060    2.985410
  C     -2.142010    9.310510    3.469740
  S     -0.780250    8.399160    2.675100
  C     -1.906270    9.685120   -0.970440
  S     -0.923630    8.382160   -1.579420
  C     -2.476380   10.583380   -1.923150
  C     -2.025880   10.561520   -3.227670
  C     -2.455030   11.392230   -4.252010
  C     -3.564490   12.325420   -4.033800
  C     -4.166320   12.507040   -2.835690
  S     -3.728430   11.681620   -1.395750
  C     -3.805860   12.934730   -5.295230
  C     -2.903800   12.439170   -6.235710
  C     -3.088840   13.021200   -7.508100
  C     -4.106790   13.922010   -7.500720
  S     -4.875640   14.104560   -5.960880
  C     -2.023590   11.487000   -5.600240
  C     -0.941960   10.885080   -6.263130
  C      0.075920   10.148710   -5.709470
  C      1.147800    9.662640   -6.461380
  C      2.210290    8.962840   -5.925070
  C      3.411070    8.563530   -6.615500
  C      3.721600    8.762790   -7.940970
  C      4.932910    8.367460   -8.539710
  N      5.895600    8.073850   -9.095050
  C      2.894420    9.385940   -8.896110
  N      2.291610    9.879010   -9.741600
  C      4.286840    7.905490   -5.647810
  C      3.625050    7.863250   -4.398630
  C      2.305360    8.519950   -4.523450
  O      1.489260    8.637650   -3.625350
  C      4.183300    7.288460   -3.284300
  C      5.455050    6.719250   -3.408690
  C      6.116260    6.783660   -4.655780
  C      5.554240    7.371350   -5.782320
  S      7.675050    6.019960   -4.589190
  C      7.410940    5.613100   -2.913680
  C      6.223600    6.039610   -2.423890
  Br     8.724960    4.666890   -1.978520
  H      6.532010    2.930420   -4.804460
  H      2.595370    5.498630   -6.464830
  H      3.612790    5.635790   -8.658860
  H      5.512640    5.215590  -10.164500
  H      7.496650    4.001800   -9.352160
  H      7.587390    3.184330   -7.029270
  H      3.378770    3.399190   -0.557710
  H     -1.504920    3.636810    3.630780
  H      0.208670    4.117750    3.591280
  H     -1.132160    2.609040    1.284150
  H     -0.271350    1.774050    2.602620
  H     -2.852150   11.345650    3.595410
  H     -1.186900   11.186200    2.984730
  H     -3.077170    8.788570    3.266610
  H     -1.922030    9.264620    4.536040
  H     -1.271510    9.822330   -3.447610
  H     -4.971540   13.210240   -2.693080
  H     -2.509330   12.791120   -8.383450
  H     -4.468850   14.509910   -8.321400
  H     -0.892200   11.072780   -7.330310
  H      0.111960    9.963010   -4.651280
  H      1.153770    9.881430   -7.521120
  H      3.658160    7.278100   -2.342100
  H      6.100470    7.390070   -6.710300
  H      5.898080    5.874700   -1.412800

 Total Charge           Charge          ....    0
 Multiplicity           Mult            ....    1
 Number of Electrons    NEL             ....  584
 Basis Dimension        Dim             .... 1187

ORBITAL ENERGIES
----------------

  NO   OCC          E(Eh)            E(eV)
   0   2.0000    -482.875252    -13139.7036
   1   2.0000     -88.989693     -2421.5327
   2   2.0000     -88.966119     -2420.8912
   3   2.0000     -88.965029     -2420.8615
   4   2.0000     -88.964477     -2420.8465
   5   2.0000     -88.957110     -2420.6460
   6   2.0000     -88.947632     -2420.3881
   7   2.0000     -88.940268     -2420.1877
   8   2.0000     -88.939288     -2420.1611
   9   2.0000     -88.935483     -2420.0575
  10   2.0000     -62.552937     -1702.1519
  11   2.0000     -56.386871     -1534.3648
  12   2.0000     -56.384178     -1534.2915
  13   2.0000     -56.384153     -1534.2908
  14   2.0000     -19.203396      -522.5510
  15   2.0000     -19.200280      -522.4662
  16   2.0000     -14.406728      -392.0270
  17   2.0000     -14.403165      -391.9300
  18   2.0000     -14.398352      -391.7991
  19   2.0000     -14.398190      -391.7947
  20   2.0000     -10.354451      -281.7589
  21   2.0000     -10.349701      -281.6297
  22   2.0000     -10.347987      -281.5830
  23   2.0000     -10.340822      -281.3881
  24   2.0000     -10.332625      -281.1650
  25   2.0000     -10.331452      -281.1331
  26   2.0000     -10.330748      -281.1139
  27   2.0000     -10.324614      -280.9470
  28   2.0000     -10.323030      -280.9039
  29   2.0000     -10.322343      -280.8852
  30   2.0000     -10.322170      -280.8805
  31   2.0000     -10.321630      -280.8658
  32   2.0000     -10.320685      -280.8401
  33   2.0000     -10.320081      -280.8237
  34   2.0000     -10.319664      -280.8123
  35   2.0000     -10.319350      -280.8038
  36   2.0000     -10.318450      -280.7793
  37   2.0000     -10.317439      -280.7518
  38   2.0000     -10.315427      -280.6971
  39   2.0000     -10.313930      -280.6563
  40   2.0000     -10.313760      -280.6517
  41   2.0000     -10.312564      -280.6191
  42   2.0000     -10.311175      -280.5813
  43   2.0000     -10.309170      -280.5268
  44   2.0000     -10.306876      -280.4644
  45   2.0000     -10.306301      -280.4487
  46   2.0000     -10.303059      -280.3605
  47   2.0000     -10.302393      -280.3424
  48   2.0000     -10.299623      -280.2670
  49   2.0000     -10.298400      -280.2337
  50   2.0000     -10.297779      -280.2168
  51   2.0000     -10.295847      -280.1642
  52   2.0000     -10.292646      -280.0771
  53   2.0000     -10.292459      -280.0720
  54   2.0000     -10.291953      -280.0583
  55   2.0000     -10.291862      -280.0558
  56   2.0000     -10.290851      -280.0283
  57   2.0000     -10.290807      -280.0271
  58   2.0000     -10.287278      -279.9311
  59   2.0000     -10.286626      -279.9133
  60   2.0000     -10.285833      -279.8917
  61   2.0000     -10.284521      -279.8561
  62   2.0000     -10.284379      -279.8522
  63   2.0000     -10.283716      -279.8341
  64   2.0000     -10.283520      -279.8288
  65   2.0000     -10.277569      -279.6669
  66   2.0000     -10.276421      -279.6356
  67   2.0000     -10.275923      -279.6221
  68   2.0000     -10.275630      -279.6141
  69   2.0000     -10.274670      -279.5880
  70   2.0000     -10.273046      -279.5438
  71   2.0000     -10.272153      -279.5195
  72   2.0000     -10.269995      -279.4608
  73   2.0000     -10.269890      -279.4579
  74   2.0000     -10.269465      -279.4464
  75   2.0000     -10.259722      -279.1812
  76   2.0000      -8.782377      -238.9806
  77   2.0000      -8.084372      -219.9869
  78   2.0000      -8.061284      -219.3587
  79   2.0000      -8.059627      -219.3136
  80   2.0000      -8.059249      -219.3033
  81   2.0000      -8.052566      -219.1215
  82   2.0000      -8.043094      -218.8637
  83   2.0000      -8.036077      -218.6728
  84   2.0000      -8.034807      -218.6382
  85   2.0000      -8.031066      -218.5364
  86   2.0000      -6.618623      -180.1019
  87   2.0000      -6.604167      -179.7085
  88   2.0000      -6.603917      -179.7017
  89   2.0000      -6.053833      -164.7332
  90   2.0000      -6.049113      -164.6047
  91   2.0000      -6.046648      -164.5376
  92   2.0000      -6.030992      -164.1116
  93   2.0000      -6.029096      -164.0600
  94   2.0000      -6.028766      -164.0511
  95   2.0000      -6.026721      -163.9954
  96   2.0000      -6.024900      -163.9459
  97   2.0000      -6.024567      -163.9368
  98   2.0000      -6.022619      -163.8838
  99   2.0000      -6.022056      -163.8685
 100   2.0000      -6.021210      -163.8455
 101   2.0000      -6.020970      -163.8389
 102   2.0000      -6.017777      -163.7520
 103   2.0000      -6.014518      -163.6634
 104   2.0000      -6.013524      -163.6363
 105   2.0000      -6.009257      -163.5202
 106   2.0000      -6.006467      -163.4443
 107   2.0000      -6.005284      -163.4121
 108   2.0000      -6.002823      -163.3451
 109   2.0000      -6.002414      -163.3340
 110   2.0000      -6.001531      -163.3100
 111   2.0000      -6.001125      -163.2989
 112   2.0000      -5.997328      -163.1956
 113   2.0000      -5.995673      -163.1506
 114   2.0000      -5.994253      -163.1119
 115   2.0000      -5.990561      -163.0114
 116   2.0000      -2.734545       -74.4107
 117   2.0000      -2.730424       -74.2986
 118   2.0000      -2.730298       -74.2952
 119   2.0000      -2.718779       -73.9817
 120   2.0000      -2.718760       -73.9812
 121   2.0000      -1.118043       -30.4235
 122   2.0000      -1.112234       -30.2654
 123   2.0000      -1.023710       -27.8566
 124   2.0000      -1.013367       -27.5751
 125   2.0000      -1.010444       -27.4956
 126   2.0000      -1.006756       -27.3952
 127   2.0000      -1.000405       -27.2224
 128   2.0000      -0.998218       -27.1629
 129   2.0000      -0.986397       -26.8412
 130   2.0000      -0.983005       -26.7489
 131   2.0000      -0.977543       -26.6003
 132   2.0000      -0.975933       -26.5565
 133   2.0000      -0.973637       -26.4940
 134   2.0000      -0.959663       -26.1138
 135   2.0000      -0.947672       -25.7875
 136   2.0000      -0.939425       -25.5631
 137   2.0000      -0.934215       -25.4213
 138   2.0000      -0.928983       -25.2789
 139   2.0000      -0.920072       -25.0364
 140   2.0000      -0.910422       -24.7739
 141   2.0000      -0.901836       -24.5402
 142   2.0000      -0.896107       -24.3843
 143   2.0000      -0.893396       -24.3106
 144   2.0000      -0.886338       -24.1185
 145   2.0000      -0.881455       -23.9856
 146   2.0000      -0.873445       -23.7677
 147   2.0000      -0.870016       -23.6743
 148   2.0000      -0.867300       -23.6004
 149   2.0000      -0.864638       -23.5280
 150   2.0000      -0.860484       -23.4150
 151   2.0000      -0.851264       -23.1641
 152   2.0000      -0.845892       -23.0179
 153   2.0000      -0.834983       -22.7210
 154   2.0000      -0.821859       -22.3639
 155   2.0000      -0.816506       -22.2183
 156   2.0000      -0.815187       -22.1824
 157   2.0000      -0.814585       -22.1660
 158   2.0000      -0.798846       -21.7377
 159   2.0000      -0.782468       -21.2920
 160   2.0000      -0.769058       -20.9271
 161   2.0000      -0.757823       -20.6214
 162   2.0000      -0.754325       -20.5262
 163   2.0000      -0.748998       -20.3813
 164   2.0000      -0.746166       -20.3042
 165   2.0000      -0.742843       -20.2138
 166   2.0000      -0.733238       -19.9524
 167   2.0000      -0.722543       -19.6614
 168   2.0000      -0.717990       -19.5375
 169   2.0000      -0.710249       -19.3269
 170   2.0000      -0.695910       -18.9367
 171   2.0000      -0.691745       -18.8233
 172   2.0000      -0.688145       -18.7254
 173   2.0000      -0.679852       -18.4997
 174   2.0000      -0.675005       -18.3678
 175   2.0000      -0.665118       -18.0988
 176   2.0000      -0.664919       -18.0934
 177   2.0000      -0.661968       -18.0131
 178   2.0000      -0.656307       -17.8590
 179   2.0000      -0.644089       -17.5266
 180   2.0000      -0.640863       -17.4388
 181   2.0000      -0.631445       -17.1825
 182   2.0000      -0.630827       -17.1657
 183   2.0000      -0.622245       -16.9321
 184   2.0000      -0.619904       -16.8684
 185   2.0000      -0.610301       -16.6071
 186   2.0000      -0.607402       -16.5283
 187   2.0000      -0.599074       -16.3016
 188   2.0000      -0.597002       -16.2453
 189   2.0000      -0.594426       -16.1752
 190   2.0000      -0.592469       -16.1219
 191   2.0000      -0.583371       -15.8743
 192   2.0000      -0.581499       -15.8234
 193   2.0000      -0.573576       -15.6078
 194   2.0000      -0.570078       -15.5126
 195   2.0000      -0.565219       -15.3804
 196   2.0000      -0.559296       -15.2192
 197   2.0000      -0.556240       -15.1360
 198   2.0000      -0.553542       -15.0626
 199   2.0000      -0.546869       -14.8811
 200   2.0000      -0.544753       -14.8235
 201   2.0000      -0.543879       -14.7997
 202   2.0000      -0.540572       -14.7097
 203   2.0000      -0.537407       -14.6236
 204   2.0000      -0.535805       -14.5800
 205   2.0000      -0.534586       -14.5468
 206   2.0000      -0.531992       -14.4762
 207   2.0000      -0.527521       -14.3546
 208   2.0000      -0.524426       -14.2704
 209   2.0000      -0.522273       -14.2118
 210   2.0000      -0.519837       -14.1455
 211   2.0000      -0.518388       -14.1060
 212   2.0000      -0.515563       -14.0292
 213   2.0000      -0.513533       -13.9739
 214   2.0000      -0.511385       -13.9155
 215   2.0000      -0.508987       -13.8502
 216   2.0000      -0.505372       -13.7519
 217   2.0000      -0.502367       -13.6701
 218   2.0000      -0.500707       -13.6249
 219   2.0000      -0.499718       -13.5980
 220   2.0000      -0.497143       -13.5279
 221   2.0000      -0.495001       -13.4697
 222   2.0000      -0.494329       -13.4514
 223   2.0000      -0.491468       -13.3735
 224   2.0000      -0.487806       -13.2739
 225   2.0000      -0.484116       -13.1735
 226   2.0000      -0.482862       -13.1394
 227   2.0000      -0.480655       -13.0793
 228   2.0000      -0.477422       -12.9913
 229   2.0000      -0.471882       -12.8406
 230   2.0000      -0.471064       -12.8183
 231   2.0000      -0.469894       -12.7865
 232   2.0000      -0.466459       -12.6930
 233   2.0000      -0.462822       -12.5940
 234   2.0000      -0.457865       -12.4591
 235   2.0000      -0.453272       -12.3342
 236   2.0000      -0.449230       -12.2242
 237   2.0000      -0.448582       -12.2065
 238   2.0000      -0.446718       -12.1558
 239   2.0000      -0.443598       -12.0709
 240   2.0000      -0.442671       -12.0457
 241   2.0000      -0.441127       -12.0037
 242   2.0000      -0.439599       -11.9621
 243   2.0000      -0.437428       -11.9030
 244   2.0000      -0.434992       -11.8367
 245   2.0000      -0.433867       -11.8061
 246   2.0000      -0.431307       -11.7365
 247   2.0000      -0.428298       -11.6546
 248   2.0000      -0.427956       -11.6453
 249   2.0000      -0.426411       -11.6032
 250   2.0000      -0.424384       -11.5481
 251   2.0000      -0.422963       -11.5094
 252   2.0000      -0.420737       -11.4488
 253   2.0000      -0.420201       -11.4342
 254   2.0000      -0.416946       -11.3457
 255   2.0000      -0.416268       -11.3272
 256   2.0000      -0.414535       -11.2801
 257   2.0000      -0.411005       -11.1840
 258   2.0000      -0.409523       -11.1437
 259   2.0000      -0.407383       -11.0855
 260   2.0000      -0.404013       -10.9937
 261   2.0000      -0.403016       -10.9666
 262   2.0000      -0.401119       -10.9150
 263   2.0000      -0.400648       -10.9022
 264   2.0000      -0.393404       -10.7051
 265   2.0000      -0.391988       -10.6665
 266   2.0000      -0.390363       -10.6223
 267   2.0000      -0.389622       -10.6022
 268   2.0000      -0.385702       -10.4955
 269   2.0000      -0.381969       -10.3939
 270   2.0000      -0.372761       -10.1433
 271   2.0000      -0.365560        -9.9474
 272   2.0000      -0.364669        -9.9231
 273   2.0000      -0.362982        -9.8772
 274   2.0000      -0.359599        -9.7852
 275   2.0000      -0.350693        -9.5428
 276   2.0000      -0.346631        -9.4323
 277   2.0000      -0.335502        -9.1295
 278   2.0000      -0.330191        -8.9850
 279   2.0000      -0.322707        -8.7813
 280   2.0000      -0.318948        -8.6790
 281   2.0000      -0.306395        -8.3374
 282   2.0000      -0.303115        -8.2482
 283   2.0000      -0.300734        -8.1834
 284   2.0000      -0.297731        -8.1017
 285   2.0000      -0.283398        -7.7116
 286   2.0000      -0.281867        -7.6700
 287   2.0000      -0.281209        -7.6521
 288   2.0000      -0.276517        -7.5244
 289   2.0000      -0.267589        -7.2815
 290   2.0000      -0.259356        -7.0574
 291   2.0000      -0.227105        -6.1798
 292   0.0000      -0.094336        -2.5670
 293   0.0000      -0.084959        -2.3119
 294   0.0000      -0.054329        -1.4784
 295   0.0000      -0.046170        -1.2563
 296   0.0000      -0.036393        -0.9903

MULLIKEN ATOMIC CHARGES
-----------------------
   0 C :    0.302261
   1 C :   -0.334982
   2 C :   -0.164032
   3 N :    0.140718
   4 C :   -0.203266
   5 N :    0.156917
   6 C :    0.035036
   7 C :    0.015988
   8 C :   -0.095417
   9 C :    0.089677
  10 C :    0.104732
  11 C :   -0.078496
  12 C :   -0.035192
  13 C :    0.064567
  14 C :    0.032367
  15 C :   -0.022604
  16 C :    0.145557
  17 O :   -0.147804
  18 C :   -0.153814
  19 C :    0.028816
  20 C :   -0.180748
  21 C :    0.038595
  22 C :    0.010172
  23 S :    0.036544
  24 C :   -0.053570
  25 C :   -0.061055
  26 S :    0.013981
  27 C :   -0.133686
  28 S :    0.165791
  29 C :   -0.140268
  30 C :   -0.002025
  31 C :   -0.046334
  32 S :   -0.011658
  33 C :   -0.032028
  34 C :   -0.061941
  35 S :    0.039297
  36 C :   -0.099959
  37 S :    0.183338
  38 C :   -0.029925
  39 C :   -0.115241
  40 C :    0.082493
  41 C :    0.058726
  42 C :   -0.122431
  43 S :    0.164184
  44 C :   -0.113241
  45 C :    0.058052
  46 C :    0.008692
  47 C :   -0.064590
  48 S :    0.127690
  49 C :    0.086770
  50 C :    0.013739
  51 C :   -0.035601
  52 C :   -0.003286
  53 C :   -0.084593
  54 C :    0.330886
  55 C :   -0.386984
  56 C :   -0.196995
  57 N :    0.142509
  58 C :   -0.196933
  59 N :    0.139616
  60 C :    0.015441
  61 C :   -0.005430
  62 C :    0.151113
  63 O :   -0.185672
  64 C :   -0.089800
  65 C :    0.131837
  66 C :   -0.114754
  67 C :   -0.003745
  68 S :    0.172133
  69 C :   -0.132919
  70 C :    0.062081
  71 Br:    0.026533
  72 H :   -0.018788
  73 H :   -0.014435
  74 H :   -0.008406
  75 H :   -0.001106
  76 H :   -0.006899
  77 H :   -0.024142
  78 H :    0.035479
  79 H :    0.061028
  80 H :    0.070019
  81 H :    0.090355
  82 H :    0.062496
  83 H :    0.061345
  84 H :    0.076580
  85 H :    0.071621
  86 H :    0.063440
  87 H :    0.036719
  88 H :    0.040207
  89 H :   -0.008915
  90 H :    0.029701
  91 H :   -0.008249
  92 H :    0.008117
  93 H :    0.000219
  94 H :   -0.035074
  95 H :   -0.011651
  96 H :   -0.005493
Sum of atomic charges:   -0.0000000

LOEWDIN ATOMIC CHARGES
----------------------
   0 C :    0.065248
   1 C :   -0.143761
   2 C :   -0.015229
   3 N :   -0.056578
   4 C :   -0.033145
   5 N :   -0.061657
   6 C :   -0.024864
   7 C :   -0.062212
   8 C :    0.024793
   9 C :   -0.017257
  10 C :   -0.008850
  11 C :    0.016137
  12 C :   -0.010333
  13 C :    0.000587
  14 C :   -0.011841
  15 C :   -0.014962
  16 C :    0.079819
  17 O :   -0.149975
  18 C :   -0.094206
  19 C :    0.045107
  20 C :   -0.217185
  21 C :   -0.170414
  22 C :   -0.204027
  23 S :    0.320822
  24 C :   -0.145632
  25 C :   -0.139306
  26 S :    0.315810
  27 C :   -0.200936
  28 S :    0.497183
  29 C :   -0.212127
  30 C :   -0.212674
  31 C :   -0.204426
  32 S :    0.297722
  33 C :   -0.142342
  34 C :   -0.143554
  35 S :    0.320238
  36 C :   -0.209701
  37 S :    0.497364
  38 C :   -0.166924
  39 C :   -0.030942
  40 C :    0.014961
  41 C :   -0.040161
  42 C :   -0.148582
  43 S :    0.492910
  44 C :   -0.212293
  45 C :   -0.029992
  46 C :   -0.062101
  47 C :   -0.159402
  48 S :    0.420103
  49 C :   -0.072095
  50 C :    0.049574
  51 C :   -0.056928
  52 C :    0.078808
  53 C :   -0.117698
  54 C :    0.076101
  55 C :   -0.163360
  56 C :   -0.016785
  57 N :   -0.073411
  58 C :   -0.020890
  59 N :   -0.067803
  60 C :   -0.020138
  61 C :   -0.048139
  62 C :    0.086400
  63 O :   -0.175716
  64 C :    0.005673
  65 C :   -0.036283
  66 C :   -0.145453
  67 C :   -0.005295
  68 S :    0.440635
  69 C :   -0.271196
  70 C :   -0.069394
  71 Br:    0.140094
  72 H :    0.035450
  73 H :    0.035658
  74 H :    0.032565
  75 H :    0.035484
  76 H :    0.032601
  77 H :    0.029459
  78 H :    0.045489
  79 H :    0.034372
  80 H :    0.026912
  81 H :    0.034846
  82 H :    0.034470
  83 H :    0.034143
  84 H :    0.029076
  85 H :    0.028630
  86 H :    0.035028
  87 H :    0.032910
  88 H :    0.037993
  89 H :    0.033395
  90 H :    0.024870
  91 H :    0.036692
  92 H :    0.024504
  93 H :    0.039820
  94 H :    0.020030
  95 H :    0.039977
  96 H :    0.037708

  Mayer bond orders larger than 0.100000
B(  0-C ,  1-C ) :   1.6359 B(  0-C ,  6-C ) :   1.0098 B(  0-C , 18-C ) :   1.0265
B(  1-C ,  2-C ) :   1.1408 B(  1-C ,  4-C ) :   1.1622 B(  2-C ,  3-N ) :   2.9372
B(  4-C ,  5-N ) :   2.9951 B(  6-C ,  7-C ) :   1.2136 B(  6-C , 11-C ) :   1.4688
B(  7-C ,  8-C ) :   1.4657 B(  7-C , 16-C ) :   0.9259 B(  8-C ,  9-C ) :   1.1536
B(  8-C , 72-H ) :   1.0202 B(  9-C , 10-C ) :   1.2718 B(  9-C , 15-C ) :   1.2459
B( 10-C , 11-C ) :   1.1904 B( 10-C , 12-C ) :   1.2497 B( 11-C , 73-H ) :   0.9793
B( 12-C , 13-C ) :   1.4831 B( 12-C , 74-H ) :   0.9930 B( 13-C , 14-C ) :   1.2632
B( 13-C , 75-H ) :   0.9849 B( 14-C , 15-C ) :   1.4739 B( 14-C , 76-H ) :   0.9902
B( 15-C , 77-H ) :   0.9993 B( 16-C , 17-O ) :   2.2681 B( 16-C , 18-C ) :   0.9388
B( 18-C , 19-C ) :   1.6792 B( 19-C , 20-C ) :   1.1030 B( 19-C , 78-H ) :   0.9329
B( 20-C , 21-C ) :   1.5097 B( 20-C , 27-C ) :   0.1111 B( 20-C , 28-S ) :   1.0934
B( 21-C , 22-C ) :   1.2756 B( 21-C , 26-S ) :   1.0407 B( 22-C , 23-S ) :   1.0369
B( 22-C , 27-C ) :   1.5575 B( 23-S , 24-C ) :   1.0212 B( 24-C , 25-C ) :   1.0122
B( 24-C , 79-H ) :   0.9466 B( 24-C , 80-H ) :   0.9490 B( 25-C , 26-S ) :   1.0156
B( 25-C , 81-H ) :   0.9474 B( 25-C , 82-H ) :   0.9463 B( 27-C , 28-S ) :   1.1322
B( 27-C , 29-C ) :   1.0748 B( 29-C , 30-C ) :   1.5687 B( 29-C , 36-C ) :   0.1149
B( 29-C , 37-S ) :   1.1497 B( 30-C , 31-C ) :   1.2611 B( 30-C , 35-S ) :   1.0407
B( 31-C , 32-S ) :   1.0097 B( 31-C , 36-C ) :   1.5394 B( 32-S , 33-C ) :   1.0071
B( 33-C , 34-C ) :   1.0161 B( 33-C , 83-H ) :   0.9451 B( 33-C , 84-H ) :   0.9484
B( 34-C , 35-S ) :   1.0212 B( 34-C , 85-H ) :   0.9481 B( 34-C , 86-H ) :   0.9478
B( 36-C , 37-S ) :   1.1330 B( 36-C , 38-C ) :   1.1492 B( 38-C , 39-C ) :   1.4532
B( 38-C , 43-S ) :   1.0959 B( 39-C , 40-C ) :   1.2992 B( 39-C , 87-H ) :   0.9578
B( 40-C , 41-C ) :   1.0800 B( 40-C , 49-C ) :   1.2956 B( 41-C , 42-C ) :   1.5791
B( 41-C , 44-C ) :   1.1744 B( 42-C , 43-S ) :   1.1549 B( 42-C , 88-H ) :   0.9393
B( 44-C , 45-C ) :   1.4479 B( 44-C , 48-S ) :   1.0690 B( 45-C , 46-C ) :   1.2289
B( 45-C , 49-C ) :   1.0842 B( 46-C , 47-C ) :   1.5816 B( 46-C , 89-H ) :   0.9978
B( 47-C , 48-S ) :   1.1582 B( 47-C , 90-H ) :   0.9660 B( 49-C , 50-C ) :   1.2198
B( 50-C , 51-C ) :   1.4266 B( 50-C , 91-H ) :   0.9754 B( 51-C , 52-C ) :   1.2643
B( 51-C , 92-H ) :   0.9777 B( 52-C , 53-C ) :   1.4148 B( 52-C , 93-H ) :   0.9620
B( 53-C , 54-C ) :   1.1122 B( 53-C , 62-C ) :   0.9875 B( 54-C , 55-C ) :   1.5819
B( 54-C , 60-C ) :   0.9872 B( 55-C , 56-C ) :   1.1629 B( 55-C , 58-C ) :   1.1498
B( 56-C , 57-N ) :   2.9287 B( 58-C , 59-N ) :   2.9609 B( 60-C , 61-C ) :   1.2931
B( 60-C , 67-C ) :   1.4100 B( 61-C , 62-C ) :   0.9407 B( 61-C , 64-C ) :   1.4017
B( 62-C , 63-O ) :   2.1249 B( 64-C , 65-C ) :   1.2379 B( 64-C , 94-H ) :   1.0116
B( 65-C , 66-C ) :   1.3082 B( 65-C , 70-C ) :   1.1692 B( 66-C , 67-C ) :   1.3215
B( 66-C , 68-S ) :   1.0901 B( 67-C , 95-H ) :   0.9737 B( 68-S , 69-C ) :   1.0880
B( 69-C , 70-C ) :   1.6098 B( 69-C , 71-Br) :   1.0227 B( 70-C , 96-H ) :   0.9966

-----------------------------------------------------------------------------
         ABSORPTION SPECTRUM VIA TRANSITION ELECTRIC DIPOLE MOMENTS
-----------------------------------------------------------------------------
State   Energy  Wavelength   fosc         T2         TX        TY        TZ
        (cm-1)    (nm)                  (au**2)     (au)      (au)      (au)
-----------------------------------------------------------------------------
   0   13007.0    768.8   0.175524557   4.44260   1.39438   0.38228  -1.53367
   1   15958.4    626.6   0.417876534   8.62052  -2.11569   1.17713   1.66094
   2   19565.8    511.1   0.477256633   8.03027   1.64857  -1.41096  -1.82255
   3   20839.0    479.9   0.212163099   3.35173   0.72608   0.33257  -1.64740
   4   21590.0    463.2   0.091166328   1.39014  -0.91843   0.71355  -0.19358
   5   22462.0    445.2   0.018122057   0.26560  -0.24915  -0.11402   0.43649
   6   22975.4    435.2   0.306577686   4.39292  -1.45560   1.41380  -0.52471
   7   23589.3    423.9   0.044655800   0.62322   0.78014  -0.12067   0.00597
   8   23988.3    416.9   0.041205081   0.56549   0.27884  -0.63226  -0.29662
   9   24781.1    403.5   0.019599582   0.26038   0.34555  -0.23829  -0.29016
  10   25294.5    395.3   0.196792125   2.56128   1.01388  -1.09729   0.57384
  11   25568.7    391.1   0.012621650   0.16251   0.39447  -0.04072   0.07244
  12   25587.1    390.8   0.434126711   5.58561   1.85726  -1.45818   0.09950
  13   26712.2    374.4   0.176888513   2.18005   0.89522  -0.80732   0.85256
  14   26745.1    373.9   0.041388628   0.50946  -0.67689   0.15330   0.16670
  15   26983.4    370.6   0.018259363   0.22277  -0.38327   0.27197   0.04375
  16   27598.6    362.3   0.091053659   1.08614   0.76393  -0.51382   0.48841
  17   27625.5    362.0   0.166426930   1.98330  -0.53520   0.64556  -1.13142
  18   28092.3    356.0   0.004752520   0.05569   0.15853  -0.17337   0.02244
  19   28123.7    355.6   0.008191893   0.09589   0.08692  -0.29409   0.04303
  20   28538.0    350.4   0.044200757   0.50990   0.08191  -0.42871   0.56515
  21   28788.2    347.4   0.010033519   0.11474   0.04815  -0.22906   0.24485
  22   29612.5    337.7   0.028955413   0.32191   0.35613  -0.41153   0.16037
  23   29799.6    335.6   0.005826352   0.06437  -0.06097   0.15396  -0.19221
  24   30094.2    332.3   0.119724955   1.30972  -0.15028   0.39525  -1.06344
  25   30339.0    329.6   0.334853561   3.63354  -1.60784   1.01045  -0.16553
  26   30504.2    327.8   0.000138334   0.00149   0.03841  -0.00298  -0.00296
  27   30856.4    324.1   0.019888506   0.21219   0.37685  -0.22811   0.13469
  28   31421.8    318.3   0.168413401   1.76450   0.12776   0.62303  -1.16619
  29   31612.4    316.3   0.003300508   0.03437   0.04247   0.05300  -0.17251
  30   31811.1    314.4   0.106551699   1.10270   0.50739  -0.19183  -0.89914
  31   31977.6    312.7   0.089961698   0.92616   0.71339   0.42391  -0.48737
  32   32174.5    310.8   0.033774973   0.34559   0.13570   0.34077  -0.45940
  33   32309.6    309.5   0.123267818   1.25601  -0.79924   0.77499  -0.12891
  34   32377.9    308.9   0.066301654   0.67414  -0.59172  -0.32751   0.46555
  35   32763.8    305.2   0.209693408   2.10701   1.22078  -0.58175  -0.52751
  36   33005.3    303.0   0.276771832   2.76067   0.62147  -0.67086   1.38723
  37   33245.8    300.8   0.229133568   2.26897   0.55480   0.17951  -1.38886
  38   33364.6    299.7   0.077943971   0.76908   0.80721  -0.31761   0.12889
  39   33671.1    297.0   0.031444267   0.30744   0.52096   0.18278  -0.05131
  40   33913.1    294.9   0.083032928   0.80604  -0.03783   0.35376  -0.82430
  41   34260.7    291.9   0.017747313   0.17053  -0.22193   0.14437  -0.31692
  42   34422.2    290.5   0.142474802   1.36262  -0.19394  -0.07240   1.14881
  43   34716.5    288.0   0.060813861   0.57669  -0.21441   0.33461  -0.64711
  44   35064.3    285.2   0.023644320   0.22199  -0.06698   0.41351  -0.21568
  45   35443.4    282.1   0.182380931   1.69402  -0.48957   0.23761   1.18232
  46   36074.9    277.2   0.000359564   0.00328   0.05248   0.02216  -0.00597
  47   36149.1    276.6   0.078225241   0.71240  -0.29599   0.08452   0.78590
  48   36462.5    274.3   0.063918601   0.57711   0.58384   0.03574   0.48472
  49   36567.2    273.5   0.010954371   0.09862  -0.10383  -0.04654  -0.29270
  50   36741.5    272.2   0.048943501   0.43854  -0.16521  -0.03373   0.64040
  51   37056.3    269.9   0.041573734   0.36935   0.59063   0.13076   0.05836
  52   37134.5    269.3   0.024150868   0.21411  -0.37496   0.26897  -0.03425
  53   37386.6    267.5   0.162617679   1.43195   0.22498  -0.51436   1.05677
  54   37626.1    265.8   0.016546412   0.14477   0.33881  -0.12655  -0.11819
  55   37673.6    265.4   0.046780398   0.40879   0.27073  -0.50875  -0.27689
  56   37743.0    264.9   0.033640001   0.29342  -0.00780  -0.00719  -0.54158
  57   38084.0    262.6   0.277680442   2.40037  -0.49057  -0.16761   1.46001
  58   38172.9    262.0   0.089755570   0.77407   0.49973  -0.57357   0.44200
  59   38350.3    260.8   0.015248053   0.13089   0.05593   0.33808  -0.11606
  60   38659.9    258.7   0.023624089   0.20117   0.28316  -0.30202   0.17257
  61   38738.8    258.1   0.010016272   0.08512  -0.17852  -0.08743   0.21356
  62   39153.6    255.4   0.095689845   0.80458  -0.61891   0.28746  -0.58214
  63   39183.1    255.2   0.021559189   0.18114   0.01127   0.21534   0.36693
  64   39279.2    254.6   0.059667100   0.50009  -0.66249   0.22180   0.10952
  65   39494.4    253.2   0.026788338   0.22330  -0.06651   0.01380   0.46764
  66   39735.9    251.7   0.050354881   0.41719  -0.50953   0.16657   0.36031
  67   39837.5    251.0   0.143398476   1.18503  -0.63005   0.45302   0.76344
  68   40067.4    249.6   0.000757763   0.00623  -0.00727   0.05351  -0.05753
  69   40177.8    248.9   0.075677950   0.62010   0.02472   0.23928  -0.74982
  70   40273.4    248.3   0.044119316   0.36065   0.21735   0.01698   0.55957

FINAL SINGLE POINT ENERGY     -8671.744650824443

DIPOLE MOMENT
-------------
                                X             Y             Z
Electronic contribution:     75.63514     -23.58512      12.73465
Nuclear contribution   :    -77.63999      24.47879      -8.33504
                        -----------------------------------------
Total Dipole Moment    :     -2.00485       0.89367       4.39961
                        -----------------------------------------
Magnitude (a.u.)       :      4.91678
Magnitude (Debye)      :     12.49745

Rotational constants in cm-1:     0.000999     0.000629     0.000435
Rotational constants in MHz :    29.945953    18.843632    13.032173

                             ****ORCA TERMINATED NORMALLY****
TOTAL RUN TIME: 0 days 0 hours 12 minutes 43 seconds 94 msec
