                         Program Version 4.2.0 -  RELEASE  -
|  1> # ORCA input file
|  2> # SCF done       -193.967007864545          0.000606976107
|  3> ! CAM-B3LYP def2-SVP def2/J RIJCOSX Grid4 TightSCF
|  4> %maxcore 5000
|  5> %tddft
|  6>     Mode sTDDFT
|  7>     Ethresh 5.0
|  8>     maxcore 5000
|  9> end
| 10>
| 11> %pal
| 12>   nprocs 6
| 13>   end
| 14> * xyz 0 1
| 15>    C        1.54734         2.69322         1.25804
| 16>    C        1.57891         1.51693         1.96942
| 17>    C        2.71332         0.68686         2.07271
| 18>    N        3.59674        -0.03573         2.20277
| 19>    C        0.50528         0.95999         2.69099
| 20>    N       -0.31925         0.44087         3.30207
| 21>    C        2.67361         3.25409         0.51489
| 22>    C        2.24727         4.46307        -0.10638
| 23>    C        3.08730         5.22137        -0.86795
| 24>    C        4.42501         4.79931        -1.04445
| 25>    C        4.86102         3.59312        -0.42576
| 26>    C        3.96371         2.82645         0.35512
| 27>    C        6.19749         3.18374        -0.60377
| 28>    C        7.06430         3.92946        -1.35625
| 29>    C        6.63377         5.11685        -1.96531
| 30>    C        5.34152         5.54233        -1.81310
| 31>    C        0.83586         4.70133         0.23189
| 32>    O        0.14857         5.64120        -0.13900
| 33>    C        0.42889         3.59476         1.09839
| 34>    C       -0.80745         3.44741         1.69256
| 35>    C       -1.93956         4.25392         1.64844
| 36>    C       -3.12836         3.96667         2.38120
| 37>    C       -4.12979         4.95921         2.22001
| 38>    C       -5.36179         4.82690         2.87838
| 39>    C       -5.58337         3.73303         3.67449
| 40>    C       -4.59520         2.75244         3.83398
| 41>    C       -3.38153         2.85781         3.20173
| 42>    C       -3.71768         5.99639         1.34881
| 43>    S       -2.11703         5.73575         0.75404
| 44>    C       -4.46532         7.13657         1.00035
| 45>    C       -4.08092         8.05416         0.06962
| 46>    C       -4.80212         9.22231        -0.24834
| 47>    C       -4.50693        10.13196        -1.25634
| 48>    C       -5.40774        11.19011        -1.29408
| 49>    C       -6.39920        11.10400        -0.29485
| 50>    S       -6.23024         9.70459         0.66835
| 51>    C       -7.24330        12.23157        -0.39520
| 52>    C       -6.79973        13.03021        -1.46787
| 53>    C       -5.63812        12.39769        -2.07135
| 54>    C       -4.92695        12.84053        -3.14819
| 55>    C       -3.80822        12.14445        -3.65169
| 56>    N       -2.89807        11.58310        -4.06541
| 57>    C       -5.27620        14.02210        -3.83479
| 58>    N       -5.57036        14.97835        -4.39567
| 59>    C       -7.55383        14.18706        -1.63792
| 60>    C       -8.57413        14.29041        -0.70352
| 61>    S       -8.58551        12.91807         0.40729
| 62>    C       -9.50793        15.33636        -0.52181
| 63>    C       -9.96442        16.29985        -1.44545
| 64>    C      -10.85547        17.24006        -0.84865
| 65>    C      -11.40044        18.27519        -1.62666
| 66>    C      -11.08674        18.35464        -2.95663
| 67>    C      -10.24520        17.40328        -3.55590
| 68>    C       -9.69217        16.38809        -2.82340
| 69>    C      -11.09092        16.99052         0.52120
| 70>    S      -10.21833        15.58049         1.03637
| 71>    C      -11.87379        17.73689         1.40905
| 72>    C      -12.01306        17.46425         2.74393
| 73>    C      -12.77769        18.28122         3.58910
| 74>    C      -12.91027        18.10604         4.94486
| 75>    C      -13.65964        18.94372         5.85442
| 76>    C      -14.46004        20.01272         5.53004
| 77>    C      -15.17044        20.78373         6.47222
| 78>    N      -15.77208        21.45590         7.18335
| 79>    C      -14.70417        20.49278         4.22813
| 80>    N      -14.95944        20.94200         3.20138
| 81>    C      -13.43219        18.44596         7.20857
| 82>    C      -12.59390        17.29756         7.13464
| 83>    C      -12.25007        17.03323         5.72560
| 84>    O      -11.56029        16.12252         5.31042
| 85>    C      -12.20449        16.61428         8.24949
| 86>    C      -12.63837        17.06058         9.51828
| 87>    C      -13.47258        18.21180         9.60212
| 88>    C      -13.86439        18.89562         8.42758
| 89>    C      -13.89355        18.65373        10.87263
| 90>    C      -13.50991        17.99163        12.00714
| 91>    C      -12.68951        16.85709        11.92322
| 92>    C      -12.26354        16.40122        10.70504
| 93>    H        2.73858         6.13403        -1.32815
| 94>    H        4.32725         1.91898         0.81008
| 95>    H        6.52444         2.26833        -0.13260
| 96>    H        8.08685         3.60758        -1.48551
| 97>    H        7.33040         5.69339        -2.55552
| 98>    H        5.00420         6.45635        -2.27984
| 99>    H       -0.92589         2.57280         2.31676
|100>    H       -6.12586         5.57859         2.75432
|101>    H       -6.52774         3.61964         4.18498
|102>    H       -4.79503         1.89977         4.46471
|103>    H       -2.63849         2.08735         3.33827
|104>    H       -5.40827         7.28306         1.51234
|105>    H       -3.16310         7.89711        -0.48174
|106>    H       -3.67069        10.00593        -1.91985
|107>    H       -7.33941        14.94918        -2.36273
|108>    H      -12.06640        18.99409        -1.17615
|109>    H      -11.50126        19.14647        -3.56156
|110>    H      -10.03878        17.47417        -4.61273
|111>    H       -9.07314        15.64915        -3.30432
|112>    H      -12.38460        18.59961         1.00010
|113>    H      -11.50834        16.60952         3.17192
|114>    H      -13.27672        19.12269         3.12560
|115>    H      -11.56892        15.74513         8.16511
|116>    H      -14.49537        19.76436         8.52695
|117>    H      -14.52556        19.52775        10.93206
|118>    H      -13.83660        18.33907        12.97592
|119>    H      -12.39619        16.34638        12.82837
|120>    H      -11.63110        15.52819        10.63403
|121> *
|122>
|123>                          ****END OF INPUT****

CARTESIAN COORDINATES (ANGSTROEM)
---------------------------------
  C      1.547340    2.693220    1.258040
  C      1.578910    1.516930    1.969420
  C      2.713320    0.686860    2.072710
  N      3.596740   -0.035730    2.202770
  C      0.505280    0.959990    2.690990
  N     -0.319250    0.440870    3.302070
  C      2.673610    3.254090    0.514890
  C      2.247270    4.463070   -0.106380
  C      3.087300    5.221370   -0.867950
  C      4.425010    4.799310   -1.044450
  C      4.861020    3.593120   -0.425760
  C      3.963710    2.826450    0.355120
  C      6.197490    3.183740   -0.603770
  C      7.064300    3.929460   -1.356250
  C      6.633770    5.116850   -1.965310
  C      5.341520    5.542330   -1.813100
  C      0.835860    4.701330    0.231890
  O      0.148570    5.641200   -0.139000
  C      0.428890    3.594760    1.098390
  C     -0.807450    3.447410    1.692560
  C     -1.939560    4.253920    1.648440
  C     -3.128360    3.966670    2.381200
  C     -4.129790    4.959210    2.220010
  C     -5.361790    4.826900    2.878380
  C     -5.583370    3.733030    3.674490
  C     -4.595200    2.752440    3.833980
  C     -3.381530    2.857810    3.201730
  C     -3.717680    5.996390    1.348810
  S     -2.117030    5.735750    0.754040
  C     -4.465320    7.136570    1.000350
  C     -4.080920    8.054160    0.069620
  C     -4.802120    9.222310   -0.248340
  C     -4.506930   10.131960   -1.256340
  C     -5.407740   11.190110   -1.294080
  C     -6.399200   11.104000   -0.294850
  S     -6.230240    9.704590    0.668350
  C     -7.243300   12.231570   -0.395200
  C     -6.799730   13.030210   -1.467870
  C     -5.638120   12.397690   -2.071350
  C     -4.926950   12.840530   -3.148190
  C     -3.808220   12.144450   -3.651690
  N     -2.898070   11.583100   -4.065410
  C     -5.276200   14.022100   -3.834790
  N     -5.570360   14.978350   -4.395670
  C     -7.553830   14.187060   -1.637920
  C     -8.574130   14.290410   -0.703520
  S     -8.585510   12.918070    0.407290
  C     -9.507930   15.336360   -0.521810
  C     -9.964420   16.299850   -1.445450
  C    -10.855470   17.240060   -0.848650
  C    -11.400440   18.275190   -1.626660
  C    -11.086740   18.354640   -2.956630
  C    -10.245200   17.403280   -3.555900
  C     -9.692170   16.388090   -2.823400
  C    -11.090920   16.990520    0.521200
  S    -10.218330   15.580490    1.036370
  C    -11.873790   17.736890    1.409050
  C    -12.013060   17.464250    2.743930
  C    -12.777690   18.281220    3.589100
  C    -12.910270   18.106040    4.944860
  C    -13.659640   18.943720    5.854420
  C    -14.460040   20.012720    5.530040
  C    -15.170440   20.783730    6.472220
  N    -15.772080   21.455900    7.183350
  C    -14.704170   20.492780    4.228130
  N    -14.959440   20.942000    3.201380
  C    -13.432190   18.445960    7.208570
  C    -12.593900   17.297560    7.134640
  C    -12.250070   17.033230    5.725600
  O    -11.560290   16.122520    5.310420
  C    -12.204490   16.614280    8.249490
  C    -12.638370   17.060580    9.518280
  C    -13.472580   18.211800    9.602120
  C    -13.864390   18.895620    8.427580
  C    -13.893550   18.653730   10.872630
  C    -13.509910   17.991630   12.007140
  C    -12.689510   16.857090   11.923220
  C    -12.263540   16.401220   10.705040
  H      2.738580    6.134030   -1.328150
  H      4.327250    1.918980    0.810080
  H      6.524440    2.268330   -0.132600
  H      8.086850    3.607580   -1.485510
  H      7.330400    5.693390   -2.555520
  H      5.004200    6.456350   -2.279840
  H     -0.925890    2.572800    2.316760
  H     -6.125860    5.578590    2.754320
  H     -6.527740    3.619640    4.184980
  H     -4.795030    1.899770    4.464710
  H     -2.638490    2.087350    3.338270
  H     -5.408270    7.283060    1.512340
  H     -3.163100    7.897110   -0.481740
  H     -3.670690   10.005930   -1.919850
  H     -7.339410   14.949180   -2.362730
  H    -12.066400   18.994090   -1.176150
  H    -11.501260   19.146470   -3.561560
  H    -10.038780   17.474170   -4.612730
  H     -9.073140   15.649150   -3.304320
  H    -12.384600   18.599610    1.000100
  H    -11.508340   16.609520    3.171920
  H    -13.276720   19.122690    3.125600
  H    -11.568920   15.745130    8.165110
  H    -14.495370   19.764360    8.526950
  H    -14.525560   19.527750   10.932060
  H    -13.836600   18.339070   12.975920
  H    -12.396190   16.346380   12.828370
  H    -11.631100   15.528190   10.634030

 Total Charge           Charge          ....    0
 Multiplicity           Mult            ....    1
 Number of Electrons    NEL             ....  546
 Basis Dimension        Dim             .... 1248

ORBITAL ENERGIES
----------------

  NO   OCC          E(Eh)            E(eV)
   0   2.0000     -89.002483     -2421.8807
   1   2.0000     -89.000053     -2421.8146
   2   2.0000     -88.989291     -2421.5217
   3   2.0000     -88.975796     -2421.1545
   4   2.0000     -19.212491      -522.7984
   5   2.0000     -19.208961      -522.7024
   6   2.0000     -14.441975      -392.9861
   7   2.0000     -14.440360      -392.9422
   8   2.0000     -14.411342      -392.1526
   9   2.0000     -14.409865      -392.1123
  10   2.0000     -14.406284      -392.0149
  11   2.0000     -14.404039      -391.9538
  12   2.0000     -10.376592      -282.3614
  13   2.0000     -10.363421      -282.0030
  14   2.0000     -10.360469      -281.9227
  15   2.0000     -10.359519      -281.8968
  16   2.0000     -10.346158      -281.5333
  17   2.0000     -10.345222      -281.5078
  18   2.0000     -10.343293      -281.4553
  19   2.0000     -10.342067      -281.4220
  20   2.0000     -10.341688      -281.4116
  21   2.0000     -10.340208      -281.3714
  22   2.0000     -10.334166      -281.2070
  23   2.0000     -10.332698      -281.1670
  24   2.0000     -10.331862      -281.1443
  25   2.0000     -10.331798      -281.1425
  26   2.0000     -10.329351      -281.0759
  27   2.0000     -10.324390      -280.9409
  28   2.0000     -10.322563      -280.8912
  29   2.0000     -10.316896      -280.7370
  30   2.0000     -10.315596      -280.7016
  31   2.0000     -10.315476      -280.6984
  32   2.0000     -10.315289      -280.6933
  33   2.0000     -10.315009      -280.6857
  34   2.0000     -10.313946      -280.6567
  35   2.0000     -10.313843      -280.6539
  36   2.0000     -10.313444      -280.6431
  37   2.0000     -10.313152      -280.6351
  38   2.0000     -10.313068      -280.6329
  39   2.0000     -10.310050      -280.5507
  40   2.0000     -10.308387      -280.5055
  41   2.0000     -10.308234      -280.5013
  42   2.0000     -10.306510      -280.4544
  43   2.0000     -10.305957      -280.4394
  44   2.0000     -10.305818      -280.4356
  45   2.0000     -10.299179      -280.2549
  46   2.0000     -10.296101      -280.1712
  47   2.0000     -10.294891      -280.1382
  48   2.0000     -10.294251      -280.1208
  49   2.0000     -10.293554      -280.1018
  50   2.0000     -10.292706      -280.0788
  51   2.0000     -10.292461      -280.0721
  52   2.0000     -10.292063      -280.0613
  53   2.0000     -10.291347      -280.0418
  54   2.0000     -10.291136      -280.0360
  55   2.0000     -10.290699      -280.0241
  56   2.0000     -10.290681      -280.0237
  57   2.0000     -10.290283      -280.0128
  58   2.0000     -10.290084      -280.0074
  59   2.0000     -10.289641      -279.9954
  60   2.0000     -10.289091      -279.9804
  61   2.0000     -10.288922      -279.9758
  62   2.0000     -10.288121      -279.9540
  63   2.0000     -10.286606      -279.9128
  64   2.0000     -10.284732      -279.8618
  65   2.0000     -10.283481      -279.8277
  66   2.0000     -10.283184      -279.8197
  67   2.0000     -10.282790      -279.8089
  68   2.0000     -10.282445      -279.7996
  69   2.0000     -10.281964      -279.7865
  70   2.0000     -10.281892      -279.7845
  71   2.0000     -10.281556      -279.7753
  72   2.0000     -10.281499      -279.7738
  73   2.0000     -10.281174      -279.7650
  74   2.0000     -10.280919      -279.7580
  75   2.0000     -10.280643      -279.7505
  76   2.0000     -10.280157      -279.7373
  77   2.0000     -10.279641      -279.7232
  78   2.0000      -8.097155      -220.3348
  79   2.0000      -8.094542      -220.2637
  80   2.0000      -8.084357      -219.9865
  81   2.0000      -8.068648      -219.5591
  82   2.0000      -6.066463      -165.0768
  83   2.0000      -6.063714      -165.0020
  84   2.0000      -6.062223      -164.9615
  85   2.0000      -6.059673      -164.8921
  86   2.0000      -6.059406      -164.8848
  87   2.0000      -6.056944      -164.8178
  88   2.0000      -6.053336      -164.7197
  89   2.0000      -6.049214      -164.6075
  90   2.0000      -6.047102      -164.5500
  91   2.0000      -6.037805      -164.2970
  92   2.0000      -6.033210      -164.1720
  93   2.0000      -6.031554      -164.1269
  94   2.0000      -1.126992       -30.6670
  95   2.0000      -1.122655       -30.5490
  96   2.0000      -1.056854       -28.7585
  97   2.0000      -1.033245       -28.1160
  98   2.0000      -1.023856       -27.8605
  99   2.0000      -1.018332       -27.7102
 100   2.0000      -1.011483       -27.5239
 101   2.0000      -1.010747       -27.5038
 102   2.0000      -1.008544       -27.4439
 103   2.0000      -1.004145       -27.3242
 104   2.0000      -0.992424       -27.0052
 105   2.0000      -0.992223       -26.9998
 106   2.0000      -0.986410       -26.8416
 107   2.0000      -0.985439       -26.8152
 108   2.0000      -0.971676       -26.4407
 109   2.0000      -0.965578       -26.2747
 110   2.0000      -0.964704       -26.2509
 111   2.0000      -0.950160       -25.8552
 112   2.0000      -0.943872       -25.6841
 113   2.0000      -0.936048       -25.4712
 114   2.0000      -0.928716       -25.2717
 115   2.0000      -0.920239       -25.0410
 116   2.0000      -0.914886       -24.8953
 117   2.0000      -0.909899       -24.7596
 118   2.0000      -0.895353       -24.3638
 119   2.0000      -0.890578       -24.2339
 120   2.0000      -0.882880       -24.0244
 121   2.0000      -0.879153       -23.9230
 122   2.0000      -0.875149       -23.8140
 123   2.0000      -0.874214       -23.7886
 124   2.0000      -0.870226       -23.6800
 125   2.0000      -0.867590       -23.6083
 126   2.0000      -0.852022       -23.1847
 127   2.0000      -0.850488       -23.1429
 128   2.0000      -0.846628       -23.0379
 129   2.0000      -0.840025       -22.8583
 130   2.0000      -0.831764       -22.6335
 131   2.0000      -0.822788       -22.3892
 132   2.0000      -0.821844       -22.3635
 133   2.0000      -0.814629       -22.1672
 134   2.0000      -0.802669       -21.8417
 135   2.0000      -0.791090       -21.5266
 136   2.0000      -0.786051       -21.3895
 137   2.0000      -0.764026       -20.7902
 138   2.0000      -0.755367       -20.5546
 139   2.0000      -0.754843       -20.5403
 140   2.0000      -0.746799       -20.3214
 141   2.0000      -0.728947       -19.8357
 142   2.0000      -0.724912       -19.7259
 143   2.0000      -0.717240       -19.5171
 144   2.0000      -0.715278       -19.4637
 145   2.0000      -0.709517       -19.3069
 146   2.0000      -0.699937       -19.0462
 147   2.0000      -0.698727       -19.0133
 148   2.0000      -0.698125       -18.9969
 149   2.0000      -0.695310       -18.9204
 150   2.0000      -0.691730       -18.8229
 151   2.0000      -0.688528       -18.7358
 152   2.0000      -0.679167       -18.4811
 153   2.0000      -0.675200       -18.3731
 154   2.0000      -0.667623       -18.1669
 155   2.0000      -0.666172       -18.1275
 156   2.0000      -0.661627       -18.0038
 157   2.0000      -0.654267       -17.8035
 158   2.0000      -0.647818       -17.6280
 159   2.0000      -0.642546       -17.4846
 160   2.0000      -0.636875       -17.3303
 161   2.0000      -0.630890       -17.1674
 162   2.0000      -0.628569       -17.1042
 163   2.0000      -0.627215       -17.0674
 164   2.0000      -0.618544       -16.8314
 165   2.0000      -0.614574       -16.7234
 166   2.0000      -0.603210       -16.4142
 167   2.0000      -0.601069       -16.3559
 168   2.0000      -0.600105       -16.3297
 169   2.0000      -0.596172       -16.2227
 170   2.0000      -0.589391       -16.0381
 171   2.0000      -0.582796       -15.8587
 172   2.0000      -0.576861       -15.6972
 173   2.0000      -0.571022       -15.5383
 174   2.0000      -0.568268       -15.4634
 175   2.0000      -0.562125       -15.2962
 176   2.0000      -0.560276       -15.2459
 177   2.0000      -0.559343       -15.2205
 178   2.0000      -0.554848       -15.0982
 179   2.0000      -0.547818       -14.9069
 180   2.0000      -0.545703       -14.8493
 181   2.0000      -0.541483       -14.7345
 182   2.0000      -0.540612       -14.7108
 183   2.0000      -0.539639       -14.6843
 184   2.0000      -0.534305       -14.5392
 185   2.0000      -0.533442       -14.5157
 186   2.0000      -0.532904       -14.5010
 187   2.0000      -0.531320       -14.4580
 188   2.0000      -0.529630       -14.4120
 189   2.0000      -0.525849       -14.3091
 190   2.0000      -0.524639       -14.2761
 191   2.0000      -0.523510       -14.2454
 192   2.0000      -0.520459       -14.1624
 193   2.0000      -0.516502       -14.0547
 194   2.0000      -0.516035       -14.0420
 195   2.0000      -0.515152       -14.0180
 196   2.0000      -0.513871       -13.9831
 197   2.0000      -0.512997       -13.9594
 198   2.0000      -0.511086       -13.9074
 199   2.0000      -0.508575       -13.8390
 200   2.0000      -0.507196       -13.8015
 201   2.0000      -0.505211       -13.7475
 202   2.0000      -0.503072       -13.6893
 203   2.0000      -0.499774       -13.5996
 204   2.0000      -0.494148       -13.4464
 205   2.0000      -0.492393       -13.3987
 206   2.0000      -0.490064       -13.3353
 207   2.0000      -0.489884       -13.3304
 208   2.0000      -0.488042       -13.2803
 209   2.0000      -0.486602       -13.2411
 210   2.0000      -0.483337       -13.1523
 211   2.0000      -0.481442       -13.1007
 212   2.0000      -0.480736       -13.0815
 213   2.0000      -0.480596       -13.0777
 214   2.0000      -0.476971       -12.9790
 215   2.0000      -0.471843       -12.8395
 216   2.0000      -0.468497       -12.7484
 217   2.0000      -0.463798       -12.6206
 218   2.0000      -0.459213       -12.4958
 219   2.0000      -0.458771       -12.4838
 220   2.0000      -0.454643       -12.3715
 221   2.0000      -0.451090       -12.2748
 222   2.0000      -0.450364       -12.2550
 223   2.0000      -0.449522       -12.2321
 224   2.0000      -0.447666       -12.1816
 225   2.0000      -0.446785       -12.1576
 226   2.0000      -0.445918       -12.1341
 227   2.0000      -0.445262       -12.1162
 228   2.0000      -0.443233       -12.0610
 229   2.0000      -0.440040       -11.9741
 230   2.0000      -0.438919       -11.9436
 231   2.0000      -0.438583       -11.9345
 232   2.0000      -0.435598       -11.8532
 233   2.0000      -0.434629       -11.8269
 234   2.0000      -0.434203       -11.8153
 235   2.0000      -0.432686       -11.7740
 236   2.0000      -0.431711       -11.7475
 237   2.0000      -0.430750       -11.7213
 238   2.0000      -0.427542       -11.6340
 239   2.0000      -0.427107       -11.6222
 240   2.0000      -0.426661       -11.6100
 241   2.0000      -0.426523       -11.6063
 242   2.0000      -0.426186       -11.5971
 243   2.0000      -0.420259       -11.4358
 244   2.0000      -0.418897       -11.3988
 245   2.0000      -0.417535       -11.3617
 246   2.0000      -0.415893       -11.3170
 247   2.0000      -0.413418       -11.2497
 248   2.0000      -0.404922       -11.0185
 249   2.0000      -0.403775       -10.9873
 250   2.0000      -0.399271       -10.8647
 251   2.0000      -0.397978       -10.8295
 252   2.0000      -0.393514       -10.7081
 253   2.0000      -0.382244       -10.4014
 254   2.0000      -0.375247       -10.2110
 255   2.0000      -0.369223       -10.0471
 256   2.0000      -0.364021        -9.9055
 257   2.0000      -0.361241        -9.8299
 258   2.0000      -0.348039        -9.4706
 259   2.0000      -0.337150        -9.1743
 260   2.0000      -0.333482        -9.0745
 261   2.0000      -0.333076        -9.0635
 262   2.0000      -0.328813        -8.9475
 263   2.0000      -0.328765        -8.9462
 264   2.0000      -0.326351        -8.8805
 265   2.0000      -0.322608        -8.7786
 266   2.0000      -0.311001        -8.4628
 267   2.0000      -0.310221        -8.4416
 268   2.0000      -0.298260        -8.1161
 269   2.0000      -0.288867        -7.8605
 270   2.0000      -0.286688        -7.8012
 271   2.0000      -0.254026        -6.9124
 272   2.0000      -0.235356        -6.4044
 273   0.0000      -0.125214        -3.4073
 274   0.0000      -0.102358        -2.7853
 275   0.0000      -0.098590        -2.6828
 276   0.0000      -0.061622        -1.6768
 277   0.0000      -0.055984        -1.5234

MULLIKEN ATOMIC CHARGES
-----------------------
   0 C :    0.335014
   1 C :   -0.368448
   2 C :   -0.183586
   3 N :    0.138051
   4 C :   -0.186083
   5 N :    0.136787
   6 C :    0.043343
   7 C :    0.002684
   8 C :   -0.087334
   9 C :    0.099020
  10 C :    0.095972
  11 C :   -0.086129
  12 C :   -0.020205
  13 C :    0.035446
  14 C :    0.034393
  15 C :   -0.017967
  16 C :    0.159139
  17 O :   -0.196370
  18 C :   -0.107096
  19 C :   -0.030928
  20 C :   -0.075124
  21 C :    0.115196
  22 C :    0.109638
  23 C :   -0.034788
  24 C :    0.030618
  25 C :    0.036365
  26 C :   -0.045741
  27 C :   -0.050538
  28 S :    0.207505
  29 C :   -0.034454
  30 C :    0.024897
  31 C :   -0.047035
  32 C :   -0.033543
  33 C :    0.017137
  34 C :   -0.092266
  35 S :    0.174869
  36 C :   -0.093219
  37 C :    0.001447
  38 C :    0.299989
  39 C :   -0.292306
  40 C :   -0.188008
  41 N :    0.181556
  42 C :   -0.185581
  43 N :    0.172433
  44 C :   -0.038251
  45 C :   -0.083768
  46 S :    0.199795
  47 C :   -0.093234
  48 C :    0.115010
  49 C :    0.117641
  50 C :   -0.035255
  51 C :    0.035347
  52 C :    0.030065
  53 C :   -0.038648
  54 C :   -0.089778
  55 S :    0.179454
  56 C :    0.025650
  57 C :   -0.020583
  58 C :   -0.038479
  59 C :   -0.079428
  60 C :    0.336932
  61 C :   -0.362297
  62 C :   -0.185367
  63 N :    0.142891
  64 C :   -0.190422
  65 N :    0.136709
  66 C :    0.046201
  67 C :    0.000028
  68 C :    0.147217
  69 O :   -0.163293
  70 C :   -0.084768
  71 C :    0.098431
  72 C :    0.095692
  73 C :   -0.085795
  74 C :   -0.020531
  75 C :    0.036070
  76 C :    0.034929
  77 C :   -0.018367
  78 H :   -0.017752
  79 H :   -0.010433
  80 H :   -0.010554
  81 H :   -0.007270
  82 H :   -0.006736
  83 H :   -0.020570
  84 H :   -0.016100
  85 H :   -0.026357
  86 H :   -0.010123
  87 H :   -0.001270
  88 H :    0.004228
  89 H :   -0.005315
  90 H :    0.020303
  91 H :    0.013864
  92 H :    0.017325
  93 H :   -0.014559
  94 H :   -0.001844
  95 H :   -0.000750
  96 H :   -0.017652
  97 H :    0.009922
  98 H :    0.025829
  99 H :    0.004072
 100 H :   -0.018013
 101 H :   -0.010516
 102 H :   -0.009290
 103 H :   -0.007262
 104 H :   -0.007564
 105 H :   -0.020163
Sum of atomic charges:   -0.0000000

LOEWDIN ATOMIC CHARGES
----------------------
   0 C :    0.078218
   1 C :   -0.156679
   2 C :   -0.018033
   3 N :   -0.064928
   4 C :   -0.016300
   5 N :   -0.069839
   6 C :   -0.024076
   7 C :   -0.053236
   8 C :    0.027695
   9 C :   -0.009837
  10 C :   -0.007659
  11 C :    0.017633
  12 C :   -0.005937
  13 C :   -0.015860
  14 C :   -0.014801
  15 C :   -0.010978
  16 C :    0.081625
  17 O :   -0.184177
  18 C :   -0.118438
  19 C :    0.046719
  20 C :   -0.191678
  21 C :   -0.013887
  22 C :   -0.051498
  23 C :   -0.011698
  24 C :   -0.022653
  25 C :   -0.003901
  26 C :   -0.013292
  27 C :   -0.145860
  28 S :    0.550775
  29 C :   -0.055109
  30 C :   -0.014643
  31 C :   -0.161395
  32 C :   -0.016970
  33 C :   -0.069620
  34 C :   -0.173649
  35 S :    0.474227
  36 C :   -0.179788
  37 C :   -0.065315
  38 C :    0.080992
  39 C :   -0.097450
  40 C :   -0.017897
  41 N :   -0.025780
  42 C :   -0.015061
  43 N :   -0.031243
  44 C :   -0.025015
  45 C :   -0.177715
  46 S :    0.475250
  47 C :   -0.173935
  48 C :   -0.043828
  49 C :   -0.023101
  50 C :   -0.013617
  51 C :   -0.007751
  52 C :   -0.015547
  53 C :   -0.011548
  54 C :   -0.186159
  55 S :    0.495330
  56 C :    0.015023
  57 C :   -0.046888
  58 C :    0.062596
  59 C :   -0.102933
  60 C :    0.075760
  61 C :   -0.149125
  62 C :   -0.017766
  63 N :   -0.062012
  64 C :   -0.019197
  65 N :   -0.063946
  66 C :   -0.024407
  67 C :   -0.053788
  68 C :    0.083390
  69 O :   -0.157395
  70 C :    0.027664
  71 C :   -0.009235
  72 C :   -0.007224
  73 C :    0.017279
  74 C :   -0.005968
  75 C :   -0.015550
  76 C :   -0.014541
  77 C :   -0.011468
  78 H :    0.037126
  79 H :    0.038595
  80 H :    0.034189
  81 H :    0.032192
  82 H :    0.031850
  83 H :    0.030703
  84 H :    0.047192
  85 H :    0.027393
  86 H :    0.031302
  87 H :    0.035344
  88 H :    0.036648
  89 H :    0.024621
  90 H :    0.039637
  91 H :    0.044556
  92 H :    0.041409
  93 H :    0.032374
  94 H :    0.034772
  95 H :    0.035106
  96 H :    0.031839
  97 H :    0.041625
  98 H :    0.025064
  99 H :    0.040869
 100 H :    0.036851
 101 H :    0.038445
 102 H :    0.034445
 103 H :    0.032180
 104 H :    0.031728
 105 H :    0.030593

  Mayer bond orders larger than 0.100000
B(  0-C ,  1-C ) :   1.5880 B(  0-C ,  6-C ) :   0.9763 B(  0-C , 18-C ) :   1.1109
B(  1-C ,  2-C ) :   1.1550 B(  1-C ,  4-C ) :   1.1522 B(  2-C ,  3-N ) :   2.9568
B(  4-C ,  5-N ) :   2.9711 B(  6-C ,  7-C ) :   1.2154 B(  6-C , 11-C ) :   1.4624
B(  7-C ,  8-C ) :   1.4741 B(  7-C , 16-C ) :   0.9591 B(  8-C ,  9-C ) :   1.1700
B(  8-C , 78-H ) :   1.0171 B(  9-C , 10-C ) :   1.2619 B(  9-C , 15-C ) :   1.2463
B( 10-C , 11-C ) :   1.1945 B( 10-C , 12-C ) :   1.2446 B( 11-C , 79-H ) :   0.9896
B( 12-C , 13-C ) :   1.4835 B( 12-C , 80-H ) :   0.9976 B( 13-C , 14-C ) :   1.2638
B( 13-C , 81-H ) :   0.9887 B( 14-C , 15-C ) :   1.4849 B( 14-C , 82-H ) :   0.9889
B( 15-C , 83-H ) :   0.9976 B( 16-C , 17-O ) :   2.1130 B( 16-C , 18-C ) :   0.9872
B( 18-C , 19-C ) :   1.4379 B( 19-C , 20-C ) :   1.3599 B( 19-C , 84-H ) :   0.9317
B( 20-C , 21-C ) :   1.2024 B( 20-C , 28-S ) :   1.0922 B( 21-C , 22-C ) :   1.2547
B( 21-C , 26-C ) :   1.2552 B( 22-C , 23-C ) :   1.2441 B( 22-C , 27-C ) :   1.2261
B( 23-C , 24-C ) :   1.5137 B( 23-C , 85-H ) :   0.9900 B( 24-C , 25-C ) :   1.2530
B( 24-C , 86-H ) :   0.9845 B( 25-C , 26-C ) :   1.5103 B( 25-C , 87-H ) :   0.9848
B( 26-C , 88-H ) :   0.9836 B( 27-C , 28-S ) :   1.1659 B( 27-C , 29-C ) :   1.2272
B( 29-C , 30-C ) :   1.5816 B( 29-C , 89-H ) :   0.9644 B( 30-C , 31-C ) :   1.1947
B( 30-C , 90-H ) :   0.9774 B( 31-C , 32-C ) :   1.4067 B( 31-C , 35-S ) :   1.0824
B( 32-C , 33-C ) :   1.2957 B( 32-C , 91-H ) :   1.0047 B( 33-C , 34-C ) :   1.4158
B( 33-C , 38-C ) :   0.9948 B( 34-C , 35-S ) :   1.1282 B( 34-C , 36-C ) :   1.2137
B( 36-C , 37-C ) :   1.4200 B( 36-C , 46-S ) :   1.1201 B( 37-C , 38-C ) :   0.9971
B( 37-C , 44-C ) :   1.3109 B( 38-C , 39-C ) :   1.7176 B( 39-C , 40-C ) :   1.1331
B( 39-C , 42-C ) :   1.1341 B( 40-C , 41-N ) :   2.9952 B( 42-C , 43-N ) :   2.9872
B( 44-C , 45-C ) :   1.4413 B( 44-C , 92-H ) :   0.9885 B( 45-C , 46-S ) :   1.0986
B( 45-C , 47-C ) :   1.1492 B( 47-C , 48-C ) :   1.3302 B( 47-C , 54-C ) :   0.1125
B( 47-C , 55-S ) :   1.1851 B( 48-C , 49-C ) :   1.2276 B( 48-C , 53-C ) :   1.2112
B( 49-C , 50-C ) :   1.2365 B( 49-C , 54-C ) :   1.2649 B( 50-C , 51-C ) :   1.5294
B( 50-C , 93-H ) :   0.9933 B( 51-C , 52-C ) :   1.2291 B( 51-C , 94-H ) :   0.9860
B( 52-C , 53-C ) :   1.5383 B( 52-C , 95-H ) :   0.9858 B( 53-C , 96-H ) :   0.9926
B( 54-C , 55-S ) :   1.1137 B( 54-C , 56-C ) :   1.2273 B( 56-C , 57-C ) :   1.4834
B( 56-C , 97-H ) :   0.9797 B( 57-C , 58-C ) :   1.2218 B( 57-C , 98-H ) :   0.9741
B( 58-C , 59-C ) :   1.4799 B( 58-C , 99-H ) :   0.9639 B( 59-C , 60-C ) :   1.0871
B( 59-C , 68-C ) :   0.9561 B( 60-C , 61-C ) :   1.6029 B( 60-C , 66-C ) :   0.9828
B( 61-C , 62-C ) :   1.1505 B( 61-C , 64-C ) :   1.1527 B( 62-C , 63-N ) :   2.9599
B( 64-C , 65-N ) :   2.9566 B( 66-C , 67-C ) :   1.2165 B( 66-C , 73-C ) :   1.4549
B( 67-C , 68-C ) :   0.9418 B( 67-C , 70-C ) :   1.4762 B( 68-C , 69-O ) :   2.1860
B( 70-C , 71-C ) :   1.1749 B( 70-C ,100-H ) :   1.0154 B( 71-C , 72-C ) :   1.2600
B( 71-C , 77-C ) :   1.2459 B( 72-C , 73-C ) :   1.2022 B( 72-C , 74-C ) :   1.2405
B( 73-C ,101-H ) :   0.9889 B( 74-C , 75-C ) :   1.4875 B( 74-C ,102-H ) :   0.9973
B( 75-C , 76-C ) :   1.2616 B( 75-C ,103-H ) :   0.9888 B( 76-C , 77-C ) :   1.4865
B( 76-C ,104-H ) :   0.9889 B( 77-C ,105-H ) :   0.9974

-----------------------------------------------------------------------------
         ABSORPTION SPECTRUM VIA TRANSITION ELECTRIC DIPOLE MOMENTS
-----------------------------------------------------------------------------
State   Energy  Wavelength   fosc         T2         TX        TY        TZ
        (cm-1)    (nm)                  (au**2)     (au)      (au)      (au)
-----------------------------------------------------------------------------
   0    9186.2   1088.6   0.648627078  23.24533  -3.16438   3.55791   0.75718
   1   14313.2    698.7   1.583109190  36.41255  -4.21489   3.96040   1.72120
   2   15268.6    654.9   0.204028814   4.39913   0.00270   0.02632   2.09724
   3   16670.3    599.9   0.324315834   6.40472  -0.84343   0.72028  -2.27476
   4   21870.3    457.2   0.008033059   0.12092  -0.14363  -0.23548  -0.21175
   5   22258.3    449.3   0.012761290   0.18875   0.06337  -0.03424   0.42844
   6   22862.2    437.4   0.304446975   4.38398  -0.61924  -0.82117   1.82379
   7   24158.4    413.9   0.008688277   0.11840   0.18184  -0.21669   0.19590
   8   24384.4    410.1   0.015499498   0.20926  -0.06172   0.00394  -0.45325
   9   25187.3    397.0   0.056790369   0.74228  -0.68239  -0.27362   0.44917
  10   25435.4    393.2   0.001843590   0.02386  -0.02380  -0.01038   0.15227
  11   26058.5    383.8   0.001183427   0.01495  -0.03797  -0.06823  -0.09410
  12   26315.3    380.0   0.000022416   0.00028  -0.00827   0.00164   0.01447
  13   27262.5    366.8   0.155806246   1.88146  -0.14967   1.01948  -0.90539
  14   27442.6    364.4   0.120278506   1.44291  -0.72551  -0.60820   0.73935
  15   27836.3    359.2   0.045831540   0.54204  -0.29410   0.34918  -0.57759
  16   28426.4    351.8   0.079780850   0.92396  -0.48337  -0.54622   0.62607
  17   28495.3    350.9   0.171881941   1.98578  -0.17817   1.08892  -0.87653
  18   29326.6    341.0   0.026910309   0.30209   0.47483   0.27159  -0.05349
  19   29647.7    337.3   0.253040960   2.80980   0.13389   0.80876  -1.46211
  20   29932.6    334.1   0.065741208   0.72305   0.43171   0.15059   0.71694
  21   30456.5    328.3   0.272564854   2.94622   1.15838   0.39631  -1.20304
  22   30554.6    327.3   0.051992953   0.56020  -0.58749  -0.21527   0.41075
  23   30754.9    325.2   0.064389254   0.68925   0.02424  -0.16879   0.81251
  24   31317.4    319.3   0.221086795   2.32409   0.47537   0.59197  -1.32200
  25   31872.7    313.7   0.014389629   0.14863   0.04124   0.29337  -0.24670
  26   31974.9    312.7   0.388886526   4.00395  -1.03830  -1.03139   1.36460
  27   32184.2    310.7   0.174706625   1.78707  -0.92189   0.52396  -0.81404
  28   32513.7    307.6   0.212837829   2.15506   0.61075   0.69950  -1.13699
  29   32661.0    306.2   0.126828478   1.27839  -0.08920   0.44622   1.03505
  30   32998.1    303.0   0.147960001   1.47615   1.04597   0.42418  -0.44963
  31   33184.5    301.3   0.004000736   0.03969  -0.09305   0.14548  -0.09932
  32   33202.8    301.2   0.001444037   0.01432   0.05465  -0.10347   0.02499
  33   33406.2    299.3   0.423287590   4.17142  -0.54613   1.51763  -1.25299
  34   33527.5    298.3   0.043900402   0.43107   0.23782   0.56341  -0.23890
  35   33716.4    296.6   0.156901088   1.53200  -1.15397  -0.09273   0.43791
  36   34049.3    293.7   0.064272309   0.62143  -0.44935   0.61044  -0.21651
  37   34455.0    290.2   0.064454703   0.61585  -0.64022  -0.30165   0.33908
  38   34622.1    288.8   0.046990540   0.44682  -0.65144   0.06262  -0.13613
  39   34730.5    287.9   0.038408630   0.36408  -0.31774  -0.19817   0.47312
  40   34801.9    287.3   0.160124973   1.51472  -0.05436   0.47267  -1.13505
  41   35047.4    285.3   0.112971263   1.06118   0.50679   0.72133  -0.53294
  42   35108.2    284.8   0.007755452   0.07272   0.17238   0.05453  -0.20009
  43   35186.2    284.2   0.088568877   0.82867  -0.81159   0.36249  -0.19646
  44   35343.1    282.9   0.258118620   2.40431  -0.07096   0.62319  -1.41807
  45   35767.8    279.6   0.056494737   0.51999  -0.00302  -0.37724   0.61454
  46   35829.5    279.1   0.134624224   1.23697   0.60578   0.16652  -0.91775
  47   36059.4    277.3   0.009071924   0.08282  -0.01445   0.28591  -0.02955
  48   36360.0    275.0   0.073409291   0.66467   0.31301  -0.02716  -0.75230
  49   37155.2    269.1   0.017030775   0.15090  -0.30785  -0.23378  -0.03844
  50   37401.9    267.4   0.024925307   0.21939  -0.43373   0.10564   0.14181
  51   37482.1    266.8   0.164694449   1.44654  -0.01376   0.83858  -0.86206
  52   37584.6    266.1   0.118777972   1.04040   0.92618  -0.05458  -0.42382
  53   37623.2    265.8   0.047786331   0.41814   0.00516  -0.56403   0.31620
  54   38242.0    261.5   0.116811323   1.00559   0.03202   0.81310  -0.58604
  55   38824.5    257.6   0.015912887   0.13493   0.31024  -0.19658  -0.00635
  56   39121.3    255.6   0.180405637   1.51814   0.47517  -1.09448   0.30737
  57   39158.4    255.4   0.052995661   0.44554  -0.50299   0.35096   0.26337
  58   39565.6    252.7   0.005613959   0.04671   0.06248  -0.20064   0.05052
  59   39612.3    252.4   0.040543671   0.33695  -0.25321   0.37833  -0.36014
  60   39637.4    252.3   0.218753315   1.81688   0.67441  -1.07522   0.45381
  61   39994.5    250.0   0.003066789   0.02524  -0.10973  -0.07397  -0.08793
  62   40202.4    248.7   0.122522841   1.00332  -0.61532   0.79019  -0.01729

FINAL SINGLE POINT ENERGY     -4599.154500547608

DIPOLE MOMENT
-------------
                                X             Y             Z
Electronic contribution:     -4.03239      -0.12372     -15.30861
Nuclear contribution   :      4.06356       0.31586      14.95374
                        -----------------------------------------
Total Dipole Moment    :      0.03117       0.19215      -0.35487
                        -----------------------------------------
Magnitude (a.u.)       :      0.40475
Magnitude (Debye)      :      1.02879

Rotational constants in cm-1:     0.001058     0.000195     0.000173
Rotational constants in MHz :    31.724192     5.847711     5.189677

                             ****ORCA TERMINATED NORMALLY****
TOTAL RUN TIME: 0 days 0 hours 16 minutes 23 seconds 773 msec
