                         Program Version 4.2.0 -  RELEASE  -
|  1> # ORCA input file
|  2> # SCF done       -173.486721676268          0.000634847472
|  3> ! CAM-B3LYP def2-SVP def2/J RIJCOSX Grid4 TightSCF
|  4> %maxcore 5000
|  5> %tddft
|  6>     Mode sTDDFT
|  7>     Ethresh 5.0
|  8>     maxcore 5000
|  9> end
| 10>
| 11> %pal
| 12>   nprocs 6
| 13>   end
| 14> * xyz 0 1
| 15>    C        0.13410         4.22327         4.14365
| 16>    C       -1.08044         4.83212         3.94229
| 17>    C       -1.61858         5.83121         4.77225
| 18>    N       -2.09154         6.68615         5.37748
| 19>    C       -1.94397         4.49286         2.88039
| 20>    N       -2.69349         4.19904         2.06111
| 21>    C        0.91019         4.27668         5.37626
| 22>    C        1.79754         3.16063         5.39741
| 23>    C        2.62304         2.92454         6.45766
| 24>    C        2.60648         3.81402         7.55676
| 25>    C        1.73119         4.93790         7.53455
| 26>    C        0.87938         5.15293         6.42636
| 27>    C        1.72984         5.81891         8.63476
| 28>    C        2.55016         5.60126         9.70807
| 29>    C        3.41075         4.49396         9.72970
| 30>    C        3.43779         3.61960         8.67713
| 31>    C        1.65776         2.39989         4.13872
| 32>    O        2.21465         1.37212         3.82455
| 33>    C        0.73178         3.20807         3.30382
| 34>    C        0.66202         3.01175         1.95492
| 35>    C        0.21321         3.93993         0.99457
| 36>    C       -0.23906         3.67516        -0.29685
| 37>    C       -0.67281         4.82922        -0.97714
| 38>    S       -1.37625         4.87984        -2.58249
| 39>    C       -1.95839         3.15382        -2.71396
| 40>    C       -0.80930         2.18430        -2.56858
| 41>    S       -0.30694         2.01156        -0.82369
| 42>    C       -0.52767         5.98916        -0.21970
| 43>    S        0.21424         5.65182         1.30810
| 44>    C       -0.95270         7.30496        -0.51402
| 45>    C       -1.25020         8.32183         0.38967
| 46>    C       -1.70003         9.50272        -0.23317
| 47>    S       -2.18866        10.98666         0.56176
| 48>    C       -2.02608        10.62878         2.35079
| 49>    C       -2.41354         9.21367         2.69171
| 50>    S       -1.12008         8.06565         2.12050
| 51>    C       -1.74416         9.40266        -1.62714
| 52>    S       -1.23110         7.82057        -2.14554
| 53>    C       -2.10287        10.39127        -2.57454
| 54>    C       -2.18562        10.27529        -3.96608
| 55>    C       -2.48903        11.49088        -4.61249
| 56>    S       -2.81109        11.70597        -6.30821
| 57>    C       -3.31733        10.00243        -6.73319
| 58>    C       -2.15641         9.06675        -6.50592
| 59>    S       -1.91590         8.71770        -4.72840
| 60>    C       -2.64115        12.55855        -3.72299
| 61>    S       -2.46127        12.01409        -2.07257
| 62>    C       -3.00029        13.90328        -3.90691
| 63>    C       -2.75523        14.70712        -4.99186
| 64>    C       -3.28111        16.04035        -5.19903
| 65>    C       -4.33804        16.60955        -4.53582
| 66>    C       -4.82470        17.90696        -4.79370
| 67>    N       -5.26062        18.95735        -4.95343
| 68>    C       -5.10086        15.96805        -3.53834
| 69>    N       -5.78091        15.50280        -2.73806
| 70>    C       -2.54323        16.64098        -6.30515
| 71>    C       -1.61414        15.68121        -6.80022
| 72>    C       -1.72210        14.44839        -6.00476
| 73>    O       -1.03798        13.44381        -6.11291
| 74>    C       -0.78009        15.95628        -7.84375
| 75>    C       -0.83874        17.22948        -8.45534
| 76>    C       -1.76150        18.19649        -7.96382
| 77>    C       -2.61281        17.88213        -6.87841
| 78>    C       -1.80711        19.46412        -8.57800
| 79>    C       -0.98269        19.76413        -9.62846
| 80>    C       -0.07492        18.81088       -10.11198
| 81>    C       -0.00506        17.57026        -9.53788
| 82>    H        3.28250         2.06937         6.46064
| 83>    H        0.22923         6.01433         6.42732
| 84>    H        1.06335         6.66883         8.61435
| 85>    H        2.54001         6.28125        10.54686
| 86>    H        4.05216         4.33716        10.58411
| 87>    H        4.09873         2.76517         8.68836
| 88>    H        1.05372         2.07155         1.57842
| 89>    H       -2.40198         3.08829        -3.70702
| 90>    H       -2.72493         2.98606        -1.95722
| 91>    H        0.05313         2.50199        -3.15516
| 92>    H       -1.10107         1.17750        -2.86809
| 93>    H       -2.69554        11.35125         2.81854
| 94>    H       -0.99911        10.83702         2.65169
| 95>    H       -3.36237         8.92545         2.23965
| 96>    H       -2.45977         9.06036         3.77000
| 97>    H       -3.58597        10.04490        -7.78801
| 98>    H       -4.18944         9.72069        -6.14387
| 99>    H       -1.23358         9.48412        -6.90933
|100>    H       -2.33428         8.08353        -6.94247
|101>    H       -3.48054        14.35177        -3.04523
|102>    H       -0.08385        15.21187        -8.20056
|103>    H       -3.29629        18.63782        -6.52467
|104>    H       -2.50844        20.19486        -8.20246
|105>    H       -1.02581        20.73826       -10.09231
|106>    H        0.56913        19.06386       -10.94105
|107>    H        0.69271        16.83191        -9.90561
|108> *
|109>
|110>                          ****END OF INPUT****

CARTESIAN COORDINATES (ANGSTROEM)
---------------------------------
  C      0.134100    4.223270    4.143650
  C     -1.080440    4.832120    3.942290
  C     -1.618580    5.831210    4.772250
  N     -2.091540    6.686150    5.377480
  C     -1.943970    4.492860    2.880390
  N     -2.693490    4.199040    2.061110
  C      0.910190    4.276680    5.376260
  C      1.797540    3.160630    5.397410
  C      2.623040    2.924540    6.457660
  C      2.606480    3.814020    7.556760
  C      1.731190    4.937900    7.534550
  C      0.879380    5.152930    6.426360
  C      1.729840    5.818910    8.634760
  C      2.550160    5.601260    9.708070
  C      3.410750    4.493960    9.729700
  C      3.437790    3.619600    8.677130
  C      1.657760    2.399890    4.138720
  O      2.214650    1.372120    3.824550
  C      0.731780    3.208070    3.303820
  C      0.662020    3.011750    1.954920
  C      0.213210    3.939930    0.994570
  C     -0.239060    3.675160   -0.296850
  C     -0.672810    4.829220   -0.977140
  S     -1.376250    4.879840   -2.582490
  C     -1.958390    3.153820   -2.713960
  C     -0.809300    2.184300   -2.568580
  S     -0.306940    2.011560   -0.823690
  C     -0.527670    5.989160   -0.219700
  S      0.214240    5.651820    1.308100
  C     -0.952700    7.304960   -0.514020
  C     -1.250200    8.321830    0.389670
  C     -1.700030    9.502720   -0.233170
  S     -2.188660   10.986660    0.561760
  C     -2.026080   10.628780    2.350790
  C     -2.413540    9.213670    2.691710
  S     -1.120080    8.065650    2.120500
  C     -1.744160    9.402660   -1.627140
  S     -1.231100    7.820570   -2.145540
  C     -2.102870   10.391270   -2.574540
  C     -2.185620   10.275290   -3.966080
  C     -2.489030   11.490880   -4.612490
  S     -2.811090   11.705970   -6.308210
  C     -3.317330   10.002430   -6.733190
  C     -2.156410    9.066750   -6.505920
  S     -1.915900    8.717700   -4.728400
  C     -2.641150   12.558550   -3.722990
  S     -2.461270   12.014090   -2.072570
  C     -3.000290   13.903280   -3.906910
  C     -2.755230   14.707120   -4.991860
  C     -3.281110   16.040350   -5.199030
  C     -4.338040   16.609550   -4.535820
  C     -4.824700   17.906960   -4.793700
  N     -5.260620   18.957350   -4.953430
  C     -5.100860   15.968050   -3.538340
  N     -5.780910   15.502800   -2.738060
  C     -2.543230   16.640980   -6.305150
  C     -1.614140   15.681210   -6.800220
  C     -1.722100   14.448390   -6.004760
  O     -1.037980   13.443810   -6.112910
  C     -0.780090   15.956280   -7.843750
  C     -0.838740   17.229480   -8.455340
  C     -1.761500   18.196490   -7.963820
  C     -2.612810   17.882130   -6.878410
  C     -1.807110   19.464120   -8.578000
  C     -0.982690   19.764130   -9.628460
  C     -0.074920   18.810880  -10.111980
  C     -0.005060   17.570260   -9.537880
  H      3.282500    2.069370    6.460640
  H      0.229230    6.014330    6.427320
  H      1.063350    6.668830    8.614350
  H      2.540010    6.281250   10.546860
  H      4.052160    4.337160   10.584110
  H      4.098730    2.765170    8.688360
  H      1.053720    2.071550    1.578420
  H     -2.401980    3.088290   -3.707020
  H     -2.724930    2.986060   -1.957220
  H      0.053130    2.501990   -3.155160
  H     -1.101070    1.177500   -2.868090
  H     -2.695540   11.351250    2.818540
  H     -0.999110   10.837020    2.651690
  H     -3.362370    8.925450    2.239650
  H     -2.459770    9.060360    3.770000
  H     -3.585970   10.044900   -7.788010
  H     -4.189440    9.720690   -6.143870
  H     -1.233580    9.484120   -6.909330
  H     -2.334280    8.083530   -6.942470
  H     -3.480540   14.351770   -3.045230
  H     -0.083850   15.211870   -8.200560
  H     -3.296290   18.637820   -6.524670
  H     -2.508440   20.194860   -8.202460
  H     -1.025810   20.738260  -10.092310
  H      0.569130   19.063860  -10.941050
  H      0.692710   16.831910   -9.905610

 Total Charge           Charge          ....    0
 Multiplicity           Mult            ....    1
 Number of Electrons    NEL             ....  526
 Basis Dimension        Dim             .... 1104

ORBITAL ENERGIES
----------------

  NO   OCC          E(Eh)            E(eV)
   0   2.0000     -88.968329     -2420.9513
   1   2.0000     -88.965742     -2420.8809
   2   2.0000     -88.963171     -2420.8110
   3   2.0000     -88.945196     -2420.3218
   4   2.0000     -88.940973     -2420.2069
   5   2.0000     -88.940211     -2420.1862
   6   2.0000     -88.939698     -2420.1722
   7   2.0000     -88.939114     -2420.1563
   8   2.0000     -88.938743     -2420.1462
   9   2.0000     -19.205131      -522.5982
  10   2.0000     -19.204265      -522.5746
  11   2.0000     -14.411781      -392.1645
  12   2.0000     -14.405458      -391.9924
  13   2.0000     -14.405330      -391.9890
  14   2.0000     -14.402924      -391.9235
  15   2.0000     -10.356436      -281.8130
  16   2.0000     -10.351797      -281.6867
  17   2.0000     -10.332677      -281.1664
  18   2.0000     -10.331982      -281.1475
  19   2.0000     -10.330975      -281.1201
  20   2.0000     -10.329772      -281.0874
  21   2.0000     -10.328333      -281.0482
  22   2.0000     -10.326944      -281.0104
  23   2.0000     -10.325321      -280.9663
  24   2.0000     -10.321547      -280.8636
  25   2.0000     -10.321263      -280.8559
  26   2.0000     -10.319896      -280.8186
  27   2.0000     -10.318424      -280.7786
  28   2.0000     -10.317712      -280.7592
  29   2.0000     -10.317144      -280.7438
  30   2.0000     -10.316554      -280.7277
  31   2.0000     -10.316454      -280.7250
  32   2.0000     -10.315427      -280.6970
  33   2.0000     -10.315298      -280.6935
  34   2.0000     -10.314183      -280.6632
  35   2.0000     -10.313433      -280.6428
  36   2.0000     -10.312738      -280.6239
  37   2.0000     -10.311166      -280.5811
  38   2.0000     -10.309392      -280.5328
  39   2.0000     -10.309129      -280.5257
  40   2.0000     -10.308751      -280.5154
  41   2.0000     -10.308730      -280.5148
  42   2.0000     -10.308523      -280.5092
  43   2.0000     -10.308100      -280.4977
  44   2.0000     -10.306410      -280.4517
  45   2.0000     -10.296393      -280.1791
  46   2.0000     -10.293259      -280.0938
  47   2.0000     -10.292150      -280.0636
  48   2.0000     -10.291592      -280.0485
  49   2.0000     -10.290364      -280.0150
  50   2.0000     -10.290160      -280.0095
  51   2.0000     -10.289759      -279.9986
  52   2.0000     -10.289292      -279.9859
  53   2.0000     -10.288231      -279.9570
  54   2.0000     -10.287217      -279.9294
  55   2.0000     -10.287142      -279.9274
  56   2.0000     -10.286895      -279.9206
  57   2.0000     -10.282186      -279.7925
  58   2.0000     -10.281468      -279.7730
  59   2.0000     -10.281262      -279.7674
  60   2.0000     -10.280885      -279.7571
  61   2.0000     -10.280643      -279.7505
  62   2.0000     -10.280080      -279.7352
  63   2.0000     -10.279426      -279.7174
  64   2.0000     -10.279336      -279.7149
  65   2.0000     -10.278972      -279.7050
  66   2.0000     -10.278484      -279.6918
  67   2.0000      -8.062678      -219.3966
  68   2.0000      -8.060382      -219.3341
  69   2.0000      -8.058399      -219.2802
  70   2.0000      -8.040903      -218.8041
  71   2.0000      -8.036558      -218.6859
  72   2.0000      -8.035833      -218.6661
  73   2.0000      -8.035184      -218.6485
  74   2.0000      -8.034090      -218.6187
  75   2.0000      -8.033134      -218.5927
  76   2.0000      -6.032225      -164.1452
  77   2.0000      -6.029913      -164.0823
  78   2.0000      -6.027961      -164.0292
  79   2.0000      -6.027926      -164.0282
  80   2.0000      -6.025669      -163.9668
  81   2.0000      -6.024350      -163.9309
  82   2.0000      -6.023704      -163.9133
  83   2.0000      -6.022018      -163.8675
  84   2.0000      -6.019894      -163.8097
  85   2.0000      -6.011267      -163.5749
  86   2.0000      -6.007037      -163.4598
  87   2.0000      -6.006964      -163.4578
  88   2.0000      -6.006285      -163.4393
  89   2.0000      -6.005684      -163.4230
  90   2.0000      -6.004484      -163.3903
  91   2.0000      -6.003465      -163.3626
  92   2.0000      -6.002612      -163.3394
  93   2.0000      -6.002006      -163.3229
  94   2.0000      -6.001553      -163.3106
  95   2.0000      -6.000704      -163.2875
  96   2.0000      -6.000349      -163.2778
  97   2.0000      -5.999220      -163.2471
  98   2.0000      -5.996344      -163.1688
  99   2.0000      -5.995462      -163.1448
 100   2.0000      -5.994629      -163.1221
 101   2.0000      -5.993790      -163.0993
 102   2.0000      -5.993030      -163.0786
 103   2.0000      -1.119320       -30.4582
 104   2.0000      -1.119206       -30.4551
 105   2.0000      -1.024205       -27.8700
 106   2.0000      -1.014410       -27.6035
 107   2.0000      -1.008675       -27.4474
 108   2.0000      -1.007278       -27.4094
 109   2.0000      -0.995236       -27.0818
 110   2.0000      -0.991657       -26.9844
 111   2.0000      -0.989118       -26.9153
 112   2.0000      -0.984469       -26.7888
 113   2.0000      -0.984042       -26.7771
 114   2.0000      -0.965077       -26.2611
 115   2.0000      -0.963024       -26.2052
 116   2.0000      -0.944483       -25.7007
 117   2.0000      -0.942037       -25.6341
 118   2.0000      -0.940182       -25.5837
 119   2.0000      -0.925740       -25.1907
 120   2.0000      -0.917493       -24.9662
 121   2.0000      -0.912432       -24.8285
 122   2.0000      -0.902954       -24.5706
 123   2.0000      -0.889937       -24.2164
 124   2.0000      -0.886137       -24.1130
 125   2.0000      -0.883379       -24.0380
 126   2.0000      -0.875260       -23.8170
 127   2.0000      -0.872791       -23.7498
 128   2.0000      -0.864529       -23.5250
 129   2.0000      -0.862939       -23.4818
 130   2.0000      -0.862283       -23.4639
 131   2.0000      -0.852111       -23.1871
 132   2.0000      -0.847549       -23.0630
 133   2.0000      -0.840367       -22.8676
 134   2.0000      -0.822353       -22.3774
 135   2.0000      -0.820216       -22.3192
 136   2.0000      -0.819423       -22.2976
 137   2.0000      -0.802366       -21.8335
 138   2.0000      -0.781416       -21.2634
 139   2.0000      -0.763151       -20.7664
 140   2.0000      -0.757361       -20.6088
 141   2.0000      -0.752493       -20.4764
 142   2.0000      -0.752262       -20.4701
 143   2.0000      -0.749932       -20.4067
 144   2.0000      -0.743940       -20.2436
 145   2.0000      -0.729113       -19.8402
 146   2.0000      -0.721934       -19.6448
 147   2.0000      -0.716047       -19.4846
 148   2.0000      -0.708708       -19.2849
 149   2.0000      -0.700327       -19.0569
 150   2.0000      -0.695871       -18.9356
 151   2.0000      -0.695353       -18.9215
 152   2.0000      -0.690517       -18.7899
 153   2.0000      -0.677126       -18.4255
 154   2.0000      -0.669232       -18.2107
 155   2.0000      -0.667912       -18.1748
 156   2.0000      -0.660752       -17.9800
 157   2.0000      -0.650775       -17.7085
 158   2.0000      -0.645971       -17.5778
 159   2.0000      -0.633000       -17.2248
 160   2.0000      -0.626401       -17.0452
 161   2.0000      -0.620877       -16.8949
 162   2.0000      -0.617167       -16.7940
 163   2.0000      -0.605677       -16.4813
 164   2.0000      -0.601053       -16.3555
 165   2.0000      -0.598703       -16.2915
 166   2.0000      -0.598039       -16.2735
 167   2.0000      -0.590278       -16.0623
 168   2.0000      -0.587636       -15.9904
 169   2.0000      -0.581148       -15.8139
 170   2.0000      -0.572210       -15.5706
 171   2.0000      -0.561267       -15.2728
 172   2.0000      -0.559344       -15.2205
 173   2.0000      -0.557342       -15.1660
 174   2.0000      -0.553038       -15.0489
 175   2.0000      -0.551008       -14.9937
 176   2.0000      -0.546338       -14.8666
 177   2.0000      -0.545245       -14.8369
 178   2.0000      -0.540743       -14.7144
 179   2.0000      -0.539961       -14.6931
 180   2.0000      -0.538932       -14.6651
 181   2.0000      -0.536333       -14.5944
 182   2.0000      -0.535232       -14.5644
 183   2.0000      -0.531001       -14.4493
 184   2.0000      -0.528318       -14.3763
 185   2.0000      -0.526329       -14.3221
 186   2.0000      -0.524176       -14.2635
 187   2.0000      -0.523310       -14.2400
 188   2.0000      -0.521404       -14.1881
 189   2.0000      -0.517858       -14.0916
 190   2.0000      -0.513103       -13.9622
 191   2.0000      -0.512703       -13.9514
 192   2.0000      -0.510955       -13.9038
 193   2.0000      -0.507572       -13.8117
 194   2.0000      -0.505958       -13.7678
 195   2.0000      -0.504681       -13.7331
 196   2.0000      -0.502670       -13.6784
 197   2.0000      -0.498591       -13.5673
 198   2.0000      -0.497090       -13.5265
 199   2.0000      -0.489643       -13.3239
 200   2.0000      -0.488922       -13.3042
 201   2.0000      -0.487736       -13.2720
 202   2.0000      -0.486285       -13.2325
 203   2.0000      -0.485274       -13.2050
 204   2.0000      -0.484298       -13.1784
 205   2.0000      -0.480563       -13.0768
 206   2.0000      -0.479260       -13.0413
 207   2.0000      -0.474941       -12.9238
 208   2.0000      -0.470287       -12.7971
 209   2.0000      -0.459365       -12.4999
 210   2.0000      -0.457335       -12.4447
 211   2.0000      -0.456851       -12.4315
 212   2.0000      -0.450019       -12.2456
 213   2.0000      -0.447645       -12.1811
 214   2.0000      -0.444626       -12.0989
 215   2.0000      -0.441604       -12.0167
 216   2.0000      -0.440345       -11.9824
 217   2.0000      -0.437807       -11.9133
 218   2.0000      -0.436595       -11.8804
 219   2.0000      -0.436278       -11.8717
 220   2.0000      -0.435221       -11.8430
 221   2.0000      -0.434715       -11.8292
 222   2.0000      -0.432817       -11.7775
 223   2.0000      -0.428337       -11.6556
 224   2.0000      -0.427706       -11.6385
 225   2.0000      -0.425613       -11.5815
 226   2.0000      -0.423773       -11.5315
 227   2.0000      -0.422146       -11.4872
 228   2.0000      -0.419897       -11.4260
 229   2.0000      -0.417339       -11.3564
 230   2.0000      -0.414081       -11.2677
 231   2.0000      -0.410813       -11.1788
 232   2.0000      -0.409466       -11.1421
 233   2.0000      -0.406073       -11.0498
 234   2.0000      -0.400433       -10.8963
 235   2.0000      -0.399081       -10.8595
 236   2.0000      -0.397093       -10.8054
 237   2.0000      -0.394772       -10.7423
 238   2.0000      -0.389909       -10.6100
 239   2.0000      -0.386314       -10.5121
 240   2.0000      -0.384197       -10.4545
 241   2.0000      -0.376097       -10.2341
 242   2.0000      -0.374759       -10.1977
 243   2.0000      -0.370139       -10.0720
 244   2.0000      -0.367476        -9.9995
 245   2.0000      -0.365837        -9.9549
 246   2.0000      -0.363174        -9.8825
 247   2.0000      -0.355011        -9.6603
 248   2.0000      -0.344362        -9.3706
 249   2.0000      -0.335426        -9.1274
 250   2.0000      -0.331811        -9.0290
 251   2.0000      -0.323921        -8.8143
 252   2.0000      -0.318993        -8.6802
 253   2.0000      -0.313991        -8.5441
 254   2.0000      -0.308222        -8.3872
 255   2.0000      -0.305564        -8.3148
 256   2.0000      -0.294288        -8.0080
 257   2.0000      -0.287645        -7.8272
 258   2.0000      -0.286882        -7.8064
 259   2.0000      -0.273798        -7.4504
 260   2.0000      -0.272667        -7.4197
 261   2.0000      -0.260655        -7.0928
 262   2.0000      -0.237473        -6.4620
 263   0.0000      -0.096818        -2.6346
 264   0.0000      -0.080795        -2.1986
 265   0.0000      -0.051601        -1.4041
 266   0.0000      -0.047275        -1.2864
 267   0.0000      -0.032845        -0.8938

MULLIKEN ATOMIC CHARGES
-----------------------
   0 C :    0.249510
   1 C :   -0.337346
   2 C :   -0.152864
   3 N :    0.123245
   4 C :   -0.191087
   5 N :    0.158001
   6 C :    0.043220
   7 C :    0.008692
   8 C :   -0.085680
   9 C :    0.095829
  10 C :    0.097780
  11 C :   -0.087395
  12 C :   -0.021270
  13 C :    0.035435
  14 C :    0.033280
  15 C :   -0.017106
  16 C :    0.141201
  17 O :   -0.145560
  18 C :   -0.146891
  19 C :    0.054805
  20 C :   -0.173051
  21 C :    0.047650
  22 C :   -0.040527
  23 S :    0.001882
  24 C :   -0.060534
  25 C :   -0.041722
  26 S :    0.022790
  27 C :   -0.082784
  28 S :    0.155982
  29 C :   -0.081345
  30 C :   -0.039388
  31 C :   -0.029878
  32 S :   -0.014282
  33 C :   -0.004713
  34 C :   -0.071044
  35 S :   -0.000203
  36 C :   -0.089724
  37 S :    0.144213
  38 C :   -0.084408
  39 C :   -0.052933
  40 C :    0.010326
  41 S :    0.059420
  42 C :   -0.076684
  43 C :   -0.005951
  44 S :   -0.020883
  45 C :   -0.098114
  46 S :    0.141757
  47 C :    0.006004
  48 C :   -0.093199
  49 C :    0.307168
  50 C :   -0.342008
  51 C :   -0.185266
  52 N :    0.144666
  53 C :   -0.210116
  54 N :    0.156836
  55 C :    0.045282
  56 C :    0.003182
  57 C :    0.134390
  58 O :   -0.167611
  59 C :   -0.088407
  60 C :    0.100876
  61 C :    0.096706
  62 C :   -0.087108
  63 C :   -0.020233
  64 C :    0.035410
  65 C :    0.035283
  66 C :   -0.020381
  67 H :   -0.013123
  68 H :   -0.010139
  69 H :   -0.013855
  70 H :   -0.006394
  71 H :   -0.007024
  72 H :   -0.017883
  73 H :    0.031293
  74 H :    0.062130
  75 H :    0.089951
  76 H :    0.074150
  77 H :    0.064693
  78 H :    0.067144
  79 H :    0.073201
  80 H :    0.081392
  81 H :    0.080354
  82 H :    0.061718
  83 H :    0.073156
  84 H :    0.078536
  85 H :    0.057675
  86 H :    0.028400
  87 H :   -0.018675
  88 H :   -0.010790
  89 H :   -0.011074
  90 H :   -0.008478
  91 H :   -0.008439
  92 H :   -0.021049
Sum of atomic charges:   -0.0000000

LOEWDIN ATOMIC CHARGES
----------------------
   0 C :    0.060453
   1 C :   -0.154222
   2 C :   -0.014030
   3 N :   -0.078032
   4 C :   -0.033993
   5 N :   -0.059838
   6 C :   -0.021065
   7 C :   -0.055107
   8 C :    0.029699
   9 C :   -0.009887
  10 C :   -0.006243
  11 C :    0.011117
  12 C :   -0.008546
  13 C :   -0.015396
  14 C :   -0.015829
  15 C :   -0.009887
  16 C :    0.081071
  17 O :   -0.148625
  18 C :   -0.105738
  19 C :    0.048727
  20 C :   -0.218197
  21 C :   -0.167722
  22 C :   -0.221080
  23 S :    0.298349
  24 C :   -0.139218
  25 C :   -0.141790
  26 S :    0.329972
  27 C :   -0.176221
  28 S :    0.493262
  29 C :   -0.215395
  30 C :   -0.209998
  31 C :   -0.204523
  32 S :    0.308351
  33 C :   -0.139676
  34 C :   -0.136908
  35 S :    0.315966
  36 C :   -0.211665
  37 S :    0.470657
  38 C :   -0.185525
  39 C :   -0.217185
  40 C :   -0.174110
  41 S :    0.384703
  42 C :   -0.150210
  43 C :   -0.141108
  44 S :    0.301935
  45 C :   -0.200501
  46 S :    0.460038
  47 C :    0.036328
  48 C :   -0.106419
  49 C :    0.077441
  50 C :   -0.144265
  51 C :   -0.017393
  52 N :   -0.059790
  53 C :   -0.024693
  54 N :   -0.056061
  55 C :   -0.025402
  56 C :   -0.049839
  57 C :    0.061821
  58 O :   -0.164212
  59 C :    0.024902
  60 C :   -0.008802
  61 C :   -0.008618
  62 C :    0.017645
  63 C :   -0.006092
  64 C :   -0.017151
  65 C :   -0.014999
  66 C :   -0.012127
  67 H :    0.038567
  68 H :    0.037006
  69 H :    0.032804
  70 H :    0.032190
  71 H :    0.031888
  72 H :    0.031401
  73 H :    0.044690
  74 H :    0.034896
  75 H :    0.035227
  76 H :    0.027820
  77 H :    0.035567
  78 H :    0.036212
  79 H :    0.027622
  80 H :    0.033730
  81 H :    0.040741
  82 H :    0.033966
  83 H :    0.028567
  84 H :    0.029021
  85 H :    0.032556
  86 H :    0.043914
  87 H :    0.036821
  88 H :    0.038184
  89 H :    0.033961
  90 H :    0.031780
  91 H :    0.031371
  92 H :    0.030392

  Mayer bond orders larger than 0.100000
B(  0-C ,  1-C ) :   1.6245 B(  0-C ,  6-C ) :   1.0083 B(  0-C , 18-C ) :   1.0537
B(  1-C ,  2-C ) :   1.1551 B(  1-C ,  4-C ) :   1.1543 B(  2-C ,  3-N ) :   2.9288
B(  4-C ,  5-N ) :   3.0107 B(  6-C ,  7-C ) :   1.2135 B(  6-C , 11-C ) :   1.4635
B(  7-C ,  8-C ) :   1.4805 B(  7-C , 16-C ) :   0.9147 B(  8-C ,  9-C ) :   1.1815
B(  8-C , 67-H ) :   1.0157 B(  9-C , 10-C ) :   1.2594 B(  9-C , 15-C ) :   1.2466
B( 10-C , 11-C ) :   1.2006 B( 10-C , 12-C ) :   1.2415 B( 11-C , 68-H ) :   0.9931
B( 12-C , 13-C ) :   1.4907 B( 12-C , 69-H ) :   0.9969 B( 13-C , 14-C ) :   1.2612
B( 13-C , 70-H ) :   0.9879 B( 14-C , 15-C ) :   1.4892 B( 14-C , 71-H ) :   0.9884
B( 15-C , 72-H ) :   0.9973 B( 16-C , 17-O ) :   2.2759 B( 16-C , 18-C ) :   0.9472
B( 18-C , 19-C ) :   1.6085 B( 19-C , 20-C ) :   1.1734 B( 19-C , 73-H ) :   0.9380
B( 20-C , 21-C ) :   1.4616 B( 20-C , 27-C ) :   0.1013 B( 20-C , 28-S ) :   1.0972
B( 21-C , 22-C ) :   1.3228 B( 21-C , 26-S ) :   1.0473 B( 22-C , 23-S ) :   1.0075
B( 22-C , 27-C ) :   1.5027 B( 23-S , 24-C ) :   1.0134 B( 24-C , 25-C ) :   1.0176
B( 24-C , 74-H ) :   0.9483 B( 24-C , 75-H ) :   0.9485 B( 25-C , 26-S ) :   1.0073
B( 25-C , 76-H ) :   0.9477 B( 25-C , 77-H ) :   0.9452 B( 27-C , 28-S ) :   1.1435
B( 27-C , 29-C ) :   1.1496 B( 29-C , 30-C ) :   1.4970 B( 29-C , 36-C ) :   0.1052
B( 29-C , 37-S ) :   1.1190 B( 30-C , 31-C ) :   1.3234 B( 30-C , 35-S ) :   1.0146
B( 31-C , 32-S ) :   1.0225 B( 31-C , 36-C ) :   1.4939 B( 32-S , 33-C ) :   0.9893
B( 33-C , 34-C ) :   1.0304 B( 33-C , 78-H ) :   0.9426 B( 33-C , 79-H ) :   0.9456
B( 34-C , 35-S ) :   1.0030 B( 34-C , 80-H ) :   0.9486 B( 34-C , 81-H ) :   0.9408
B( 36-C , 37-S ) :   1.1189 B( 36-C , 38-C ) :   1.1898 B( 38-C , 39-C ) :   1.4901
B( 38-C , 46-S ) :   1.1397 B( 39-C , 40-C ) :   1.3164 B( 39-C , 44-S ) :   1.0078
B( 40-C , 41-S ) :   1.0669 B( 40-C , 45-C ) :   1.4441 B( 41-S , 42-C ) :   1.0021
B( 42-C , 43-C ) :   1.0220 B( 42-C , 82-H ) :   0.9482 B( 42-C , 83-H ) :   0.9472
B( 43-C , 44-S ) :   0.9959 B( 43-C , 84-H ) :   0.9468 B( 43-C , 85-H ) :   0.9446
B( 45-C , 46-S ) :   1.0718 B( 45-C , 47-C ) :   1.2451 B( 47-C , 48-C ) :   1.5319
B( 47-C , 86-H ) :   0.9292 B( 48-C , 49-C ) :   1.0766 B( 48-C , 57-C ) :   0.9834
B( 49-C , 50-C ) :   1.6334 B( 49-C , 55-C ) :   0.9885 B( 50-C , 51-C ) :   1.1442
B( 50-C , 53-C ) :   1.1420 B( 51-C , 52-N ) :   2.9661 B( 53-C , 54-N ) :   2.9948
B( 55-C , 56-C ) :   1.2141 B( 55-C , 62-C ) :   1.4554 B( 56-C , 57-C ) :   0.9376
B( 56-C , 59-C ) :   1.4782 B( 57-C , 58-O ) :   2.1606 B( 59-C , 60-C ) :   1.1712
B( 59-C , 87-H ) :   1.0166 B( 60-C , 61-C ) :   1.2614 B( 60-C , 66-C ) :   1.2452
B( 61-C , 62-C ) :   1.1972 B( 61-C , 63-C ) :   1.2423 B( 62-C , 88-H ) :   0.9911
B( 63-C , 64-C ) :   1.4845 B( 63-C , 89-H ) :   0.9975 B( 64-C , 65-C ) :   1.2628
B( 64-C , 90-H ) :   0.9886 B( 65-C , 66-C ) :   1.4852 B( 65-C , 91-H ) :   0.9893
B( 66-C , 92-H ) :   0.9977

-----------------------------------------------------------------------------
         ABSORPTION SPECTRUM VIA TRANSITION ELECTRIC DIPOLE MOMENTS
-----------------------------------------------------------------------------
State   Energy  Wavelength   fosc         T2         TX        TY        TZ
        (cm-1)    (nm)                  (au**2)     (au)      (au)      (au)
-----------------------------------------------------------------------------
   0   15053.4    664.3   1.288908347  28.18791   1.00550  -3.74975   3.62163
   1   18815.1    531.5   0.245108876   4.28872  -0.57987   1.69622  -1.03696
   2   20587.4    485.7   0.248046516   3.96650   0.00145   1.54497   1.25680
   3   22020.2    454.1   0.088667776   1.32563  -0.27384   0.89166  -0.67497
   4   23014.8    434.5   0.192777251   2.75756   0.09536  -1.42338  -0.84997
   5   25080.2    398.7   0.014503031   0.19037   0.19306   0.39064   0.02239
   6   25543.9    391.5   0.061586983   0.79374  -0.58541   0.63786  -0.21018
   7   26110.8    383.0   0.048319183   0.60922  -0.07199   0.36735  -0.68490
   8   26913.5    371.6   0.175095498   2.14181  -0.89413   0.98602  -0.60836
   9   27184.6    367.9   0.112904272   1.36730   0.12626  -0.01613  -1.16237
  10   27509.4    363.5   0.117040415   1.40065  -0.57502  -0.84522   0.59632
  11   27915.1    358.2   0.023644104   0.27884   0.30189   0.41500  -0.12440
  12   28445.6    351.5   0.039651933   0.45891   0.63232  -0.23651   0.05609
  13   28598.8    349.7   0.048299020   0.55599  -0.12545  -0.63065  -0.37753
  14   29485.7    339.1   0.025417286   0.28379   0.42606  -0.21714  -0.23475
  15   29767.2    335.9   0.024770676   0.27395   0.11085   0.42548   0.28396
  16   29804.6    335.5   0.022468737   0.24818   0.33323  -0.17204   0.32794
  17   30390.5    329.1   0.017841917   0.19328   0.16045  -0.39892   0.09162
  18   30685.8    325.9   0.012871186   0.13809   0.16468   0.32728   0.06211
  19   30869.3    323.9   0.148157762   1.58006   0.57576   0.96510  -0.56314
  20   31597.5    316.5   0.045377806   0.47279  -0.22937   0.37976   0.52532
  21   32440.3    308.3   0.057008902   0.57854   0.24686  -0.68861  -0.20835
  22   33187.1    301.3   0.199908520   1.98307   0.99271  -0.00978   0.99875
  23   33294.6    300.3   0.181014698   1.78984  -1.28856   0.18976   0.30569
  24   33494.1    298.6   0.246948934   2.42725  -0.42400   0.47101  -1.42324
  25   33836.9    295.5   0.315669514   3.07127   1.11724   0.20121  -1.33512
  26   34224.8    292.2   0.021926721   0.21092  -0.31001   0.24143  -0.23774
  27   34260.0    291.9   0.217139656   2.08654  -0.62040   0.08343  -1.30180
  28   34624.9    288.8   0.224220319   2.13187   0.73954   0.29834   1.22309
  29   34889.5    286.6   0.022093491   0.20847   0.20040   0.25388  -0.32227
  30   35104.7    284.9   0.291895870   2.73740  -0.37405   0.18311  -1.60124
  31   35540.6    281.4   0.037109032   0.34374  -0.00611  -0.56336  -0.16225
  32   35916.0    278.4   0.176307118   1.61606  -0.66079  -0.88565   0.62853
  33   36212.9    276.1   0.016001747   0.14547   0.35299  -0.08617   0.11594
  34   36453.7    274.3   0.016756139   0.15132  -0.07386  -0.37953  -0.04274
  35   36718.2    272.3   0.190514943   1.70814  -0.00572  -0.16087  -1.29701
  36   37108.5    269.5   0.121481618   1.07774   0.37022   0.70935  -0.66143
  37   37253.3    268.4   0.037632422   0.33256  -0.00193   0.57566  -0.03422
  38   37525.7    266.5   0.044088090   0.38678   0.53651  -0.28265   0.13803
  39   37566.1    266.2   0.085230480   0.74692   0.34108  -0.65696  -0.44608
  40   37880.2    264.0   0.102241634   0.88857  -0.72432   0.28555  -0.53140
  41   38195.0    261.8   0.009361728   0.08069   0.05652  -0.10191   0.25906
  42   38925.1    256.9   0.042256884   0.35739   0.33218   0.00149  -0.49704
  43   39177.0    255.3   0.009549886   0.08025   0.16770  -0.14131  -0.17932
  44   39418.6    253.7   0.144656011   1.20812  -0.91493   0.59217  -0.14266
  45   39474.3    253.3   0.026101017   0.21768   0.15904   0.40815   0.16063
  46   39948.9    250.3   0.092248607   0.76021   0.54203  -0.54693  -0.40899
  47   40145.6    249.1   0.003671086   0.03010   0.06486   0.13683   0.08471

FINAL SINGLE POINT ENERGY     -5946.185341613660

DIPOLE MOMENT
-------------
                                X             Y             Z
Electronic contribution:     -7.92447      -5.21711       2.64614
Nuclear contribution   :     10.12819       3.86949      -4.05705
                        -----------------------------------------
Total Dipole Moment    :      2.20373      -1.34762      -1.41092
                        -----------------------------------------
Magnitude (a.u.)       :      2.94333
Magnitude (Debye)      :      7.48134

Rotational constants in cm-1:     0.001931     0.000335     0.000306
Rotational constants in MHz :    57.899025    10.051223     9.185606

                             ****ORCA TERMINATED NORMALLY****
TOTAL RUN TIME: 0 days 0 hours 10 minutes 17 seconds 43 msec
