                         Program Version 4.2.0 -  RELEASE  -
|  1> # ORCA input file
|  2> # SCF done       -184.079087281883          0.000597168768
|  3> ! CAM-B3LYP def2-SVP def2/J RIJCOSX Grid4 TightSCF
|  4> %maxcore 5000
|  5> %tddft
|  6>     Mode sTDDFT
|  7>     Ethresh 5.0
|  8>     maxcore 5000
|  9> end
| 10>
| 11> %pal
| 12>   nprocs 6
| 13>   end
| 14> * xyz 0 1
| 15>    C       -2.23411         2.82808         3.34323
| 16>    C       -1.70177         3.94543         3.94362
| 17>    C       -2.42797         4.81043         4.77760
| 18>    N       -2.97098         5.56603         5.45325
| 19>    C       -0.32885         4.25205         3.86963
| 20>    N        0.79744         4.47779         3.89495
| 21>    C       -3.51327         2.21411         3.67963
| 22>    C       -3.47495         0.85060         3.26390
| 23>    C       -4.51976         0.00449         3.49300
| 24>    C       -5.67388         0.49466         4.14754
| 25>    C       -5.72315         1.85992         4.55088
| 26>    C       -4.62039         2.71260         4.30890
| 27>    C       -6.88195         2.33566         5.19632
| 28>    C       -7.94174         1.50376         5.43658
| 29>    C       -7.89187         0.15945         5.04078
| 30>    C       -6.78179        -0.33412         4.41005
| 31>    C       -2.19156         0.58453         2.58222
| 32>    O       -1.79087        -0.46637         2.13330
| 33>    C       -1.51871         1.90620         2.50068
| 34>    C       -0.50616         2.09217         1.59905
| 35>    C       -0.06935         3.27485         0.98386
| 36>    C        1.00923         3.38290         0.09983
| 37>    C        1.10389         4.64137        -0.52064
| 38>    S        2.32919         5.12945        -1.68274
| 39>    C        2.93328         3.50054        -2.23594
| 40>    C        3.43393         2.68245        -1.07004
| 41>    S        2.05666         1.99660        -0.09342
| 42>    C        0.11848         5.53171        -0.10131
| 43>    S       -0.93906         4.78253         1.06369
| 44>    C       -0.15488         6.87825        -0.47072
| 45>    C       -0.98775         7.65378         0.30894
| 46>    C       -1.40000         8.94543         0.01478
| 47>    C       -1.09635         9.55476        -1.28713
| 48>    C       -0.24922         9.00390        -2.18195
| 49>    S        0.55755         7.50238        -1.95505
| 50>    C       -1.84261        10.76424        -1.31760
| 51>    C       -2.54348        10.91557        -0.11783
| 52>    C       -3.29437        12.11148        -0.08558
| 53>    C       -3.15162        12.81959        -1.23557
| 54>    S       -2.10134        12.07542        -2.39671
| 55>    C       -2.24251         9.80866         0.74769
| 56>    C       -2.67616         9.69064         2.08838
| 57>    C       -2.02903         8.97413         3.04783
| 58>    C       -2.44560         8.86054         4.38954
| 59>    C       -1.68494         8.27076         5.40471
| 60>    C       -2.31717         8.32452         6.64587
| 61>    S       -1.69612         7.75448         8.17513
| 62>    C        0.05683         7.46472         7.76842
| 63>    C        0.20580         6.61811         6.52661
| 64>    S       -0.10642         7.59755         5.02904
| 65>    C       -3.59507         8.92381         6.59072
| 66>    S       -3.97660         9.43354         4.96552
| 67>    C       -4.38459         9.09539         7.72649
| 68>    C       -5.63532         9.65255         7.87113
| 69>    C       -6.34242         9.81036         9.12243
| 70>    C       -5.88559         9.51994        10.38522
| 71>    C       -6.64063         9.71316        11.55951
| 72>    N       -7.19799         9.84239        12.55580
| 73>    C       -4.61311         9.01216        10.71752
| 74>    N       -3.60495         8.60838        11.09412
| 75>    C       -7.65479        10.37808         8.81843
| 76>    C       -7.74111        10.58679         7.41259
| 77>    C       -6.48090        10.15375         6.78528
| 78>    O       -6.21276        10.20859         5.59573
| 79>    C       -8.85398        11.11337         6.82546
| 80>    C       -9.95841        11.46480         7.63498
| 81>    C       -9.88151        11.25992         9.04180
| 82>    C       -8.71286        10.71049         9.62032
| 83>    C      -10.98661        11.61519         9.84078
| 84>    C      -12.11516        12.14807         9.27909
| 85>    C      -12.19016        12.34878         7.89324
| 86>    C      -11.13449        12.01412         7.08876
| 87>    H       -4.46947        -1.02810         3.18092
| 88>    H       -4.68349         3.74485         4.61782
| 89>    H       -6.91464         3.37129         5.50193
| 90>    H       -8.82408         1.87778         5.93415
| 91>    H       -8.73679        -0.48348         5.23753
| 92>    H       -6.73791        -1.36882         4.10266
| 93>    H       -0.06150         1.17948         1.21117
| 94>    H        3.74279         3.73229        -2.92784
| 95>    H        2.13134         2.99093        -2.77076
| 96>    H        4.06425         3.27865        -0.40959
| 97>    H        3.98901         1.80780        -1.40975
| 98>    H       -1.36727         7.19531         1.21198
| 99>    H        0.00484         9.48019        -3.11563
|100>    H       -3.90715        12.42962         0.73789
|101>    H       -3.60286        13.75860        -1.49030
|102>    H       -3.54275        10.27187         2.37771
|103>    H       -1.08355         8.50002         2.81970
|104>    H        0.45584         6.95153         8.64352
|105>    H        0.55312         8.42923         7.65555
|106>    H       -0.48362         5.77383         6.53797
|107>    H        1.22564         6.25207         6.40976
|108>    H       -3.91686         8.72176         8.63065
|109>    H       -8.89250        11.26197         5.75635
|110>    H       -8.68960        10.56710        10.68866
|111>    H      -10.92347        11.45917        10.90785
|112>    H      -12.95607        12.41818         9.90042
|113>    H      -13.08821        12.76970         7.46589
|114>    H      -11.18663        12.16645         6.02035
|115> *
|116>
|117>                          ****END OF INPUT****

CARTESIAN COORDINATES (ANGSTROEM)
---------------------------------
  C     -2.234110    2.828080    3.343230
  C     -1.701770    3.945430    3.943620
  C     -2.427970    4.810430    4.777600
  N     -2.970980    5.566030    5.453250
  C     -0.328850    4.252050    3.869630
  N      0.797440    4.477790    3.894950
  C     -3.513270    2.214110    3.679630
  C     -3.474950    0.850600    3.263900
  C     -4.519760    0.004490    3.493000
  C     -5.673880    0.494660    4.147540
  C     -5.723150    1.859920    4.550880
  C     -4.620390    2.712600    4.308900
  C     -6.881950    2.335660    5.196320
  C     -7.941740    1.503760    5.436580
  C     -7.891870    0.159450    5.040780
  C     -6.781790   -0.334120    4.410050
  C     -2.191560    0.584530    2.582220
  O     -1.790870   -0.466370    2.133300
  C     -1.518710    1.906200    2.500680
  C     -0.506160    2.092170    1.599050
  C     -0.069350    3.274850    0.983860
  C      1.009230    3.382900    0.099830
  C      1.103890    4.641370   -0.520640
  S      2.329190    5.129450   -1.682740
  C      2.933280    3.500540   -2.235940
  C      3.433930    2.682450   -1.070040
  S      2.056660    1.996600   -0.093420
  C      0.118480    5.531710   -0.101310
  S     -0.939060    4.782530    1.063690
  C     -0.154880    6.878250   -0.470720
  C     -0.987750    7.653780    0.308940
  C     -1.400000    8.945430    0.014780
  C     -1.096350    9.554760   -1.287130
  C     -0.249220    9.003900   -2.181950
  S      0.557550    7.502380   -1.955050
  C     -1.842610   10.764240   -1.317600
  C     -2.543480   10.915570   -0.117830
  C     -3.294370   12.111480   -0.085580
  C     -3.151620   12.819590   -1.235570
  S     -2.101340   12.075420   -2.396710
  C     -2.242510    9.808660    0.747690
  C     -2.676160    9.690640    2.088380
  C     -2.029030    8.974130    3.047830
  C     -2.445600    8.860540    4.389540
  C     -1.684940    8.270760    5.404710
  C     -2.317170    8.324520    6.645870
  S     -1.696120    7.754480    8.175130
  C      0.056830    7.464720    7.768420
  C      0.205800    6.618110    6.526610
  S     -0.106420    7.597550    5.029040
  C     -3.595070    8.923810    6.590720
  S     -3.976600    9.433540    4.965520
  C     -4.384590    9.095390    7.726490
  C     -5.635320    9.652550    7.871130
  C     -6.342420    9.810360    9.122430
  C     -5.885590    9.519940   10.385220
  C     -6.640630    9.713160   11.559510
  N     -7.197990    9.842390   12.555800
  C     -4.613110    9.012160   10.717520
  N     -3.604950    8.608380   11.094120
  C     -7.654790   10.378080    8.818430
  C     -7.741110   10.586790    7.412590
  C     -6.480900   10.153750    6.785280
  O     -6.212760   10.208590    5.595730
  C     -8.853980   11.113370    6.825460
  C     -9.958410   11.464800    7.634980
  C     -9.881510   11.259920    9.041800
  C     -8.712860   10.710490    9.620320
  C    -10.986610   11.615190    9.840780
  C    -12.115160   12.148070    9.279090
  C    -12.190160   12.348780    7.893240
  C    -11.134490   12.014120    7.088760
  H     -4.469470   -1.028100    3.180920
  H     -4.683490    3.744850    4.617820
  H     -6.914640    3.371290    5.501930
  H     -8.824080    1.877780    5.934150
  H     -8.736790   -0.483480    5.237530
  H     -6.737910   -1.368820    4.102660
  H     -0.061500    1.179480    1.211170
  H      3.742790    3.732290   -2.927840
  H      2.131340    2.990930   -2.770760
  H      4.064250    3.278650   -0.409590
  H      3.989010    1.807800   -1.409750
  H     -1.367270    7.195310    1.211980
  H      0.004840    9.480190   -3.115630
  H     -3.907150   12.429620    0.737890
  H     -3.602860   13.758600   -1.490300
  H     -3.542750   10.271870    2.377710
  H     -1.083550    8.500020    2.819700
  H      0.455840    6.951530    8.643520
  H      0.553120    8.429230    7.655550
  H     -0.483620    5.773830    6.537970
  H      1.225640    6.252070    6.409760
  H     -3.916860    8.721760    8.630650
  H     -8.892500   11.261970    5.756350
  H     -8.689600   10.567100   10.688660
  H    -10.923470   11.459170   10.907850
  H    -12.956070   12.418180    9.900420
  H    -13.088210   12.769700    7.465890
  H    -11.186630   12.166450    6.020350

 Total Charge           Charge          ....    0
 Multiplicity           Mult            ....    1
 Number of Electrons    NEL             ....  548
 Basis Dimension        Dim             .... 1180

ORBITAL ENERGIES
----------------

  NO   OCC          E(Eh)            E(eV)
   0   2.0000     -88.978129     -2421.2180
   1   2.0000     -88.970727     -2421.0166
   2   2.0000     -88.959412     -2420.7087
   3   2.0000     -88.951590     -2420.4958
   4   2.0000     -88.947641     -2420.3884
   5   2.0000     -88.944761     -2420.3100
   6   2.0000     -88.927368     -2419.8367
   7   2.0000     -88.923547     -2419.7327
   8   2.0000     -19.204816      -522.5896
   9   2.0000     -19.200534      -522.4731
  10   2.0000     -14.412020      -392.1710
  11   2.0000     -14.406588      -392.0232
  12   2.0000     -14.395869      -391.7315
  13   2.0000     -14.394403      -391.6916
  14   2.0000     -10.357004      -281.8284
  15   2.0000     -10.349214      -281.6164
  16   2.0000     -10.335987      -281.2565
  17   2.0000     -10.334469      -281.2152
  18   2.0000     -10.333966      -281.2015
  19   2.0000     -10.333389      -281.1858
  20   2.0000     -10.331593      -281.1369
  21   2.0000     -10.329816      -281.0886
  22   2.0000     -10.325082      -280.9598
  23   2.0000     -10.324302      -280.9385
  24   2.0000     -10.324057      -280.9319
  25   2.0000     -10.320358      -280.8312
  26   2.0000     -10.318205      -280.7726
  27   2.0000     -10.317057      -280.7414
  28   2.0000     -10.316072      -280.7146
  29   2.0000     -10.314961      -280.6844
  30   2.0000     -10.310172      -280.5540
  31   2.0000     -10.309150      -280.5262
  32   2.0000     -10.302974      -280.3582
  33   2.0000     -10.301716      -280.3239
  34   2.0000     -10.301167      -280.3090
  35   2.0000     -10.300469      -280.2900
  36   2.0000     -10.299423      -280.2615
  37   2.0000     -10.298973      -280.2493
  38   2.0000     -10.298798      -280.2446
  39   2.0000     -10.298098      -280.2255
  40   2.0000     -10.297591      -280.2117
  41   2.0000     -10.296542      -280.1831
  42   2.0000     -10.296216      -280.1743
  43   2.0000     -10.296061      -280.1701
  44   2.0000     -10.291566      -280.0478
  45   2.0000     -10.291099      -280.0350
  46   2.0000     -10.290759      -280.0258
  47   2.0000     -10.289895      -280.0023
  48   2.0000     -10.289718      -279.9975
  49   2.0000     -10.289498      -279.9915
  50   2.0000     -10.287667      -279.9416
  51   2.0000     -10.286081      -279.8985
  52   2.0000     -10.284163      -279.8463
  53   2.0000     -10.283753      -279.8352
  54   2.0000     -10.283237      -279.8211
  55   2.0000     -10.282056      -279.7890
  56   2.0000     -10.281723      -279.7799
  57   2.0000     -10.281614      -279.7769
  58   2.0000     -10.280401      -279.7439
  59   2.0000     -10.280368      -279.7430
  60   2.0000     -10.279925      -279.7310
  61   2.0000     -10.279623      -279.7228
  62   2.0000     -10.279055      -279.7073
  63   2.0000     -10.278438      -279.6905
  64   2.0000     -10.277215      -279.6573
  65   2.0000     -10.276914      -279.6491
  66   2.0000     -10.274882      -279.5938
  67   2.0000     -10.274311      -279.5782
  68   2.0000     -10.274296      -279.5778
  69   2.0000     -10.273742      -279.5627
  70   2.0000     -10.273108      -279.5455
  71   2.0000     -10.272689      -279.5341
  72   2.0000      -8.072976      -219.6768
  73   2.0000      -8.065368      -219.4698
  74   2.0000      -8.054795      -219.1821
  75   2.0000      -8.047252      -218.9769
  76   2.0000      -8.043280      -218.8688
  77   2.0000      -8.038114      -218.7282
  78   2.0000      -8.022612      -218.3064
  79   2.0000      -8.018474      -218.1938
  80   2.0000      -6.042679      -164.4297
  81   2.0000      -6.037941      -164.3007
  82   2.0000      -6.034923      -164.2186
  83   2.0000      -6.034711      -164.2128
  84   2.0000      -6.030840      -164.1075
  85   2.0000      -6.026849      -163.9989
  86   2.0000      -6.024255      -163.9283
  87   2.0000      -6.020001      -163.8126
  88   2.0000      -6.017624      -163.7479
  89   2.0000      -6.016802      -163.7255
  90   2.0000      -6.013755      -163.6426
  91   2.0000      -6.013417      -163.6334
  92   2.0000      -6.009620      -163.5301
  93   2.0000      -6.007617      -163.4756
  94   2.0000      -6.007020      -163.4593
  95   2.0000      -6.003337      -163.3591
  96   2.0000      -6.002725      -163.3425
  97   2.0000      -5.999907      -163.2658
  98   2.0000      -5.992944      -163.0763
  99   2.0000      -5.988872      -162.9655
 100   2.0000      -5.988781      -162.9630
 101   2.0000      -5.984861      -162.8563
 102   2.0000      -5.982463      -162.7911
 103   2.0000      -5.978186      -162.6747
 104   2.0000      -1.119676       -30.4679
 105   2.0000      -1.115284       -30.3484
 106   2.0000      -1.023192       -27.8425
 107   2.0000      -1.011810       -27.5327
 108   2.0000      -1.007491       -27.4152
 109   2.0000      -0.999152       -27.1883
 110   2.0000      -0.993112       -27.0240
 111   2.0000      -0.990663       -26.9573
 112   2.0000      -0.987508       -26.8715
 113   2.0000      -0.981652       -26.7121
 114   2.0000      -0.974836       -26.5266
 115   2.0000      -0.973871       -26.5004
 116   2.0000      -0.965092       -26.2615
 117   2.0000      -0.955767       -26.0077
 118   2.0000      -0.949971       -25.8500
 119   2.0000      -0.935370       -25.4527
 120   2.0000      -0.926289       -25.2056
 121   2.0000      -0.921439       -25.0736
 122   2.0000      -0.914303       -24.8794
 123   2.0000      -0.910413       -24.7736
 124   2.0000      -0.901131       -24.5210
 125   2.0000      -0.892031       -24.2734
 126   2.0000      -0.887739       -24.1566
 127   2.0000      -0.878350       -23.9011
 128   2.0000      -0.874683       -23.8013
 129   2.0000      -0.870420       -23.6853
 130   2.0000      -0.867372       -23.6024
 131   2.0000      -0.866042       -23.5662
 132   2.0000      -0.856078       -23.2951
 133   2.0000      -0.850798       -23.1514
 134   2.0000      -0.844586       -22.9823
 135   2.0000      -0.834856       -22.7176
 136   2.0000      -0.827191       -22.5090
 137   2.0000      -0.821550       -22.3555
 138   2.0000      -0.813954       -22.1488
 139   2.0000      -0.808997       -22.0139
 140   2.0000      -0.806310       -21.9408
 141   2.0000      -0.788976       -21.4691
 142   2.0000      -0.775645       -21.1064
 143   2.0000      -0.761201       -20.7133
 144   2.0000      -0.756546       -20.5867
 145   2.0000      -0.752543       -20.4777
 146   2.0000      -0.745464       -20.2851
 147   2.0000      -0.734685       -19.9918
 148   2.0000      -0.732506       -19.9325
 149   2.0000      -0.731673       -19.9098
 150   2.0000      -0.716302       -19.4916
 151   2.0000      -0.706928       -19.2365
 152   2.0000      -0.701174       -19.0799
 153   2.0000      -0.694978       -18.9113
 154   2.0000      -0.690534       -18.7904
 155   2.0000      -0.688188       -18.7266
 156   2.0000      -0.682349       -18.5677
 157   2.0000      -0.675553       -18.3827
 158   2.0000      -0.670752       -18.2521
 159   2.0000      -0.666673       -18.1411
 160   2.0000      -0.659077       -17.9344
 161   2.0000      -0.656916       -17.8756
 162   2.0000      -0.646010       -17.5788
 163   2.0000      -0.630662       -17.1612
 164   2.0000      -0.628279       -17.0964
 165   2.0000      -0.625413       -17.0183
 166   2.0000      -0.621882       -16.9223
 167   2.0000      -0.613684       -16.6992
 168   2.0000      -0.605645       -16.4804
 169   2.0000      -0.602111       -16.3843
 170   2.0000      -0.600090       -16.3293
 171   2.0000      -0.598537       -16.2870
 172   2.0000      -0.592344       -16.1185
 173   2.0000      -0.589730       -16.0474
 174   2.0000      -0.585485       -15.9319
 175   2.0000      -0.580963       -15.8088
 176   2.0000      -0.571493       -15.5511
 177   2.0000      -0.568208       -15.4617
 178   2.0000      -0.564102       -15.3500
 179   2.0000      -0.557373       -15.1669
 180   2.0000      -0.552500       -15.0343
 181   2.0000      -0.549783       -14.9604
 182   2.0000      -0.547104       -14.8875
 183   2.0000      -0.541940       -14.7469
 184   2.0000      -0.539882       -14.6909
 185   2.0000      -0.537458       -14.6250
 186   2.0000      -0.535965       -14.5843
 187   2.0000      -0.532272       -14.4839
 188   2.0000      -0.529911       -14.4196
 189   2.0000      -0.529067       -14.3967
 190   2.0000      -0.526916       -14.3381
 191   2.0000      -0.525675       -14.3043
 192   2.0000      -0.522529       -14.2187
 193   2.0000      -0.521300       -14.1853
 194   2.0000      -0.519632       -14.1399
 195   2.0000      -0.516177       -14.0459
 196   2.0000      -0.514354       -13.9963
 197   2.0000      -0.509832       -13.8732
 198   2.0000      -0.507218       -13.8021
 199   2.0000      -0.506245       -13.7756
 200   2.0000      -0.504763       -13.7353
 201   2.0000      -0.503680       -13.7058
 202   2.0000      -0.501038       -13.6339
 203   2.0000      -0.500639       -13.6231
 204   2.0000      -0.499627       -13.5956
 205   2.0000      -0.494482       -13.4555
 206   2.0000      -0.493600       -13.4315
 207   2.0000      -0.491498       -13.3743
 208   2.0000      -0.488375       -13.2894
 209   2.0000      -0.481218       -13.0946
 210   2.0000      -0.480363       -13.0713
 211   2.0000      -0.479008       -13.0345
 212   2.0000      -0.477227       -12.9860
 213   2.0000      -0.471606       -12.8331
 214   2.0000      -0.469687       -12.7808
 215   2.0000      -0.468078       -12.7370
 216   2.0000      -0.467070       -12.7096
 217   2.0000      -0.461972       -12.5709
 218   2.0000      -0.457668       -12.4538
 219   2.0000      -0.453175       -12.3315
 220   2.0000      -0.450387       -12.2557
 221   2.0000      -0.448455       -12.2031
 222   2.0000      -0.444537       -12.0965
 223   2.0000      -0.442281       -12.0351
 224   2.0000      -0.440119       -11.9763
 225   2.0000      -0.438439       -11.9305
 226   2.0000      -0.434544       -11.8245
 227   2.0000      -0.431264       -11.7353
 228   2.0000      -0.429988       -11.7006
 229   2.0000      -0.429775       -11.6948
 230   2.0000      -0.428303       -11.6547
 231   2.0000      -0.424768       -11.5585
 232   2.0000      -0.424441       -11.5496
 233   2.0000      -0.424179       -11.5425
 234   2.0000      -0.422135       -11.4869
 235   2.0000      -0.420657       -11.4466
 236   2.0000      -0.419456       -11.4140
 237   2.0000      -0.418655       -11.3922
 238   2.0000      -0.417274       -11.3546
 239   2.0000      -0.416683       -11.3385
 240   2.0000      -0.410671       -11.1749
 241   2.0000      -0.408951       -11.1281
 242   2.0000      -0.407712       -11.0944
 243   2.0000      -0.407397       -11.0858
 244   2.0000      -0.405341       -11.0299
 245   2.0000      -0.400785       -10.9059
 246   2.0000      -0.399887       -10.8815
 247   2.0000      -0.395415       -10.7598
 248   2.0000      -0.392042       -10.6680
 249   2.0000      -0.390829       -10.6350
 250   2.0000      -0.385314       -10.4849
 251   2.0000      -0.378724       -10.3056
 252   2.0000      -0.374258       -10.1841
 253   2.0000      -0.372199       -10.1280
 254   2.0000      -0.365343        -9.9415
 255   2.0000      -0.363107        -9.8807
 256   2.0000      -0.361735        -9.8433
 257   2.0000      -0.356389        -9.6978
 258   2.0000      -0.345813        -9.4101
 259   2.0000      -0.338883        -9.2215
 260   2.0000      -0.326893        -8.8952
 261   2.0000      -0.325120        -8.8470
 262   2.0000      -0.320237        -8.7141
 263   2.0000      -0.314524        -8.5586
 264   2.0000      -0.309212        -8.4141
 265   2.0000      -0.302213        -8.2236
 266   2.0000      -0.294488        -8.0134
 267   2.0000      -0.288031        -7.8377
 268   2.0000      -0.284013        -7.7284
 269   2.0000      -0.281372        -7.6565
 270   2.0000      -0.275351        -7.4927
 271   2.0000      -0.257920        -7.0184
 272   2.0000      -0.254497        -6.9252
 273   2.0000      -0.221481        -6.0268
 274   0.0000      -0.101290        -2.7562
 275   0.0000      -0.080070        -2.1788
 276   0.0000      -0.054354        -1.4791
 277   0.0000      -0.046831        -1.2743
 278   0.0000      -0.040379        -1.0988

MULLIKEN ATOMIC CHARGES
-----------------------
   0 C :    0.252600
   1 C :   -0.327306
   2 C :   -0.160902
   3 N :    0.142902
   4 C :   -0.218129
   5 N :    0.157179
   6 C :    0.039186
   7 C :    0.011611
   8 C :   -0.086056
   9 C :    0.096550
  10 C :    0.094424
  11 C :   -0.086256
  12 C :   -0.018156
  13 C :    0.036584
  14 C :    0.034709
  15 C :   -0.017495
  16 C :    0.141233
  17 O :   -0.147804
  18 C :   -0.144390
  19 C :    0.029823
  20 C :   -0.116467
  21 C :    0.025969
  22 C :   -0.053069
  23 S :    0.009180
  24 C :   -0.059941
  25 C :   -0.042417
  26 S :    0.023593
  27 C :   -0.055670
  28 S :    0.136937
  29 C :   -0.081375
  30 C :   -0.074640
  31 C :    0.044660
  32 C :    0.065615
  33 C :   -0.119246
  34 S :    0.140555
  35 C :   -0.107455
  36 C :    0.055739
  37 C :    0.014167
  38 C :   -0.067480
  39 S :    0.129951
  40 C :    0.081783
  41 C :   -0.020635
  42 C :   -0.046006
  43 C :   -0.067645
  44 C :   -0.008821
  45 C :    0.020513
  46 S :    0.023865
  47 C :   -0.032520
  48 C :   -0.050578
  49 S :   -0.009514
  50 C :   -0.077118
  51 S :    0.175538
  52 C :   -0.054513
  53 C :   -0.111032
  54 C :    0.335969
  55 C :   -0.367589
  56 C :   -0.187191
  57 N :    0.132468
  58 C :   -0.201530
  59 N :    0.149297
  60 C :    0.046334
  61 C :    0.003388
  62 C :    0.156517
  63 O :   -0.187123
  64 C :   -0.093847
  65 C :    0.101584
  66 C :    0.099298
  67 C :   -0.093548
  68 C :   -0.024167
  69 C :    0.034784
  70 C :    0.035732
  71 C :   -0.022013
  72 H :   -0.014849
  73 H :   -0.005288
  74 H :   -0.010952
  75 H :   -0.006450
  76 H :   -0.006934
  77 H :   -0.019662
  78 H :    0.031283
  79 H :    0.067077
  80 H :    0.078093
  81 H :    0.082646
  82 H :    0.068277
  83 H :    0.013215
  84 H :    0.036909
  85 H :   -0.010891
  86 H :    0.028228
  87 H :   -0.002097
  88 H :    0.011445
  89 H :    0.064474
  90 H :    0.071595
  91 H :    0.073012
  92 H :    0.067148
  93 H :    0.028335
  94 H :   -0.019486
  95 H :   -0.011773
  96 H :   -0.010940
  97 H :   -0.009696
  98 H :   -0.011206
  99 H :   -0.022108
Sum of atomic charges:   -0.0000000

LOEWDIN ATOMIC CHARGES
----------------------
   0 C :    0.062338
   1 C :   -0.159045
   2 C :   -0.016441
   3 N :   -0.056808
   4 C :   -0.040121
   5 N :   -0.064500
   6 C :   -0.022086
   7 C :   -0.055129
   8 C :    0.029665
   9 C :   -0.009866
  10 C :   -0.006394
  11 C :    0.013075
  12 C :   -0.006732
  13 C :   -0.014404
  14 C :   -0.014926
  15 C :   -0.010398
  16 C :    0.081879
  17 O :   -0.150629
  18 C :   -0.106308
  19 C :    0.044085
  20 C :   -0.210061
  21 C :   -0.163867
  22 C :   -0.225852
  23 S :    0.300516
  24 C :   -0.140830
  25 C :   -0.140666
  26 S :    0.333633
  27 C :   -0.164184
  28 S :    0.487329
  29 C :   -0.199347
  30 C :   -0.013203
  31 C :   -0.020809
  32 C :   -0.049801
  33 C :   -0.139681
  34 S :    0.455036
  35 C :   -0.199637
  36 C :   -0.038433
  37 C :   -0.059980
  38 C :   -0.161234
  39 S :    0.422375
  40 C :   -0.040059
  41 C :   -0.000931
  42 C :   -0.054117
  43 C :   -0.168265
  44 C :   -0.214022
  45 C :   -0.159299
  46 S :    0.346839
  47 C :   -0.139365
  48 C :   -0.139293
  49 S :    0.309063
  50 C :   -0.202704
  51 S :    0.495257
  52 C :    0.049123
  53 C :   -0.120578
  54 C :    0.075868
  55 C :   -0.154605
  56 C :   -0.016500
  57 N :   -0.070329
  58 C :   -0.026672
  59 N :   -0.059484
  60 C :   -0.022608
  61 C :   -0.051783
  62 C :    0.080869
  63 O :   -0.177435
  64 C :    0.024190
  65 C :   -0.010629
  66 C :   -0.008094
  67 C :    0.014667
  68 C :   -0.006977
  69 C :   -0.018517
  70 C :   -0.017543
  71 C :   -0.012733
  72 H :    0.038336
  73 H :    0.038482
  74 H :    0.034203
  75 H :    0.032554
  76 H :    0.031938
  77 H :    0.031037
  78 H :    0.043262
  79 H :    0.037006
  80 H :    0.030506
  81 H :    0.031929
  82 H :    0.037134
  83 H :    0.029381
  84 H :    0.036992
  85 H :    0.033525
  86 H :    0.024294
  87 H :    0.028940
  88 H :    0.024790
  89 H :    0.036321
  90 H :    0.027693
  91 H :    0.024336
  92 H :    0.037101
  93 H :    0.039226
  94 H :    0.036078
  95 H :    0.038041
  96 H :    0.033860
  97 H :    0.031112
  98 H :    0.030290
  99 H :    0.029742

  Mayer bond orders larger than 0.100000
B(  0-C ,  1-C ) :   1.6028 B(  0-C ,  6-C ) :   1.0061 B(  0-C , 18-C ) :   1.0629
B(  1-C ,  2-C ) :   1.1581 B(  1-C ,  4-C ) :   1.1673 B(  2-C ,  3-N ) :   2.9117
B(  4-C ,  5-N ) :   2.9872 B(  6-C ,  7-C ) :   1.2124 B(  6-C , 11-C ) :   1.4631
B(  7-C ,  8-C ) :   1.4819 B(  7-C , 16-C ) :   0.9198 B(  8-C ,  9-C ) :   1.1796
B(  8-C , 72-H ) :   1.0154 B(  9-C , 10-C ) :   1.2622 B(  9-C , 15-C ) :   1.2457
B( 10-C , 11-C ) :   1.1944 B( 10-C , 12-C ) :   1.2444 B( 11-C , 73-H ) :   0.9951
B( 12-C , 13-C ) :   1.4878 B( 12-C , 74-H ) :   0.9970 B( 13-C , 14-C ) :   1.2630
B( 13-C , 75-H ) :   0.9881 B( 14-C , 15-C ) :   1.4875 B( 14-C , 76-H ) :   0.9885
B( 15-C , 77-H ) :   0.9973 B( 16-C , 17-O ) :   2.2627 B( 16-C , 18-C ) :   0.9501
B( 18-C , 19-C ) :   1.5908 B( 19-C , 20-C ) :   1.2149 B( 19-C , 78-H ) :   0.9314
B( 20-C , 21-C ) :   1.4666 B( 20-C , 28-S ) :   1.0779 B( 21-C , 22-C ) :   1.3204
B( 21-C , 26-S ) :   1.0507 B( 22-C , 23-S ) :   1.0008 B( 22-C , 27-C ) :   1.4913
B( 23-S , 24-C ) :   1.0137 B( 24-C , 25-C ) :   1.0160 B( 24-C , 79-H ) :   0.9471
B( 24-C , 80-H ) :   0.9502 B( 25-C , 26-S ) :   1.0091 B( 25-C , 81-H ) :   0.9471
B( 25-C , 82-H ) :   0.9452 B( 27-C , 28-S ) :   1.1543 B( 27-C , 29-C ) :   1.1764
B( 29-C , 30-C ) :   1.4740 B( 29-C , 34-S ) :   1.0503 B( 30-C , 31-C ) :   1.2801
B( 30-C , 83-H ) :   0.9515 B( 31-C , 32-C ) :   1.0511 B( 31-C , 40-C ) :   1.3555
B( 32-C , 33-C ) :   1.6013 B( 32-C , 35-C ) :   1.1797 B( 33-C , 34-S ) :   1.1395
B( 33-C , 84-H ) :   0.9397 B( 35-C , 36-C ) :   1.4298 B( 35-C , 39-S ) :   1.0781
B( 36-C , 37-C ) :   1.2204 B( 36-C , 40-C ) :   1.1089 B( 37-C , 38-C ) :   1.5881
B( 37-C , 85-H ) :   0.9989 B( 38-C , 39-S ) :   1.1503 B( 38-C , 86-H ) :   0.9664
B( 40-C , 41-C ) :   1.1695 B( 41-C , 42-C ) :   1.5883 B( 41-C , 87-H ) :   0.9668
B( 42-C , 43-C ) :   1.2051 B( 42-C , 88-H ) :   0.9610 B( 43-C , 44-C ) :   1.4363
B( 43-C , 51-S ) :   1.1038 B( 44-C , 45-C ) :   1.3693 B( 44-C , 49-S ) :   1.0013
B( 45-C , 46-S ) :   1.0609 B( 45-C , 50-C ) :   1.3872 B( 46-S , 47-C ) :   1.0160
B( 47-C , 48-C ) :   1.0218 B( 47-C , 89-H ) :   0.9466 B( 47-C , 90-H ) :   0.9483
B( 48-C , 49-S ) :   1.0134 B( 48-C , 91-H ) :   0.9437 B( 48-C , 92-H ) :   0.9431
B( 50-C , 51-S ) :   1.0671 B( 50-C , 52-C ) :   1.3320 B( 52-C , 53-C ) :   1.4624
B( 52-C , 93-H ) :   0.9277 B( 53-C , 54-C ) :   1.1097 B( 53-C , 62-C ) :   0.9827
B( 54-C , 55-C ) :   1.5905 B( 54-C , 60-C ) :   0.9734 B( 55-C , 56-C ) :   1.1581
B( 55-C , 58-C ) :   1.1477 B( 56-C , 57-N ) :   2.9550 B( 58-C , 59-N ) :   2.9703
B( 60-C , 61-C ) :   1.2178 B( 60-C , 67-C ) :   1.4596 B( 61-C , 62-C ) :   0.9520
B( 61-C , 64-C ) :   1.4754 B( 62-C , 63-O ) :   2.1325 B( 64-C , 65-C ) :   1.1681
B( 64-C , 94-H ) :   1.0169 B( 65-C , 66-C ) :   1.2626 B( 65-C , 71-C ) :   1.2463
B( 66-C , 67-C ) :   1.1954 B( 66-C , 68-C ) :   1.2419 B( 67-C , 95-H ) :   0.9903
B( 68-C , 69-C ) :   1.4859 B( 68-C , 96-H ) :   0.9977 B( 69-C , 70-C ) :   1.2624
B( 69-C , 97-H ) :   0.9881 B( 70-C , 71-C ) :   1.4864 B( 70-C , 98-H ) :   0.9879
B( 71-C , 99-H ) :   0.9973

-----------------------------------------------------------------------------
         ABSORPTION SPECTRUM VIA TRANSITION ELECTRIC DIPOLE MOMENTS
-----------------------------------------------------------------------------
State   Energy  Wavelength   fosc         T2         TX        TY        TZ
        (cm-1)    (nm)                  (au**2)     (au)      (au)      (au)
-----------------------------------------------------------------------------
   0   11018.7    907.6   0.358159979  10.70098   1.05923  -2.77062  -1.37937
   1   16114.7    620.6   0.744704176  15.21376   2.21997  -0.37826  -3.18471
   2   18317.9    545.9   0.309488551   5.56217   0.58591   0.99468  -2.05657
   3   18694.1    534.9   0.548825350   9.66510  -1.93846  -0.71017   2.32446
   4   21155.7    472.7   0.018240436   0.28385   0.41897   0.03238  -0.32751
   5   21711.5    460.6   0.101308162   1.53614   0.07819  -0.68320   1.03115
   6   22496.8    444.5   0.209267101   3.06236  -1.25167   0.99778   0.70720
   7   22632.6    441.8   0.020902341   0.30404   0.41480   0.19871  -0.30414
   8   23190.4    431.2   0.005304765   0.07531  -0.03776  -0.21720  -0.16342
   9   23925.1    418.0   0.004559108   0.06273  -0.19171  -0.03408  -0.15755
  10   24325.8    411.1   0.031557388   0.42708  -0.58158   0.14273  -0.26167
  11   25209.5    396.7   0.082813017   1.08146  -0.82613  -0.61358   0.14999
  12   26492.0    377.5   0.075552628   0.93888  -0.70914   0.50244   0.42843
  13   26618.2    375.7   0.171146252   2.11673   0.67990   0.88308  -0.93521
  14   27142.5    368.4   0.050022610   0.60672  -0.53865   0.45612  -0.32945
  15   27498.6    363.7   0.024976244   0.29901  -0.44412   0.25849  -0.18697
  16   27541.9    363.1   0.036023234   0.43059  -0.45623   0.27931  -0.38005
  17   28438.2    351.6   0.105531134   1.22167   0.02882  -0.80719   0.75451
  18   28706.2    348.4   0.047775032   0.54790   0.29239  -0.67076  -0.11175
  19   29054.6    344.2   0.016092711   0.18234  -0.16999  -0.37156   0.12406
  20   29540.8    338.5   0.022101697   0.24631   0.01162  -0.12995   0.47884
  21   29762.6    336.0   0.093214769   1.03107  -0.05347  -0.99863  -0.17592
  22   29963.2    333.7   0.039842312   0.43776  -0.34066  -0.53956  -0.17486
  23   30473.6    328.2   0.155656649   1.68159  -0.11139  -0.73818   1.06032
  24   30831.5    324.3   0.012739328   0.13603   0.20323   0.11982   0.28349
  25   31205.1    320.5   0.076286929   0.80482   0.33829   0.82996   0.03934
  26   31364.5    318.8   0.109581243   1.15020  -0.83814   0.65664  -0.12864
  27   31762.0    314.8   0.098752692   1.02357   0.31386   0.95748   0.09106
  28   32245.0    310.1   0.067174852   0.68583   0.09718  -0.03134   0.82183
  29   32495.7    307.7   0.158760373   1.60839   0.13862  -0.50528   1.15493
  30   32714.5    305.7   0.290976400   2.92814   1.66476   0.39267   0.05031
  31   32807.3    304.8   0.030742295   0.30849  -0.28806  -0.41972  -0.22214
  32   33027.5    302.8   0.157980643   1.57472   0.97496  -0.74740   0.25607
  33   33401.4    299.4   0.019058167   0.18784  -0.03804   0.28446  -0.32477
  34   33520.4    298.3   0.155671217   1.52888  -1.21904   0.14509  -0.14756
  35   33884.5    295.1   0.219583732   2.13341   1.28383  -0.66890  -0.19431
  36   34039.1    293.8   0.130337595   1.26057   1.05920   0.32079  -0.18912
  37   34121.0    293.1   0.055091250   0.53154  -0.71094   0.15780  -0.03459
  38   34419.0    290.5   0.168835022   1.61488  -1.20054  -0.20488   0.36277
  39   34743.0    287.8   0.201581304   1.91011  -0.63643   0.96756  -0.75425
  40   35040.3    285.4   0.135922186   1.27702   1.12866   0.03464   0.04402
  41   35251.0    283.7   0.026665683   0.24903  -0.35901   0.00518   0.34658
  42   35724.1    279.9   0.141324447   1.30236  -0.24913   0.79416  -0.78077
  43   35823.6    279.1   0.030045755   0.27611  -0.43081  -0.22514  -0.19956
  44   35896.0    278.6   0.058419126   0.53578   0.37747   0.29707  -0.55231
  45   36150.2    276.6   0.113969790   1.03790   0.10253   0.91242   0.44145
  46   36830.2    271.5   0.220509805   1.97106   1.02275  -0.95973   0.06289
  47   36898.9    271.0   0.241048653   2.15064  -1.40984   0.28394  -0.28697
  48   37226.6    268.6   0.035868117   0.31720   0.30118   0.43127   0.20123
  49   37361.7    267.7   0.058742399   0.51761  -0.56767   0.44144   0.02225
  50   37689.7    265.3   0.064605558   0.56432  -0.66615   0.34619  -0.02671
  51   37771.3    264.8   0.014541193   0.12674  -0.27146  -0.01225  -0.23000
  52   38012.9    263.1   0.033129913   0.28692  -0.19038  -0.13930  -0.48091
  53   38328.6    260.9   0.022054765   0.18943   0.31969   0.07689  -0.28516
  54   38737.8    258.1   0.196094910   1.66650  -0.73421   1.04001  -0.21402
  55   38891.9    257.1   0.058739897   0.49722   0.31684  -0.62600   0.07046
  56   39132.4    255.5   0.106565491   0.89651   0.76046  -0.52836  -0.19761
  57   39359.1    254.1   0.096688324   0.80873  -0.22748   0.26318  -0.82929
  58   39447.2    253.5   0.112239627   0.93671   0.55915   0.00345  -0.78997
  59   39658.0    252.2   0.190085370   1.57795   0.30799  -0.79257  -0.92462
  60   39847.2    251.0   0.181605429   1.50040  -0.64264   1.04258   0.02081
  61   40073.5    249.5   0.066102501   0.54304   0.43192  -0.49925  -0.32748
  62   40251.2    248.4   0.068257211   0.55827  -0.23452   0.66096  -0.25769

FINAL SINGLE POINT ENERGY     -5777.639992825379

DIPOLE MOMENT
-------------
                                X             Y             Z
Electronic contribution:     20.99854       4.70712     -11.23248
Nuclear contribution   :    -20.65017      -5.20101       6.39746
                        -----------------------------------------
Total Dipole Moment    :      0.34836      -0.49389      -4.83502
                        -----------------------------------------
Magnitude (a.u.)       :      4.87265
Magnitude (Debye)      :     12.38528

Rotational constants in cm-1:     0.001011     0.000493     0.000404
Rotational constants in MHz :    30.299856    14.772194    12.108356

                             ****ORCA TERMINATED NORMALLY****
TOTAL RUN TIME: 0 days 0 hours 11 minutes 32 seconds 449 msec
