                         Program Version 4.2.0 -  RELEASE  -
|  1> # ORCA input file
|  2> # SCF done       -187.579263962868          0.000860181641
|  3> ! CAM-B3LYP def2-SVP def2/J RIJCOSX Grid4 TightSCF
|  4> %maxcore 5000
|  5> %tddft
|  6>     Mode sTDDFT
|  7>     Ethresh 5.0
|  8>     maxcore 5000
|  9> end
| 10>
| 11> %pal
| 12>   nprocs 6
| 13>   end
| 14> * xyz 0 1
| 15>    C        0.91014         2.29206         4.16057
| 16>    C        1.93794         3.19155         4.01005
| 17>    C        3.26510         2.95606         4.41876
| 18>    N        4.37107         2.82112         4.69699
| 19>    C        1.76643         4.48975         3.49625
| 20>    N        1.66242         5.56042         3.09340
| 21>    C        0.97581         1.05731         4.93515
| 22>    C       -0.35290         0.60064         5.17377
| 23>    C       -0.60536        -0.52614         5.90072
| 24>    C        0.47977        -1.26681         6.42313
| 25>    C        1.81073        -0.82108         6.17987
| 26>    C        2.04132         0.35559         5.42924
| 27>    C        2.88363        -1.57019         6.70314
| 28>    C        2.65549        -2.70492         7.43343
| 29>    C        1.34484        -3.14316         7.67227
| 30>    C        0.28017        -2.43895         7.17815
| 31>    C       -1.30232         1.51557         4.51751
| 32>    O       -2.51138         1.48668         4.54615
| 33>    C       -0.45679         2.48342         3.75460
| 34>    C       -1.07992         3.28213         2.83988
| 35>    C       -0.61204         4.05027         1.75216
| 36>    C        0.52629         3.95842         0.95169
| 37>    C        0.56287         4.94602        -0.05786
| 38>    S        1.86867         5.27156        -1.19417
| 39>    C        2.66332         3.63278        -1.25399
| 40>    C        3.06398         3.18100         0.12996
| 41>    S        1.63500         2.61667         1.11002
| 42>    C       -0.54234         5.77440        -0.05063
| 43>    S       -1.64410         5.35354         1.20927
| 44>    C       -0.74413         6.91975        -0.90155
| 45>    C       -0.97671         8.18452        -0.46164
| 46>    C       -0.92644         9.08724        -1.59699
| 47>    C       -1.11643        10.47285        -1.56626
| 48>    N       -1.32501        11.60233        -1.60035
| 49>    C       -0.70265         8.35808        -2.72873
| 50>    C       -0.71297         6.95679        -2.37611
| 51>    C       -0.89950         5.89931        -3.23037
| 52>    C       -1.01460         5.96097        -4.71532
| 53>    C       -0.70203         4.71778        -5.19454
| 54>    C       -0.55205         3.82283        -4.07832
| 55>    C       -0.74082         4.51526        -2.90718
| 56>    C       -0.23424         2.46051        -4.16572
| 57>    N        0.06399         1.35305        -4.21649
| 58>    C       -1.44679         7.05903        -5.50139
| 59>    C       -2.27248         8.04174        -5.04946
| 60>    C       -2.54432         9.24045        -5.74349
| 61>    C       -3.17112        10.35548        -5.17668
| 62>    C       -3.12125        11.47032        -6.01805
| 63>    S       -3.65863        13.08529        -5.62048
| 64>    C       -3.67370        12.96920        -3.80195
| 65>    C       -4.60368        11.87722        -3.33189
| 66>    S       -3.87536        10.22629        -3.57561
| 67>    C       -2.52786        11.19829        -7.26838
| 68>    S       -1.98433         9.54430        -7.35801
| 69>    C       -2.38248        12.17951        -8.25544
| 70>    C       -1.85045        12.09255        -9.51817
| 71>    C       -1.72071        13.18479       -10.46330
| 72>    C       -2.06140        14.49948       -10.26929
| 73>    C       -1.89613        15.50698       -11.24290
| 74>    N       -1.78908        16.37512       -11.98684
| 75>    C       -2.61457        15.05236        -9.09544
| 76>    N       -3.06517        15.59117        -8.18620
| 77>    C       -1.13846        12.63984       -11.68765
| 78>    C       -0.90731        11.24727       -11.49795
| 79>    C       -1.33412        10.86979       -10.14462
| 80>    O       -1.26665         9.75624        -9.64981
| 81>    C       -0.36564        10.46075       -12.47284
| 82>    C       -0.02070        11.04348       -13.71271
| 83>    C       -0.24717        12.43548       -13.91312
| 84>    C       -0.81139        13.22359       -12.88232
| 85>    C        0.10194        13.00703       -15.15318
| 86>    C        0.64843        12.24222       -16.14810
| 87>    C        0.87035        10.87167       -15.94941
| 88>    C        0.54268        10.28484       -14.75709
| 89>    H       -1.62021        -0.85121         6.07567
| 90>    H        3.05962         0.66640         5.25492
| 91>    H        3.89134        -1.22770         6.51842
| 92>    H        3.48454        -3.27084         7.83131
| 93>    H        1.18258        -4.04120         8.24941
| 94>    H       -0.73151        -2.77173         7.35894
| 95>    H       -2.16145         3.30375         2.95964
| 96>    H        3.54178         3.77351        -1.88355
| 97>    H        1.98621         2.92391        -1.73315
| 98>    H        3.55729         3.98191         0.68265
| 99>    H        3.71851         2.31013         0.08743
|100>    H       -1.10222         8.49315         0.55938
|101>    H       -0.51579         8.75471        -3.70550
|102>    H       -0.66432         4.41774        -6.22477
|103>    H       -0.71200         4.09368        -1.92341
|104>    H       -1.12652         7.08120        -6.53595
|105>    H       -2.71584         7.95890        -4.06489
|106>    H       -4.02385        13.94582        -3.46881
|107>    H       -2.65670        12.80456        -3.44220
|108>    H       -5.56255        11.91574        -3.85040
|109>    H       -4.76633        11.94226        -2.25592
|110>    H       -2.75577        13.14985        -7.94760
|111>    H       -0.20178         9.40742       -12.29989
|112>    H       -0.96942        14.27356       -13.06946
|113>    H       -0.07045        14.06284       -15.30216
|114>    H        0.91282        12.69000       -17.09431
|115>    H        1.30214        10.28308       -16.74503
|116>    H        0.71115         9.22979       -14.59746
|117> *
|118>
|119>                          ****END OF INPUT****

CARTESIAN COORDINATES (ANGSTROEM)
---------------------------------
  C      0.910140    2.292060    4.160570
  C      1.937940    3.191550    4.010050
  C      3.265100    2.956060    4.418760
  N      4.371070    2.821120    4.696990
  C      1.766430    4.489750    3.496250
  N      1.662420    5.560420    3.093400
  C      0.975810    1.057310    4.935150
  C     -0.352900    0.600640    5.173770
  C     -0.605360   -0.526140    5.900720
  C      0.479770   -1.266810    6.423130
  C      1.810730   -0.821080    6.179870
  C      2.041320    0.355590    5.429240
  C      2.883630   -1.570190    6.703140
  C      2.655490   -2.704920    7.433430
  C      1.344840   -3.143160    7.672270
  C      0.280170   -2.438950    7.178150
  C     -1.302320    1.515570    4.517510
  O     -2.511380    1.486680    4.546150
  C     -0.456790    2.483420    3.754600
  C     -1.079920    3.282130    2.839880
  C     -0.612040    4.050270    1.752160
  C      0.526290    3.958420    0.951690
  C      0.562870    4.946020   -0.057860
  S      1.868670    5.271560   -1.194170
  C      2.663320    3.632780   -1.253990
  C      3.063980    3.181000    0.129960
  S      1.635000    2.616670    1.110020
  C     -0.542340    5.774400   -0.050630
  S     -1.644100    5.353540    1.209270
  C     -0.744130    6.919750   -0.901550
  C     -0.976710    8.184520   -0.461640
  C     -0.926440    9.087240   -1.596990
  C     -1.116430   10.472850   -1.566260
  N     -1.325010   11.602330   -1.600350
  C     -0.702650    8.358080   -2.728730
  C     -0.712970    6.956790   -2.376110
  C     -0.899500    5.899310   -3.230370
  C     -1.014600    5.960970   -4.715320
  C     -0.702030    4.717780   -5.194540
  C     -0.552050    3.822830   -4.078320
  C     -0.740820    4.515260   -2.907180
  C     -0.234240    2.460510   -4.165720
  N      0.063990    1.353050   -4.216490
  C     -1.446790    7.059030   -5.501390
  C     -2.272480    8.041740   -5.049460
  C     -2.544320    9.240450   -5.743490
  C     -3.171120   10.355480   -5.176680
  C     -3.121250   11.470320   -6.018050
  S     -3.658630   13.085290   -5.620480
  C     -3.673700   12.969200   -3.801950
  C     -4.603680   11.877220   -3.331890
  S     -3.875360   10.226290   -3.575610
  C     -2.527860   11.198290   -7.268380
  S     -1.984330    9.544300   -7.358010
  C     -2.382480   12.179510   -8.255440
  C     -1.850450   12.092550   -9.518170
  C     -1.720710   13.184790  -10.463300
  C     -2.061400   14.499480  -10.269290
  C     -1.896130   15.506980  -11.242900
  N     -1.789080   16.375120  -11.986840
  C     -2.614570   15.052360   -9.095440
  N     -3.065170   15.591170   -8.186200
  C     -1.138460   12.639840  -11.687650
  C     -0.907310   11.247270  -11.497950
  C     -1.334120   10.869790  -10.144620
  O     -1.266650    9.756240   -9.649810
  C     -0.365640   10.460750  -12.472840
  C     -0.020700   11.043480  -13.712710
  C     -0.247170   12.435480  -13.913120
  C     -0.811390   13.223590  -12.882320
  C      0.101940   13.007030  -15.153180
  C      0.648430   12.242220  -16.148100
  C      0.870350   10.871670  -15.949410
  C      0.542680   10.284840  -14.757090
  H     -1.620210   -0.851210    6.075670
  H      3.059620    0.666400    5.254920
  H      3.891340   -1.227700    6.518420
  H      3.484540   -3.270840    7.831310
  H      1.182580   -4.041200    8.249410
  H     -0.731510   -2.771730    7.358940
  H     -2.161450    3.303750    2.959640
  H      3.541780    3.773510   -1.883550
  H      1.986210    2.923910   -1.733150
  H      3.557290    3.981910    0.682650
  H      3.718510    2.310130    0.087430
  H     -1.102220    8.493150    0.559380
  H     -0.515790    8.754710   -3.705500
  H     -0.664320    4.417740   -6.224770
  H     -0.712000    4.093680   -1.923410
  H     -1.126520    7.081200   -6.535950
  H     -2.715840    7.958900   -4.064890
  H     -4.023850   13.945820   -3.468810
  H     -2.656700   12.804560   -3.442200
  H     -5.562550   11.915740   -3.850400
  H     -4.766330   11.942260   -2.255920
  H     -2.755770   13.149850   -7.947600
  H     -0.201780    9.407420  -12.299890
  H     -0.969420   14.273560  -13.069460
  H     -0.070450   14.062840  -15.302160
  H      0.912820   12.690000  -17.094310
  H      1.302140   10.283080  -16.745030
  H      0.711150    9.229790  -14.597460

 Total Charge           Charge          ....    0
 Multiplicity           Mult            ....    1
 Number of Electrons    NEL             ....  542
 Basis Dimension        Dim             .... 1200

ORBITAL ENERGIES
----------------

  NO   OCC          E(Eh)            E(eV)
   0   2.0000     -88.975724     -2421.1525
   1   2.0000     -88.965346     -2420.8702
   2   2.0000     -88.957291     -2420.6510
   3   2.0000     -88.945986     -2420.3433
   4   2.0000     -88.941318     -2420.2163
   5   2.0000     -88.941283     -2420.2154
   6   2.0000     -19.218154      -522.9525
   7   2.0000     -19.213282      -522.8200
   8   2.0000     -14.419101      -392.3637
   9   2.0000     -14.417628      -392.3236
  10   2.0000     -14.416049      -392.2806
  11   2.0000     -14.414445      -392.2370
  12   2.0000     -14.411090      -392.1457
  13   2.0000     -14.408626      -392.0787
  14   2.0000     -10.365978      -282.0726
  15   2.0000     -10.363259      -281.9986
  16   2.0000     -10.341472      -281.4058
  17   2.0000     -10.336058      -281.2584
  18   2.0000     -10.335770      -281.2506
  19   2.0000     -10.335350      -281.2392
  20   2.0000     -10.333610      -281.1918
  21   2.0000     -10.333178      -281.1801
  22   2.0000     -10.330367      -281.1036
  23   2.0000     -10.330269      -281.1009
  24   2.0000     -10.327906      -281.0366
  25   2.0000     -10.326006      -280.9849
  26   2.0000     -10.325273      -280.9650
  27   2.0000     -10.323445      -280.9152
  28   2.0000     -10.323122      -280.9064
  29   2.0000     -10.323075      -280.9051
  30   2.0000     -10.321113      -280.8518
  31   2.0000     -10.320762      -280.8422
  32   2.0000     -10.319691      -280.8131
  33   2.0000     -10.318857      -280.7904
  34   2.0000     -10.318715      -280.7865
  35   2.0000     -10.318687      -280.7857
  36   2.0000     -10.318221      -280.7731
  37   2.0000     -10.317366      -280.7498
  38   2.0000     -10.316054      -280.7141
  39   2.0000     -10.315459      -280.6979
  40   2.0000     -10.313424      -280.6425
  41   2.0000     -10.313400      -280.6419
  42   2.0000     -10.312101      -280.6065
  43   2.0000     -10.310774      -280.5704
  44   2.0000     -10.309508      -280.5360
  45   2.0000     -10.308238      -280.5014
  46   2.0000     -10.306914      -280.4654
  47   2.0000     -10.306648      -280.4581
  48   2.0000     -10.303767      -280.3797
  49   2.0000     -10.303028      -280.3596
  50   2.0000     -10.300666      -280.2954
  51   2.0000     -10.299690      -280.2688
  52   2.0000     -10.299252      -280.2569
  53   2.0000     -10.297698      -280.2146
  54   2.0000     -10.297603      -280.2120
  55   2.0000     -10.295011      -280.1415
  56   2.0000     -10.294872      -280.1377
  57   2.0000     -10.294704      -280.1331
  58   2.0000     -10.294687      -280.1327
  59   2.0000     -10.294417      -280.1253
  60   2.0000     -10.294382      -280.1244
  61   2.0000     -10.294135      -280.1177
  62   2.0000     -10.293008      -280.0870
  63   2.0000     -10.292467      -280.0723
  64   2.0000     -10.285723      -279.8887
  65   2.0000     -10.285672      -279.8874
  66   2.0000     -10.284544      -279.8567
  67   2.0000     -10.284057      -279.8434
  68   2.0000     -10.284056      -279.8434
  69   2.0000     -10.283676      -279.8331
  70   2.0000     -10.283637      -279.8320
  71   2.0000     -10.283283      -279.8223
  72   2.0000     -10.283048      -279.8160
  73   2.0000     -10.282849      -279.8106
  74   2.0000      -8.071254      -219.6300
  75   2.0000      -8.058502      -219.2830
  76   2.0000      -8.051895      -219.1032
  77   2.0000      -8.040840      -218.8024
  78   2.0000      -8.036580      -218.6864
  79   2.0000      -8.036549      -218.6856
  80   2.0000      -6.040571      -164.3723
  81   2.0000      -6.036578      -164.2636
  82   2.0000      -6.033075      -164.1683
  83   2.0000      -6.028030      -164.0310
  84   2.0000      -6.023644      -163.9117
  85   2.0000      -6.022176      -163.8717
  86   2.0000      -6.020352      -163.8221
  87   2.0000      -6.017851      -163.7541
  88   2.0000      -6.012108      -163.5978
  89   2.0000      -6.011399      -163.5785
  90   2.0000      -6.007324      -163.4676
  91   2.0000      -6.007058      -163.4604
  92   2.0000      -6.006923      -163.4567
  93   2.0000      -6.002843      -163.3457
  94   2.0000      -6.002752      -163.3432
  95   2.0000      -6.000254      -163.2752
  96   2.0000      -5.996368      -163.1695
  97   2.0000      -5.996241      -163.1660
  98   2.0000      -1.133347       -30.8399
  99   2.0000      -1.128269       -30.7018
 100   2.0000      -1.028692       -27.9921
 101   2.0000      -1.019221       -27.7344
 102   2.0000      -1.014326       -27.6012
 103   2.0000      -1.012703       -27.5571
 104   2.0000      -1.010286       -27.4913
 105   2.0000      -1.007721       -27.4215
 106   2.0000      -0.996054       -27.1040
 107   2.0000      -0.995985       -27.1021
 108   2.0000      -0.995071       -27.0772
 109   2.0000      -0.993281       -27.0285
 110   2.0000      -0.988214       -26.8907
 111   2.0000      -0.984732       -26.7959
 112   2.0000      -0.968678       -26.3591
 113   2.0000      -0.968577       -26.3563
 114   2.0000      -0.950498       -25.8644
 115   2.0000      -0.942242       -25.6397
 116   2.0000      -0.932532       -25.3755
 117   2.0000      -0.926343       -25.2071
 118   2.0000      -0.918151       -24.9842
 119   2.0000      -0.913781       -24.8653
 120   2.0000      -0.899914       -24.4879
 121   2.0000      -0.895001       -24.3542
 122   2.0000      -0.888981       -24.1904
 123   2.0000      -0.881971       -23.9996
 124   2.0000      -0.878814       -23.9137
 125   2.0000      -0.878227       -23.8978
 126   2.0000      -0.870829       -23.6965
 127   2.0000      -0.866946       -23.5908
 128   2.0000      -0.866395       -23.5758
 129   2.0000      -0.855679       -23.2842
 130   2.0000      -0.851746       -23.1772
 131   2.0000      -0.841648       -22.9024
 132   2.0000      -0.825570       -22.4649
 133   2.0000      -0.825564       -22.4648
 134   2.0000      -0.815726       -22.1970
 135   2.0000      -0.812925       -22.1208
 136   2.0000      -0.804306       -21.8863
 137   2.0000      -0.782906       -21.3040
 138   2.0000      -0.778844       -21.1934
 139   2.0000      -0.759703       -20.6726
 140   2.0000      -0.759341       -20.6627
 141   2.0000      -0.757321       -20.6078
 142   2.0000      -0.750278       -20.4161
 143   2.0000      -0.740841       -20.1593
 144   2.0000      -0.730240       -19.8708
 145   2.0000      -0.726691       -19.7743
 146   2.0000      -0.721282       -19.6271
 147   2.0000      -0.713805       -19.4236
 148   2.0000      -0.704698       -19.1758
 149   2.0000      -0.701641       -19.0926
 150   2.0000      -0.698923       -19.0187
 151   2.0000      -0.695370       -18.9220
 152   2.0000      -0.690258       -18.7829
 153   2.0000      -0.683091       -18.5879
 154   2.0000      -0.674444       -18.3526
 155   2.0000      -0.669731       -18.2243
 156   2.0000      -0.668087       -18.1796
 157   2.0000      -0.656388       -17.8612
 158   2.0000      -0.646056       -17.5801
 159   2.0000      -0.644062       -17.5258
 160   2.0000      -0.638061       -17.3625
 161   2.0000      -0.631072       -17.1723
 162   2.0000      -0.626992       -17.0613
 163   2.0000      -0.625135       -17.0108
 164   2.0000      -0.608327       -16.5534
 165   2.0000      -0.605166       -16.4674
 166   2.0000      -0.604238       -16.4422
 167   2.0000      -0.602467       -16.3940
 168   2.0000      -0.601864       -16.3776
 169   2.0000      -0.593246       -16.1430
 170   2.0000      -0.591616       -16.0987
 171   2.0000      -0.589350       -16.0370
 172   2.0000      -0.576245       -15.6804
 173   2.0000      -0.564369       -15.3573
 174   2.0000      -0.563261       -15.3271
 175   2.0000      -0.559070       -15.2131
 176   2.0000      -0.552868       -15.0443
 177   2.0000      -0.550142       -14.9701
 178   2.0000      -0.549321       -14.9478
 179   2.0000      -0.546998       -14.8846
 180   2.0000      -0.544315       -14.8116
 181   2.0000      -0.542789       -14.7700
 182   2.0000      -0.541398       -14.7322
 183   2.0000      -0.540255       -14.7011
 184   2.0000      -0.537452       -14.6248
 185   2.0000      -0.536515       -14.5993
 186   2.0000      -0.534068       -14.5327
 187   2.0000      -0.532494       -14.4899
 188   2.0000      -0.528277       -14.3751
 189   2.0000      -0.526102       -14.3160
 190   2.0000      -0.522254       -14.2113
 191   2.0000      -0.520328       -14.1588
 192   2.0000      -0.519938       -14.1482
 193   2.0000      -0.516587       -14.0570
 194   2.0000      -0.515775       -14.0349
 195   2.0000      -0.515428       -14.0255
 196   2.0000      -0.511220       -13.9110
 197   2.0000      -0.510677       -13.8962
 198   2.0000      -0.509302       -13.8588
 199   2.0000      -0.506762       -13.7897
 200   2.0000      -0.505346       -13.7512
 201   2.0000      -0.505104       -13.7446
 202   2.0000      -0.500753       -13.6262
 203   2.0000      -0.496532       -13.5113
 204   2.0000      -0.494094       -13.4450
 205   2.0000      -0.493589       -13.4312
 206   2.0000      -0.492983       -13.4147
 207   2.0000      -0.492849       -13.4111
 208   2.0000      -0.491224       -13.3669
 209   2.0000      -0.485444       -13.2096
 210   2.0000      -0.484525       -13.1846
 211   2.0000      -0.482694       -13.1348
 212   2.0000      -0.480815       -13.0836
 213   2.0000      -0.475316       -12.9340
 214   2.0000      -0.463525       -12.6132
 215   2.0000      -0.462851       -12.5948
 216   2.0000      -0.457743       -12.4558
 217   2.0000      -0.453168       -12.3313
 218   2.0000      -0.450849       -12.2682
 219   2.0000      -0.449243       -12.2245
 220   2.0000      -0.447470       -12.1763
 221   2.0000      -0.446546       -12.1511
 222   2.0000      -0.444662       -12.0999
 223   2.0000      -0.443825       -12.0771
 224   2.0000      -0.441451       -12.0125
 225   2.0000      -0.439922       -11.9709
 226   2.0000      -0.438875       -11.9424
 227   2.0000      -0.437145       -11.8953
 228   2.0000      -0.436848       -11.8872
 229   2.0000      -0.433599       -11.7988
 230   2.0000      -0.432066       -11.7571
 231   2.0000      -0.431211       -11.7338
 232   2.0000      -0.430912       -11.7257
 233   2.0000      -0.430201       -11.7064
 234   2.0000      -0.428680       -11.6650
 235   2.0000      -0.425826       -11.5873
 236   2.0000      -0.423878       -11.5343
 237   2.0000      -0.421355       -11.4656
 238   2.0000      -0.421209       -11.4617
 239   2.0000      -0.420276       -11.4363
 240   2.0000      -0.418327       -11.3833
 241   2.0000      -0.415091       -11.2952
 242   2.0000      -0.414353       -11.2751
 243   2.0000      -0.410842       -11.1796
 244   2.0000      -0.407447       -11.0872
 245   2.0000      -0.405711       -11.0399
 246   2.0000      -0.400313       -10.8931
 247   2.0000      -0.397982       -10.8296
 248   2.0000      -0.394170       -10.7259
 249   2.0000      -0.386323       -10.5124
 250   2.0000      -0.382006       -10.3949
 251   2.0000      -0.378506       -10.2997
 252   2.0000      -0.376021       -10.2321
 253   2.0000      -0.373348       -10.1593
 254   2.0000      -0.370035       -10.0692
 255   2.0000      -0.357229        -9.7207
 256   2.0000      -0.341172        -9.2838
 257   2.0000      -0.336650        -9.1607
 258   2.0000      -0.334810        -9.1107
 259   2.0000      -0.332491        -9.0475
 260   2.0000      -0.330722        -8.9994
 261   2.0000      -0.323615        -8.8060
 262   2.0000      -0.314764        -8.5652
 263   2.0000      -0.311862        -8.4862
 264   2.0000      -0.303991        -8.2720
 265   2.0000      -0.294372        -8.0103
 266   2.0000      -0.290594        -7.9075
 267   2.0000      -0.283662        -7.7188
 268   2.0000      -0.275805        -7.5050
 269   2.0000      -0.273637        -7.4460
 270   2.0000      -0.253266        -6.8917
 271   0.0000      -0.125519        -3.4155
 272   0.0000      -0.093983        -2.5574
 273   0.0000      -0.087195        -2.3727
 274   0.0000      -0.057536        -1.5656
 275   0.0000      -0.055086        -1.4990

MULLIKEN ATOMIC CHARGES
-----------------------
   0 C :    0.301510
   1 C :   -0.333038
   2 C :   -0.183603
   3 N :    0.149476
   4 C :   -0.204232
   5 N :    0.166858
   6 C :    0.044661
   7 C :    0.016745
   8 C :   -0.084354
   9 C :    0.094466
  10 C :    0.101088
  11 C :   -0.097161
  12 C :   -0.022068
  13 C :    0.038075
  14 C :    0.034508
  15 C :   -0.016871
  16 C :    0.134364
  17 O :   -0.144973
  18 C :   -0.135299
  19 C :    0.047805
  20 C :   -0.139710
  21 C :   -0.013963
  22 C :   -0.032976
  23 S :    0.022896
  24 C :   -0.064429
  25 C :   -0.037019
  26 S :    0.037357
  27 C :   -0.149261
  28 S :    0.183384
  29 C :    0.016543
  30 C :    0.023246
  31 C :   -0.110748
  32 C :   -0.098715
  33 N :    0.124871
  34 C :   -0.040100
  35 C :    0.051359
  36 C :    0.048059
  37 C :    0.075063
  38 C :   -0.007118
  39 C :   -0.104867
  40 C :   -0.005551
  41 C :   -0.129137
  42 N :    0.133948
  43 C :   -0.008015
  44 C :   -0.049307
  45 C :   -0.090336
  46 C :    0.004416
  47 C :   -0.028756
  48 S :    0.028790
  49 C :   -0.071588
  50 C :   -0.021681
  51 S :   -0.010121
  52 C :   -0.077638
  53 S :    0.185811
  54 C :   -0.050424
  55 C :   -0.100055
  56 C :    0.333652
  57 C :   -0.359776
  58 C :   -0.184379
  59 N :    0.143939
  60 C :   -0.197592
  61 N :    0.152990
  62 C :    0.047597
  63 C :    0.002650
  64 C :    0.164495
  65 O :   -0.188845
  66 C :   -0.086813
  67 C :    0.101000
  68 C :    0.098880
  69 C :   -0.088014
  70 C :   -0.022173
  71 C :    0.037416
  72 C :    0.036079
  73 C :   -0.018796
  74 H :   -0.013669
  75 H :   -0.011393
  76 H :   -0.012694
  77 H :   -0.006232
  78 H :   -0.006499
  79 H :   -0.018768
  80 H :    0.027758
  81 H :    0.068149
  82 H :    0.079680
  83 H :    0.083547
  84 H :    0.072347
  85 H :    0.002684
  86 H :    0.029359
  87 H :   -0.007715
  88 H :    0.017480
  89 H :    0.014316
  90 H :    0.039853
  91 H :    0.069451
  92 H :    0.096422
  93 H :    0.072074
  94 H :    0.066678
  95 H :    0.028754
  96 H :   -0.016414
  97 H :   -0.009245
  98 H :   -0.008600
  99 H :   -0.006449
 100 H :   -0.006082
 101 H :   -0.019286
Sum of atomic charges:    0.0000000

LOEWDIN ATOMIC CHARGES
----------------------
   0 C :    0.050530
   1 C :   -0.144981
   2 C :   -0.019133
   3 N :   -0.056929
   4 C :   -0.023809
   5 N :   -0.054521
   6 C :   -0.019866
   7 C :   -0.058922
   8 C :    0.033605
   9 C :   -0.011387
  10 C :   -0.004839
  11 C :    0.009365
  12 C :   -0.008393
  13 C :   -0.013475
  14 C :   -0.015583
  15 C :   -0.008914
  16 C :    0.085664
  17 O :   -0.142989
  18 C :   -0.093906
  19 C :    0.030923
  20 C :   -0.199159
  21 C :   -0.181521
  22 C :   -0.209990
  23 S :    0.316904
  24 C :   -0.141147
  25 C :   -0.137541
  26 S :    0.376613
  27 C :   -0.181098
  28 S :    0.467578
  29 C :   -0.062549
  30 C :    0.030020
  31 C :   -0.073269
  32 C :   -0.021217
  33 N :   -0.060343
  34 C :    0.023767
  35 C :    0.033834
  36 C :    0.039646
  37 C :   -0.020010
  38 C :   -0.004217
  39 C :   -0.052075
  40 C :   -0.000358
  41 C :   -0.030254
  42 N :   -0.045481
  43 C :   -0.007553
  44 C :   -0.034572
  45 C :   -0.187550
  46 C :   -0.208783
  47 C :   -0.176925
  48 S :    0.339252
  49 C :   -0.135722
  50 C :   -0.137065
  51 S :    0.314063
  52 C :   -0.202061
  53 S :    0.505304
  54 C :    0.048529
  55 C :   -0.107230
  56 C :    0.075269
  57 C :   -0.143968
  58 C :   -0.016426
  59 N :   -0.059146
  60 C :   -0.025666
  61 N :   -0.051089
  62 C :   -0.024010
  63 C :   -0.054601
  64 C :    0.084252
  65 O :   -0.174184
  66 C :    0.029928
  67 C :   -0.009423
  68 C :   -0.006398
  69 C :    0.018537
  70 C :   -0.005496
  71 C :   -0.014201
  72 C :   -0.013683
  73 C :   -0.010623
  74 H :    0.038782
  75 H :    0.037131
  76 H :    0.033346
  77 H :    0.032566
  78 H :    0.032153
  79 H :    0.031344
  80 H :    0.045873
  81 H :    0.038372
  82 H :    0.029214
  83 H :    0.033725
  84 H :    0.039053
  85 H :    0.037731
  86 H :    0.041687
  87 H :    0.033937
  88 H :    0.034240
  89 H :    0.035053
  90 H :    0.030903
  91 H :    0.039232
  92 H :    0.033762
  93 H :    0.026751
  94 H :    0.037881
  95 H :    0.040540
  96 H :    0.037604
  97 H :    0.038925
  98 H :    0.034830
  99 H :    0.032677
 100 H :    0.032318
 101 H :    0.031034

  Mayer bond orders larger than 0.100000
B(  0-C ,  1-C ) :   1.6068 B(  0-C ,  6-C ) :   1.0017 B(  0-C , 18-C ) :   1.0710
B(  1-C ,  2-C ) :   1.1415 B(  1-C ,  4-C ) :   1.1691 B(  2-C ,  3-N ) :   2.9790
B(  4-C ,  5-N ) :   2.9905 B(  6-C ,  7-C ) :   1.2126 B(  6-C , 11-C ) :   1.4592
B(  7-C ,  8-C ) :   1.4759 B(  7-C , 16-C ) :   0.9233 B(  8-C ,  9-C ) :   1.1777
B(  8-C , 74-H ) :   1.0171 B(  9-C , 10-C ) :   1.2611 B(  9-C , 15-C ) :   1.2467
B( 10-C , 11-C ) :   1.1978 B( 10-C , 12-C ) :   1.2415 B( 11-C , 75-H ) :   0.9938
B( 12-C , 13-C ) :   1.4864 B( 12-C , 76-H ) :   0.9980 B( 13-C , 14-C ) :   1.2624
B( 13-C , 77-H ) :   0.9888 B( 14-C , 15-C ) :   1.4866 B( 14-C , 78-H ) :   0.9888
B( 15-C , 79-H ) :   0.9979 B( 16-C , 17-O ) :   2.2609 B( 16-C , 18-C ) :   0.9335
B( 18-C , 19-C ) :   1.6397 B( 19-C , 20-C ) :   1.1588 B( 19-C , 80-H ) :   0.9174
B( 20-C , 21-C ) :   1.4885 B( 20-C , 27-C ) :   0.1134 B( 20-C , 28-S ) :   1.0939
B( 21-C , 22-C ) :   1.2573 B( 21-C , 26-S ) :   1.0699 B( 22-C , 23-S ) :   1.0307
B( 22-C , 27-C ) :   1.5861 B( 23-S , 24-C ) :   1.0189 B( 24-C , 25-C ) :   1.0175
B( 24-C , 81-H ) :   0.9447 B( 24-C , 82-H ) :   0.9465 B( 25-C , 26-S ) :   1.0113
B( 25-C , 83-H ) :   0.9438 B( 25-C , 84-H ) :   0.9439 B( 27-C , 28-S ) :   1.1618
B( 27-C , 29-C ) :   0.9797 B( 29-C , 30-C ) :   1.6714 B( 29-C , 35-C ) :   1.0836
B( 30-C , 31-C ) :   1.0764 B( 30-C , 85-H ) :   1.0199 B( 31-C , 32-C ) :   1.0796
B( 31-C , 34-C ) :   1.6554 B( 32-C , 33-N ) :   2.9767 B( 34-C , 35-C ) :   1.0610
B( 34-C , 86-H ) :   0.9967 B( 35-C , 36-C ) :   1.5440 B( 36-C , 37-C ) :   1.0127
B( 36-C , 40-C ) :   1.0962 B( 37-C , 38-C ) :   1.5767 B( 37-C , 43-C ) :   1.1393
B( 38-C , 39-C ) :   1.1086 B( 38-C , 87-H ) :   1.0226 B( 39-C , 40-C ) :   1.6061
B( 39-C , 41-C ) :   1.0668 B( 40-C , 88-H ) :   1.0133 B( 41-C , 42-N ) :   3.0228
B( 43-C , 44-C ) :   1.6184 B( 43-C , 89-H ) :   0.9664 B( 44-C , 45-C ) :   1.2009
B( 44-C , 90-H ) :   0.9461 B( 45-C , 46-C ) :   1.4431 B( 45-C , 53-S ) :   1.0990
B( 46-C , 47-C ) :   1.3501 B( 46-C , 51-S ) :   1.0216 B( 47-C , 48-S ) :   1.0586
B( 47-C , 52-C ) :   1.4070 B( 48-S , 49-C ) :   1.0085 B( 49-C , 50-C ) :   1.0190
B( 49-C , 91-H ) :   0.9461 B( 49-C , 92-H ) :   0.9380 B( 50-C , 51-S ) :   1.0041
B( 50-C , 93-H ) :   0.9493 B( 50-C , 94-H ) :   0.9430 B( 52-C , 53-S ) :   1.0854
B( 52-C , 54-C ) :   1.2874 B( 54-C , 55-C ) :   1.5136 B( 54-C , 95-H ) :   0.9281
B( 55-C , 56-C ) :   1.0877 B( 55-C , 64-C ) :   0.9751 B( 56-C , 57-C ) :   1.6120
B( 56-C , 62-C ) :   0.9795 B( 57-C , 58-C ) :   1.1535 B( 57-C , 60-C ) :   1.1469
B( 58-C , 59-N ) :   2.9596 B( 60-C , 61-N ) :   2.9657 B( 62-C , 63-C ) :   1.2173
B( 62-C , 69-C ) :   1.4554 B( 63-C , 64-C ) :   0.9617 B( 63-C , 66-C ) :   1.4703
B( 64-C , 65-O ) :   2.1165 B( 66-C , 67-C ) :   1.1728 B( 66-C , 96-H ) :   1.0167
B( 67-C , 68-C ) :   1.2610 B( 67-C , 73-C ) :   1.2450 B( 68-C , 69-C ) :   1.2001
B( 68-C , 70-C ) :   1.2409 B( 69-C , 97-H ) :   0.9898 B( 70-C , 71-C ) :   1.4883
B( 70-C , 98-H ) :   0.9974 B( 71-C , 72-C ) :   1.2631 B( 71-C , 99-H ) :   0.9875
B( 72-C , 73-C ) :   1.4866 B( 72-C ,100-H ) :   0.9880 B( 73-C ,101-H ) :   0.9975

-----------------------------------------------------------------------------
         ABSORPTION SPECTRUM VIA TRANSITION ELECTRIC DIPOLE MOMENTS
-----------------------------------------------------------------------------
State   Energy  Wavelength   fosc         T2         TX        TY        TZ
        (cm-1)    (nm)                  (au**2)     (au)      (au)      (au)
-----------------------------------------------------------------------------
   0   10313.7    969.6   0.223300281   7.12771   0.55665  -1.56212   2.09228
   1   13527.9    739.2   0.028661962   0.69751   0.24355  -0.51947   0.60691
   2   16523.0    605.2   0.064201094   1.27917  -0.26939  -0.17590   1.08428
   3   18316.6    546.0   0.019740326   0.35480   0.05884  -0.54753   0.22704
   4   18837.5    530.9   0.899744318  15.72428  -0.16366  -2.64383   2.95088
   5   20592.8    485.6   0.001797122   0.02873   0.04234   0.11634   0.11577
   6   22072.5    453.1   0.068791641   1.02603  -0.48486   0.61793   0.63961
   7   23208.0    430.9   0.513939450   7.29036  -0.75770   1.34540  -2.21498
   8   23725.2    421.5   0.011153601   0.15477   0.38927  -0.05192  -0.02324
   9   23944.8    417.6   0.068167152   0.93721  -0.41101  -0.28359   0.82938
  10   24898.5    401.6   0.001714594   0.02267   0.05967  -0.13549   0.02742
  11   25094.6    398.5   0.041581785   0.54551   0.05363  -0.45281   0.58103
  12   25475.4    392.5   0.022978456   0.29695   0.00462   0.38374  -0.38687
  13   26427.8    378.4   0.076349732   0.95109   0.25640  -0.57294  -0.74638
  14   26520.1    377.1   0.003568811   0.04430  -0.07274  -0.15917  -0.11695
  15   27653.4    361.6   0.017624543   0.20982   0.00527   0.41407  -0.19580
  16   27693.3    361.1   0.024261382   0.28841   0.05576  -0.42987  -0.31704
  17   28193.7    354.7   0.053307003   0.62245   0.40956  -0.28052   0.61321
  18   28788.6    347.4   0.046611203   0.53302   0.32562   0.46027   0.46384
  19   29004.6    344.8   0.046555537   0.52842  -0.38140   0.07235  -0.61459
  20   29192.6    342.6   0.012649928   0.14266  -0.25179   0.25982   0.10840
  21   29733.8    336.3   0.090448006   1.00144   0.69747  -0.19548  -0.69048
  22   30222.2    330.9   0.033738631   0.36752   0.13100  -0.05209  -0.58961
  23   30327.5    329.7   0.040386162   0.43840   0.07262  -0.54739  -0.36537
  24   30687.1    325.9   0.071537811   0.76746   0.31842   0.19575  -0.79230
  25   30887.4    323.8   0.007334162   0.07817   0.22090  -0.04829  -0.16445
  26   31232.9    320.2   0.004088060   0.04309   0.10065  -0.16412  -0.07762
  27   31539.7    317.1   0.016233217   0.16944   0.05453   0.29996  -0.27657
  28   31762.0    314.8   0.178048405   1.84547   0.18194  -1.34248  -0.10052
  29   31871.5    313.8   0.028804118   0.29753  -0.21080   0.47096   0.17690
  30   32095.0    311.6   0.190105428   1.94999  -0.61602  -0.66179   1.06421
  31   32270.0    309.9   0.358689288   3.65927   0.30431   1.40756  -1.25915
  32   32307.3    309.5   0.048225396   0.49142  -0.11205  -0.42618   0.54519
  33   32827.0    304.6   0.580305702   5.81971  -0.63117   2.07568   1.05493
  34   33558.5    298.0   0.016579633   0.16265  -0.33010  -0.05356   0.22542
  35   33666.7    297.0   0.015827330   0.15477  -0.38831  -0.00686   0.06272
  36   33951.1    294.5   0.149468919   1.44935   0.21028   0.95719  -0.69922
  37   34038.7    293.8   0.042541607   0.41145   0.54107   0.16301  -0.30351
  38   34202.0    292.4   0.037826730   0.36410   0.21107  -0.56381  -0.04081
  39   34449.6    290.3   0.471000946   4.50104  -0.95577   1.37847   1.29899
  40   34600.2    289.0   0.191154557   1.81879  -0.22761  -1.09585  -0.75239
  41   34911.1    286.4   0.306182397   2.88730  -0.36877   0.79071   1.45811
  42   35012.6    285.6   0.192226691   1.80744  -0.03979  -1.33347   0.16651
  43   35822.6    279.2   0.240172191   2.20720  -0.10402   1.30692  -0.69882
  44   36273.5    275.7   0.044104139   0.40028  -0.07789  -0.10756  -0.61858
  45   36411.4    274.6   0.157159927   1.42095  -0.11488  -0.78878   0.88633
  46   36729.4    272.3   0.174759000   1.56640   0.28206  -1.16366   0.36431
  47   36951.0    270.6   0.042144257   0.37548  -0.14176  -0.33715   0.49165
  48   37188.6    268.9   0.017865655   0.15816   0.04739   0.07255   0.38813
  49   37269.6    268.3   0.013783427   0.12175   0.27917  -0.09154   0.18824
  50   37532.7    266.4   0.047916830   0.42029  -0.34910   0.50472  -0.20901
  51   38072.6    262.7   0.021504188   0.18595  -0.12722   0.13217   0.39025
  52   38528.8    259.5   0.027544251   0.23535   0.33745   0.28070  -0.20660
  53   38608.2    259.0   0.067435822   0.57502   0.32369   0.68458  -0.04002
  54   38841.5    257.5   0.025207584   0.21365  -0.17760  -0.40582   0.13201
  55   39113.7    255.7   0.078820602   0.66342  -0.43741   0.67914   0.10419
  56   39474.0    253.3   0.173338507   1.44564   0.77218  -0.91480   0.11192
  57   39496.3    253.2   0.119749833   0.99815   0.28227   0.91383  -0.28876
  58   39661.8    252.1   0.103696467   0.86073   0.08672   0.14189  -0.91273
  59   39884.8    250.7   0.010609223   0.08757   0.19519  -0.21010   0.07298
  60   39958.2    250.3   0.072103244   0.59405   0.61439   0.12190   0.44913
  61   40021.5    249.9   0.020158108   0.16582   0.36093  -0.15624  -0.10553
  62   40141.6    249.1   0.035714023   0.29290   0.49684  -0.21138  -0.03700

FINAL SINGLE POINT ENERGY     -5166.889829338623

DIPOLE MOMENT
-------------
                                X             Y             Z
Electronic contribution:    -10.32567      14.21191       4.71751
Nuclear contribution   :     10.81336     -17.17511      -5.03230
                        -----------------------------------------
Total Dipole Moment    :      0.48769      -2.96320      -0.31479
                        -----------------------------------------
Magnitude (a.u.)       :      3.01951
Magnitude (Debye)      :      7.67500

Rotational constants in cm-1:     0.002177     0.000253     0.000237
Rotational constants in MHz :    65.275151     7.576432     7.116194

                             ****ORCA TERMINATED NORMALLY****
TOTAL RUN TIME: 0 days 0 hours 14 minutes 8 seconds 95 msec
