                         Program Version 4.2.0 -  RELEASE  -
|  1> # ORCA input file
|  2> # SCF done       -183.628218000995          0.000827321586
|  3> ! CAM-B3LYP def2-SVP def2/J RIJCOSX Grid4 TightSCF
|  4> %maxcore 5000
|  5> %tddft
|  6>     Mode sTDDFT
|  7>     Ethresh 5.0
|  8>     maxcore 5000
|  9> end
| 10>
| 11> %pal
| 12>   nprocs 6
| 13>   end
| 14> * xyz 0 1
| 15>    C       -0.42495         4.73351        -9.54089
| 16>    C       -0.94891         4.32584       -10.74239
| 17>    C       -0.19442         3.74547       -11.78200
| 18>    N        0.35966         3.27051       -12.66889
| 19>    C       -2.30570         4.42870       -11.10900
| 20>    N       -3.39531         4.47931       -11.46992
| 21>    C        0.97753         4.63166        -9.14789
| 22>    C        1.12787         5.16486        -7.83500
| 23>    C        2.33824         5.19886        -7.20600
| 24>    C        3.47710         4.69105        -7.87142
| 25>    C        3.33516         4.15634        -9.18392
| 26>    C        2.06815         4.13510        -9.81118
| 27>    C        4.47688         3.65173        -9.83889
| 28>    C        5.70112         3.67292        -9.22803
| 29>    C        5.83983         4.19954        -7.93536
| 30>    C        4.75151         4.69790        -7.27168
| 31>    C       -0.18345         5.62719        -7.34347
| 32>    O       -0.43100         6.13680        -6.27051
| 33>    C       -1.14040         5.33809        -8.43955
| 34>    C       -2.47456         5.62346        -8.34856
| 35>    C       -3.03802         6.20498        -7.23617
| 36>    C       -3.56149         6.72320        -6.26412
| 37>    C       -4.10751         7.30921        -5.14737
| 38>    S       -5.81497         7.66395        -5.03696
| 39>    C       -5.59333         8.32983        -3.44055
| 40>    C       -4.26377         8.26629        -3.04428
| 41>    C       -3.43476         7.69548        -3.99715
| 42>    C       -6.65939         8.83564        -2.72941
| 43>    C       -7.62633         9.27639        -2.13120
| 44>    C       -8.70780         9.77832        -1.43996
| 45>    C       -8.61192        10.34860        -0.20073
| 46>    C       -9.71212        10.85549         0.50137
| 47>    C       -9.64009        11.44301         1.74274
| 48>    C      -10.71308        11.97192         2.49801
| 49>    C      -10.34630        12.50341         3.69834
| 50>    C       -8.96100        12.42579         3.95825
| 51>    S       -8.13640        11.64684         2.62682
| 52>    C       -8.27427        12.88446         5.06768
| 53>    C       -8.79844        13.53880         6.20480
| 54>    C       -7.85678        13.89117         7.12429
| 55>    C       -6.53624        13.53311         6.76209
| 56>    S       -6.53687        12.71732         5.20678
| 57>    C       -5.37701        13.77369         7.45790
| 58>    C       -4.15056        13.37967         6.97998
| 59>    C       -3.11211        12.99602         6.46631
| 60>    C       -1.94970        12.56759         5.86891
| 61>    S       -0.37362        12.99597         6.48011
| 62>    C        0.39209        12.10194         5.18911
| 63>    C       -0.54793        11.51165         4.35710
| 64>    C       -1.85569        11.77439         4.73273
| 65>    C        1.76205        12.05329         5.05887
| 66>    C        2.97483        12.03135         4.93786
| 67>    C        4.33945        11.98097         4.74534
| 68>    C        5.23668        12.71130         5.46749
| 69>    C        6.61807        12.62952         5.20279
| 70>    C        7.59073        13.35500         5.83804
| 71>    C        9.01518        13.29824         5.58249
| 72>    C        9.66777        12.47235         4.70033
| 73>    C       11.06446        12.46399         4.50810
| 74>    N       12.19204        12.40140         4.29811
| 75>    C        9.06232        11.51221         3.86507
| 76>    N        8.65336        10.70677         3.15464
| 77>    C        9.66226        14.28013         6.44767
| 78>    C        8.66459        14.91706         7.23868
| 79>    C        7.34136        14.36274         6.89767
| 80>    O        6.27795        14.68081         7.39065
| 81>    C        8.97302        15.88819         8.14611
| 82>    C       10.32183        16.27782         8.30735
| 83>    C       11.32636        15.64744         7.51868
| 84>    C       10.97560        14.64297         6.58725
| 85>    C       12.66870        16.04430         7.68527
| 86>    C       13.00467        17.01679         8.58729
| 87>    C       12.01451        17.63679         9.36367
| 88>    C       10.70171        17.27507         9.22660
| 89>    H        2.42676         5.60776        -6.21032
| 90>    H        1.99432         3.72328       -10.80517
| 91>    H        4.36463         3.24729       -10.83426
| 92>    H        6.56970         3.28362        -9.73789
| 93>    H        6.81318         4.20848        -7.46788
| 94>    H        4.85260         5.10479        -6.27605
| 95>    H       -3.14948         5.39595        -9.16363
| 96>    H       -3.93474         8.62989        -2.08715
| 97>    H       -2.37448         7.55158        -3.89067
| 98>    H       -9.67275         9.70325        -1.92681
| 99>    H       -7.63920        10.41764         0.26993
|100>    H      -10.69099        10.78697         0.04384
|101>    H      -11.72336        11.94403         2.12924
|102>    H      -11.03167        12.94840         4.39707
|103>    H       -9.85027        13.73428         6.31279
|104>    H       -8.06704        14.39923         8.04909
|105>    H       -5.42346        14.29913         8.40166
|106>    H       -0.26566        10.91870         3.50540
|107>    H       -2.72698        11.41344         4.21605
|108>    H        4.69001        11.32200         3.95779
|109>    H        4.89271        13.37389         6.24757
|110>    H        6.91580        11.94036         4.42219
|111>    H        8.19633        16.35543         8.73340
|112>    H       11.76065        14.18721         6.00528
|113>    H       13.42742        15.56361         7.08508
|114>    H       14.03586        17.31376         8.70750
|115>    H       12.29706        18.40244        10.07086
|116>    H        9.93470        17.74912         9.82170
|117> *
|118>
|119>                          ****END OF INPUT****

CARTESIAN COORDINATES (ANGSTROEM)
---------------------------------
  C     -0.424950    4.733510   -9.540890
  C     -0.948910    4.325840  -10.742390
  C     -0.194420    3.745470  -11.782000
  N      0.359660    3.270510  -12.668890
  C     -2.305700    4.428700  -11.109000
  N     -3.395310    4.479310  -11.469920
  C      0.977530    4.631660   -9.147890
  C      1.127870    5.164860   -7.835000
  C      2.338240    5.198860   -7.206000
  C      3.477100    4.691050   -7.871420
  C      3.335160    4.156340   -9.183920
  C      2.068150    4.135100   -9.811180
  C      4.476880    3.651730   -9.838890
  C      5.701120    3.672920   -9.228030
  C      5.839830    4.199540   -7.935360
  C      4.751510    4.697900   -7.271680
  C     -0.183450    5.627190   -7.343470
  O     -0.431000    6.136800   -6.270510
  C     -1.140400    5.338090   -8.439550
  C     -2.474560    5.623460   -8.348560
  C     -3.038020    6.204980   -7.236170
  C     -3.561490    6.723200   -6.264120
  C     -4.107510    7.309210   -5.147370
  S     -5.814970    7.663950   -5.036960
  C     -5.593330    8.329830   -3.440550
  C     -4.263770    8.266290   -3.044280
  C     -3.434760    7.695480   -3.997150
  C     -6.659390    8.835640   -2.729410
  C     -7.626330    9.276390   -2.131200
  C     -8.707800    9.778320   -1.439960
  C     -8.611920   10.348600   -0.200730
  C     -9.712120   10.855490    0.501370
  C     -9.640090   11.443010    1.742740
  C    -10.713080   11.971920    2.498010
  C    -10.346300   12.503410    3.698340
  C     -8.961000   12.425790    3.958250
  S     -8.136400   11.646840    2.626820
  C     -8.274270   12.884460    5.067680
  C     -8.798440   13.538800    6.204800
  C     -7.856780   13.891170    7.124290
  C     -6.536240   13.533110    6.762090
  S     -6.536870   12.717320    5.206780
  C     -5.377010   13.773690    7.457900
  C     -4.150560   13.379670    6.979980
  C     -3.112110   12.996020    6.466310
  C     -1.949700   12.567590    5.868910
  S     -0.373620   12.995970    6.480110
  C      0.392090   12.101940    5.189110
  C     -0.547930   11.511650    4.357100
  C     -1.855690   11.774390    4.732730
  C      1.762050   12.053290    5.058870
  C      2.974830   12.031350    4.937860
  C      4.339450   11.980970    4.745340
  C      5.236680   12.711300    5.467490
  C      6.618070   12.629520    5.202790
  C      7.590730   13.355000    5.838040
  C      9.015180   13.298240    5.582490
  C      9.667770   12.472350    4.700330
  C     11.064460   12.463990    4.508100
  N     12.192040   12.401400    4.298110
  C      9.062320   11.512210    3.865070
  N      8.653360   10.706770    3.154640
  C      9.662260   14.280130    6.447670
  C      8.664590   14.917060    7.238680
  C      7.341360   14.362740    6.897670
  O      6.277950   14.680810    7.390650
  C      8.973020   15.888190    8.146110
  C     10.321830   16.277820    8.307350
  C     11.326360   15.647440    7.518680
  C     10.975600   14.642970    6.587250
  C     12.668700   16.044300    7.685270
  C     13.004670   17.016790    8.587290
  C     12.014510   17.636790    9.363670
  C     10.701710   17.275070    9.226600
  H      2.426760    5.607760   -6.210320
  H      1.994320    3.723280  -10.805170
  H      4.364630    3.247290  -10.834260
  H      6.569700    3.283620   -9.737890
  H      6.813180    4.208480   -7.467880
  H      4.852600    5.104790   -6.276050
  H     -3.149480    5.395950   -9.163630
  H     -3.934740    8.629890   -2.087150
  H     -2.374480    7.551580   -3.890670
  H     -9.672750    9.703250   -1.926810
  H     -7.639200   10.417640    0.269930
  H    -10.690990   10.786970    0.043840
  H    -11.723360   11.944030    2.129240
  H    -11.031670   12.948400    4.397070
  H     -9.850270   13.734280    6.312790
  H     -8.067040   14.399230    8.049090
  H     -5.423460   14.299130    8.401660
  H     -0.265660   10.918700    3.505400
  H     -2.726980   11.413440    4.216050
  H      4.690010   11.322000    3.957790
  H      4.892710   13.373890    6.247570
  H      6.915800   11.940360    4.422190
  H      8.196330   16.355430    8.733400
  H     11.760650   14.187210    6.005280
  H     13.427420   15.563610    7.085080
  H     14.035860   17.313760    8.707500
  H     12.297060   18.402440   10.070860
  H      9.934700   17.749120    9.821700

 Total Charge           Charge          ....    0
 Multiplicity           Mult            ....    1
 Number of Electrons    NEL             ....  520
 Basis Dimension        Dim             .... 1192

ORBITAL ENERGIES
----------------

  NO   OCC          E(Eh)            E(eV)
   0   2.0000     -88.970762     -2421.0175
   1   2.0000     -88.969716     -2420.9891
   2   2.0000     -88.957172     -2420.6477
   3   2.0000     -88.955463     -2420.6012
   4   2.0000     -19.210320      -522.7394
   5   2.0000     -19.208805      -522.6981
   6   2.0000     -14.412325      -392.1793
   7   2.0000     -14.412051      -392.1719
   8   2.0000     -14.410030      -392.1168
   9   2.0000     -14.409174      -392.0935
  10   2.0000     -10.361057      -281.9387
  11   2.0000     -10.359004      -281.8828
  12   2.0000     -10.337123      -281.2874
  13   2.0000     -10.336096      -281.2595
  14   2.0000     -10.335764      -281.2504
  15   2.0000     -10.335074      -281.2317
  16   2.0000     -10.330086      -281.0959
  17   2.0000     -10.328345      -281.0485
  18   2.0000     -10.324904      -280.9549
  19   2.0000     -10.324329      -280.9393
  20   2.0000     -10.323684      -280.9217
  21   2.0000     -10.323477      -280.9161
  22   2.0000     -10.322505      -280.8897
  23   2.0000     -10.322160      -280.8802
  24   2.0000     -10.321315      -280.8573
  25   2.0000     -10.315159      -280.6898
  26   2.0000     -10.315146      -280.6894
  27   2.0000     -10.314773      -280.6792
  28   2.0000     -10.313043      -280.6322
  29   2.0000     -10.312525      -280.6181
  30   2.0000     -10.309927      -280.5474
  31   2.0000     -10.301344      -280.3138
  32   2.0000     -10.301168      -280.3090
  33   2.0000     -10.300250      -280.2841
  34   2.0000     -10.299066      -280.2518
  35   2.0000     -10.297843      -280.2186
  36   2.0000     -10.297664      -280.2137
  37   2.0000     -10.297512      -280.2095
  38   2.0000     -10.296313      -280.1769
  39   2.0000     -10.296264      -280.1756
  40   2.0000     -10.295343      -280.1505
  41   2.0000     -10.295265      -280.1484
  42   2.0000     -10.294350      -280.1235
  43   2.0000     -10.293474      -280.0997
  44   2.0000     -10.293147      -280.0908
  45   2.0000     -10.292980      -280.0862
  46   2.0000     -10.292665      -280.0777
  47   2.0000     -10.292649      -280.0772
  48   2.0000     -10.292447      -280.0717
  49   2.0000     -10.292046      -280.0608
  50   2.0000     -10.291842      -280.0553
  51   2.0000     -10.291747      -280.0527
  52   2.0000     -10.291610      -280.0490
  53   2.0000     -10.291343      -280.0417
  54   2.0000     -10.291214      -280.0382
  55   2.0000     -10.288375      -279.9609
  56   2.0000     -10.288129      -279.9542
  57   2.0000     -10.287432      -279.9353
  58   2.0000     -10.287211      -279.9292
  59   2.0000     -10.287210      -279.9292
  60   2.0000     -10.285884      -279.8931
  61   2.0000     -10.285500      -279.8827
  62   2.0000     -10.284916      -279.8668
  63   2.0000     -10.283886      -279.8388
  64   2.0000     -10.283145      -279.8186
  65   2.0000     -10.283118      -279.8179
  66   2.0000     -10.283095      -279.8172
  67   2.0000     -10.282509      -279.8013
  68   2.0000     -10.282254      -279.7944
  69   2.0000     -10.282242      -279.7940
  70   2.0000     -10.281748      -279.7806
  71   2.0000     -10.281623      -279.7772
  72   2.0000     -10.281435      -279.7721
  73   2.0000     -10.280963      -279.7592
  74   2.0000      -8.066131      -219.4906
  75   2.0000      -8.065234      -219.4662
  76   2.0000      -8.053569      -219.1487
  77   2.0000      -8.051748      -219.0992
  78   2.0000      -6.035503      -164.2344
  79   2.0000      -6.034548      -164.2084
  80   2.0000      -6.031283      -164.1196
  81   2.0000      -6.030362      -164.0945
  82   2.0000      -6.028100      -164.0330
  83   2.0000      -6.027248      -164.0098
  84   2.0000      -6.023270      -163.9015
  85   2.0000      -6.021508      -163.8536
  86   2.0000      -6.019296      -163.7934
  87   2.0000      -6.017469      -163.7437
  88   2.0000      -6.014449      -163.6615
  89   2.0000      -6.012569      -163.6103
  90   2.0000      -1.124080       -30.5878
  91   2.0000      -1.122138       -30.5349
  92   2.0000      -1.013374       -27.5753
  93   2.0000      -1.013085       -27.5675
  94   2.0000      -1.007810       -27.4239
  95   2.0000      -0.996685       -27.1212
  96   2.0000      -0.996109       -27.1055
  97   2.0000      -0.993849       -27.0440
  98   2.0000      -0.993695       -27.0398
  99   2.0000      -0.989225       -26.9182
 100   2.0000      -0.988715       -26.9043
 101   2.0000      -0.986101       -26.8332
 102   2.0000      -0.967065       -26.3152
 103   2.0000      -0.967063       -26.3151
 104   2.0000      -0.931263       -25.3409
 105   2.0000      -0.926818       -25.2200
 106   2.0000      -0.922741       -25.1090
 107   2.0000      -0.916278       -24.9332
 108   2.0000      -0.910474       -24.7752
 109   2.0000      -0.907963       -24.7069
 110   2.0000      -0.895923       -24.3793
 111   2.0000      -0.891691       -24.2641
 112   2.0000      -0.885231       -24.0884
 113   2.0000      -0.878730       -23.9115
 114   2.0000      -0.876550       -23.8521
 115   2.0000      -0.875633       -23.8272
 116   2.0000      -0.870153       -23.6781
 117   2.0000      -0.861294       -23.4370
 118   2.0000      -0.858698       -23.3664
 119   2.0000      -0.847523       -23.0623
 120   2.0000      -0.846130       -23.0244
 121   2.0000      -0.836861       -22.7721
 122   2.0000      -0.834245       -22.7010
 123   2.0000      -0.828945       -22.5567
 124   2.0000      -0.823849       -22.4181
 125   2.0000      -0.823364       -22.4049
 126   2.0000      -0.818794       -22.2805
 127   2.0000      -0.807826       -21.9821
 128   2.0000      -0.795025       -21.6337
 129   2.0000      -0.784411       -21.3449
 130   2.0000      -0.775886       -21.1129
 131   2.0000      -0.756763       -20.5926
 132   2.0000      -0.756514       -20.5858
 133   2.0000      -0.753834       -20.5129
 134   2.0000      -0.733106       -19.9488
 135   2.0000      -0.725090       -19.7307
 136   2.0000      -0.714333       -19.4380
 137   2.0000      -0.703551       -19.1446
 138   2.0000      -0.699753       -19.0412
 139   2.0000      -0.699044       -19.0220
 140   2.0000      -0.698070       -18.9954
 141   2.0000      -0.691712       -18.8225
 142   2.0000      -0.690237       -18.7823
 143   2.0000      -0.679100       -18.4793
 144   2.0000      -0.678381       -18.4597
 145   2.0000      -0.671339       -18.2681
 146   2.0000      -0.670697       -18.2506
 147   2.0000      -0.666784       -18.1441
 148   2.0000      -0.660073       -17.9615
 149   2.0000      -0.653324       -17.7778
 150   2.0000      -0.638017       -17.3613
 151   2.0000      -0.636403       -17.3174
 152   2.0000      -0.633919       -17.2498
 153   2.0000      -0.630720       -17.1628
 154   2.0000      -0.623967       -16.9790
 155   2.0000      -0.623026       -16.9534
 156   2.0000      -0.622542       -16.9402
 157   2.0000      -0.620320       -16.8798
 158   2.0000      -0.619132       -16.8474
 159   2.0000      -0.602565       -16.3966
 160   2.0000      -0.602246       -16.3879
 161   2.0000      -0.601181       -16.3590
 162   2.0000      -0.589489       -16.0408
 163   2.0000      -0.587430       -15.9848
 164   2.0000      -0.579962       -15.7816
 165   2.0000      -0.570584       -15.5264
 166   2.0000      -0.561242       -15.2722
 167   2.0000      -0.559258       -15.2182
 168   2.0000      -0.554556       -15.0902
 169   2.0000      -0.551035       -14.9944
 170   2.0000      -0.544348       -14.8125
 171   2.0000      -0.542175       -14.7533
 172   2.0000      -0.541425       -14.7329
 173   2.0000      -0.540417       -14.7055
 174   2.0000      -0.536308       -14.5937
 175   2.0000      -0.535328       -14.5670
 176   2.0000      -0.532154       -14.4807
 177   2.0000      -0.531682       -14.4678
 178   2.0000      -0.531579       -14.4650
 179   2.0000      -0.527049       -14.3417
 180   2.0000      -0.518506       -14.1093
 181   2.0000      -0.515888       -14.0380
 182   2.0000      -0.515136       -14.0176
 183   2.0000      -0.514460       -13.9992
 184   2.0000      -0.512546       -13.9471
 185   2.0000      -0.509795       -13.8722
 186   2.0000      -0.509504       -13.8643
 187   2.0000      -0.508135       -13.8271
 188   2.0000      -0.505292       -13.7497
 189   2.0000      -0.501380       -13.6432
 190   2.0000      -0.500263       -13.6128
 191   2.0000      -0.498523       -13.5655
 192   2.0000      -0.497681       -13.5426
 193   2.0000      -0.497013       -13.5244
 194   2.0000      -0.492040       -13.3891
 195   2.0000      -0.491912       -13.3856
 196   2.0000      -0.491793       -13.3824
 197   2.0000      -0.491255       -13.3677
 198   2.0000      -0.489602       -13.3227
 199   2.0000      -0.486744       -13.2450
 200   2.0000      -0.482809       -13.1379
 201   2.0000      -0.482094       -13.1184
 202   2.0000      -0.481511       -13.1026
 203   2.0000      -0.480426       -13.0731
 204   2.0000      -0.473350       -12.8805
 205   2.0000      -0.468770       -12.7559
 206   2.0000      -0.460649       -12.5349
 207   2.0000      -0.459242       -12.4966
 208   2.0000      -0.451976       -12.2989
 209   2.0000      -0.447807       -12.1854
 210   2.0000      -0.446536       -12.1509
 211   2.0000      -0.444988       -12.1087
 212   2.0000      -0.444843       -12.1048
 213   2.0000      -0.440339       -11.9822
 214   2.0000      -0.440160       -11.9774
 215   2.0000      -0.439336       -11.9549
 216   2.0000      -0.438464       -11.9312
 217   2.0000      -0.436394       -11.8749
 218   2.0000      -0.435992       -11.8640
 219   2.0000      -0.435945       -11.8627
 220   2.0000      -0.434380       -11.8201
 221   2.0000      -0.429847       -11.6967
 222   2.0000      -0.429444       -11.6858
 223   2.0000      -0.427810       -11.6413
 224   2.0000      -0.426964       -11.6183
 225   2.0000      -0.425963       -11.5911
 226   2.0000      -0.421809       -11.4780
 227   2.0000      -0.421024       -11.4566
 228   2.0000      -0.415674       -11.3111
 229   2.0000      -0.414871       -11.2892
 230   2.0000      -0.412157       -11.2154
 231   2.0000      -0.408857       -11.1256
 232   2.0000      -0.403380       -10.9765
 233   2.0000      -0.401117       -10.9149
 234   2.0000      -0.398429       -10.8418
 235   2.0000      -0.387163       -10.5352
 236   2.0000      -0.378171       -10.2906
 237   2.0000      -0.372339       -10.1319
 238   2.0000      -0.368158       -10.0181
 239   2.0000      -0.364564        -9.9203
 240   2.0000      -0.359080        -9.7711
 241   2.0000      -0.357822        -9.7368
 242   2.0000      -0.350811        -9.5460
 243   2.0000      -0.349086        -9.4991
 244   2.0000      -0.348216        -9.4754
 245   2.0000      -0.342194        -9.3116
 246   2.0000      -0.337142        -9.1741
 247   2.0000      -0.336666        -9.1612
 248   2.0000      -0.332768        -9.0551
 249   2.0000      -0.329784        -8.9739
 250   2.0000      -0.320997        -8.7348
 251   2.0000      -0.318723        -8.6729
 252   2.0000      -0.313074        -8.5192
 253   2.0000      -0.310985        -8.4623
 254   2.0000      -0.299563        -8.1515
 255   2.0000      -0.290842        -7.9142
 256   2.0000      -0.288151        -7.8410
 257   2.0000      -0.271977        -7.4009
 258   2.0000      -0.255806        -6.9608
 259   2.0000      -0.217347        -5.9143
 260   0.0000      -0.109550        -2.9810
 261   0.0000      -0.098282        -2.6744
 262   0.0000      -0.085558        -2.3282
 263   0.0000      -0.056127        -1.5273
 264   0.0000      -0.052552        -1.4300

MULLIKEN ATOMIC CHARGES
-----------------------
   0 C :    0.333858
   1 C :   -0.356818
   2 C :   -0.182140
   3 N :    0.148839
   4 C :   -0.190843
   5 N :    0.153570
   6 C :    0.046855
   7 C :   -0.018134
   8 C :   -0.075513
   9 C :    0.096715
  10 C :    0.093055
  11 C :   -0.080744
  12 C :   -0.017695
  13 C :    0.036759
  14 C :    0.034555
  15 C :   -0.013912
  16 C :    0.148287
  17 O :   -0.138980
  18 C :   -0.100495
  19 C :   -0.091415
  20 C :    0.025339
  21 C :    0.109562
  22 C :   -0.198725
  23 S :    0.202707
  24 C :   -0.139186
  25 C :    0.048872
  26 C :    0.070764
  27 C :    0.058486
  28 C :    0.001782
  29 C :   -0.103810
  30 C :    0.028300
  31 C :   -0.019678
  32 C :   -0.010771
  33 C :    0.035848
  34 C :    0.029129
  35 C :   -0.047064
  36 S :    0.085008
  37 C :   -0.058609
  38 C :    0.032079
  39 C :    0.041348
  40 C :   -0.026993
  41 S :    0.109956
  42 C :   -0.086509
  43 C :   -0.050453
  44 C :    0.084416
  45 C :   -0.146836
  46 S :    0.204625
  47 C :   -0.161068
  48 C :    0.061750
  49 C :    0.046559
  50 C :    0.075712
  51 C :    0.007820
  52 C :   -0.068847
  53 C :    0.010903
  54 C :   -0.045617
  55 C :   -0.063292
  56 C :    0.337352
  57 C :   -0.357002
  58 C :   -0.182470
  59 N :    0.145093
  60 C :   -0.189195
  61 N :    0.139872
  62 C :    0.045299
  63 C :   -0.007279
  64 C :    0.144232
  65 O :   -0.151159
  66 C :   -0.079624
  67 C :    0.098153
  68 C :    0.094301
  69 C :   -0.082526
  70 C :   -0.019248
  71 C :    0.035370
  72 C :    0.034797
  73 C :   -0.016089
  74 H :   -0.017447
  75 H :   -0.010963
  76 H :   -0.010571
  77 H :   -0.006099
  78 H :   -0.005351
  79 H :   -0.018570
  80 H :    0.050003
  81 H :   -0.004504
  82 H :    0.016822
  83 H :    0.025543
  84 H :    0.014626
  85 H :   -0.009435
  86 H :   -0.007054
  87 H :   -0.008347
  88 H :   -0.009056
  89 H :   -0.006532
  90 H :    0.017394
  91 H :   -0.000518
  92 H :   -0.000622
  93 H :    0.047918
  94 H :    0.039397
  95 H :    0.011054
  96 H :   -0.015015
  97 H :   -0.010890
  98 H :   -0.009839
  99 H :   -0.006527
 100 H :   -0.006143
 101 H :   -0.018458
Sum of atomic charges:   -0.0000000

LOEWDIN ATOMIC CHARGES
----------------------
   0 C :    0.074004
   1 C :   -0.139877
   2 C :   -0.017392
   3 N :   -0.055183
   4 C :   -0.019398
   5 N :   -0.052377
   6 C :   -0.025593
   7 C :   -0.054956
   8 C :    0.029769
   9 C :   -0.008157
  10 C :   -0.007115
  11 C :    0.019131
  12 C :   -0.005495
  13 C :   -0.014370
  14 C :   -0.012583
  15 C :   -0.010026
  16 C :    0.080757
  17 O :   -0.139365
  18 C :   -0.080133
  19 C :    0.049334
  20 C :   -0.023896
  21 C :   -0.002175
  22 C :   -0.196303
  23 S :    0.473295
  24 C :   -0.165914
  25 C :   -0.040006
  26 C :   -0.004600
  27 C :   -0.064057
  28 C :   -0.010935
  29 C :   -0.045859
  30 C :   -0.000616
  31 C :   -0.056380
  32 C :   -0.137141
  33 C :   -0.030366
  34 C :   -0.027257
  35 C :   -0.171938
  36 S :    0.378042
  37 C :   -0.177868
  38 C :   -0.024393
  39 C :   -0.034401
  40 C :   -0.122901
  41 S :    0.388301
  42 C :   -0.082059
  43 C :   -0.026014
  44 C :   -0.058503
  45 C :   -0.171852
  46 S :    0.473241
  47 C :   -0.194282
  48 C :   -0.020077
  49 C :   -0.037705
  50 C :   -0.025391
  51 C :   -0.029551
  52 C :    0.012716
  53 C :   -0.013973
  54 C :    0.064752
  55 C :   -0.093444
  56 C :    0.076177
  57 C :   -0.143208
  58 C :   -0.017012
  59 N :   -0.058227
  60 C :   -0.019796
  61 N :   -0.058039
  62 C :   -0.025366
  63 C :   -0.054526
  64 C :    0.083440
  65 O :   -0.146923
  66 C :    0.030196
  67 C :   -0.008524
  68 C :   -0.006914
  69 C :    0.018422
  70 C :   -0.005605
  71 C :   -0.014954
  72 C :   -0.013611
  73 C :   -0.010357
  74 H :    0.037821
  75 H :    0.038609
  76 H :    0.034369
  77 H :    0.032763
  78 H :    0.032690
  79 H :    0.031574
  80 H :    0.059532
  81 H :    0.037077
  82 H :    0.045932
  83 H :    0.044050
  84 H :    0.030096
  85 H :    0.035104
  86 H :    0.035811
  87 H :    0.033881
  88 H :    0.033405
  89 H :    0.035888
  90 H :    0.046758
  91 H :    0.038674
  92 H :    0.037913
  93 H :    0.051998
  94 H :    0.040275
  95 H :    0.041878
  96 H :    0.038188
  97 H :    0.038494
  98 H :    0.034430
  99 H :    0.032535
 100 H :    0.032233
 101 H :    0.031388

  Mayer bond orders larger than 0.100000
B(  0-C ,  1-C ) :   1.6258 B(  0-C ,  6-C ) :   0.9930 B(  0-C , 18-C ) :   1.0620
B(  1-C ,  2-C ) :   1.1471 B(  1-C ,  4-C ) :   1.1528 B(  2-C ,  3-N ) :   2.9614
B(  4-C ,  5-N ) :   2.9665 B(  6-C ,  7-C ) :   1.2142 B(  6-C , 11-C ) :   1.4518
B(  7-C ,  8-C ) :   1.4831 B(  7-C , 16-C ) :   0.9300 B(  8-C ,  9-C ) :   1.1775
B(  8-C , 74-H ) :   1.0141 B(  9-C , 10-C ) :   1.2580 B(  9-C , 15-C ) :   1.2450
B( 10-C , 11-C ) :   1.2065 B( 10-C , 12-C ) :   1.2404 B( 11-C , 75-H ) :   0.9878
B( 12-C , 13-C ) :   1.4897 B( 12-C , 76-H ) :   0.9963 B( 13-C , 14-C ) :   1.2600
B( 13-C , 77-H ) :   0.9885 B( 14-C , 15-C ) :   1.4880 B( 14-C , 78-H ) :   0.9889
B( 15-C , 79-H ) :   0.9968 B( 16-C , 17-O ) :   2.2563 B( 16-C , 18-C ) :   0.9368
B( 18-C , 19-C ) :   1.6008 B( 19-C , 20-C ) :   1.0611 B( 19-C , 80-H ) :   0.9340
B( 20-C , 21-C ) :   2.1377 B( 21-C , 22-C ) :   1.0242 B( 22-C , 23-S ) :   1.0937
B( 22-C , 24-C ) :   0.1021 B( 22-C , 26-C ) :   1.4520 B( 23-S , 24-C ) :   1.1308
B( 24-C , 25-C ) :   1.4473 B( 24-C , 27-C ) :   0.9953 B( 25-C , 26-C ) :   1.3023
B( 25-C , 81-H ) :   1.0013 B( 26-C , 82-H ) :   1.0011 B( 27-C , 28-C ) :   2.2354
B( 28-C , 29-C ) :   1.0240 B( 29-C , 30-C ) :   1.6263 B( 29-C , 83-H ) :   0.9624
B( 30-C , 31-C ) :   1.1794 B( 30-C , 84-H ) :   0.9759 B( 31-C , 32-C ) :   1.5465
B( 31-C , 85-H ) :   0.9804 B( 32-C , 33-C ) :   1.1516 B( 32-C , 36-S ) :   1.0381
B( 33-C , 34-C ) :   1.5786 B( 33-C , 86-H ) :   1.0004 B( 34-C , 35-C ) :   1.1984
B( 34-C , 87-H ) :   0.9940 B( 35-C , 36-S ) :   1.0526 B( 35-C , 37-C ) :   1.4988
B( 37-C , 38-C ) :   1.1948 B( 37-C , 41-S ) :   1.0473 B( 38-C , 39-C ) :   1.5910
B( 38-C , 88-H ) :   0.9934 B( 39-C , 40-C ) :   1.1510 B( 39-C , 89-H ) :   0.9962
B( 40-C , 41-S ) :   1.0498 B( 40-C , 42-C ) :   1.5945 B( 42-C , 43-C ) :   1.0666
B( 42-C , 90-H ) :   0.9604 B( 43-C , 44-C ) :   2.2245 B( 44-C , 45-C ) :   1.0060
B( 45-C , 46-S ) :   1.1206 B( 45-C , 47-C ) :   0.1010 B( 45-C , 49-C ) :   1.4522
B( 46-S , 47-C ) :   1.0957 B( 47-C , 48-C ) :   1.4538 B( 47-C , 50-C ) :   1.0148
B( 48-C , 49-C ) :   1.3060 B( 48-C , 91-H ) :   0.9996 B( 49-C , 92-H ) :   1.0004
B( 50-C , 51-C ) :   2.2185 B( 51-C , 52-C ) :   0.9981 B( 52-C , 53-C ) :   1.5699
B( 52-C , 93-H ) :   0.9644 B( 53-C , 54-C ) :   1.1819 B( 53-C , 94-H ) :   0.9844
B( 54-C , 55-C ) :   1.5303 B( 54-C , 95-H ) :   0.9559 B( 55-C , 56-C ) :   1.0758
B( 55-C , 64-C ) :   0.9456 B( 56-C , 57-C ) :   1.6160 B( 56-C , 62-C ) :   0.9859
B( 57-C , 58-C ) :   1.1481 B( 57-C , 60-C ) :   1.1484 B( 58-C , 59-N ) :   2.9593
B( 60-C , 61-N ) :   2.9572 B( 62-C , 63-C ) :   1.2161 B( 62-C , 69-C ) :   1.4517
B( 63-C , 64-C ) :   0.9417 B( 63-C , 66-C ) :   1.4759 B( 64-C , 65-O ) :   2.2085
B( 66-C , 67-C ) :   1.1789 B( 66-C , 96-H ) :   1.0151 B( 67-C , 68-C ) :   1.2572
B( 67-C , 73-C ) :   1.2433 B( 68-C , 69-C ) :   1.2055 B( 68-C , 70-C ) :   1.2409
B( 69-C , 97-H ) :   0.9886 B( 70-C , 71-C ) :   1.4903 B( 70-C , 98-H ) :   0.9969
B( 71-C , 72-C ) :   1.2585 B( 71-C , 99-H ) :   0.9888 B( 72-C , 73-C ) :   1.4892
B( 72-C ,100-H ) :   0.9892 B( 73-C ,101-H ) :   0.9975

-----------------------------------------------------------------------------
         ABSORPTION SPECTRUM VIA TRANSITION ELECTRIC DIPOLE MOMENTS
-----------------------------------------------------------------------------
State   Energy  Wavelength   fosc         T2         TX        TY        TZ
        (cm-1)    (nm)                  (au**2)     (au)      (au)      (au)
-----------------------------------------------------------------------------
   0   11287.9    885.9   1.414620444  41.25749  -3.00956  -2.58691  -5.05054
   1   15935.9    627.5   1.505119677  31.09359  -4.91039   1.20782   2.35007
   2   18800.0    531.9   0.082855277   1.45091  -1.13131   0.33924  -0.23656
   3   19523.3    512.2   1.544335427  26.04144  -4.54720   1.03959   2.06971
   4   22133.7    451.8   0.185838080   2.76412  -0.67612  -1.05143  -1.09612
   5   24286.5    411.8   0.303646949   4.11604  -1.81251   0.43739   0.79970
   6   24474.8    408.6   0.000534567   0.00719   0.06923  -0.02731  -0.04065
   7   25151.4    397.6   0.058512035   0.76588  -0.33763   0.49555   0.63742
   8   25496.3    392.2   0.110051421   1.42100  -1.11153   0.34512   0.25767
   9   25771.7    388.0   0.028378155   0.36251  -0.49812   0.29544   0.16462
  10   25865.4    386.6   0.079929869   1.01734  -0.92347  -0.33164  -0.23356
  11   26884.4    372.0   0.028151675   0.34473   0.46421  -0.35217   0.07224
  12   27154.0    368.3   0.000255565   0.00310   0.03065   0.02020   0.04185
  13   27420.0    364.7   0.098753870   1.18567  -0.09583  -0.68467  -0.84126
  14   28405.0    352.1   0.042662963   0.49446   0.60712  -0.13616  -0.32761
  15   28954.9    345.4   0.037448811   0.42579  -0.57451   0.27206  -0.14735
  16   29144.6    343.1   0.160282845   1.81053   1.29618   0.21809   0.28789
  17   29740.9    336.2   0.003429026   0.03796  -0.14815  -0.01646  -0.12545
  18   30053.8    332.7   0.087157757   0.95473  -0.06845  -0.54922  -0.80524
  19   30762.2    325.1   0.068168055   0.72952  -0.33558  -0.36025  -0.69795
  20   31735.4    315.1   0.275943287   2.86254   0.90002   0.94797   1.07417
  21   31810.4    314.4   0.000187332   0.00194   0.02528  -0.00633   0.03549
  22   31913.6    313.3   0.097704908   1.00790  -0.11680  -0.60453  -0.79297
  23   32106.6    311.5   0.120626617   1.23687   0.98993  -0.50013   0.08229
  24   32925.9    303.7   0.075026434   0.75016  -0.74396  -0.27675  -0.34654
  25   33108.1    302.0   0.245425046   2.44039  -1.28168  -0.48242  -0.75164
  26   33268.5    300.6   0.135357227   1.33944   0.96046   0.42682   0.48454
  27   33740.0    296.4   0.002316422   0.02260   0.01334   0.11426   0.09679
  28   33744.0    296.3   0.085150738   0.83074  -0.53680  -0.41461  -0.60884
  29   33951.9    294.5   0.375082402   3.63696  -0.40468   1.55242   1.03111
  30   34145.7    292.9   0.006921663   0.06673   0.03009  -0.14335  -0.21279
  31   34294.0    291.6   0.035084629   0.33680  -0.54258   0.03026  -0.20369
  32   34297.6    291.6   0.022715179   0.21804   0.44704  -0.08462   0.10503
  33   34430.9    290.4   0.179432310   1.71565   1.00239   0.29632   0.78934
  34   34692.9    288.2   0.122579379   1.16319  -0.74387  -0.45550  -0.63433
  35   35066.5    285.2   0.033203119   0.31172  -0.41994  -0.10368  -0.35301
  36   35502.5    281.7   0.123287104   1.14323   0.86092   0.39411   0.49671
  37   35835.8    279.1   0.011148926   0.10242   0.30876   0.08347  -0.01107
  38   35860.0    278.9   0.000478448   0.00439   0.04377   0.04775   0.01401
  39   35999.5    277.8   0.018305191   0.16740  -0.14608   0.30873   0.22526
  40   36267.0    275.7   0.047874159   0.43458  -0.55966  -0.19692  -0.28736
  41   36382.8    274.9   0.007876514   0.07127  -0.13523   0.16512   0.16037
  42   36725.3    272.3   0.014226686   0.12753   0.02104  -0.17649  -0.30974
  43   37127.5    269.3   0.121356341   1.07607   0.96971   0.26987   0.25082
  44   37203.3    268.8   0.092787557   0.82108   0.18385  -0.60903  -0.64526
  45   37641.6    265.7   0.014015290   0.12258   0.06260  -0.17403  -0.29728
  46   37940.1    263.6   0.000435217   0.00378  -0.00300   0.00034  -0.06138
  47   37996.6    263.2   0.093666433   0.81155  -0.01934  -0.42467  -0.79425
  48   38209.9    261.7   0.076184256   0.65639   0.57740   0.14473   0.54959
  49   38303.0    261.1   0.123558791   1.06198   0.05693   0.53845   0.87682
  50   38423.0    260.3   0.055392537   0.47461   0.10224  -0.46591  -0.49707
  51   38794.5    257.8   0.150781216   1.27954  -0.92831   0.56116   0.32073
  52   38984.3    256.5   0.019453560   0.16428   0.09927   0.13749   0.36813
  53   39320.6    254.3   0.153379946   1.28418  -0.44613  -0.37560  -0.97163
  54   39721.5    251.8   0.019968464   0.16550   0.16968   0.10664   0.35403
  55   40047.8    249.7   0.065921692   0.54191   0.31113  -0.27921  -0.60593
  56   40165.7    249.0   0.046263587   0.37919  -0.51886   0.11791   0.30996

FINAL SINGLE POINT ENERGY     -4413.422901817742

DIPOLE MOMENT
-------------
                                X             Y             Z
Electronic contribution:    -18.42325     -11.14311     -16.14794
Nuclear contribution   :     15.98806      13.73220      20.37927
                        -----------------------------------------
Total Dipole Moment    :     -2.43519       2.58909       4.23132
                        -----------------------------------------
Magnitude (a.u.)       :      5.52609
Magnitude (Debye)      :     14.04620

Rotational constants in cm-1:     0.000417     0.000242     0.000154
Rotational constants in MHz :    12.489370     7.252116     4.623489

                             ****ORCA TERMINATED NORMALLY****
TOTAL RUN TIME: 0 days 0 hours 10 minutes 10 seconds 986 msec
