                         Program Version 4.2.0 -  RELEASE  -
|  1> # ORCA input file
|  2> # SCF done       -188.858276622378          0.000771596401
|  3> ! CAM-B3LYP def2-SVP def2/J RIJCOSX Grid4 TightSCF
|  4> %maxcore 5000
|  5> %tddft
|  6>     Mode sTDDFT
|  7>     Ethresh 5.0
|  8>     maxcore 5000
|  9> end
| 10>
| 11> %pal
| 12>   nprocs 6
| 13>   end
| 14> * xyz 0 1
| 15>    C       -2.46629         9.88659         0.29240
| 16>    C       -2.16547        10.55778        -0.86233
| 17>    C       -2.99896        11.54362        -1.43008
| 18>    N       -3.64611        12.33925        -1.94576
| 19>    C       -0.94043        10.46028        -1.55102
| 20>    N        0.05699        10.49711        -2.11835
| 21>    C       -3.54931        10.25860         1.20024
| 22>    C       -3.22521         9.78146         2.50363
| 23>    C       -4.02574        10.03341         3.58010
| 24>    C       -5.21573        10.77247         3.39524
| 25>    C       -5.55815        11.22982         2.09009
| 26>    C       -4.70369        10.96306         0.99510
| 27>    C       -6.75334        11.95663         1.91771
| 28>    C       -7.56989        12.22481         2.98240
| 29>    C       -7.23057        11.77656         4.26762
| 30>    C       -6.07881        11.06584         4.46940
| 31>    C       -1.97603         9.00626         2.43553
| 32>    O       -1.36778         8.49194         3.34965
| 33>    C       -1.64309         8.91896         0.98738
| 34>    C       -0.82840         7.90216         0.59272
| 35>    C       -0.61791         7.28585        -0.65914
| 36>    S       -1.50967         7.66958        -2.11257
| 37>    C       -0.69058         6.44972        -2.98185
| 38>    C        0.21510         5.76371        -2.22190
| 39>    C        0.24671         6.22046        -0.88907
| 40>    C        1.09071         5.55296         0.14411
| 41>    C        2.28032         4.83609        -0.49319
| 42>    C        1.76146         3.90185        -1.59632
| 43>    C        1.10987         4.68069        -2.73597
| 44>    C        3.34317         5.78055        -1.02455
| 45>    C        4.58245         5.33850        -1.21432
| 46>    C        3.03121         7.18225        -1.32152
| 47>    S        2.61738         8.28925        -0.03417
| 48>    C        2.61861         9.61902        -1.11693
| 49>    C        2.91263         9.25070        -2.38965
| 50>    C        3.15729         7.85444        -2.50489
| 51>    C        3.49244         7.26887        -3.83786
| 52>    C        4.32317         8.28911        -4.63214
| 53>    C        3.45288         9.53228        -4.84035
| 54>    C        3.03057        10.20844        -3.53189
| 55>    C        5.65128         8.54013        -3.94204
| 56>    C        6.45679         7.53864        -3.60211
| 57>    C        6.12489         9.90651        -3.70332
| 58>    S        6.56086        10.92148        -5.05102
| 59>    C        7.17992        12.12554        -3.99006
| 60>    C        7.05935        11.77504        -2.68418
| 61>    C        6.44565        10.50319        -2.51755
| 62>    C        6.10624         9.96774        -1.16269
| 63>    C        6.99152        10.58359        -0.06903
| 64>    C        6.96426        12.10639        -0.20358
| 65>    C        7.58958        12.55571        -1.52361
| 66>    C        6.52267        10.08177         1.28421
| 67>    C        6.29544        10.85889         2.34349
| 68>    C        6.41968         8.63725         1.36167
| 69>    C        5.47330         7.89820         1.98694
| 70>    C        5.41883         6.43991         1.98955
| 71>    C        6.38756         5.58118         1.54366
| 72>    C        6.25786         4.17628         1.53992
| 73>    N        6.21593         3.02951         1.49298
| 74>    C        7.64018         5.94430         1.00548
| 75>    N        8.68221         6.13489         0.56063
| 76>    C        4.13569         6.04050         2.54725
| 77>    C        3.39952         7.20973         2.88718
| 78>    C        4.21305         8.40818         2.60908
| 79>    O        3.89775         9.55289         2.83858
| 80>    C        2.13189         7.14475         3.39136
| 81>    C        1.53372         5.87913         3.58716
| 82>    C        2.27573         4.70202         3.27974
| 83>    C        3.58538         4.80260         2.76005
| 84>    C        1.66922         3.44523         3.48261
| 85>    C        0.38843         3.35542         3.95539
| 86>    C       -0.34454         4.51651         4.24518
| 87>    C        0.21557         5.75309         4.06898
| 88>    H       -3.75612         9.67403         4.56222
| 89>    H       -4.99085        11.31412         0.01629
| 90>    H       -7.00814        12.30330         0.92696
| 91>    H       -8.48177        12.78521         2.84024
| 92>    H       -7.88625        11.99722         5.09666
| 93>    H       -5.81222        10.71799         5.45684
| 94>    H       -0.32385         7.40976         1.41943
| 95>    H       -0.92552         6.29846        -4.01752
| 96>    H        0.47598         4.81125         0.66782
| 97>    H        1.43980         6.26469         0.89037
| 98>    H        2.75163         4.21260         0.27429
| 99>    H        1.03162         3.22122        -1.15186
|100>    H        2.58299         3.30313        -1.99146
|101>    H        0.54438         4.00408        -3.38090
|102>    H        1.88957         5.13966        -3.34796
|103>    H        4.85808         4.31704        -1.00912
|104>    H        5.36339         5.98429        -1.57883
|105>    H        2.39200        10.59518        -0.73785
|106>    H        2.56649         7.07709        -4.39170
|107>    H        4.01868         6.32187        -3.72262
|108>    H        4.54175         7.86254        -5.61965
|109>    H        2.56045         9.21386        -5.38477
|110>    H        3.97301        10.25496        -5.47018
|111>    H        2.07008        10.70993        -3.66818
|112>    H        3.75529        10.97942        -3.25776
|113>    H        6.20938         6.50829        -3.79141
|114>    H        7.41367         7.71796        -3.14155
|115>    H        7.60515        13.01870        -4.40268
|116>    H        6.17730         8.87831        -1.16510
|117>    H        5.06310        10.21834        -0.93961
|118>    H        8.02259        10.23458        -0.21552
|119>    H        7.52315        12.56862         0.61120
|120>    H        5.92830        12.44776        -0.14985
|121>    H        8.67394        12.40531        -1.47663
|122>    H        7.41815        13.62359        -1.67658
|123>    H        6.38985        11.92871         2.30825
|124>    H        6.02753        10.44228         3.29709
|125>    H        7.17827         8.10764         0.79688
|126>    H        1.58275         8.04397         3.62765
|127>    H        4.12084         3.89315         2.53821
|128>    H        2.23619         2.55438         3.25365
|129>    H       -0.06806         2.38816         4.10569
|130>    H       -1.35681         4.42629         4.61018
|131>    H       -0.34473         6.65146         4.27818
|132> *
|133>
|134>                          ****END OF INPUT****

CARTESIAN COORDINATES (ANGSTROEM)
---------------------------------
  C     -2.466290    9.886590    0.292400
  C     -2.165470   10.557780   -0.862330
  C     -2.998960   11.543620   -1.430080
  N     -3.646110   12.339250   -1.945760
  C     -0.940430   10.460280   -1.551020
  N      0.056990   10.497110   -2.118350
  C     -3.549310   10.258600    1.200240
  C     -3.225210    9.781460    2.503630
  C     -4.025740   10.033410    3.580100
  C     -5.215730   10.772470    3.395240
  C     -5.558150   11.229820    2.090090
  C     -4.703690   10.963060    0.995100
  C     -6.753340   11.956630    1.917710
  C     -7.569890   12.224810    2.982400
  C     -7.230570   11.776560    4.267620
  C     -6.078810   11.065840    4.469400
  C     -1.976030    9.006260    2.435530
  O     -1.367780    8.491940    3.349650
  C     -1.643090    8.918960    0.987380
  C     -0.828400    7.902160    0.592720
  C     -0.617910    7.285850   -0.659140
  S     -1.509670    7.669580   -2.112570
  C     -0.690580    6.449720   -2.981850
  C      0.215100    5.763710   -2.221900
  C      0.246710    6.220460   -0.889070
  C      1.090710    5.552960    0.144110
  C      2.280320    4.836090   -0.493190
  C      1.761460    3.901850   -1.596320
  C      1.109870    4.680690   -2.735970
  C      3.343170    5.780550   -1.024550
  C      4.582450    5.338500   -1.214320
  C      3.031210    7.182250   -1.321520
  S      2.617380    8.289250   -0.034170
  C      2.618610    9.619020   -1.116930
  C      2.912630    9.250700   -2.389650
  C      3.157290    7.854440   -2.504890
  C      3.492440    7.268870   -3.837860
  C      4.323170    8.289110   -4.632140
  C      3.452880    9.532280   -4.840350
  C      3.030570   10.208440   -3.531890
  C      5.651280    8.540130   -3.942040
  C      6.456790    7.538640   -3.602110
  C      6.124890    9.906510   -3.703320
  S      6.560860   10.921480   -5.051020
  C      7.179920   12.125540   -3.990060
  C      7.059350   11.775040   -2.684180
  C      6.445650   10.503190   -2.517550
  C      6.106240    9.967740   -1.162690
  C      6.991520   10.583590   -0.069030
  C      6.964260   12.106390   -0.203580
  C      7.589580   12.555710   -1.523610
  C      6.522670   10.081770    1.284210
  C      6.295440   10.858890    2.343490
  C      6.419680    8.637250    1.361670
  C      5.473300    7.898200    1.986940
  C      5.418830    6.439910    1.989550
  C      6.387560    5.581180    1.543660
  C      6.257860    4.176280    1.539920
  N      6.215930    3.029510    1.492980
  C      7.640180    5.944300    1.005480
  N      8.682210    6.134890    0.560630
  C      4.135690    6.040500    2.547250
  C      3.399520    7.209730    2.887180
  C      4.213050    8.408180    2.609080
  O      3.897750    9.552890    2.838580
  C      2.131890    7.144750    3.391360
  C      1.533720    5.879130    3.587160
  C      2.275730    4.702020    3.279740
  C      3.585380    4.802600    2.760050
  C      1.669220    3.445230    3.482610
  C      0.388430    3.355420    3.955390
  C     -0.344540    4.516510    4.245180
  C      0.215570    5.753090    4.068980
  H     -3.756120    9.674030    4.562220
  H     -4.990850   11.314120    0.016290
  H     -7.008140   12.303300    0.926960
  H     -8.481770   12.785210    2.840240
  H     -7.886250   11.997220    5.096660
  H     -5.812220   10.717990    5.456840
  H     -0.323850    7.409760    1.419430
  H     -0.925520    6.298460   -4.017520
  H      0.475980    4.811250    0.667820
  H      1.439800    6.264690    0.890370
  H      2.751630    4.212600    0.274290
  H      1.031620    3.221220   -1.151860
  H      2.582990    3.303130   -1.991460
  H      0.544380    4.004080   -3.380900
  H      1.889570    5.139660   -3.347960
  H      4.858080    4.317040   -1.009120
  H      5.363390    5.984290   -1.578830
  H      2.392000   10.595180   -0.737850
  H      2.566490    7.077090   -4.391700
  H      4.018680    6.321870   -3.722620
  H      4.541750    7.862540   -5.619650
  H      2.560450    9.213860   -5.384770
  H      3.973010   10.254960   -5.470180
  H      2.070080   10.709930   -3.668180
  H      3.755290   10.979420   -3.257760
  H      6.209380    6.508290   -3.791410
  H      7.413670    7.717960   -3.141550
  H      7.605150   13.018700   -4.402680
  H      6.177300    8.878310   -1.165100
  H      5.063100   10.218340   -0.939610
  H      8.022590   10.234580   -0.215520
  H      7.523150   12.568620    0.611200
  H      5.928300   12.447760   -0.149850
  H      8.673940   12.405310   -1.476630
  H      7.418150   13.623590   -1.676580
  H      6.389850   11.928710    2.308250
  H      6.027530   10.442280    3.297090
  H      7.178270    8.107640    0.796880
  H      1.582750    8.043970    3.627650
  H      4.120840    3.893150    2.538210
  H      2.236190    2.554380    3.253650
  H     -0.068060    2.388160    4.105690
  H     -1.356810    4.426290    4.610180
  H     -0.344730    6.651460    4.278180

 Total Charge           Charge          ....    0
 Multiplicity           Mult            ....    1
 Number of Electrons    NEL             ....  520
 Basis Dimension        Dim             .... 1254

ORBITAL ENERGIES
----------------

  NO   OCC          E(Eh)            E(eV)
   0   2.0000     -88.960683     -2420.7433
   1   2.0000     -88.936981     -2420.0983
   2   2.0000     -88.934124     -2420.0205
   3   2.0000     -19.215450      -522.8790
   4   2.0000     -19.206247      -522.6285
   5   2.0000     -14.412221      -392.1765
   6   2.0000     -14.412215      -392.1763
   7   2.0000     -14.411943      -392.1689
   8   2.0000     -14.410858      -392.1394
   9   2.0000     -10.365978      -282.0726
  10   2.0000     -10.359749      -281.9031
  11   2.0000     -10.339506      -281.3523
  12   2.0000     -10.338871      -281.3350
  13   2.0000     -10.335662      -281.2477
  14   2.0000     -10.334744      -281.2227
  15   2.0000     -10.317305      -280.7482
  16   2.0000     -10.315671      -280.7037
  17   2.0000     -10.315025      -280.6861
  18   2.0000     -10.315016      -280.6859
  19   2.0000     -10.313656      -280.6489
  20   2.0000     -10.305663      -280.4313
  21   2.0000     -10.303489      -280.3722
  22   2.0000     -10.302698      -280.3507
  23   2.0000     -10.301484      -280.3176
  24   2.0000     -10.297662      -280.2136
  25   2.0000     -10.296494      -280.1818
  26   2.0000     -10.296392      -280.1791
  27   2.0000     -10.295985      -280.1680
  28   2.0000     -10.294497      -280.1275
  29   2.0000     -10.293368      -280.0968
  30   2.0000     -10.292941      -280.0852
  31   2.0000     -10.292062      -280.0612
  32   2.0000     -10.291772      -280.0534
  33   2.0000     -10.291032      -280.0332
  34   2.0000     -10.290881      -280.0291
  35   2.0000     -10.288153      -279.9549
  36   2.0000     -10.288137      -279.9544
  37   2.0000     -10.285598      -279.8854
  38   2.0000     -10.285022      -279.8697
  39   2.0000     -10.284729      -279.8617
  40   2.0000     -10.284171      -279.8465
  41   2.0000     -10.282661      -279.8054
  42   2.0000     -10.282349      -279.7969
  43   2.0000     -10.282033      -279.7883
  44   2.0000     -10.280382      -279.7434
  45   2.0000     -10.279325      -279.7146
  46   2.0000     -10.278314      -279.6871
  47   2.0000     -10.278003      -279.6787
  48   2.0000     -10.276526      -279.6385
  49   2.0000     -10.276290      -279.6321
  50   2.0000     -10.276160      -279.6285
  51   2.0000     -10.275187      -279.6021
  52   2.0000     -10.274127      -279.5732
  53   2.0000     -10.272323      -279.5241
  54   2.0000     -10.272129      -279.5188
  55   2.0000     -10.270069      -279.4628
  56   2.0000     -10.269583      -279.4496
  57   2.0000     -10.267475      -279.3922
  58   2.0000     -10.266815      -279.3742
  59   2.0000     -10.265932      -279.3502
  60   2.0000     -10.265821      -279.3472
  61   2.0000     -10.260845      -279.2118
  62   2.0000     -10.260254      -279.1957
  63   2.0000     -10.258408      -279.1455
  64   2.0000     -10.258058      -279.1359
  65   2.0000     -10.256228      -279.0862
  66   2.0000     -10.255909      -279.0775
  67   2.0000     -10.255247      -279.0594
  68   2.0000     -10.254463      -279.0381
  69   2.0000     -10.250697      -278.9356
  70   2.0000     -10.250555      -278.9318
  71   2.0000     -10.247961      -278.8612
  72   2.0000     -10.243190      -278.7314
  73   2.0000      -8.055992      -219.2147
  74   2.0000      -8.030723      -218.5271
  75   2.0000      -8.029827      -218.5027
  76   2.0000      -6.025223      -163.9546
  77   2.0000      -6.020926      -163.8377
  78   2.0000      -6.018348      -163.7676
  79   2.0000      -6.000158      -163.2726
  80   2.0000      -5.999124      -163.2445
  81   2.0000      -5.995898      -163.1567
  82   2.0000      -5.994850      -163.1282
  83   2.0000      -5.993051      -163.0792
  84   2.0000      -5.992085      -163.0529
  85   2.0000      -1.130152       -30.7530
  86   2.0000      -1.122748       -30.5515
  87   2.0000      -1.015829       -27.6421
  88   2.0000      -1.014065       -27.5941
  89   2.0000      -0.996709       -27.1218
  90   2.0000      -0.995819       -27.0976
  91   2.0000      -0.993446       -27.0331
  92   2.0000      -0.990666       -26.9574
  93   2.0000      -0.989419       -26.9235
  94   2.0000      -0.973279       -26.4843
  95   2.0000      -0.969253       -26.3747
  96   2.0000      -0.966848       -26.3093
  97   2.0000      -0.965750       -26.2794
  98   2.0000      -0.933425       -25.3998
  99   2.0000      -0.931835       -25.3565
 100   2.0000      -0.921740       -25.0818
 101   2.0000      -0.917545       -24.9677
 102   2.0000      -0.913074       -24.8460
 103   2.0000      -0.902259       -24.5517
 104   2.0000      -0.892885       -24.2966
 105   2.0000      -0.881569       -23.9887
 106   2.0000      -0.878947       -23.9174
 107   2.0000      -0.876992       -23.8642
 108   2.0000      -0.873723       -23.7752
 109   2.0000      -0.871968       -23.7275
 110   2.0000      -0.860697       -23.4208
 111   2.0000      -0.849525       -23.1168
 112   2.0000      -0.838961       -22.8293
 113   2.0000      -0.835021       -22.7221
 114   2.0000      -0.827375       -22.5140
 115   2.0000      -0.826996       -22.5037
 116   2.0000      -0.822405       -22.3788
 117   2.0000      -0.814693       -22.1689
 118   2.0000      -0.808228       -21.9930
 119   2.0000      -0.800622       -21.7860
 120   2.0000      -0.798802       -21.7365
 121   2.0000      -0.779131       -21.2012
 122   2.0000      -0.771599       -20.9963
 123   2.0000      -0.769693       -20.9444
 124   2.0000      -0.757028       -20.5998
 125   2.0000      -0.756873       -20.5956
 126   2.0000      -0.755467       -20.5573
 127   2.0000      -0.722143       -19.6505
 128   2.0000      -0.716439       -19.4953
 129   2.0000      -0.716059       -19.4850
 130   2.0000      -0.707788       -19.2599
 131   2.0000      -0.703762       -19.1503
 132   2.0000      -0.702432       -19.1141
 133   2.0000      -0.697777       -18.9875
 134   2.0000      -0.697029       -18.9671
 135   2.0000      -0.692406       -18.8413
 136   2.0000      -0.690959       -18.8020
 137   2.0000      -0.676998       -18.4221
 138   2.0000      -0.673917       -18.3382
 139   2.0000      -0.670308       -18.2400
 140   2.0000      -0.665213       -18.1014
 141   2.0000      -0.658098       -17.9078
 142   2.0000      -0.656812       -17.8728
 143   2.0000      -0.648156       -17.6372
 144   2.0000      -0.634131       -17.2556
 145   2.0000      -0.632199       -17.2030
 146   2.0000      -0.623252       -16.9595
 147   2.0000      -0.621831       -16.9209
 148   2.0000      -0.607957       -16.5433
 149   2.0000      -0.606031       -16.4909
 150   2.0000      -0.603644       -16.4260
 151   2.0000      -0.602854       -16.4045
 152   2.0000      -0.599725       -16.3193
 153   2.0000      -0.595626       -16.2078
 154   2.0000      -0.589715       -16.0470
 155   2.0000      -0.586101       -15.9486
 156   2.0000      -0.577331       -15.7100
 157   2.0000      -0.571660       -15.5556
 158   2.0000      -0.570220       -15.5165
 159   2.0000      -0.555153       -15.1065
 160   2.0000      -0.551826       -15.0159
 161   2.0000      -0.551317       -15.0021
 162   2.0000      -0.547676       -14.9030
 163   2.0000      -0.546020       -14.8579
 164   2.0000      -0.545330       -14.8392
 165   2.0000      -0.542533       -14.7631
 166   2.0000      -0.540913       -14.7190
 167   2.0000      -0.540125       -14.6975
 168   2.0000      -0.539915       -14.6918
 169   2.0000      -0.533784       -14.5250
 170   2.0000      -0.532057       -14.4780
 171   2.0000      -0.531609       -14.4658
 172   2.0000      -0.527632       -14.3576
 173   2.0000      -0.525933       -14.3114
 174   2.0000      -0.520894       -14.1743
 175   2.0000      -0.519561       -14.1380
 176   2.0000      -0.513042       -13.9606
 177   2.0000      -0.512480       -13.9453
 178   2.0000      -0.511212       -13.9108
 179   2.0000      -0.509878       -13.8745
 180   2.0000      -0.508176       -13.8282
 181   2.0000      -0.505247       -13.7485
 182   2.0000      -0.502130       -13.6637
 183   2.0000      -0.501956       -13.6589
 184   2.0000      -0.500822       -13.6281
 185   2.0000      -0.498729       -13.5711
 186   2.0000      -0.495305       -13.4779
 187   2.0000      -0.494870       -13.4661
 188   2.0000      -0.491731       -13.3807
 189   2.0000      -0.489423       -13.3179
 190   2.0000      -0.487016       -13.2524
 191   2.0000      -0.484718       -13.1899
 192   2.0000      -0.483974       -13.1696
 193   2.0000      -0.481876       -13.1125
 194   2.0000      -0.479546       -13.0491
 195   2.0000      -0.477633       -12.9971
 196   2.0000      -0.473881       -12.8950
 197   2.0000      -0.471376       -12.8268
 198   2.0000      -0.466231       -12.6868
 199   2.0000      -0.464743       -12.6463
 200   2.0000      -0.461249       -12.5512
 201   2.0000      -0.460385       -12.5277
 202   2.0000      -0.458773       -12.4839
 203   2.0000      -0.458150       -12.4669
 204   2.0000      -0.454449       -12.3662
 205   2.0000      -0.452835       -12.3223
 206   2.0000      -0.447188       -12.1686
 207   2.0000      -0.446375       -12.1465
 208   2.0000      -0.443590       -12.0707
 209   2.0000      -0.442925       -12.0526
 210   2.0000      -0.440968       -11.9993
 211   2.0000      -0.439980       -11.9725
 212   2.0000      -0.437242       -11.8980
 213   2.0000      -0.435362       -11.8468
 214   2.0000      -0.434512       -11.8237
 215   2.0000      -0.430261       -11.7080
 216   2.0000      -0.428894       -11.6708
 217   2.0000      -0.428392       -11.6571
 218   2.0000      -0.427298       -11.6274
 219   2.0000      -0.426002       -11.5921
 220   2.0000      -0.423561       -11.5257
 221   2.0000      -0.420956       -11.4548
 222   2.0000      -0.417814       -11.3693
 223   2.0000      -0.415258       -11.2998
 224   2.0000      -0.413012       -11.2386
 225   2.0000      -0.410432       -11.1684
 226   2.0000      -0.409864       -11.1530
 227   2.0000      -0.408576       -11.1179
 228   2.0000      -0.405970       -11.0470
 229   2.0000      -0.402391       -10.9496
 230   2.0000      -0.400674       -10.9029
 231   2.0000      -0.399914       -10.8822
 232   2.0000      -0.397384       -10.8134
 233   2.0000      -0.395945       -10.7742
 234   2.0000      -0.395198       -10.7539
 235   2.0000      -0.389598       -10.6015
 236   2.0000      -0.389435       -10.5971
 237   2.0000      -0.386069       -10.5055
 238   2.0000      -0.384786       -10.4706
 239   2.0000      -0.377667       -10.2768
 240   2.0000      -0.376139       -10.2353
 241   2.0000      -0.370564       -10.0835
 242   2.0000      -0.369090       -10.0435
 243   2.0000      -0.359837        -9.7917
 244   2.0000      -0.356375        -9.6975
 245   2.0000      -0.337168        -9.1748
 246   2.0000      -0.331101        -9.0097
 247   2.0000      -0.326161        -8.8753
 248   2.0000      -0.321715        -8.7543
 249   2.0000      -0.316559        -8.6140
 250   2.0000      -0.312178        -8.4948
 251   2.0000      -0.308522        -8.3953
 252   2.0000      -0.298514        -8.1230
 253   2.0000      -0.295450        -8.0396
 254   2.0000      -0.289214        -7.8699
 255   2.0000      -0.288578        -7.8526
 256   2.0000      -0.284836        -7.7508
 257   2.0000      -0.279058        -7.5935
 258   2.0000      -0.271909        -7.3990
 259   2.0000      -0.261533        -7.1167
 260   0.0000      -0.086733        -2.3601
 261   0.0000      -0.081019        -2.2046
 262   0.0000      -0.054235        -1.4758
 263   0.0000      -0.047655        -1.2968
 264   0.0000      -0.021530        -0.5859

MULLIKEN ATOMIC CHARGES
-----------------------
   0 C :    0.261620
   1 C :   -0.316202
   2 C :   -0.181382
   3 N :    0.148650
   4 C :   -0.209227
   5 N :    0.186782
   6 C :    0.032542
   7 C :    0.016486
   8 C :   -0.085847
   9 C :    0.096954
  10 C :    0.095537
  11 C :   -0.081251
  12 C :   -0.018651
  13 C :    0.037726
  14 C :    0.034516
  15 C :   -0.016317
  16 C :    0.146871
  17 O :   -0.164090
  18 C :   -0.129503
  19 C :    0.019888
  20 C :   -0.122745
  21 S :    0.139825
  22 C :   -0.098201
  23 C :   -0.068080
  24 C :   -0.000507
  25 C :    0.160396
  26 C :   -0.044053
  27 C :    0.075639
  28 C :    0.142505
  29 C :   -0.096987
  30 C :   -0.010024
  31 C :   -0.199822
  32 S :    0.048761
  33 C :   -0.075655
  34 C :   -0.085995
  35 C :   -0.001050
  36 C :    0.162633
  37 C :   -0.040869
  38 C :    0.071583
  39 C :    0.162001
  40 C :   -0.062009
  41 C :   -0.013046
  42 C :   -0.202762
  43 S :    0.113965
  44 C :   -0.147530
  45 C :   -0.074077
  46 C :   -0.010647
  47 C :    0.186213
  48 C :   -0.087008
  49 C :    0.028971
  50 C :    0.178132
  51 C :   -0.045527
  52 C :    0.048660
  53 C :   -0.047120
  54 C :   -0.070061
  55 C :    0.349903
  56 C :   -0.366428
  57 C :   -0.186624
  58 N :    0.141392
  59 C :   -0.201276
  60 N :    0.156808
  61 C :    0.054913
  62 C :   -0.009402
  63 C :    0.154018
  64 O :   -0.134648
  65 C :   -0.072076
  66 C :    0.051120
  67 C :    0.102340
  68 C :   -0.103177
  69 C :   -0.028545
  70 C :    0.035262
  71 C :    0.030923
  72 C :   -0.005293
  73 H :   -0.016158
  74 H :   -0.005014
  75 H :   -0.011664
  76 H :   -0.005448
  77 H :   -0.005773
  78 H :   -0.019345
  79 H :    0.009186
  80 H :    0.019177
  81 H :    0.025873
  82 H :    0.030119
  83 H :   -0.003452
  84 H :   -0.000079
  85 H :   -0.000761
  86 H :    0.007190
  87 H :    0.011563
  88 H :    0.023676
  89 H :    0.016191
  90 H :    0.012201
  91 H :    0.012551
  92 H :   -0.000507
  93 H :    0.001731
  94 H :   -0.007735
  95 H :   -0.005903
  96 H :    0.015536
  97 H :    0.016683
  98 H :    0.014167
  99 H :    0.024816
 100 H :    0.002717
 101 H :   -0.008012
 102 H :    0.023111
 103 H :    0.014534
 104 H :    0.003782
 105 H :    0.007696
 106 H :    0.012597
 107 H :    0.001060
 108 H :    0.019889
 109 H :    0.020596
 110 H :    0.036231
 111 H :   -0.008131
 112 H :   -0.009596
 113 H :   -0.014478
 114 H :   -0.009042
 115 H :   -0.008825
 116 H :   -0.002772
Sum of atomic charges:   -0.0000000

LOEWDIN ATOMIC CHARGES
----------------------
   0 C :    0.068305
   1 C :   -0.146401
   2 C :   -0.018030
   3 N :   -0.055505
   4 C :   -0.033807
   5 N :   -0.034341
   6 C :   -0.019990
   7 C :   -0.056825
   8 C :    0.031028
   9 C :   -0.010510
  10 C :   -0.005132
  11 C :    0.014250
  12 C :   -0.006618
  13 C :   -0.013349
  14 C :   -0.014678
  15 C :   -0.009640
  16 C :    0.093397
  17 O :   -0.161394
  18 C :   -0.110867
  19 C :    0.061602
  20 C :   -0.199660
  21 S :    0.482753
  22 C :   -0.157733
  23 C :   -0.064522
  24 C :   -0.007998
  25 C :   -0.029241
  26 C :   -0.021508
  27 C :   -0.014398
  28 C :   -0.026681
  29 C :   -0.037305
  30 C :   -0.041800
  31 C :   -0.186318
  32 S :    0.459995
  33 C :   -0.177325
  34 C :   -0.056034
  35 C :   -0.050840
  36 C :   -0.015863
  37 C :   -0.024030
  38 C :   -0.029592
  39 C :   -0.027720
  40 C :   -0.030555
  41 C :   -0.040313
  42 C :   -0.172261
  43 S :    0.426765
  44 C :   -0.200033
  45 C :   -0.067969
  46 C :   -0.061387
  47 C :   -0.020221
  48 C :   -0.021536
  49 C :   -0.023172
  50 C :   -0.021851
  51 C :   -0.038444
  52 C :    0.016774
  53 C :    0.089618
  54 C :   -0.089385
  55 C :    0.085752
  56 C :   -0.141116
  57 C :   -0.013314
  58 N :   -0.063551
  59 C :   -0.022905
  60 N :   -0.054506
  61 C :   -0.029339
  62 C :   -0.062870
  63 C :    0.071703
  64 O :   -0.132024
  65 C :    0.028409
  66 C :   -0.012597
  67 C :   -0.011350
  68 C :    0.015590
  69 C :   -0.014027
  70 C :   -0.016721
  71 C :   -0.016874
  72 C :   -0.006120
  73 H :    0.037725
  74 H :    0.038584
  75 H :    0.034045
  76 H :    0.032879
  77 H :    0.032422
  78 H :    0.031083
  79 H :    0.048690
  80 H :    0.025900
  81 H :    0.043530
  82 H :    0.018744
  83 H :    0.031190
  84 H :    0.021467
  85 H :    0.025658
  86 H :    0.033166
  87 H :    0.035530
  88 H :    0.021455
  89 H :    0.023017
  90 H :    0.019772
  91 H :    0.026988
  92 H :    0.021307
  93 H :    0.032458
  94 H :    0.021847
  95 H :    0.012964
  96 H :    0.033934
  97 H :    0.032263
  98 H :    0.017717
  99 H :    0.026036
 100 H :    0.017828
 101 H :    0.026978
 102 H :    0.036930
 103 H :    0.031273
 104 H :    0.022714
 105 H :    0.024242
 106 H :    0.032657
 107 H :    0.030649
 108 H :    0.024697
 109 H :    0.026745
 110 H :    0.041546
 111 H :    0.041268
 112 H :    0.036273
 113 H :    0.032655
 114 H :    0.031538
 115 H :    0.031731
 116 H :    0.034064

  Mayer bond orders larger than 0.100000
B(  0-C ,  1-C ) :   1.6520 B(  0-C ,  6-C ) :   1.0023 B(  0-C , 18-C ) :   1.0182
B(  1-C ,  2-C ) :   1.1355 B(  1-C ,  4-C ) :   1.1473 B(  2-C ,  3-N ) :   2.9912
B(  4-C ,  5-N ) :   2.9902 B(  6-C ,  7-C ) :   1.2167 B(  6-C , 11-C ) :   1.4635
B(  7-C ,  8-C ) :   1.4737 B(  7-C , 16-C ) :   0.9328 B(  8-C ,  9-C ) :   1.1833
B(  8-C , 73-H ) :   1.0162 B(  9-C , 10-C ) :   1.2601 B(  9-C , 15-C ) :   1.2433
B( 10-C , 11-C ) :   1.1985 B( 10-C , 12-C ) :   1.2437 B( 11-C , 74-H ) :   0.9937
B( 12-C , 13-C ) :   1.4896 B( 12-C , 75-H ) :   0.9975 B( 13-C , 14-C ) :   1.2601
B( 13-C , 76-H ) :   0.9884 B( 14-C , 15-C ) :   1.4897 B( 14-C , 77-H ) :   0.9887
B( 15-C , 78-H ) :   0.9977 B( 16-C , 17-O ) :   2.1598 B( 16-C , 18-C ) :   0.9665
B( 18-C , 19-C ) :   1.6149 B( 19-C , 20-C ) :   1.2056 B( 19-C , 79-H ) :   0.9320
B( 20-C , 21-S ) :   1.0979 B( 20-C , 24-C ) :   1.4300 B( 21-S , 22-C ) :   1.2049
B( 22-C , 23-C ) :   1.5190 B( 22-C , 80-H ) :   0.9707 B( 23-C , 24-C ) :   1.3347
B( 23-C , 28-C ) :   1.0283 B( 24-C , 25-C ) :   1.0423 B( 25-C , 26-C ) :   1.0732
B( 25-C , 81-H ) :   0.8852 B( 25-C , 82-H ) :   0.8968 B( 26-C , 27-C ) :   1.0601
B( 26-C , 29-C ) :   0.9693 B( 26-C , 83-H ) :   0.8835 B( 27-C , 28-C ) :   1.0930
B( 27-C , 84-H ) :   0.9407 B( 27-C , 85-H ) :   0.9295 B( 28-C , 86-H ) :   0.9147
B( 28-C , 87-H ) :   0.9038 B( 29-C , 30-C ) :   2.0219 B( 29-C , 31-C ) :   0.9573
B( 30-C , 88-H ) :   0.9355 B( 30-C , 89-H ) :   0.9355 B( 31-C , 32-S ) :   1.1189
B( 31-C , 35-C ) :   1.5921 B( 32-S , 33-C ) :   1.1370 B( 33-C , 34-C ) :   1.6060
B( 33-C , 90-H ) :   0.9607 B( 34-C , 35-C ) :   1.2655 B( 34-C , 39-C ) :   1.0442
B( 35-C , 36-C ) :   1.0701 B( 36-C , 37-C ) :   1.0492 B( 36-C , 91-H ) :   0.9006
B( 36-C , 92-H ) :   0.9027 B( 37-C , 38-C ) :   1.0870 B( 37-C , 40-C ) :   0.9511
B( 37-C , 93-H ) :   0.8942 B( 38-C , 39-C ) :   1.0802 B( 38-C , 94-H ) :   0.9284
B( 38-C , 95-H ) :   0.9129 B( 39-C , 96-H ) :   0.9009 B( 39-C , 97-H ) :   0.9113
B( 40-C , 41-C ) :   2.0192 B( 40-C , 42-C ) :   0.9545 B( 41-C , 98-H ) :   0.9437
B( 41-C , 99-H ) :   0.9412 B( 42-C , 43-S ) :   1.1431 B( 42-C , 46-C ) :   1.6163
B( 43-S , 44-C ) :   1.1468 B( 44-C , 45-C ) :   1.5910 B( 44-C ,100-H ) :   0.9718
B( 45-C , 46-C ) :   1.2646 B( 45-C , 50-C ) :   1.0262 B( 46-C , 47-C ) :   1.0589
B( 47-C , 48-C ) :   1.0489 B( 47-C ,101-H ) :   0.8787 B( 47-C ,102-H ) :   0.8970
B( 48-C , 49-C ) :   1.0549 B( 48-C , 51-C ) :   0.9568 B( 48-C ,103-H ) :   0.9080
B( 49-C , 50-C ) :   1.0974 B( 49-C ,104-H ) :   0.9195 B( 49-C ,105-H ) :   0.9372
B( 50-C ,106-H ) :   0.9134 B( 50-C ,107-H ) :   0.9181 B( 51-C , 52-C ) :   1.9688
B( 51-C , 53-C ) :   1.0321 B( 52-C ,108-H ) :   0.9342 B( 52-C ,109-H ) :   0.9290
B( 53-C , 54-C ) :   1.7068 B( 53-C ,110-H ) :   0.9263 B( 54-C , 55-C ) :   1.0459
B( 54-C , 63-C ) :   0.9089 B( 55-C , 56-C ) :   1.6348 B( 55-C , 61-C ) :   0.9898
B( 56-C , 57-C ) :   1.1528 B( 56-C , 59-C ) :   1.1439 B( 57-C , 58-N ) :   2.9321
B( 59-C , 60-N ) :   2.9724 B( 61-C , 62-C ) :   1.2230 B( 61-C , 68-C ) :   1.4316
B( 62-C , 63-C ) :   0.9364 B( 62-C , 65-C ) :   1.4424 B( 63-C , 64-O ) :   2.2489
B( 65-C , 66-C ) :   1.1741 B( 65-C ,111-H ) :   1.0237 B( 66-C , 67-C ) :   1.2550
B( 66-C , 72-C ) :   1.2496 B( 67-C , 68-C ) :   1.2018 B( 67-C , 69-C ) :   1.2344
B( 68-C ,112-H ) :   0.9867 B( 69-C , 70-C ) :   1.4839 B( 69-C ,113-H ) :   0.9998
B( 70-C , 71-C ) :   1.2493 B( 70-C ,114-H ) :   0.9893 B( 71-C , 72-C ) :   1.4814
B( 71-C ,115-H ) :   0.9910 B( 72-C ,116-H ) :   0.9889

-----------------------------------------------------------------------------
         ABSORPTION SPECTRUM VIA TRANSITION ELECTRIC DIPOLE MOMENTS
-----------------------------------------------------------------------------
State   Energy  Wavelength   fosc         T2         TX        TY        TZ
        (cm-1)    (nm)                  (au**2)     (au)      (au)      (au)
-----------------------------------------------------------------------------
   0   20722.5    482.6   0.055822277   0.88683   0.73845  -0.55390  -0.18631
   1   22097.2    452.5   0.009792178   0.14589   0.04853  -0.25838  -0.27708
   2   23805.0    420.1   0.315253544   4.35980  -0.81574   1.73342   0.83042
   3   25791.4    387.7   0.114058411   1.45589   0.08685  -1.18685  -0.19930
   4   26189.1    381.8   0.056237007   0.70693   0.62762  -0.47625  -0.29362
   5   26668.0    375.0   0.006948542   0.08578  -0.05026   0.25724  -0.13069
   6   26999.5    370.4   0.004979703   0.06072   0.04131   0.20545  -0.12963
   7   27898.6    358.4   0.029395367   0.34687  -0.44577  -0.35689   0.14418
   8   27973.2    357.5   0.106340947   1.25151   1.03725   0.18308  -0.37696
   9   28441.3    351.6   0.024112761   0.27911   0.28409  -0.44510   0.01703
  10   28675.9    348.7   0.006319823   0.07255  -0.14442   0.20025  -0.10769
  11   29083.2    343.8   0.004128410   0.04673  -0.08519   0.11915   0.15899
  12   29165.4    342.9   0.073384701   0.82835  -0.63964   0.47914   0.43547
  13   29459.6    339.4   0.078833262   0.88096   0.10073  -0.44478   0.82036
  14   29715.0    336.5   0.010674659   0.11826   0.17839  -0.18180  -0.23107
  15   29838.3    335.1   0.036266221   0.40013   0.19691   0.59834   0.05788
  16   30427.2    328.7   0.064943585   0.70267   0.67931  -0.44600  -0.20565
  17   30712.5    325.6   0.122043001   1.30820  -0.82031   0.49564   0.62421
  18   31035.2    322.2   0.005245325   0.05564  -0.14541  -0.16695   0.08138
  19   31313.1    319.4   0.000527912   0.00555   0.05750   0.04627  -0.01016
  20   31918.6    313.3   0.191073631   1.97075   0.60672  -0.63533  -1.09499
  21   32774.4    305.1   0.012621716   0.12678   0.11990  -0.33454   0.02210
  22   32920.6    303.8   0.001019785   0.01020  -0.02291   0.07091  -0.06815
  23   33065.8    302.4   0.037660677   0.37496  -0.45843  -0.00671  -0.40590
  24   33289.0    300.4   0.104755453   1.03598   0.11752  -1.00587  -0.10198
  25   34128.3    293.0   0.317807642   3.06567   1.06906   0.12147  -1.38132
  26   34165.7    292.7   0.213174066   2.05409  -0.48755   0.86789   1.03109
  27   34778.7    287.5   0.227272706   2.15134   1.35121   0.16031  -0.54762
  28   34811.8    287.3   0.252952190   2.39214   1.38240   0.29455  -0.62798
  29   34895.9    286.6   0.829990038   7.83023   2.50327   0.50810  -1.14267
  30   35022.2    285.5   0.428580864   4.02870  -1.42452   0.46370   1.33582
  31   35418.5    282.3   0.078644874   0.73100  -0.73968  -0.29322   0.31288
  32   35757.1    279.7   0.028084976   0.25858  -0.45519   0.04922   0.22125
  33   35789.3    279.4   0.008690595   0.07994  -0.23550  -0.11776   0.10302
  34   36511.5    273.9   0.007326050   0.06606   0.21024  -0.12388   0.08068
  35   36803.6    271.7   0.000277789   0.00248  -0.01853   0.03500   0.03027
  36   36820.1    271.6   0.004903577   0.04384   0.06202   0.17952  -0.08814
  37   37032.8    270.0   0.081919041   0.72824  -0.67872  -0.41735   0.30560
  38   37310.9    268.0   0.000053201   0.00047   0.00991   0.01589   0.01089
  39   37399.6    267.4   0.001119613   0.00986  -0.06617  -0.06905  -0.02663
  40   38159.9    262.1   0.015250569   0.13157   0.31498  -0.14809  -0.10213
  41   38477.5    259.9   0.014862384   0.12716  -0.22881  -0.08046   0.26141
  42   38808.9    257.7   0.009674193   0.08207   0.12285   0.25288   0.05501
  43   38947.4    256.8   0.002940813   0.02486  -0.09088  -0.11273   0.06237
  44   39143.5    255.5   0.006115142   0.05143  -0.05159  -0.21965  -0.02291
  45   39175.8    255.3   0.002036774   0.01712   0.04752   0.12001  -0.02133
  46   39942.7    250.4   0.099150151   0.81721   0.29195   0.75225   0.40754
  47   39995.8    250.0   0.169609839   1.39609  -0.21960   0.95078  -0.66625

FINAL SINGLE POINT ENERGY     -4025.205401290408

DIPOLE MOMENT
-------------
                                X             Y             Z
Electronic contribution:    -21.12742       4.04266      14.78784
Nuclear contribution   :     18.27538      -4.37400     -13.93903
                        -----------------------------------------
Total Dipole Moment    :     -2.85204      -0.33133       0.84881
                        -----------------------------------------
Magnitude (a.u.)       :      2.99406
Magnitude (Debye)      :      7.61030

Rotational constants in cm-1:     0.001396     0.000746     0.000633
Rotational constants in MHz :    41.851499    22.369216    18.977587

                             ****ORCA TERMINATED NORMALLY****
TOTAL RUN TIME: 0 days 0 hours 26 minutes 25 seconds 14 msec
