                         Program Version 4.2.0 -  RELEASE  -
|  1> # ORCA input file
|  2> # SCF done       -185.080827493268          0.000714419387
|  3> ! CAM-B3LYP def2-SVP def2/J RIJCOSX Grid4 TightSCF
|  4> %maxcore 5000
|  5> %tddft
|  6>     Mode sTDDFT
|  7>     Ethresh 5.0
|  8>     maxcore 5000
|  9> end
| 10>
| 11> %pal
| 12>   nprocs 6
| 13>   end
| 14> * xyz 0 1
| 15>    C       -5.35437         0.80488        -3.06725
| 16>    C       -5.34900         1.20192        -1.74977
| 17>    C       -6.37384         0.91022        -0.83205
| 18>    N       -7.19988         0.74482        -0.05032
| 19>    C       -4.28297         1.90120        -1.15878
| 20>    N       -3.41998         2.46119        -0.64717
| 21>    C       -6.26804        -0.18115        -3.64146
| 22>    C       -5.72159        -0.63534        -4.87650
| 23>    C       -6.33441        -1.59864        -5.62277
| 24>    C       -7.54966        -2.15756        -5.16379
| 25>    C       -8.10805        -1.69923        -3.93676
| 26>    C       -7.44598        -0.70195        -3.18164
| 27>    C       -9.31929        -2.26384        -3.48998
| 28>    C       -9.94894        -3.23787        -4.21658
| 29>    C       -9.39804        -3.68899        -5.42457
| 30>    C       -8.22397        -3.15964        -5.88809
| 31>    C       -4.46877         0.09532        -5.14609
| 32>    O       -3.70939        -0.05034        -6.07952
| 33>    C       -4.34844         1.09247        -4.04938
| 34>    C       -3.40297         2.07896        -4.17556
| 35>    C       -3.27153         3.32735        -3.55543
| 36>    C       -4.21200         4.13381        -2.88571
| 37>    O       -5.47815         3.69519        -2.78173
| 38>    C       -6.39867         4.40938        -1.97663
| 39>    C       -3.67438         5.35642        -2.44978
| 40>    O       -4.41561         6.35919        -1.86947
| 41>    C       -4.65914         7.46526        -2.72059
| 42>    C       -2.30721         5.49389        -2.72190
| 43>    S       -1.74013         4.15164        -3.66838
| 44>    C       -1.38272         6.47139        -2.32322
| 45>    C       -1.47343         7.38285        -1.29441
| 46>    C       -0.41979         8.26101        -0.93069
| 47>    C       -0.66505         9.00172         0.18516
| 48>    C       -1.93105         8.75312         0.75609
| 49>    S       -2.80549         7.55819        -0.17395
| 50>    C       -2.47297         9.33795         1.88992
| 51>    C       -1.84545        10.23091         2.78447
| 52>    C       -2.62919        10.61603         3.83289
| 53>    C       -3.92764        10.05871         3.81304
| 54>    S       -4.10563         9.01371         2.41275
| 55>    C       -4.99302        10.22542         4.67247
| 56>    C       -5.03226        10.95752         5.85997
| 57>    C       -6.21154        11.10839         6.62920
| 58>    O       -7.34048        10.52772         6.17287
| 59>    C       -8.54178        10.68343         6.90074
| 60>    C       -6.00090        11.86026         7.78257
| 61>    O       -6.96592        12.13857         8.70859
| 62>    C       -7.32573        13.50659         8.87995
| 63>    C       -4.65029        12.25931         7.95571
| 64>    S       -3.68125        11.76181         6.60028
| 65>    C       -4.20237        12.88114         9.12139
| 66>    C       -2.93190        13.27370         9.48598
| 67>    C       -2.56487        13.85688        10.75580
| 68>    C       -3.40677        14.27786        11.75857
| 69>    C       -2.96719        14.84356        12.97217
| 70>    N       -2.68201        15.30882        13.98303
| 71>    C       -4.81330        14.25068        11.72000
| 72>    N       -5.96192        14.29029        11.76444
| 73>    C       -1.10862        13.97379        10.78262
| 74>    C       -0.59909        13.53741         9.52625
| 75>    C       -1.72264        13.11164         8.67676
| 76>    O       -1.64575        12.70869         7.52585
| 77>    C        0.73618        13.53444         9.24810
| 78>    C        1.64615        13.97103        10.23823
| 79>    C        1.14638        14.40494        11.49888
| 80>    C       -0.24561        14.40086        11.75486
| 81>    C        2.06170        14.83490        12.47996
| 82>    C        3.40753        14.83718        12.22993
| 83>    C        3.89857        14.40956        10.98821
| 84>    C        3.03607        13.98568        10.01326
| 85>    H       -5.89724        -1.93545        -6.55108
| 86>    H       -7.89390        -0.37237        -2.25712
| 87>    H       -9.73863        -1.91508        -2.55746
| 88>    H      -10.87495        -3.66656        -3.86321
| 89>    H       -9.90747        -4.45819        -5.98579
| 90>    H       -7.79433        -3.50352        -6.81778
| 91>    H       -2.65221         1.86727        -4.93328
| 92>    H       -7.25845         3.74911        -1.86532
| 93>    H       -6.71421         5.33659        -2.45988
| 94>    H       -5.97499         4.63528        -0.99663
| 95>    H       -5.21583         8.18293        -2.12181
| 96>    H       -5.25329         7.16781        -3.59150
| 97>    H       -3.72744         7.92177        -3.06638
| 98>    H       -0.42825         6.43548        -2.83382
| 99>    H        0.48907         8.30645        -1.50427
|100>    H        0.02253         9.71657         0.59951
|101>    H       -0.83169        10.55879         2.64199
|102>    H       -2.30551        11.28617         4.60775
|103>    H       -5.91851         9.72711         4.41407
|104>    H       -8.42722        10.36346         7.93766
|105>    H       -9.26845        10.05048         6.39358
|106>    H       -8.88682        11.72060         6.87828
|107>    H       -8.28637        13.68728         8.38617
|108>    H       -6.57742        14.17983         8.45924
|109>    H       -7.42479        13.69727         9.94877
|110>    H       -4.97850        13.01746         9.86390
|111>    H        1.09631        13.19827         8.28703
|112>    H       -0.58983        14.73293        12.72119
|113>    H        1.67867        15.16351        13.43500
|114>    H        4.10062        15.16829        12.98882
|115>    H        4.96316        14.41704        10.80729
|116>    H        3.40858        13.65464         9.05470
|117> *
|118>
|119>                          ****END OF INPUT****

CARTESIAN COORDINATES (ANGSTROEM)
---------------------------------
  C     -5.354370    0.804880   -3.067250
  C     -5.349000    1.201920   -1.749770
  C     -6.373840    0.910220   -0.832050
  N     -7.199880    0.744820   -0.050320
  C     -4.282970    1.901200   -1.158780
  N     -3.419980    2.461190   -0.647170
  C     -6.268040   -0.181150   -3.641460
  C     -5.721590   -0.635340   -4.876500
  C     -6.334410   -1.598640   -5.622770
  C     -7.549660   -2.157560   -5.163790
  C     -8.108050   -1.699230   -3.936760
  C     -7.445980   -0.701950   -3.181640
  C     -9.319290   -2.263840   -3.489980
  C     -9.948940   -3.237870   -4.216580
  C     -9.398040   -3.688990   -5.424570
  C     -8.223970   -3.159640   -5.888090
  C     -4.468770    0.095320   -5.146090
  O     -3.709390   -0.050340   -6.079520
  C     -4.348440    1.092470   -4.049380
  C     -3.402970    2.078960   -4.175560
  C     -3.271530    3.327350   -3.555430
  C     -4.212000    4.133810   -2.885710
  O     -5.478150    3.695190   -2.781730
  C     -6.398670    4.409380   -1.976630
  C     -3.674380    5.356420   -2.449780
  O     -4.415610    6.359190   -1.869470
  C     -4.659140    7.465260   -2.720590
  C     -2.307210    5.493890   -2.721900
  S     -1.740130    4.151640   -3.668380
  C     -1.382720    6.471390   -2.323220
  C     -1.473430    7.382850   -1.294410
  C     -0.419790    8.261010   -0.930690
  C     -0.665050    9.001720    0.185160
  C     -1.931050    8.753120    0.756090
  S     -2.805490    7.558190   -0.173950
  C     -2.472970    9.337950    1.889920
  C     -1.845450   10.230910    2.784470
  C     -2.629190   10.616030    3.832890
  C     -3.927640   10.058710    3.813040
  S     -4.105630    9.013710    2.412750
  C     -4.993020   10.225420    4.672470
  C     -5.032260   10.957520    5.859970
  C     -6.211540   11.108390    6.629200
  O     -7.340480   10.527720    6.172870
  C     -8.541780   10.683430    6.900740
  C     -6.000900   11.860260    7.782570
  O     -6.965920   12.138570    8.708590
  C     -7.325730   13.506590    8.879950
  C     -4.650290   12.259310    7.955710
  S     -3.681250   11.761810    6.600280
  C     -4.202370   12.881140    9.121390
  C     -2.931900   13.273700    9.485980
  C     -2.564870   13.856880   10.755800
  C     -3.406770   14.277860   11.758570
  C     -2.967190   14.843560   12.972170
  N     -2.682010   15.308820   13.983030
  C     -4.813300   14.250680   11.720000
  N     -5.961920   14.290290   11.764440
  C     -1.108620   13.973790   10.782620
  C     -0.599090   13.537410    9.526250
  C     -1.722640   13.111640    8.676760
  O     -1.645750   12.708690    7.525850
  C      0.736180   13.534440    9.248100
  C      1.646150   13.971030   10.238230
  C      1.146380   14.404940   11.498880
  C     -0.245610   14.400860   11.754860
  C      2.061700   14.834900   12.479960
  C      3.407530   14.837180   12.229930
  C      3.898570   14.409560   10.988210
  C      3.036070   13.985680   10.013260
  H     -5.897240   -1.935450   -6.551080
  H     -7.893900   -0.372370   -2.257120
  H     -9.738630   -1.915080   -2.557460
  H    -10.874950   -3.666560   -3.863210
  H     -9.907470   -4.458190   -5.985790
  H     -7.794330   -3.503520   -6.817780
  H     -2.652210    1.867270   -4.933280
  H     -7.258450    3.749110   -1.865320
  H     -6.714210    5.336590   -2.459880
  H     -5.974990    4.635280   -0.996630
  H     -5.215830    8.182930   -2.121810
  H     -5.253290    7.167810   -3.591500
  H     -3.727440    7.921770   -3.066380
  H     -0.428250    6.435480   -2.833820
  H      0.489070    8.306450   -1.504270
  H      0.022530    9.716570    0.599510
  H     -0.831690   10.558790    2.641990
  H     -2.305510   11.286170    4.607750
  H     -5.918510    9.727110    4.414070
  H     -8.427220   10.363460    7.937660
  H     -9.268450   10.050480    6.393580
  H     -8.886820   11.720600    6.878280
  H     -8.286370   13.687280    8.386170
  H     -6.577420   14.179830    8.459240
  H     -7.424790   13.697270    9.948770
  H     -4.978500   13.017460    9.863900
  H      1.096310   13.198270    8.287030
  H     -0.589830   14.732930   12.721190
  H      1.678670   15.163510   13.435000
  H      4.100620   15.168290   12.988820
  H      4.963160   14.417040   10.807290
  H      3.408580   13.654640    9.054700

 Total Charge           Charge          ....    0
 Multiplicity           Mult            ....    1
 Number of Electrons    NEL             ....  508
 Basis Dimension        Dim             .... 1156

ORBITAL ENERGIES
----------------

  NO   OCC          E(Eh)            E(eV)
   0   2.0000     -88.962882     -2420.8031
   1   2.0000     -88.960106     -2420.7275
   2   2.0000     -88.956237     -2420.6223
   3   2.0000     -88.954960     -2420.5875
   4   2.0000     -19.269171      -524.3408
   5   2.0000     -19.255883      -523.9792
   6   2.0000     -19.255056      -523.9567
   7   2.0000     -19.249762      -523.8127
   8   2.0000     -19.211414      -522.7692
   9   2.0000     -19.198942      -522.4298
  10   2.0000     -14.410897      -392.1405
  11   2.0000     -14.403102      -391.9283
  12   2.0000     -14.402608      -391.9149
  13   2.0000     -14.399506      -391.8305
  14   2.0000     -10.359431      -281.8944
  15   2.0000     -10.358836      -281.8783
  16   2.0000     -10.349386      -281.6211
  17   2.0000     -10.348302      -281.5916
  18   2.0000     -10.342848      -281.4432
  19   2.0000     -10.341353      -281.4025
  20   2.0000     -10.330974      -281.1201
  21   2.0000     -10.329380      -281.0767
  22   2.0000     -10.328068      -281.0410
  23   2.0000     -10.325524      -280.9718
  24   2.0000     -10.324376      -280.9406
  25   2.0000     -10.323147      -280.9071
  26   2.0000     -10.322669      -280.8941
  27   2.0000     -10.322658      -280.8938
  28   2.0000     -10.321878      -280.8726
  29   2.0000     -10.320420      -280.8329
  30   2.0000     -10.320348      -280.8309
  31   2.0000     -10.319014      -280.7947
  32   2.0000     -10.318294      -280.7751
  33   2.0000     -10.315481      -280.6985
  34   2.0000     -10.312826      -280.6263
  35   2.0000     -10.309949      -280.5480
  36   2.0000     -10.309724      -280.5418
  37   2.0000     -10.309072      -280.5241
  38   2.0000     -10.307395      -280.4785
  39   2.0000     -10.307336      -280.4769
  40   2.0000     -10.306318      -280.4492
  41   2.0000     -10.301774      -280.3255
  42   2.0000     -10.300121      -280.2805
  43   2.0000     -10.299212      -280.2558
  44   2.0000     -10.297893      -280.2199
  45   2.0000     -10.295375      -280.1514
  46   2.0000     -10.294203      -280.1195
  47   2.0000     -10.292260      -280.0666
  48   2.0000     -10.291512      -280.0463
  49   2.0000     -10.290862      -280.0286
  50   2.0000     -10.290346      -280.0146
  51   2.0000     -10.289679      -279.9964
  52   2.0000     -10.288558      -279.9659
  53   2.0000     -10.288553      -279.9658
  54   2.0000     -10.285524      -279.8833
  55   2.0000     -10.285374      -279.8792
  56   2.0000     -10.284999      -279.8690
  57   2.0000     -10.284087      -279.8442
  58   2.0000     -10.281966      -279.7865
  59   2.0000     -10.281100      -279.7630
  60   2.0000     -10.280961      -279.7592
  61   2.0000     -10.280591      -279.7491
  62   2.0000     -10.279914      -279.7307
  63   2.0000     -10.279476      -279.7188
  64   2.0000     -10.279417      -279.7172
  65   2.0000     -10.276007      -279.6244
  66   2.0000     -10.275659      -279.6149
  67   2.0000     -10.275335      -279.6061
  68   2.0000     -10.274804      -279.5916
  69   2.0000     -10.274713      -279.5892
  70   2.0000      -8.058775      -219.2904
  71   2.0000      -8.053191      -219.1385
  72   2.0000      -8.051504      -219.0926
  73   2.0000      -8.051400      -219.0897
  74   2.0000      -6.028138      -164.0340
  75   2.0000      -6.024444      -163.9334
  76   2.0000      -6.022732      -163.8869
  77   2.0000      -6.021191      -163.8449
  78   2.0000      -6.021141      -163.8436
  79   2.0000      -6.020163      -163.8170
  80   2.0000      -6.018468      -163.7708
  81   2.0000      -6.017131      -163.7344
  82   2.0000      -6.016883      -163.7277
  83   2.0000      -6.014868      -163.6729
  84   2.0000      -6.012486      -163.6081
  85   2.0000      -6.012467      -163.6075
  86   2.0000      -1.176570       -32.0161
  87   2.0000      -1.164704       -31.6932
  88   2.0000      -1.153315       -31.3833
  89   2.0000      -1.144299       -31.1380
  90   2.0000      -1.125739       -30.6329
  91   2.0000      -1.113344       -30.2956
  92   2.0000      -1.010037       -27.4845
  93   2.0000      -1.006921       -27.3997
  94   2.0000      -1.003381       -27.3034
  95   2.0000      -0.993613       -27.0376
  96   2.0000      -0.992078       -26.9958
  97   2.0000      -0.988166       -26.8894
  98   2.0000      -0.984672       -26.7943
  99   2.0000      -0.984281       -26.7836
 100   2.0000      -0.980613       -26.6838
 101   2.0000      -0.979124       -26.6433
 102   2.0000      -0.963755       -26.2251
 103   2.0000      -0.957554       -26.0564
 104   2.0000      -0.918929       -25.0053
 105   2.0000      -0.914532       -24.8857
 106   2.0000      -0.908350       -24.7175
 107   2.0000      -0.901270       -24.5248
 108   2.0000      -0.889860       -24.2143
 109   2.0000      -0.881684       -23.9919
 110   2.0000      -0.874524       -23.7970
 111   2.0000      -0.871289       -23.7090
 112   2.0000      -0.868370       -23.6296
 113   2.0000      -0.862855       -23.4795
 114   2.0000      -0.857428       -23.3318
 115   2.0000      -0.851871       -23.1806
 116   2.0000      -0.844717       -22.9859
 117   2.0000      -0.837448       -22.7881
 118   2.0000      -0.832645       -22.6574
 119   2.0000      -0.824301       -22.4304
 120   2.0000      -0.821442       -22.3526
 121   2.0000      -0.815773       -22.1983
 122   2.0000      -0.807523       -21.9738
 123   2.0000      -0.802258       -21.8306
 124   2.0000      -0.794217       -21.6117
 125   2.0000      -0.774378       -21.0719
 126   2.0000      -0.769372       -20.9357
 127   2.0000      -0.765515       -20.8307
 128   2.0000      -0.754535       -20.5319
 129   2.0000      -0.749598       -20.3976
 130   2.0000      -0.745058       -20.2741
 131   2.0000      -0.734102       -19.9759
 132   2.0000      -0.710819       -19.3424
 133   2.0000      -0.700241       -19.0545
 134   2.0000      -0.697797       -18.9880
 135   2.0000      -0.696214       -18.9450
 136   2.0000      -0.691891       -18.8273
 137   2.0000      -0.690260       -18.7829
 138   2.0000      -0.684577       -18.6283
 139   2.0000      -0.674154       -18.3447
 140   2.0000      -0.667133       -18.1536
 141   2.0000      -0.664096       -18.0710
 142   2.0000      -0.659661       -17.9503
 143   2.0000      -0.658658       -17.9230
 144   2.0000      -0.642669       -17.4879
 145   2.0000      -0.640062       -17.4170
 146   2.0000      -0.633323       -17.2336
 147   2.0000      -0.629033       -17.1169
 148   2.0000      -0.628865       -17.1123
 149   2.0000      -0.624696       -16.9988
 150   2.0000      -0.617568       -16.8049
 151   2.0000      -0.612701       -16.6724
 152   2.0000      -0.609218       -16.5777
 153   2.0000      -0.600357       -16.3365
 154   2.0000      -0.599771       -16.3206
 155   2.0000      -0.593880       -16.1603
 156   2.0000      -0.590779       -16.0759
 157   2.0000      -0.584565       -15.9068
 158   2.0000      -0.580259       -15.7896
 159   2.0000      -0.578917       -15.7531
 160   2.0000      -0.575727       -15.6663
 161   2.0000      -0.569057       -15.4848
 162   2.0000      -0.563241       -15.3266
 163   2.0000      -0.560287       -15.2462
 164   2.0000      -0.555401       -15.1132
 165   2.0000      -0.549825       -14.9615
 166   2.0000      -0.546867       -14.8810
 167   2.0000      -0.543582       -14.7916
 168   2.0000      -0.540328       -14.7031
 169   2.0000      -0.539880       -14.6909
 170   2.0000      -0.538074       -14.6417
 171   2.0000      -0.537094       -14.6151
 172   2.0000      -0.534698       -14.5499
 173   2.0000      -0.532861       -14.4999
 174   2.0000      -0.529932       -14.4202
 175   2.0000      -0.527461       -14.3529
 176   2.0000      -0.525146       -14.2899
 177   2.0000      -0.522219       -14.2103
 178   2.0000      -0.517901       -14.0928
 179   2.0000      -0.517138       -14.0720
 180   2.0000      -0.512997       -13.9594
 181   2.0000      -0.512248       -13.9390
 182   2.0000      -0.507838       -13.8190
 183   2.0000      -0.506144       -13.7729
 184   2.0000      -0.505184       -13.7468
 185   2.0000      -0.504034       -13.7155
 186   2.0000      -0.503471       -13.7001
 187   2.0000      -0.499976       -13.6050
 188   2.0000      -0.498137       -13.5550
 189   2.0000      -0.495461       -13.4822
 190   2.0000      -0.492071       -13.3899
 191   2.0000      -0.489920       -13.3314
 192   2.0000      -0.488229       -13.2854
 193   2.0000      -0.486978       -13.2513
 194   2.0000      -0.480765       -13.0823
 195   2.0000      -0.479903       -13.0588
 196   2.0000      -0.478672       -13.0253
 197   2.0000      -0.478232       -13.0133
 198   2.0000      -0.472057       -12.8453
 199   2.0000      -0.471192       -12.8218
 200   2.0000      -0.466983       -12.7073
 201   2.0000      -0.465370       -12.6634
 202   2.0000      -0.458196       -12.4682
 203   2.0000      -0.452756       -12.3201
 204   2.0000      -0.447404       -12.1745
 205   2.0000      -0.445606       -12.1255
 206   2.0000      -0.443111       -12.0577
 207   2.0000      -0.441591       -12.0163
 208   2.0000      -0.439158       -11.9501
 209   2.0000      -0.438095       -11.9212
 210   2.0000      -0.436364       -11.8741
 211   2.0000      -0.435998       -11.8641
 212   2.0000      -0.432898       -11.7798
 213   2.0000      -0.431790       -11.7496
 214   2.0000      -0.430662       -11.7189
 215   2.0000      -0.429253       -11.6806
 216   2.0000      -0.428105       -11.6493
 217   2.0000      -0.427159       -11.6236
 218   2.0000      -0.426892       -11.6163
 219   2.0000      -0.423844       -11.5334
 220   2.0000      -0.422045       -11.4844
 221   2.0000      -0.420551       -11.4438
 222   2.0000      -0.418537       -11.3890
 223   2.0000      -0.417725       -11.3669
 224   2.0000      -0.416403       -11.3309
 225   2.0000      -0.414124       -11.2689
 226   2.0000      -0.406564       -11.0632
 227   2.0000      -0.404326       -11.0023
 228   2.0000      -0.402062       -10.9406
 229   2.0000      -0.400756       -10.9051
 230   2.0000      -0.398815       -10.8523
 231   2.0000      -0.396879       -10.7996
 232   2.0000      -0.391862       -10.6631
 233   2.0000      -0.386653       -10.5214
 234   2.0000      -0.374012       -10.1774
 235   2.0000      -0.369112       -10.0441
 236   2.0000      -0.365135        -9.9358
 237   2.0000      -0.362818        -9.8728
 238   2.0000      -0.358090        -9.7441
 239   2.0000      -0.348629        -9.4867
 240   2.0000      -0.344682        -9.3793
 241   2.0000      -0.336427        -9.1546
 242   2.0000      -0.326604        -8.8874
 243   2.0000      -0.325107        -8.8466
 244   2.0000      -0.321198        -8.7402
 245   2.0000      -0.311822        -8.4851
 246   2.0000      -0.309156        -8.4126
 247   2.0000      -0.297559        -8.0970
 248   2.0000      -0.295603        -8.0438
 249   2.0000      -0.293642        -7.9904
 250   2.0000      -0.285457        -7.7677
 251   2.0000      -0.280132        -7.6228
 252   2.0000      -0.261461        -7.1147
 253   2.0000      -0.214343        -5.8326
 254   0.0000      -0.112940        -3.0733
 255   0.0000      -0.078001        -2.1225
 256   0.0000      -0.058961        -1.6044
 257   0.0000      -0.049158        -1.3377
 258   0.0000      -0.041317        -1.1243

MULLIKEN ATOMIC CHARGES
-----------------------
   0 C :    0.314100
   1 C :   -0.352911
   2 C :   -0.183127
   3 N :    0.134708
   4 C :   -0.213399
   5 N :    0.158568
   6 C :    0.041777
   7 C :    0.010222
   8 C :   -0.081761
   9 C :    0.091815
  10 C :    0.094262
  11 C :   -0.091214
  12 C :   -0.019046
  13 C :    0.035847
  14 C :    0.029646
  15 C :   -0.014322
  16 C :    0.132274
  17 O :   -0.153103
  18 C :   -0.141866
  19 C :    0.071009
  20 C :   -0.163665
  21 C :    0.221057
  22 O :   -0.293262
  23 C :    0.184667
  24 C :    0.074085
  25 O :   -0.357773
  26 C :    0.198874
  27 C :   -0.110644
  28 S :    0.154124
  29 C :    0.004352
  30 C :   -0.031261
  31 C :    0.033749
  32 C :    0.033242
  33 C :   -0.044641
  34 S :    0.129683
  35 C :   -0.047737
  36 C :    0.020591
  37 C :    0.024527
  38 C :   -0.063267
  39 S :    0.109999
  40 C :    0.042202
  41 C :   -0.124569
  42 C :    0.197531
  43 O :   -0.308431
  44 C :    0.191475
  45 C :    0.129415
  46 O :   -0.344796
  47 C :    0.174624
  48 C :   -0.101546
  49 S :    0.148885
  50 C :   -0.045267
  51 C :   -0.107098
  52 C :    0.334935
  53 C :   -0.368690
  54 C :   -0.185401
  55 N :    0.141571
  56 C :   -0.185056
  57 N :    0.133395
  58 C :    0.041320
  59 C :    0.004837
  60 C :    0.166163
  61 O :   -0.193655
  62 C :   -0.089303
  63 C :    0.100752
  64 C :    0.095972
  65 C :   -0.087588
  66 C :   -0.019511
  67 C :    0.036166
  68 C :    0.033011
  69 C :   -0.018310
  70 H :   -0.018158
  71 H :   -0.014360
  72 H :   -0.015072
  73 H :   -0.009846
  74 H :   -0.009171
  75 H :   -0.021940
  76 H :    0.016732
  77 H :    0.047089
  78 H :    0.019936
  79 H :    0.051094
  80 H :    0.039733
  81 H :    0.020805
  82 H :    0.031100
  83 H :   -0.010965
  84 H :   -0.007949
  85 H :   -0.008758
  86 H :   -0.007990
  87 H :    0.023374
  88 H :    0.001823
  89 H :    0.042992
  90 H :    0.032985
  91 H :    0.012904
  92 H :    0.017859
  93 H :    0.028879
  94 H :    0.066843
  95 H :    0.014993
  96 H :   -0.020581
  97 H :   -0.009722
  98 H :   -0.011267
  99 H :   -0.006992
 100 H :   -0.007323
 101 H :   -0.022254
Sum of atomic charges:   -0.0000000

LOEWDIN ATOMIC CHARGES
----------------------
   0 C :    0.066701
   1 C :   -0.148746
   2 C :   -0.020370
   3 N :   -0.070712
   4 C :   -0.018534
   5 N :   -0.064879
   6 C :   -0.018665
   7 C :   -0.056458
   8 C :    0.028823
   9 C :   -0.012482
  10 C :   -0.006488
  11 C :    0.006663
  12 C :   -0.009277
  13 C :   -0.016987
  14 C :   -0.018985
  15 C :   -0.010508
  16 C :    0.081636
  17 O :   -0.154389
  18 C :   -0.100879
  19 C :    0.040149
  20 C :   -0.203963
  21 C :    0.039320
  22 O :   -0.061818
  23 C :    0.083979
  24 C :   -0.033021
  25 O :   -0.127829
  26 C :    0.070996
  27 C :   -0.162096
  28 S :    0.454484
  29 C :   -0.086437
  30 C :   -0.136991
  31 C :   -0.030441
  32 C :   -0.028675
  33 C :   -0.179159
  34 S :    0.431917
  35 C :   -0.173974
  36 C :   -0.016905
  37 C :   -0.039797
  38 C :   -0.135171
  39 S :    0.392650
  40 C :   -0.065983
  41 C :   -0.172550
  42 C :    0.001037
  43 O :   -0.097399
  44 C :    0.082355
  45 C :    0.010450
  46 O :   -0.120933
  47 C :    0.080674
  48 C :   -0.207281
  49 S :    0.507157
  50 C :    0.043373
  51 C :   -0.118529
  52 C :    0.078622
  53 C :   -0.158501
  54 C :   -0.018466
  55 N :   -0.065688
  56 C :   -0.011340
  57 N :   -0.067465
  58 C :   -0.023676
  59 C :   -0.052249
  60 C :    0.082443
  61 O :   -0.182934
  62 C :    0.026164
  63 C :   -0.009757
  64 C :   -0.007576
  65 C :    0.017176
  66 C :   -0.005784
  67 C :   -0.016329
  68 C :   -0.015374
  69 C :   -0.011824
  70 H :    0.037034
  71 H :    0.036163
  72 H :    0.032484
  73 H :    0.031013
  74 H :    0.030746
  75 H :    0.030128
  76 H :    0.043968
  77 H :    0.029092
  78 H :    0.017333
  79 H :    0.027285
  80 H :    0.025292
  81 H :    0.013696
  82 H :    0.015614
  83 H :    0.036281
  84 H :    0.034784
  85 H :    0.033140
  86 H :    0.034864
  87 H :    0.028109
  88 H :    0.038752
  89 H :    0.022096
  90 H :    0.025742
  91 H :    0.014254
  92 H :    0.012356
  93 H :    0.018561
  94 H :    0.027728
  95 H :    0.048623
  96 H :    0.035996
  97 H :    0.038542
  98 H :    0.034053
  99 H :    0.032239
 100 H :    0.031605
 101 H :    0.029935

  Mayer bond orders larger than 0.100000
B(  0-C ,  1-C ) :   1.5905 B(  0-C ,  6-C ) :   0.9926 B(  0-C , 18-C ) :   1.0992
B(  1-C ,  2-C ) :   1.1478 B(  1-C ,  4-C ) :   1.1808 B(  2-C ,  3-N ) :   2.9623
B(  4-C ,  5-N ) :   2.9872 B(  6-C ,  7-C ) :   1.2153 B(  6-C , 11-C ) :   1.4659
B(  7-C ,  8-C ) :   1.4828 B(  7-C , 16-C ) :   0.9190 B(  8-C ,  9-C ) :   1.1750
B(  8-C , 70-H ) :   1.0155 B(  9-C , 10-C ) :   1.2657 B(  9-C , 15-C ) :   1.2475
B( 10-C , 11-C ) :   1.1949 B( 10-C , 12-C ) :   1.2443 B( 11-C , 71-H ) :   0.9918
B( 12-C , 13-C ) :   1.4865 B( 12-C , 72-H ) :   0.9967 B( 13-C , 14-C ) :   1.2635
B( 13-C , 73-H ) :   0.9884 B( 14-C , 15-C ) :   1.4861 B( 14-C , 74-H ) :   0.9889
B( 15-C , 75-H ) :   0.9969 B( 16-C , 17-O ) :   2.2558 B( 16-C , 18-C ) :   0.9533
B( 18-C , 19-C ) :   1.5683 B( 19-C , 20-C ) :   1.2240 B( 19-C , 76-H ) :   0.9205
B( 20-C , 21-C ) :   1.3622 B( 20-C , 27-C ) :   0.1028 B( 20-C , 28-S ) :   1.0890
B( 21-C , 22-O ) :   1.2233 B( 21-C , 24-C ) :   1.2642 B( 22-O , 23-C ) :   0.9116
B( 23-C , 77-H ) :   0.9744 B( 23-C , 78-H ) :   0.9769 B( 23-C , 79-H ) :   0.9702
B( 24-C , 25-O ) :   1.1075 B( 24-C , 27-C ) :   1.3966 B( 25-O , 26-C ) :   0.9206
B( 26-C , 80-H ) :   0.9794 B( 26-C , 81-H ) :   0.9637 B( 26-C , 82-H ) :   0.9706
B( 27-C , 28-S ) :   1.1200 B( 27-C , 29-C ) :   1.1821 B( 29-C , 30-C ) :   1.5581
B( 29-C , 83-H ) :   0.9420 B( 30-C , 31-C ) :   1.1502 B( 30-C , 34-S ) :   1.0691
B( 31-C , 32-C ) :   1.5731 B( 31-C , 84-H ) :   1.0010 B( 32-C , 33-C ) :   1.1959
B( 32-C , 85-H ) :   0.9950 B( 33-C , 34-S ) :   1.0332 B( 33-C , 35-C ) :   1.4681
B( 35-C , 36-C ) :   1.2072 B( 35-C , 39-S ) :   1.0644 B( 36-C , 37-C ) :   1.5820
B( 36-C , 86-H ) :   0.9933 B( 37-C , 38-C ) :   1.1796 B( 37-C , 87-H ) :   0.9788
B( 38-C , 39-S ) :   1.0531 B( 38-C , 40-C ) :   1.4744 B( 40-C , 41-C ) :   1.2887
B( 40-C , 88-H ) :   0.9489 B( 41-C , 42-C ) :   1.3193 B( 41-C , 48-C ) :   0.1012
B( 41-C , 49-S ) :   1.0784 B( 42-C , 43-O ) :   1.2058 B( 42-C , 45-C ) :   1.3407
B( 43-O , 44-C ) :   0.9329 B( 44-C , 89-H ) :   0.9730 B( 44-C , 90-H ) :   0.9777
B( 44-C , 91-H ) :   0.9741 B( 45-C , 46-O ) :   1.1519 B( 45-C , 48-C ) :   1.2701
B( 46-O , 47-C ) :   0.8953 B( 47-C , 92-H ) :   0.9682 B( 47-C , 93-H ) :   0.9663
B( 47-C , 94-H ) :   0.9679 B( 48-C , 49-S ) :   1.0724 B( 48-C , 50-C ) :   1.3344
B( 50-C , 51-C ) :   1.4120 B( 50-C , 95-H ) :   0.9321 B( 51-C , 52-C ) :   1.1114
B( 51-C , 60-C ) :   0.9931 B( 52-C , 53-C ) :   1.5848 B( 52-C , 58-C ) :   0.9762
B( 53-C , 54-C ) :   1.1530 B( 53-C , 56-C ) :   1.1584 B( 54-C , 55-N ) :   2.9602
B( 56-C , 57-N ) :   2.9424 B( 58-C , 59-C ) :   1.2139 B( 58-C , 65-C ) :   1.4647
B( 59-C , 60-C ) :   0.9556 B( 59-C , 62-C ) :   1.4768 B( 60-C , 61-O ) :   2.1140
B( 62-C , 63-C ) :   1.1709 B( 62-C , 96-H ) :   1.0157 B( 63-C , 64-C ) :   1.2597
B( 63-C , 69-C ) :   1.2479 B( 64-C , 65-C ) :   1.1947 B( 64-C , 66-C ) :   1.2475
B( 65-C , 97-H ) :   0.9885 B( 66-C , 67-C ) :   1.4846 B( 66-C , 98-H ) :   0.9961
B( 67-C , 68-C ) :   1.2636 B( 67-C , 99-H ) :   0.9881 B( 68-C , 69-C ) :   1.4850
B( 68-C ,100-H ) :   0.9891 B( 69-C ,101-H ) :   0.9966

-----------------------------------------------------------------------------
         ABSORPTION SPECTRUM VIA TRANSITION ELECTRIC DIPOLE MOMENTS
-----------------------------------------------------------------------------
State   Energy  Wavelength   fosc         T2         TX        TY        TZ
        (cm-1)    (nm)                  (au**2)     (au)      (au)      (au)
-----------------------------------------------------------------------------
   0    9321.6   1072.8   1.768461905  62.45692   0.30689   4.91751   6.17907
   1   16848.7    593.5   0.093759230   1.83199   0.22749   1.02521  -0.85393
   2   19203.5    520.7   0.198337648   3.40017   0.72880   1.42505  -0.91556
   3   21350.7    468.4   0.044985605   0.69364   0.72201   0.39924  -0.11380
   4   22640.8    441.7   0.098164563   1.42738   1.02870  -0.04737  -0.60573
   5   24277.3    411.9   0.038171874   0.51763  -0.64534  -0.29718  -0.11337
   6   24480.4    408.5   0.050428631   0.67816  -0.76790   0.17319   0.24188
   7   24755.5    403.9   0.094322894   1.25435  -0.81462  -0.59326   0.48867
   8   25595.9    390.7   0.057774536   0.74309  -0.52951   0.40661   0.54532
   9   26272.8    380.6   0.484432777   6.07019   1.97189   1.46632   0.17814
  10   26883.9    372.0   0.003247919   0.03977   0.13535   0.14647  -0.00099
  11   27401.0    365.0   0.165461139   1.98795   1.31823   0.49368  -0.08069
  12   27776.0    360.0   0.011958311   0.14173  -0.06904  -0.25982   0.26356
  13   28446.5    351.5   0.013224234   0.15304   0.08294  -0.11022  -0.36608
  14   28867.8    346.4   0.011502999   0.13118   0.35794  -0.00131   0.05531
  15   29232.6    342.1   0.007210798   0.08121  -0.24532  -0.13633  -0.04937
  16   29512.2    338.8   0.039955805   0.44571  -0.34078  -0.11486  -0.56248
  17   29963.2    333.7   0.006208388   0.06821  -0.06221  -0.22918  -0.10873
  18   30911.0    323.5   0.071739074   0.76404  -0.38170   0.20503   0.75915
  19   31233.7    320.2   0.073205579   0.77161  -0.51065  -0.51782  -0.49266
  20   31910.8    313.4   0.210955121   2.17634  -1.40223  -0.38057  -0.25544
  21   32184.6    310.7   0.151874456   1.55350   0.28790  -0.86221  -0.85277
  22   32361.8    309.0   0.517834063   5.26785   2.12116   0.74547   0.46130
  23   32605.9    306.7   0.380966492   3.84651   1.87880   0.51959   0.21598
  24   33211.4    301.1   0.024364239   0.24151   0.48171  -0.09527   0.01977
  25   33391.0    299.5   0.083948926   0.82768   0.81638   0.29099  -0.27664
  26   33805.4    295.8   0.061147451   0.59548   0.67717  -0.28444  -0.23669
  27   33938.0    294.7   0.006786236   0.06583  -0.17148   0.16177   0.10126
  28   34063.9    293.6   0.032315916   0.31232  -0.02458   0.48987   0.26785
  29   34295.5    291.6   0.033817403   0.32462  -0.37281  -0.42882  -0.04180
  30   34629.9    288.8   0.074352609   0.70684  -0.33583  -0.49226  -0.59308
  31   34960.9    286.0   0.037090242   0.34926  -0.52289   0.01982   0.27470
  32   35396.1    282.5   0.018671182   0.17366  -0.38309   0.04520  -0.15766
  33   35881.1    278.7   0.018107506   0.16614   0.13533   0.23961  -0.30068
  34   36003.3    277.8   0.124930916   1.14236   0.28927   0.58126   0.84901
  35   36129.9    276.8   0.096423520   0.87860  -0.24047  -0.81042  -0.40497
  36   36449.3    274.4   0.302623956   2.73332   1.29236   0.69306   0.76341
  37   36989.9    270.3   0.118431128   1.05404   0.48642   0.62846   0.64998
  38   37462.2    266.9   0.000446910   0.00393  -0.05488  -0.01018  -0.02850
  39   37853.0    264.2   0.188877157   1.64269   0.68954  -0.53586  -0.93812
  40   37993.0    263.2   0.120244893   1.04193  -0.29991  -0.62444  -0.74970
  41   38168.6    262.0   0.061506084   0.53050   0.60307  -0.15111  -0.37944
  42   38243.0    261.5   0.116996400   1.00715   0.65470  -0.24678  -0.71946
  43   38598.6    259.1   0.085816822   0.73194  -0.84438  -0.13278   0.03659
  44   39119.4    255.6   0.093601828   0.78771  -0.52713   0.27758   0.65787
  45   39558.4    252.8   0.027638518   0.23001   0.15696  -0.05323  -0.45005
  46   39980.9    250.1   0.015934885   0.13121  -0.32810   0.14922  -0.03598

FINAL SINGLE POINT ENERGY     -4412.139060066947

DIPOLE MOMENT
-------------
                                X             Y             Z
Electronic contribution:     15.54377      -6.45902      -1.54240
Nuclear contribution   :    -15.03286       7.82650      -1.29808
                        -----------------------------------------
Total Dipole Moment    :      0.51091       1.36748      -2.84048
                        -----------------------------------------
Magnitude (a.u.)       :      3.19364
Magnitude (Debye)      :      8.11758

Rotational constants in cm-1:     0.001915     0.000237     0.000221
Rotational constants in MHz :    57.400568     7.090997     6.618224

                             ****ORCA TERMINATED NORMALLY****
TOTAL RUN TIME: 0 days 0 hours 21 minutes 6 seconds 104 msec
