                         Program Version 4.2.0 -  RELEASE  -
|  1> # ORCA input file
|  2> # SCF done       -150.210326376335          0.000392619815
|  3> ! CAM-B3LYP def2-SVP def2/J RIJCOSX Grid4 TightSCF
|  4> %maxcore 5000
|  5> %tddft
|  6>     Mode sTDDFT
|  7>     Ethresh 5.0
|  8>     maxcore 5000
|  9> end
| 10>
| 11> %pal
| 12>   nprocs 6
| 13>   end
| 14> * xyz 0 1
| 15>    C        1.65716        -0.31293        -0.80961
| 16>    O        1.08426         0.12021         0.34662
| 17>    C       -0.22173        -0.18378         0.23223
| 18>    C       -1.45169        -0.08945         0.92175
| 19>    C       -1.65181         0.50118         2.25661
| 20>    O       -2.72614         0.58475         2.82969
| 21>    N       -0.51534         0.96254         2.81547
| 22>    C       -2.37061        -0.68043         0.03523
| 23>    O       -1.76697        -1.10526        -1.10620
| 24>    C       -0.47159        -0.80605        -0.98936
| 25>    C        0.76438        -0.88764        -1.66792
| 26>    C       -3.77275        -0.89977         0.11922
| 27>    C       -4.59147        -1.51263        -0.81817
| 28>    C       -5.91710        -1.52707        -0.29421
| 29>    C       -5.89246        -0.83424         0.99835
| 30>    O       -6.78043        -0.53908         1.76515
| 31>    N       -4.55250        -0.50574         1.16942
| 32>    C       -6.71338        -2.14463        -1.23114
| 33>    O       -5.97072        -2.46585        -2.32864
| 34>    C       -4.62733        -2.11900        -2.12882
| 35>    O       -3.79831        -2.32896        -2.96736
| 36>    C       -8.11395        -2.41707        -1.27301
| 37>    S       -8.70227        -2.43041        -2.92993
| 38>    C      -10.24134        -3.27096        -2.77988
| 39>    C      -10.81265        -3.94534        -3.81479
| 40>    S      -12.33870        -4.60941        -3.38960
| 41>    C      -12.20144        -3.99056        -1.79215
| 42>    C      -11.04490        -3.29752        -1.61096
| 43>    S      -10.62752        -2.52370        -0.08649
| 44>    C       -8.85219        -2.57887        -0.12298
| 45>    C       -8.21573        -2.80141         1.12514
| 46>    C       -8.80486        -2.67289         2.34391
| 47>    C       -8.08967        -2.87894         3.54214
| 48>    C       -6.75787        -3.21672         3.76477
| 49>    C       -6.54474        -3.28533         5.17333
| 50>    C       -7.79861        -2.97785         5.84341
| 51>    O       -8.09687        -2.91980         7.01459
| 52>    N       -8.67509        -2.74993         4.78346
| 53>    C       -5.22260        -3.60108         5.37567
| 54>    O       -4.59229        -3.73030         4.17456
| 55>    C       -5.49471        -3.49462         3.13476
| 56>    O       -5.14205        -3.54723         1.98209
| 57>    C       -4.53020        -3.79742         6.59401
| 58>    O       -3.20249        -4.14072         6.59265
| 59>    C       -2.86624        -4.26202         7.88251
| 60>    C       -1.77251        -4.57289         8.72713
| 61>    C       -0.38202        -4.93336         8.37370
| 62>    O        0.47189        -5.17337         9.19855
| 63>    N       -0.15800        -4.96212         7.03957
| 64>    C       -2.30200        -4.46860         9.99534
| 65>    O       -3.60431        -4.12748        10.00433
| 66>    C       -3.96079        -3.99857         8.71221
| 67>    C       -5.04685        -3.69625         7.88200
| 68>    H        2.71277        -0.15354        -0.90327
| 69>    H        0.37583         0.90414         2.35501
| 70>    H       -0.57147         1.38334         3.72807
| 71>    H        0.96586        -1.30184        -2.63242
| 72>    H       -4.15218        -0.04281         1.99142
| 73>    H      -10.41961        -4.07515        -4.80229
| 74>    H      -12.98190        -4.15329        -1.07754
| 75>    H       -7.17927        -3.10413         1.09065
| 76>    H       -9.83652        -2.35874         2.42672
| 77>    H       -9.63728        -2.48138         4.92328
| 78>    H       -0.88659        -4.78381         6.37084
| 79>    H        0.75712        -5.21984         6.71083
| 80>    H       -1.82038        -4.62208        10.94092
| 81>    H       -6.05750        -3.44075         8.12865
| 82> *
| 83>
| 84>                          ****END OF INPUT****

CARTESIAN COORDINATES (ANGSTROEM)
---------------------------------
  C      1.657160   -0.312930   -0.809610
  O      1.084260    0.120210    0.346620
  C     -0.221730   -0.183780    0.232230
  C     -1.451690   -0.089450    0.921750
  C     -1.651810    0.501180    2.256610
  O     -2.726140    0.584750    2.829690
  N     -0.515340    0.962540    2.815470
  C     -2.370610   -0.680430    0.035230
  O     -1.766970   -1.105260   -1.106200
  C     -0.471590   -0.806050   -0.989360
  C      0.764380   -0.887640   -1.667920
  C     -3.772750   -0.899770    0.119220
  C     -4.591470   -1.512630   -0.818170
  C     -5.917100   -1.527070   -0.294210
  C     -5.892460   -0.834240    0.998350
  O     -6.780430   -0.539080    1.765150
  N     -4.552500   -0.505740    1.169420
  C     -6.713380   -2.144630   -1.231140
  O     -5.970720   -2.465850   -2.328640
  C     -4.627330   -2.119000   -2.128820
  O     -3.798310   -2.328960   -2.967360
  C     -8.113950   -2.417070   -1.273010
  S     -8.702270   -2.430410   -2.929930
  C    -10.241340   -3.270960   -2.779880
  C    -10.812650   -3.945340   -3.814790
  S    -12.338700   -4.609410   -3.389600
  C    -12.201440   -3.990560   -1.792150
  C    -11.044900   -3.297520   -1.610960
  S    -10.627520   -2.523700   -0.086490
  C     -8.852190   -2.578870   -0.122980
  C     -8.215730   -2.801410    1.125140
  C     -8.804860   -2.672890    2.343910
  C     -8.089670   -2.878940    3.542140
  C     -6.757870   -3.216720    3.764770
  C     -6.544740   -3.285330    5.173330
  C     -7.798610   -2.977850    5.843410
  O     -8.096870   -2.919800    7.014590
  N     -8.675090   -2.749930    4.783460
  C     -5.222600   -3.601080    5.375670
  O     -4.592290   -3.730300    4.174560
  C     -5.494710   -3.494620    3.134760
  O     -5.142050   -3.547230    1.982090
  C     -4.530200   -3.797420    6.594010
  O     -3.202490   -4.140720    6.592650
  C     -2.866240   -4.262020    7.882510
  C     -1.772510   -4.572890    8.727130
  C     -0.382020   -4.933360    8.373700
  O      0.471890   -5.173370    9.198550
  N     -0.158000   -4.962120    7.039570
  C     -2.302000   -4.468600    9.995340
  O     -3.604310   -4.127480   10.004330
  C     -3.960790   -3.998570    8.712210
  C     -5.046850   -3.696250    7.882000
  H      2.712770   -0.153540   -0.903270
  H      0.375830    0.904140    2.355010
  H     -0.571470    1.383340    3.728070
  H      0.965860   -1.301840   -2.632420
  H     -4.152180   -0.042810    1.991420
  H    -10.419610   -4.075150   -4.802290
  H    -12.981900   -4.153290   -1.077540
  H     -7.179270   -3.104130    1.090650
  H     -9.836520   -2.358740    2.426720
  H     -9.637280   -2.481380    4.923280
  H     -0.886590   -4.783810    6.370840
  H      0.757120   -5.219840    6.710830
  H     -1.820380   -4.622080   10.940920
  H     -6.057500   -3.440750    8.128650

 Total Charge           Charge          ....    0
 Multiplicity           Mult            ....    1
 Number of Electrons    NEL             ....  390
 Basis Dimension        Dim             ....  824

ORBITAL ENERGIES
----------------

  NO   OCC          E(Eh)            E(eV)
   0   2.0000     -88.963486     -2420.8195
   1   2.0000     -88.950361     -2420.4624
   2   2.0000     -88.944971     -2420.3157
   3   2.0000     -19.325661      -525.8780
   4   2.0000     -19.320543      -525.7387
   5   2.0000     -19.311335      -525.4882
   6   2.0000     -19.307528      -525.3846
   7   2.0000     -19.276275      -524.5341
   8   2.0000     -19.268673      -524.3273
   9   2.0000     -19.206968      -522.6482
  10   2.0000     -19.199375      -522.4416
  11   2.0000     -19.193999      -522.2953
  12   2.0000     -19.193040      -522.2692
  13   2.0000     -19.190568      -522.2019
  14   2.0000     -19.171909      -521.6942
  15   2.0000     -14.456126      -393.3712
  16   2.0000     -14.450768      -393.2254
  17   2.0000     -14.441663      -392.9776
  18   2.0000     -14.425821      -392.5465
  19   2.0000     -10.405795      -283.1561
  20   2.0000     -10.398853      -282.9672
  21   2.0000     -10.395297      -282.8704
  22   2.0000     -10.381482      -282.4945
  23   2.0000     -10.378792      -282.4213
  24   2.0000     -10.373839      -282.2865
  25   2.0000     -10.372315      -282.2450
  26   2.0000     -10.362313      -281.9729
  27   2.0000     -10.360261      -281.9170
  28   2.0000     -10.355867      -281.7975
  29   2.0000     -10.352555      -281.7073
  30   2.0000     -10.350511      -281.6517
  31   2.0000     -10.349120      -281.6139
  32   2.0000     -10.348789      -281.6049
  33   2.0000     -10.345410      -281.5129
  34   2.0000     -10.342557      -281.4353
  35   2.0000     -10.338211      -281.3170
  36   2.0000     -10.332408      -281.1591
  37   2.0000     -10.328272      -281.0466
  38   2.0000     -10.321533      -280.8632
  39   2.0000     -10.321329      -280.8576
  40   2.0000     -10.309978      -280.5488
  41   2.0000     -10.308770      -280.5159
  42   2.0000     -10.304823      -280.4085
  43   2.0000     -10.301954      -280.3304
  44   2.0000     -10.301060      -280.3061
  45   2.0000     -10.294775      -280.1351
  46   2.0000     -10.292506      -280.0733
  47   2.0000     -10.292055      -280.0611
  48   2.0000     -10.285215      -279.8749
  49   2.0000     -10.277863      -279.6749
  50   2.0000     -10.272668      -279.5335
  51   2.0000     -10.269980      -279.4604
  52   2.0000     -10.264786      -279.3190
  53   2.0000      -8.059558      -219.3117
  54   2.0000      -8.045691      -218.9344
  55   2.0000      -8.040333      -218.7886
  56   2.0000      -6.028919      -164.0552
  57   2.0000      -6.024560      -163.9366
  58   2.0000      -6.021686      -163.8584
  59   2.0000      -6.016039      -163.7047
  60   2.0000      -6.011685      -163.5863
  61   2.0000      -6.010727      -163.5602
  62   2.0000      -6.006820      -163.4539
  63   2.0000      -6.005609      -163.4209
  64   2.0000      -5.999883      -163.2651
  65   2.0000      -1.247791       -33.9541
  66   2.0000      -1.233308       -33.5600
  67   2.0000      -1.229871       -33.4665
  68   2.0000      -1.216411       -33.1002
  69   2.0000      -1.202320       -32.7168
  70   2.0000      -1.199628       -32.6435
  71   2.0000      -1.146125       -31.1876
  72   2.0000      -1.131124       -30.7794
  73   2.0000      -1.127942       -30.6929
  74   2.0000      -1.112937       -30.2846
  75   2.0000      -1.107257       -30.1300
  76   2.0000      -1.104777       -30.0625
  77   2.0000      -1.057773       -28.7835
  78   2.0000      -1.056328       -28.7442
  79   2.0000      -1.012730       -27.5578
  80   2.0000      -1.003065       -27.2948
  81   2.0000      -0.985510       -26.8171
  82   2.0000      -0.963369       -26.2146
  83   2.0000      -0.931727       -25.3536
  84   2.0000      -0.926537       -25.2123
  85   2.0000      -0.920455       -25.0469
  86   2.0000      -0.914133       -24.8748
  87   2.0000      -0.911742       -24.8098
  88   2.0000      -0.904209       -24.6048
  89   2.0000      -0.900956       -24.5163
  90   2.0000      -0.886267       -24.1166
  91   2.0000      -0.877465       -23.8770
  92   2.0000      -0.870086       -23.6762
  93   2.0000      -0.864288       -23.5185
  94   2.0000      -0.828977       -22.5576
  95   2.0000      -0.811687       -22.0871
  96   2.0000      -0.798326       -21.7236
  97   2.0000      -0.789674       -21.4881
  98   2.0000      -0.780522       -21.2391
  99   2.0000      -0.762078       -20.7372
 100   2.0000      -0.758364       -20.6361
 101   2.0000      -0.754234       -20.5238
 102   2.0000      -0.748553       -20.3692
 103   2.0000      -0.743610       -20.2347
 104   2.0000      -0.739458       -20.1217
 105   2.0000      -0.729974       -19.8636
 106   2.0000      -0.709829       -19.3154
 107   2.0000      -0.697920       -18.9914
 108   2.0000      -0.690687       -18.7945
 109   2.0000      -0.682385       -18.5686
 110   2.0000      -0.675766       -18.3885
 111   2.0000      -0.669118       -18.2076
 112   2.0000      -0.668221       -18.1832
 113   2.0000      -0.665098       -18.0982
 114   2.0000      -0.649568       -17.6757
 115   2.0000      -0.642428       -17.4814
 116   2.0000      -0.625419       -17.0185
 117   2.0000      -0.620073       -16.8730
 118   2.0000      -0.617023       -16.7901
 119   2.0000      -0.612390       -16.6640
 120   2.0000      -0.609468       -16.5845
 121   2.0000      -0.605015       -16.4633
 122   2.0000      -0.601862       -16.3775
 123   2.0000      -0.591508       -16.0958
 124   2.0000      -0.591294       -16.0899
 125   2.0000      -0.588835       -16.0230
 126   2.0000      -0.587971       -15.9995
 127   2.0000      -0.580883       -15.8066
 128   2.0000      -0.580546       -15.7975
 129   2.0000      -0.570772       -15.5315
 130   2.0000      -0.568967       -15.4824
 131   2.0000      -0.566349       -15.4111
 132   2.0000      -0.564949       -15.3730
 133   2.0000      -0.563804       -15.3419
 134   2.0000      -0.554855       -15.0984
 135   2.0000      -0.551354       -15.0031
 136   2.0000      -0.549392       -14.9497
 137   2.0000      -0.542454       -14.7609
 138   2.0000      -0.535547       -14.5730
 139   2.0000      -0.534733       -14.5508
 140   2.0000      -0.529429       -14.4065
 141   2.0000      -0.525952       -14.3119
 142   2.0000      -0.523678       -14.2500
 143   2.0000      -0.521851       -14.2003
 144   2.0000      -0.518294       -14.1035
 145   2.0000      -0.513904       -13.9840
 146   2.0000      -0.512104       -13.9351
 147   2.0000      -0.510019       -13.8783
 148   2.0000      -0.507693       -13.8150
 149   2.0000      -0.505248       -13.7485
 150   2.0000      -0.500868       -13.6293
 151   2.0000      -0.499324       -13.5873
 152   2.0000      -0.496114       -13.4999
 153   2.0000      -0.495243       -13.4762
 154   2.0000      -0.489587       -13.3223
 155   2.0000      -0.484636       -13.1876
 156   2.0000      -0.482117       -13.1191
 157   2.0000      -0.480963       -13.0877
 158   2.0000      -0.468109       -12.7379
 159   2.0000      -0.465051       -12.6547
 160   2.0000      -0.460887       -12.5414
 161   2.0000      -0.458952       -12.4887
 162   2.0000      -0.454350       -12.3635
 163   2.0000      -0.451978       -12.2989
 164   2.0000      -0.446383       -12.1467
 165   2.0000      -0.439271       -11.9532
 166   2.0000      -0.434644       -11.8273
 167   2.0000      -0.433133       -11.7861
 168   2.0000      -0.426074       -11.5941
 169   2.0000      -0.422074       -11.4852
 170   2.0000      -0.417967       -11.3735
 171   2.0000      -0.398699       -10.8492
 172   2.0000      -0.389809       -10.6072
 173   2.0000      -0.383307       -10.4303
 174   2.0000      -0.382692       -10.4136
 175   2.0000      -0.367738       -10.0067
 176   2.0000      -0.367000        -9.9866
 177   2.0000      -0.364841        -9.9278
 178   2.0000      -0.362006        -9.8507
 179   2.0000      -0.359139        -9.7727
 180   2.0000      -0.353494        -9.6191
 181   2.0000      -0.351875        -9.5750
 182   2.0000      -0.349800        -9.5185
 183   2.0000      -0.349397        -9.5076
 184   2.0000      -0.339159        -9.2290
 185   2.0000      -0.337334        -9.1793
 186   2.0000      -0.333338        -9.0706
 187   2.0000      -0.328785        -8.9467
 188   2.0000      -0.323775        -8.8104
 189   2.0000      -0.311777        -8.4839
 190   2.0000      -0.303649        -8.2627
 191   2.0000      -0.293837        -7.9957
 192   2.0000      -0.269411        -7.3311
 193   2.0000      -0.254095        -6.9143
 194   2.0000      -0.228150        -6.2083
 195   0.0000      -0.097392        -2.6502
 196   0.0000      -0.063112        -1.7174
 197   0.0000      -0.025715        -0.6997
 198   0.0000       0.005180         0.1410
 199   0.0000       0.012803         0.3484

MULLIKEN ATOMIC CHARGES
-----------------------
   0 C :    0.151909
   1 O :   -0.220244
   2 C :    0.072563
   3 C :   -0.081573
   4 C :    0.112099
   5 O :   -0.244387
   6 N :   -0.072585
   7 C :    0.101282
   8 O :   -0.150407
   9 C :    0.203736
  10 C :   -0.078027
  11 C :    0.055605
  12 C :   -0.108338
  13 C :   -0.012263
  14 C :    0.150420
  15 O :   -0.165669
  16 N :   -0.087684
  17 C :    0.074915
  18 O :   -0.251333
  19 C :    0.203775
  20 O :   -0.130403
  21 C :   -0.047714
  22 S :    0.155516
  23 C :   -0.004433
  24 C :   -0.117419
  25 S :    0.129972
  26 C :   -0.118443
  27 C :   -0.001609
  28 S :    0.081550
  29 C :   -0.076055
  30 C :    0.004584
  31 C :    0.022522
  32 C :    0.110959
  33 C :   -0.103990
  34 C :   -0.083784
  35 C :    0.161257
  36 O :   -0.179499
  37 N :   -0.112765
  38 C :    0.152177
  39 O :   -0.244943
  40 C :    0.231183
  41 O :   -0.179001
  42 C :    0.089861
  43 O :   -0.206480
  44 C :    0.114445
  45 C :   -0.085956
  46 C :    0.059324
  47 O :   -0.199445
  48 N :   -0.090894
  49 C :    0.122359
  50 O :   -0.169445
  51 C :    0.202727
  52 C :   -0.121792
  53 H :    0.026734
  54 H :    0.130938
  55 H :    0.140630
  56 H :    0.018687
  57 H :    0.147308
  58 H :    0.030976
  59 H :    0.027618
  60 H :    0.044057
  61 H :   -0.023549
  62 H :    0.127830
  63 H :    0.128731
  64 H :    0.129974
  65 H :    0.032614
  66 H :    0.019294
Sum of atomic charges:   -0.0000000

LOEWDIN ATOMIC CHARGES
----------------------
   0 C :    0.063558
   1 O :   -0.000544
   2 C :   -0.013621
   3 C :   -0.102263
   4 C :    0.083317
   5 O :   -0.207592
   6 N :    0.015669
   7 C :    0.058133
   8 O :    0.054015
   9 C :    0.014837
  10 C :   -0.066145
  11 C :    0.067752
  12 C :   -0.123675
  13 C :   -0.089523
  14 C :    0.077602
  15 O :   -0.171073
  16 N :    0.043910
  17 C :    0.063065
  18 O :   -0.061727
  19 C :    0.099608
  20 O :   -0.142461
  21 C :   -0.175087
  22 S :    0.402752
  23 C :   -0.216216
  24 C :   -0.199216
  25 S :    0.452780
  26 C :   -0.203634
  27 C :   -0.211619
  28 S :    0.354555
  29 C :   -0.163798
  30 C :    0.026883
  31 C :   -0.049842
  32 C :    0.089203
  33 C :   -0.139972
  34 C :   -0.115152
  35 C :    0.076919
  36 O :   -0.191050
  37 N :    0.035393
  38 C :    0.080327
  39 O :   -0.047939
  40 C :    0.103639
  41 O :   -0.172975
  42 C :    0.014683
  43 O :    0.009804
  44 C :    0.003586
  45 C :   -0.127973
  46 C :    0.059952
  47 O :   -0.216159
  48 N :   -0.004132
  49 C :    0.100331
  50 O :    0.027472
  51 C :   -0.007307
  52 C :   -0.023768
  53 H :    0.030290
  54 H :    0.077092
  55 H :    0.089455
  56 H :    0.045610
  57 H :    0.073203
  58 H :    0.027908
  59 H :    0.026292
  60 H :    0.041681
  61 H :    0.022463
  62 H :    0.091619
  63 H :    0.075696
  64 H :    0.081917
  65 H :    0.036599
  66 H :    0.044891

  Mayer bond orders larger than 0.100000
B(  0-C ,  1-O ) :   1.0945 B(  0-C , 10-C ) :   1.5623 B(  0-C , 53-H ) :   1.0060
B(  1-O ,  2-C ) :   1.1143 B(  2-C ,  3-C ) :   1.1955 B(  2-C ,  9-C ) :   1.3979
B(  3-C ,  4-C ) :   0.8978 B(  3-C ,  7-C ) :   1.4132 B(  4-C ,  5-O ) :   2.0093
B(  4-C ,  6-N ) :   1.3505 B(  5-O , 57-H ) :   0.1315 B(  6-N , 54-H ) :   0.9336
B(  6-N , 55-H ) :   0.9294 B(  7-C ,  8-O ) :   1.2016 B(  7-C , 11-C ) :   1.0938
B(  8-O ,  9-C ) :   1.1511 B(  9-C , 10-C ) :   1.2083 B( 10-C , 56-H ) :   1.0201
B( 11-C , 12-C ) :   1.3582 B( 11-C , 16-N ) :   1.3012 B( 12-C , 13-C ) :   1.1823
B( 12-C , 19-C ) :   0.9749 B( 13-C , 14-C ) :   0.9156 B( 13-C , 17-C ) :   1.4393
B( 14-C , 15-O ) :   2.1740 B( 14-C , 16-N ) :   1.0762 B( 16-N , 57-H ) :   0.8474
B( 17-C , 18-O ) :   1.1581 B( 17-C , 21-C ) :   1.1702 B( 18-O , 19-C ) :   0.9919
B( 19-C , 20-O ) :   2.2680 B( 21-C , 22-S ) :   1.0522 B( 21-C , 29-C ) :   1.5561
B( 22-S , 23-C ) :   0.9739 B( 23-C , 24-C ) :   1.5913 B( 23-C , 27-C ) :   1.2673
B( 24-C , 25-S ) :   1.1801 B( 24-C , 58-H ) :   0.9693 B( 25-S , 26-C ) :   1.1744
B( 26-C , 27-C ) :   1.5977 B( 26-C , 59-H ) :   0.9697 B( 27-C , 28-S ) :   0.9788
B( 28-S , 29-C ) :   1.0036 B( 29-C , 30-C ) :   1.2187 B( 30-C , 31-C ) :   1.5838
B( 30-C , 60-H ) :   0.9405 B( 31-C , 32-C ) :   1.1885 B( 31-C , 61-H ) :   0.9499
B( 32-C , 33-C ) :   1.3283 B( 32-C , 37-N ) :   1.1874 B( 33-C , 34-C ) :   1.1878
B( 33-C , 40-C ) :   1.0245 B( 34-C , 35-C ) :   0.9317 B( 34-C , 38-C ) :   1.4526
B( 35-C , 36-O ) :   2.1528 B( 35-C , 37-N ) :   1.0798 B( 37-N , 62-H ) :   0.9209
B( 38-C , 39-O ) :   1.1598 B( 38-C , 42-C ) :   1.1168 B( 39-O , 40-C ) :   1.0147
B( 40-C , 41-O ) :   2.0876 B( 42-C , 43-O ) :   1.1072 B( 42-C , 52-C ) :   1.4793
B( 43-O , 44-C ) :   1.1376 B( 44-C , 45-C ) :   1.1753 B( 44-C , 51-C ) :   1.3806
B( 45-C , 46-C ) :   0.8858 B( 45-C , 49-C ) :   1.5275 B( 46-C , 47-O ) :   2.2329
B( 46-C , 48-N ) :   1.2843 B( 48-N , 63-H ) :   0.9355 B( 48-N , 64-H ) :   0.9347
B( 49-C , 50-O ) :   1.1566 B( 49-C , 65-H ) :   1.0047 B( 50-O , 51-C ) :   1.1346
B( 51-C , 52-C ) :   1.1959 B( 52-C , 66-H ) :   1.0059

-----------------------------------------------------------------------------
         ABSORPTION SPECTRUM VIA TRANSITION ELECTRIC DIPOLE MOMENTS
-----------------------------------------------------------------------------
State   Energy  Wavelength   fosc         T2         TX        TY        TZ
        (cm-1)    (nm)                  (au**2)     (au)      (au)      (au)
-----------------------------------------------------------------------------
   0   11732.0    852.4   0.213646450   5.99512   0.50767   1.33697  -1.98744
   1   17066.8    585.9   0.152495436   2.94158   1.57817   0.54378   0.39405
   2   20100.1    497.5   0.317204734   5.19538   2.06542  -0.10602   0.95821
   3   20783.5    481.2   1.033112499  16.36454   3.09370   0.32649   2.58592
   4   25796.3    387.7   0.037243042   0.47530   0.33739   0.59909  -0.05055
   5   26103.2    383.1   0.036622442   0.46188   0.36421  -0.30692  -0.48480
   6   27335.2    365.8   0.033621351   0.40492  -0.45789  -0.20709  -0.39035
   7   27702.2    361.0   0.009382993   0.11151   0.28619  -0.15273  -0.07924
   8   29025.5    344.5   0.219988953   2.49515  -0.68543  -0.20505   1.40829
   9   29610.4    337.7   0.331353407   3.68402  -1.90651  -0.06641  -0.21171
  10   29892.4    334.5   0.008782031   0.09672  -0.00431   0.00179  -0.31096
  11   30537.9    327.5   0.002007684   0.02164   0.05507   0.12764  -0.04815
  12   31530.2    317.2   0.011283014   0.11781  -0.01902  -0.04897   0.33919
  13   32544.2    307.3   0.012318447   0.12461  -0.32865  -0.00468  -0.12877
  14   33933.6    294.7   0.016179132   0.15696   0.12090  -0.15146   0.34555
  15   34028.9    293.9   0.050715298   0.49064  -0.30934   0.10883  -0.61896
  16   34477.7    290.0   0.015427999   0.14732  -0.03082  -0.13324   0.35863
  17   35131.2    284.6   0.016092308   0.15080   0.35831   0.00776   0.14950
  18   35467.9    281.9   0.022571741   0.20951  -0.08768   0.15303   0.42238
  19   36231.1    276.0   0.073434128   0.66726  -0.50022  -0.02174  -0.64542
  20   36892.2    271.1   0.053512142   0.47752   0.47173   0.02411   0.50439
  21   37029.5    270.1   0.063247834   0.56231  -0.33947  -0.41774  -0.52207
  22   37350.1    267.7   0.018825412   0.16593  -0.28836  -0.18876  -0.21714
  23   37758.5    264.8   0.011881944   0.10360  -0.31634  -0.02072   0.05568
  24   37884.4    264.0   0.054570878   0.47422  -0.51127   0.06661   0.45649
  25   38054.7    262.8   0.007312074   0.06326  -0.14693  -0.19150   0.07069
  26   38830.6    257.5   0.000004975   0.00004   0.00228  -0.00433  -0.00426
  27   39693.4    251.9   0.041729698   0.34610  -0.05484   0.00208   0.58574
  28   39849.7    250.9   0.292824627   2.41913   0.03661   0.01524  -1.55485

FINAL SINGLE POINT ENERGY     -3617.023517967776

DIPOLE MOMENT
-------------
                                X             Y             Z
Electronic contribution:    -14.21513      -0.95158     -11.99073
Nuclear contribution   :     15.39138       1.95278      11.02725
                        -----------------------------------------
Total Dipole Moment    :      1.17625       1.00120      -0.96348
                        -----------------------------------------
Magnitude (a.u.)       :      1.82051
Magnitude (Debye)      :      4.62737

Rotational constants in cm-1:     0.001856     0.000979     0.000692
Rotational constants in MHz :    55.641809    29.340991    20.755640

                             ****ORCA TERMINATED NORMALLY****
TOTAL RUN TIME: 0 days 0 hours 5 minutes 25 seconds 344 msec
