                         Program Version 4.2.0 -  RELEASE  -
|  1> # ORCA input file
|  2> # SCF done       -226.302097543667          0.000653277903
|  3> ! CAM-B3LYP def2-SVP def2/J RIJCOSX Grid4 TightSCF
|  4> %maxcore 5000
|  5> %tddft
|  6>     Mode sTDDFT
|  7>     Ethresh 5.0
|  8>     maxcore 5000
|  9> end
| 10>
| 11> %pal
| 12>   nprocs 6
| 13>   end
| 14> * xyz 0 1
| 15>    O        1.41858        -3.48643       -10.70215
| 16>    N        1.02107        -2.21470       -10.75818
| 17>    C        2.00483        -1.46280       -10.32321
| 18>    C        1.92061        -0.05543       -10.24515
| 19>    N        1.87844         1.08483       -10.16999
| 20>    C        3.12328        -2.27264        -9.95591
| 21>    C        2.67091        -3.55218       -10.22533
| 22>    C        3.31745        -4.79419       -10.07038
| 23>    N        3.83971        -5.80445        -9.94667
| 24>    C        4.43908        -1.87242        -9.41151
| 25>    O        5.29045        -2.67118        -9.11451
| 26>    O        4.48304        -0.54774        -9.31995
| 27>    C        5.54164         0.19935        -8.81627
| 28>    C        6.73990        -0.33390        -8.35326
| 29>    C        7.68152         0.54299        -7.85928
| 30>    C        7.44349         1.92575        -7.82751
| 31>    C        6.24820         2.44386        -8.30621
| 32>    C        5.29754         1.57271        -8.80002
| 33>    C        8.59330         2.57463        -7.22925
| 34>    C        9.53625         1.58848        -6.89338
| 35>    C        9.03944         0.21767        -7.28675
| 36>    C        9.95255        -0.42766        -8.34688
| 37>    C       10.11919         0.43626        -9.59118
| 38>    C        8.92663        -0.71593        -6.06720
| 39>    C        8.04224        -0.14547        -4.96506
| 40>    C       10.71336         1.93140        -6.27650
| 41>    C       10.97482         3.27578        -5.96683
| 42>    C       10.03242         4.24860        -6.32658
| 43>    C        8.85045         3.91008        -6.95399
| 44>    C       12.19141         3.58158        -5.25442
| 45>    C       12.57168         4.77302        -4.75650
| 46>    C       13.75103         4.95839        -3.97475
| 47>    C       14.15929         6.10932        -3.36277
| 48>    C       15.32557         5.96291        -2.57364
| 49>    C       15.99940         6.94423        -1.81879
| 50>    C       15.54908         8.31827        -1.72411
| 51>    C       16.32123         9.44383        -1.68596
| 52>    C       15.56323        10.62381        -1.52326
| 53>    C       14.21817        10.42154        -1.42001
| 54>    S       13.86484         8.73106        -1.54103
| 55>    C       13.13567        11.42066        -1.23683
| 56>   Cl       16.29371        12.18147        -1.46057
| 57>    C       17.12881         6.52355        -1.12368
| 58>    C       17.62222         5.19654        -1.16318
| 59>    C       16.97618         4.22515        -1.95531
| 60>    C       15.82632         4.63686        -2.62008
| 61>    S       14.83208         3.62350        -3.62592
| 62>    C       17.47844         2.87296        -2.08381
| 63>    C       16.76854         1.70990        -2.16983
| 64>    C       17.59223         0.57936        -2.35996
| 65>    C       18.92628         0.85496        -2.43355
| 66>    S       19.18663         2.55683        -2.25303
| 67>    C       20.06273        -0.07855        -2.63517
| 68>   Cl       16.94755        -1.01257        -2.48862
| 69>    C       18.70730         5.01136        -0.27575
| 70>    C       19.04815         6.13771         0.41802
| 71>    S       18.05465         7.51066        -0.02389
| 72>    C       20.03833         6.26168         1.43016
| 73>    C       20.34156         7.38026         2.18156
| 74>    C       21.32820         7.11641         3.13376
| 75>    C       21.77726         5.78961         3.09932
| 76>    S       20.99574         4.86574         1.89445
| 77>    C       22.74702         5.61427         4.12349
| 78>    C       22.90887         6.82862         4.80225
| 79>    C       22.03306         7.81862         4.20045
| 80>    C       21.89243         9.12869         4.54979
| 81>    C       20.99679         9.99058         3.88052
| 82>    N       20.27026        10.69547         3.34229
| 83>    C       22.63031         9.72248         5.59683
| 84>    N       23.22349        10.22367         6.43975
| 85>    C       23.83284         6.75167         5.86019
| 86>    C       24.34466         5.48828         5.95439
| 87>    S       23.72347         4.36400         4.76187
| 88>    O       25.24751         4.93496         6.81251
| 89>    C       25.73357         5.59031         7.88660
| 90>    O       25.46710         6.71470         8.21032
| 91>    C       26.64989         4.69963         8.61241
| 92>    C       27.37210         4.97863         9.81409
| 93>    N       28.08267         3.93424        10.16814
| 94>    O       27.87794         2.96897         9.27119
| 95>    C       27.02536         3.39610         8.32873
| 96>    C       26.64154         2.56008         7.26318
| 97>    N       26.31502         1.89742         6.38885
| 98>    C       27.35966         6.18121        10.55631
| 99>    N       27.34817         7.15324        11.15691
|100>    H        6.92120        -1.39550        -8.37342
|101>    H        6.05623         3.50532        -8.29041
|102>    H        4.35031         1.92740        -9.17532
|103>    H        9.52969        -1.39358        -8.62950
|104>    H       10.93148        -0.60858        -7.89841
|105>    H        9.15853         0.61021       -10.07094
|106>    H       10.77462        -0.05900       -10.30367
|107>    H       10.55403         1.40020        -9.33574
|108>    H        9.92825        -0.89494        -5.67135
|109>    H        8.52189        -1.67433        -6.39761
|110>    H        8.43690         0.80258        -4.60603
|111>    H        7.99582        -0.83827        -4.12818
|112>    H        7.03118         0.02089        -5.33017
|113>    H       11.43884         1.17621        -6.00975
|114>    H       10.23082         5.28599        -6.10643
|115>    H        8.13455         4.67391        -7.21824
|116>    H       12.84312         2.73400        -5.07385
|117>    H       11.96967         5.66052        -4.89136
|118>    H       13.62867         7.03668        -3.47306
|119>    H       17.38872         9.44805        -1.80432
|120>    H       13.56758        12.41489        -1.15594
|121>    H       12.56473        11.20718        -0.33380
|122>    H       12.44695        11.40171        -2.08121
|123>    H       15.70175         1.64397        -2.06684
|124>    H       19.69498        -1.10112        -2.66558
|125>    H       20.78610         0.01568        -1.82619
|126>    H       20.57686         0.13910        -3.57121
|127>    H       19.20368         4.07067        -0.12153
|128>    H       19.85111         8.32574         2.03525
|129>    H       24.10434         7.55833         6.51644
|130> *
|131>
|132>                          ****END OF INPUT****

CARTESIAN COORDINATES (ANGSTROEM)
---------------------------------
  O      1.418580   -3.486430  -10.702150
  N      1.021070   -2.214700  -10.758180
  C      2.004830   -1.462800  -10.323210
  C      1.920610   -0.055430  -10.245150
  N      1.878440    1.084830  -10.169990
  C      3.123280   -2.272640   -9.955910
  C      2.670910   -3.552180  -10.225330
  C      3.317450   -4.794190  -10.070380
  N      3.839710   -5.804450   -9.946670
  C      4.439080   -1.872420   -9.411510
  O      5.290450   -2.671180   -9.114510
  O      4.483040   -0.547740   -9.319950
  C      5.541640    0.199350   -8.816270
  C      6.739900   -0.333900   -8.353260
  C      7.681520    0.542990   -7.859280
  C      7.443490    1.925750   -7.827510
  C      6.248200    2.443860   -8.306210
  C      5.297540    1.572710   -8.800020
  C      8.593300    2.574630   -7.229250
  C      9.536250    1.588480   -6.893380
  C      9.039440    0.217670   -7.286750
  C      9.952550   -0.427660   -8.346880
  C     10.119190    0.436260   -9.591180
  C      8.926630   -0.715930   -6.067200
  C      8.042240   -0.145470   -4.965060
  C     10.713360    1.931400   -6.276500
  C     10.974820    3.275780   -5.966830
  C     10.032420    4.248600   -6.326580
  C      8.850450    3.910080   -6.953990
  C     12.191410    3.581580   -5.254420
  C     12.571680    4.773020   -4.756500
  C     13.751030    4.958390   -3.974750
  C     14.159290    6.109320   -3.362770
  C     15.325570    5.962910   -2.573640
  C     15.999400    6.944230   -1.818790
  C     15.549080    8.318270   -1.724110
  C     16.321230    9.443830   -1.685960
  C     15.563230   10.623810   -1.523260
  C     14.218170   10.421540   -1.420010
  S     13.864840    8.731060   -1.541030
  C     13.135670   11.420660   -1.236830
  Cl    16.293710   12.181470   -1.460570
  C     17.128810    6.523550   -1.123680
  C     17.622220    5.196540   -1.163180
  C     16.976180    4.225150   -1.955310
  C     15.826320    4.636860   -2.620080
  S     14.832080    3.623500   -3.625920
  C     17.478440    2.872960   -2.083810
  C     16.768540    1.709900   -2.169830
  C     17.592230    0.579360   -2.359960
  C     18.926280    0.854960   -2.433550
  S     19.186630    2.556830   -2.253030
  C     20.062730   -0.078550   -2.635170
  Cl    16.947550   -1.012570   -2.488620
  C     18.707300    5.011360   -0.275750
  C     19.048150    6.137710    0.418020
  S     18.054650    7.510660   -0.023890
  C     20.038330    6.261680    1.430160
  C     20.341560    7.380260    2.181560
  C     21.328200    7.116410    3.133760
  C     21.777260    5.789610    3.099320
  S     20.995740    4.865740    1.894450
  C     22.747020    5.614270    4.123490
  C     22.908870    6.828620    4.802250
  C     22.033060    7.818620    4.200450
  C     21.892430    9.128690    4.549790
  C     20.996790    9.990580    3.880520
  N     20.270260   10.695470    3.342290
  C     22.630310    9.722480    5.596830
  N     23.223490   10.223670    6.439750
  C     23.832840    6.751670    5.860190
  C     24.344660    5.488280    5.954390
  S     23.723470    4.364000    4.761870
  O     25.247510    4.934960    6.812510
  C     25.733570    5.590310    7.886600
  O     25.467100    6.714700    8.210320
  C     26.649890    4.699630    8.612410
  C     27.372100    4.978630    9.814090
  N     28.082670    3.934240   10.168140
  O     27.877940    2.968970    9.271190
  C     27.025360    3.396100    8.328730
  C     26.641540    2.560080    7.263180
  N     26.315020    1.897420    6.388850
  C     27.359660    6.181210   10.556310
  N     27.348170    7.153240   11.156910
  H      6.921200   -1.395500   -8.373420
  H      6.056230    3.505320   -8.290410
  H      4.350310    1.927400   -9.175320
  H      9.529690   -1.393580   -8.629500
  H     10.931480   -0.608580   -7.898410
  H      9.158530    0.610210  -10.070940
  H     10.774620   -0.059000  -10.303670
  H     10.554030    1.400200   -9.335740
  H      9.928250   -0.894940   -5.671350
  H      8.521890   -1.674330   -6.397610
  H      8.436900    0.802580   -4.606030
  H      7.995820   -0.838270   -4.128180
  H      7.031180    0.020890   -5.330170
  H     11.438840    1.176210   -6.009750
  H     10.230820    5.285990   -6.106430
  H      8.134550    4.673910   -7.218240
  H     12.843120    2.734000   -5.073850
  H     11.969670    5.660520   -4.891360
  H     13.628670    7.036680   -3.473060
  H     17.388720    9.448050   -1.804320
  H     13.567580   12.414890   -1.155940
  H     12.564730   11.207180   -0.333800
  H     12.446950   11.401710   -2.081210
  H     15.701750    1.643970   -2.066840
  H     19.694980   -1.101120   -2.665580
  H     20.786100    0.015680   -1.826190
  H     20.576860    0.139100   -3.571210
  H     19.203680    4.070670   -0.121530
  H     19.851110    8.325740    2.035250
  H     24.104340    7.558330    6.516440

 Total Charge           Charge          ....    0
 Multiplicity           Mult            ....    1
 Number of Electrons    NEL             ....  642
 Basis Dimension        Dim             .... 1372

ORBITAL ENERGIES
----------------

  NO   OCC          E(Eh)            E(eV)
   0   2.0000    -101.585551     -2764.2834
   1   2.0000    -101.581311     -2764.1680
   2   2.0000     -88.998677     -2421.7771
   3   2.0000     -88.990290     -2421.5489
   4   2.0000     -88.960156     -2420.7289
   5   2.0000     -88.957759     -2420.6637
   6   2.0000     -88.956816     -2420.6380
   7   2.0000     -88.949898     -2420.4498
   8   2.0000     -19.387133      -527.5507
   9   2.0000     -19.379509      -527.3432
  10   2.0000     -19.330322      -526.0048
  11   2.0000     -19.307354      -525.3798
  12   2.0000     -19.259144      -524.0679
  13   2.0000     -19.242849      -523.6246
  14   2.0000     -14.527834      -395.3225
  15   2.0000     -14.521930      -395.1618
  16   2.0000     -14.464931      -393.6108
  17   2.0000     -14.452654      -393.2767
  18   2.0000     -14.444410      -393.0524
  19   2.0000     -14.443146      -393.0180
  20   2.0000     -14.430285      -392.6680
  21   2.0000     -14.429495      -392.6465
  22   2.0000     -10.464409      -284.7511
  23   2.0000     -10.451027      -284.3869
  24   2.0000     -10.434391      -283.9342
  25   2.0000     -10.424394      -283.6622
  26   2.0000     -10.395939      -282.8879
  27   2.0000     -10.389422      -282.7106
  28   2.0000     -10.388703      -282.6910
  29   2.0000     -10.366474      -282.0861
  30   2.0000     -10.363752      -282.0120
  31   2.0000     -10.362345      -281.9737
  32   2.0000     -10.353110      -281.7224
  33   2.0000     -10.352873      -281.7160
  34   2.0000     -10.351353      -281.6746
  35   2.0000     -10.349075      -281.6126
  36   2.0000     -10.343568      -281.4628
  37   2.0000     -10.340103      -281.3685
  38   2.0000     -10.337229      -281.2903
  39   2.0000     -10.331878      -281.1447
  40   2.0000     -10.330206      -281.0992
  41   2.0000     -10.329116      -281.0695
  42   2.0000     -10.326552      -280.9998
  43   2.0000     -10.320392      -280.8321
  44   2.0000     -10.317252      -280.7467
  45   2.0000     -10.317057      -280.7414
  46   2.0000     -10.308984      -280.5217
  47   2.0000     -10.308393      -280.5056
  48   2.0000     -10.307156      -280.4720
  49   2.0000     -10.306794      -280.4621
  50   2.0000     -10.306585      -280.4564
  51   2.0000     -10.306060      -280.4422
  52   2.0000     -10.305631      -280.4305
  53   2.0000     -10.305361      -280.4231
  54   2.0000     -10.303521      -280.3731
  55   2.0000     -10.303225      -280.3650
  56   2.0000     -10.300692      -280.2961
  57   2.0000     -10.299918      -280.2750
  58   2.0000     -10.299715      -280.2695
  59   2.0000     -10.291545      -280.0472
  60   2.0000     -10.289448      -279.9901
  61   2.0000     -10.283064      -279.8164
  62   2.0000     -10.282393      -279.7981
  63   2.0000     -10.282045      -279.7887
  64   2.0000     -10.281823      -279.7826
  65   2.0000     -10.281626      -279.7773
  66   2.0000     -10.280883      -279.7571
  67   2.0000     -10.280618      -279.7498
  68   2.0000     -10.279823      -279.7282
  69   2.0000     -10.279404      -279.7168
  70   2.0000     -10.279181      -279.7107
  71   2.0000     -10.278611      -279.6952
  72   2.0000     -10.277719      -279.6710
  73   2.0000     -10.277324      -279.6602
  74   2.0000     -10.276083      -279.6264
  75   2.0000     -10.276044      -279.6254
  76   2.0000     -10.274921      -279.5948
  77   2.0000     -10.274217      -279.5757
  78   2.0000     -10.274146      -279.5737
  79   2.0000     -10.273222      -279.5486
  80   2.0000     -10.271388      -279.4987
  81   2.0000     -10.265585      -279.3408
  82   2.0000     -10.265370      -279.3349
  83   2.0000     -10.248515      -278.8763
  84   2.0000     -10.248512      -278.8762
  85   2.0000      -9.540294      -259.6046
  86   2.0000      -9.536054      -259.4892
  87   2.0000      -8.093821      -220.2441
  88   2.0000      -8.084822      -219.9992
  89   2.0000      -8.055799      -219.2094
  90   2.0000      -8.053421      -219.1447
  91   2.0000      -8.051864      -219.1024
  92   2.0000      -8.045207      -218.9212
  93   2.0000      -7.310537      -198.9298
  94   2.0000      -7.306325      -198.8152
  95   2.0000      -7.300365      -198.6530
  96   2.0000      -7.300299      -198.6512
  97   2.0000      -7.296112      -198.5373
  98   2.0000      -7.296032      -198.5351
  99   2.0000      -6.063185      -164.9876
 100   2.0000      -6.059015      -164.8742
 101   2.0000      -6.055760      -164.7856
 102   2.0000      -6.054108      -164.7407
 103   2.0000      -6.049942      -164.6273
 104   2.0000      -6.047110      -164.5502
 105   2.0000      -6.025111      -163.9516
 106   2.0000      -6.022754      -163.8875
 107   2.0000      -6.021609      -163.8563
 108   2.0000      -6.020954      -163.8385
 109   2.0000      -6.018557      -163.7733
 110   2.0000      -6.017851      -163.7541
 111   2.0000      -6.017408      -163.7420
 112   2.0000      -6.015465      -163.6891
 113   2.0000      -6.014796      -163.6709
 114   2.0000      -6.013094      -163.6246
 115   2.0000      -6.010730      -163.5603
 116   2.0000      -6.006612      -163.4482
 117   2.0000      -1.329803       -36.1858
 118   2.0000      -1.322169       -35.9781
 119   2.0000      -1.256708       -34.1968
 120   2.0000      -1.235766       -33.6269
 121   2.0000      -1.162793       -31.6412
 122   2.0000      -1.144873       -31.1536
 123   2.0000      -1.050698       -28.5910
 124   2.0000      -1.046710       -28.4824
 125   2.0000      -1.043354       -28.3911
 126   2.0000      -1.039267       -28.2799
 127   2.0000      -1.031267       -28.0622
 128   2.0000      -1.022214       -27.8159
 129   2.0000      -1.015207       -27.6252
 130   2.0000      -1.010599       -27.4998
 131   2.0000      -1.008784       -27.4504
 132   2.0000      -1.007357       -27.4116
 133   2.0000      -1.003600       -27.3093
 134   2.0000      -1.002132       -27.2694
 135   2.0000      -0.994745       -27.0684
 136   2.0000      -0.993858       -27.0443
 137   2.0000      -0.982549       -26.7365
 138   2.0000      -0.977013       -26.5859
 139   2.0000      -0.969590       -26.3839
 140   2.0000      -0.958557       -26.0837
 141   2.0000      -0.951276       -25.8855
 142   2.0000      -0.945447       -25.7269
 143   2.0000      -0.940775       -25.5998
 144   2.0000      -0.927071       -25.2269
 145   2.0000      -0.920632       -25.0517
 146   2.0000      -0.909211       -24.7409
 147   2.0000      -0.900721       -24.5099
 148   2.0000      -0.891825       -24.2678
 149   2.0000      -0.876047       -23.8384
 150   2.0000      -0.873716       -23.7750
 151   2.0000      -0.866120       -23.5683
 152   2.0000      -0.862754       -23.4767
 153   2.0000      -0.856284       -23.3007
 154   2.0000      -0.849850       -23.1256
 155   2.0000      -0.845037       -22.9946
 156   2.0000      -0.842231       -22.9183
 157   2.0000      -0.840712       -22.8769
 158   2.0000      -0.839432       -22.8421
 159   2.0000      -0.835840       -22.7444
 160   2.0000      -0.823694       -22.4139
 161   2.0000      -0.814486       -22.1633
 162   2.0000      -0.811523       -22.0827
 163   2.0000      -0.810580       -22.0570
 164   2.0000      -0.807379       -21.9699
 165   2.0000      -0.805400       -21.9161
 166   2.0000      -0.799108       -21.7448
 167   2.0000      -0.798007       -21.7149
 168   2.0000      -0.784794       -21.3553
 169   2.0000      -0.778204       -21.1760
 170   2.0000      -0.773484       -21.0476
 171   2.0000      -0.766352       -20.8535
 172   2.0000      -0.763564       -20.7776
 173   2.0000      -0.750475       -20.4215
 174   2.0000      -0.746667       -20.3179
 175   2.0000      -0.745145       -20.2764
 176   2.0000      -0.726913       -19.7803
 177   2.0000      -0.719796       -19.5867
 178   2.0000      -0.704952       -19.1827
 179   2.0000      -0.699451       -19.0330
 180   2.0000      -0.691823       -18.8255
 181   2.0000      -0.689102       -18.7514
 182   2.0000      -0.685683       -18.6584
 183   2.0000      -0.678478       -18.4623
 184   2.0000      -0.676473       -18.4078
 185   2.0000      -0.672196       -18.2914
 186   2.0000      -0.666147       -18.1268
 187   2.0000      -0.658909       -17.9298
 188   2.0000      -0.652731       -17.7617
 189   2.0000      -0.648741       -17.6531
 190   2.0000      -0.646072       -17.5805
 191   2.0000      -0.645457       -17.5638
 192   2.0000      -0.642612       -17.4864
 193   2.0000      -0.640636       -17.4326
 194   2.0000      -0.636171       -17.3111
 195   2.0000      -0.630330       -17.1521
 196   2.0000      -0.625314       -17.0157
 197   2.0000      -0.620732       -16.8910
 198   2.0000      -0.617531       -16.8039
 199   2.0000      -0.616810       -16.7842
 200   2.0000      -0.610530       -16.6134
 201   2.0000      -0.608679       -16.5630
 202   2.0000      -0.605780       -16.4841
 203   2.0000      -0.602976       -16.4078
 204   2.0000      -0.598146       -16.2764
 205   2.0000      -0.595953       -16.2167
 206   2.0000      -0.590763       -16.0755
 207   2.0000      -0.590218       -16.0607
 208   2.0000      -0.585784       -15.9400
 209   2.0000      -0.582862       -15.8605
 210   2.0000      -0.578400       -15.7391
 211   2.0000      -0.570610       -15.5271
 212   2.0000      -0.566469       -15.4144
 213   2.0000      -0.563827       -15.3425
 214   2.0000      -0.557105       -15.1596
 215   2.0000      -0.550175       -14.9710
 216   2.0000      -0.548228       -14.9181
 217   2.0000      -0.546922       -14.8825
 218   2.0000      -0.545928       -14.8555
 219   2.0000      -0.542464       -14.7612
 220   2.0000      -0.540934       -14.7196
 221   2.0000      -0.528104       -14.3705
 222   2.0000      -0.527057       -14.3420
 223   2.0000      -0.524699       -14.2778
 224   2.0000      -0.522828       -14.2269
 225   2.0000      -0.521927       -14.2024
 226   2.0000      -0.520137       -14.1536
 227   2.0000      -0.519798       -14.1444
 228   2.0000      -0.519398       -14.1335
 229   2.0000      -0.514699       -14.0057
 230   2.0000      -0.514297       -13.9947
 231   2.0000      -0.510693       -13.8967
 232   2.0000      -0.507302       -13.8044
 233   2.0000      -0.505784       -13.7631
 234   2.0000      -0.503837       -13.7101
 235   2.0000      -0.502629       -13.6772
 236   2.0000      -0.501505       -13.6466
 237   2.0000      -0.500324       -13.6145
 238   2.0000      -0.496346       -13.5063
 239   2.0000      -0.493739       -13.4353
 240   2.0000      -0.491989       -13.3877
 241   2.0000      -0.490199       -13.3390
 242   2.0000      -0.488343       -13.2885
 243   2.0000      -0.487965       -13.2782
 244   2.0000      -0.487592       -13.2680
 245   2.0000      -0.486084       -13.2270
 246   2.0000      -0.485059       -13.1991
 247   2.0000      -0.482163       -13.1203
 248   2.0000      -0.476993       -12.9796
 249   2.0000      -0.475290       -12.9333
 250   2.0000      -0.475018       -12.9259
 251   2.0000      -0.474007       -12.8984
 252   2.0000      -0.473580       -12.8868
 253   2.0000      -0.473397       -12.8818
 254   2.0000      -0.472129       -12.8473
 255   2.0000      -0.471622       -12.8335
 256   2.0000      -0.470134       -12.7930
 257   2.0000      -0.467874       -12.7315
 258   2.0000      -0.466126       -12.6839
 259   2.0000      -0.465548       -12.6682
 260   2.0000      -0.465397       -12.6641
 261   2.0000      -0.463944       -12.6245
 262   2.0000      -0.462401       -12.5826
 263   2.0000      -0.460346       -12.5267
 264   2.0000      -0.458888       -12.4870
 265   2.0000      -0.457050       -12.4370
 266   2.0000      -0.456008       -12.4086
 267   2.0000      -0.454652       -12.3717
 268   2.0000      -0.453095       -12.3293
 269   2.0000      -0.450721       -12.2647
 270   2.0000      -0.449969       -12.2443
 271   2.0000      -0.448375       -12.2009
 272   2.0000      -0.442786       -12.0488
 273   2.0000      -0.442300       -12.0356
 274   2.0000      -0.439568       -11.9612
 275   2.0000      -0.439346       -11.9552
 276   2.0000      -0.436746       -11.8845
 277   2.0000      -0.436448       -11.8764
 278   2.0000      -0.433174       -11.7873
 279   2.0000      -0.432440       -11.7673
 280   2.0000      -0.427733       -11.6392
 281   2.0000      -0.426990       -11.6190
 282   2.0000      -0.426608       -11.6086
 283   2.0000      -0.424910       -11.5624
 284   2.0000      -0.424466       -11.5503
 285   2.0000      -0.421085       -11.4583
 286   2.0000      -0.418964       -11.4006
 287   2.0000      -0.416523       -11.3342
 288   2.0000      -0.414257       -11.2725
 289   2.0000      -0.411475       -11.1968
 290   2.0000      -0.409263       -11.1366
 291   2.0000      -0.408001       -11.1023
 292   2.0000      -0.407164       -11.0795
 293   2.0000      -0.405430       -11.0323
 294   2.0000      -0.402586       -10.9549
 295   2.0000      -0.400682       -10.9031
 296   2.0000      -0.396815       -10.7979
 297   2.0000      -0.395802       -10.7703
 298   2.0000      -0.391611       -10.6563
 299   2.0000      -0.389106       -10.5881
 300   2.0000      -0.385011       -10.4767
 301   2.0000      -0.382523       -10.4090
 302   2.0000      -0.381424       -10.3791
 303   2.0000      -0.381026       -10.3682
 304   2.0000      -0.378025       -10.2866
 305   2.0000      -0.375137       -10.2080
 306   2.0000      -0.362039        -9.8516
 307   2.0000      -0.352816        -9.6006
 308   2.0000      -0.339118        -9.2279
 309   2.0000      -0.329835        -8.9753
 310   2.0000      -0.327934        -8.9235
 311   2.0000      -0.321326        -8.7437
 312   2.0000      -0.319599        -8.6967
 313   2.0000      -0.317834        -8.6487
 314   2.0000      -0.315589        -8.5876
 315   2.0000      -0.303274        -8.2525
 316   2.0000      -0.300484        -8.1766
 317   2.0000      -0.294276        -8.0077
 318   2.0000      -0.267132        -7.2690
 319   2.0000      -0.260896        -7.0993
 320   2.0000      -0.237385        -6.4596
 321   0.0000      -0.105814        -2.8793
 322   0.0000      -0.086940        -2.3658
 323   0.0000      -0.076355        -2.0777
 324   0.0000      -0.060579        -1.6484
 325   0.0000      -0.049441        -1.3454

MULLIKEN ATOMIC CHARGES
-----------------------
   0 O :   -0.131561
   1 N :    0.072487
   2 C :   -0.185451
   3 C :   -0.136835
   4 N :    0.228122
   5 C :    0.035776
   6 C :   -0.005834
   7 C :   -0.143783
   8 N :    0.251310
   9 C :    0.211818
  10 O :   -0.168708
  11 O :   -0.249114
  12 C :    0.220038
  13 C :   -0.114082
  14 C :   -0.004299
  15 C :    0.134827
  16 C :   -0.056789
  17 C :   -0.008101
  18 C :    0.106690
  19 C :    0.015341
  20 C :   -0.144190
  21 C :    0.071775
  22 C :    0.023326
  23 C :    0.065754
  24 C :    0.026586
  25 C :   -0.106638
  26 C :    0.128814
  27 C :   -0.016779
  28 C :   -0.041836
  29 C :   -0.010019
  30 C :    0.025586
  31 C :   -0.002529
  32 C :   -0.074187
  33 C :    0.094727
  34 C :    0.145137
  35 C :   -0.208714
  36 C :    0.030951
  37 C :    0.086011
  38 C :   -0.263005
  39 S :    0.134373
  40 C :    0.120023
  41 Cl:   -0.085619
  42 C :   -0.144543
  43 C :    0.084855
  44 C :    0.143995
  45 C :   -0.140423
  46 S :    0.088149
  47 C :   -0.209555
  48 C :    0.033339
  49 C :    0.086982
  50 C :   -0.265767
  51 S :    0.133427
  52 C :    0.120945
  53 Cl:   -0.091068
  54 C :   -0.097655
  55 C :   -0.009060
  56 S :    0.120501
  57 C :   -0.045128
  58 C :   -0.061433
  59 C :    0.016190
  60 C :   -0.108452
  61 S :    0.185657
  62 C :   -0.104530
  63 C :    0.001127
  64 C :    0.296185
  65 C :   -0.295174
  66 C :   -0.189323
  67 N :    0.179281
  68 C :   -0.195160
  69 N :    0.187657
  70 C :   -0.034994
  71 C :    0.066264
  72 S :    0.212373
  73 O :   -0.247428
  74 C :    0.208241
  75 O :   -0.134604
  76 C :    0.029678
  77 C :   -0.185220
  78 N :    0.074096
  79 O :   -0.128780
  80 C :    0.014856
  81 C :   -0.149652
  82 N :    0.243681
  83 C :   -0.166662
  84 N :    0.265062
  85 H :   -0.001820
  86 H :   -0.025694
  87 H :   -0.006217
  88 H :    0.002620
  89 H :   -0.001112
  90 H :    0.019005
  91 H :    0.011183
  92 H :    0.022445
  93 H :   -0.001249
  94 H :    0.003211
  95 H :    0.020980
  96 H :    0.011919
  97 H :    0.018011
  98 H :   -0.039012
  99 H :   -0.030461
 100 H :   -0.035766
 101 H :   -0.011184
 102 H :   -0.014528
 103 H :   -0.020066
 104 H :   -0.006009
 105 H :    0.026434
 106 H :    0.035417
 107 H :    0.033617
 108 H :   -0.007442
 109 H :    0.025682
 110 H :    0.031439
 111 H :    0.037522
 112 H :   -0.011654
 113 H :    0.017058
 114 H :    0.036338
Sum of atomic charges:   -0.0000000

LOEWDIN ATOMIC CHARGES
----------------------
   0 O :    0.077615
   1 N :    0.022785
   2 C :   -0.055408
   3 C :   -0.025369
   4 N :   -0.005590
   5 C :   -0.073213
   6 C :    0.037143
   7 C :   -0.039193
   8 N :    0.024216
   9 C :    0.094613
  10 O :   -0.139529
  11 O :   -0.024643
  12 C :    0.056323
  13 C :   -0.045636
  14 C :    0.010081
  15 C :   -0.019005
  16 C :   -0.010758
  17 C :   -0.029536
  18 C :   -0.017336
  19 C :    0.003123
  20 C :   -0.035180
  21 C :   -0.010220
  22 C :   -0.057543
  23 C :   -0.011215
  24 C :   -0.057381
  25 C :   -0.018140
  26 C :   -0.024495
  27 C :   -0.012692
  28 C :   -0.016355
  29 C :   -0.015944
  30 C :   -0.038446
  31 C :   -0.143185
  32 C :   -0.066866
  33 C :   -0.040111
  34 C :   -0.054347
  35 C :   -0.173208
  36 C :   -0.074774
  37 C :   -0.176512
  38 C :   -0.197958
  39 S :    0.444738
  40 C :   -0.061309
  41 Cl:    0.131383
  42 C :   -0.141934
  43 C :   -0.042553
  44 C :   -0.056523
  45 C :   -0.141391
  46 S :    0.412547
  47 C :   -0.170298
  48 C :   -0.075862
  49 C :   -0.177244
  50 C :   -0.198938
  51 S :    0.443518
  52 C :   -0.061333
  53 Cl:    0.127121
  54 C :   -0.070883
  55 C :   -0.171487
  56 S :    0.424575
  57 C :   -0.174233
  58 C :   -0.033192
  59 C :   -0.067832
  60 C :   -0.185335
  61 S :    0.480668
  62 C :   -0.177666
  63 C :   -0.071463
  64 C :    0.080199
  65 C :   -0.095358
  66 C :   -0.016767
  67 N :   -0.027565
  68 C :   -0.020604
  69 N :   -0.022336
  70 C :   -0.057216
  71 C :   -0.108031
  72 S :    0.478926
  73 O :   -0.041280
  74 C :    0.102083
  75 O :   -0.111022
  76 C :   -0.075636
  77 C :   -0.044711
  78 N :    0.027048
  79 O :    0.079115
  80 C :    0.032721
  81 C :   -0.041737
  82 N :    0.014455
  83 C :   -0.033950
  84 N :    0.017863
  85 H :    0.033874
  86 H :    0.030976
  87 H :    0.037953
  88 H :    0.022012
  89 H :    0.020813
  90 H :    0.024412
  91 H :    0.025089
  92 H :    0.025747
  93 H :    0.020619
  94 H :    0.022218
  95 H :    0.025400
  96 H :    0.025165
  97 H :    0.024220
  98 H :    0.024834
  99 H :    0.025504
 100 H :    0.027354
 101 H :    0.021266
 102 H :    0.031901
 103 H :    0.016684
 104 H :    0.027860
 105 H :    0.034677
 106 H :    0.039362
 107 H :    0.038414
 108 H :    0.025882
 109 H :    0.034256
 110 H :    0.037750
 111 H :    0.040096
 112 H :    0.012191
 113 H :    0.038308
 114 H :    0.047779

  Mayer bond orders larger than 0.100000
B(  0-O ,  1-N ) :   1.0266 B(  0-O ,  6-C ) :   1.1847 B(  1-N ,  2-C ) :   1.7037
B(  1-N ,  6-C ) :   0.1040 B(  2-C ,  3-C ) :   1.1609 B(  2-C ,  5-C ) :   1.2283
B(  3-C ,  4-N ) :   3.0090 B(  5-C ,  6-C ) :   1.5484 B(  5-C ,  9-C ) :   0.8850
B(  6-C ,  7-C ) :   1.1303 B(  7-C ,  8-N ) :   3.0356 B(  9-C , 10-O ) :   2.1218
B(  9-C , 11-O ) :   1.2138 B( 11-O , 12-C ) :   0.9477 B( 12-C , 13-C ) :   1.3401
B( 12-C , 17-C ) :   1.3784 B( 13-C , 14-C ) :   1.3214 B( 13-C , 85-H ) :   1.0119
B( 14-C , 15-C ) :   1.3814 B( 14-C , 20-C ) :   0.9259 B( 15-C , 16-C ) :   1.3302
B( 15-C , 18-C ) :   0.9955 B( 16-C , 17-C ) :   1.3765 B( 16-C , 86-H ) :   0.9963
B( 17-C , 87-H ) :   0.9876 B( 18-C , 19-C ) :   1.3737 B( 18-C , 28-C ) :   1.3322
B( 19-C , 20-C ) :   0.9184 B( 19-C , 25-C ) :   1.3770 B( 20-C , 21-C ) :   1.0345
B( 20-C , 23-C ) :   1.0407 B( 21-C , 22-C ) :   1.1016 B( 21-C , 88-H ) :   0.9399
B( 21-C , 89-H ) :   0.9392 B( 22-C , 90-H ) :   0.9644 B( 22-C , 91-H ) :   0.9637
B( 22-C , 92-H ) :   0.9644 B( 23-C , 24-C ) :   1.1019 B( 23-C , 93-H ) :   0.9384
B( 23-C , 94-H ) :   0.9391 B( 24-C , 95-H ) :   0.9641 B( 24-C , 96-H ) :   0.9641
B( 24-C , 97-H ) :   0.9642 B( 25-C , 26-C ) :   1.2860 B( 25-C , 98-H ) :   1.0136
B( 26-C , 27-C ) :   1.3460 B( 26-C , 29-C ) :   1.0759 B( 27-C , 28-C ) :   1.3989
B( 27-C , 99-H ) :   0.9851 B( 28-C ,100-H ) :   0.9899 B( 29-C , 30-C ) :   1.6711
B( 29-C ,101-H ) :   0.9768 B( 30-C , 31-C ) :   1.1419 B( 30-C ,102-H ) :   0.9743
B( 31-C , 32-C ) :   1.5537 B( 31-C , 46-S ) :   1.0519 B( 32-C , 33-C ) :   1.1641
B( 32-C ,103-H ) :   0.9835 B( 33-C , 34-C ) :   1.3000 B( 33-C , 45-C ) :   1.2662
B( 34-C , 35-C ) :   0.9851 B( 34-C , 42-C ) :   1.4128 B( 35-C , 36-C ) :   1.5520
B( 35-C , 39-S ) :   1.1303 B( 36-C , 37-C ) :   1.2213 B( 36-C ,104-H ) :   0.9961
B( 37-C , 38-C ) :   1.6072 B( 37-C , 41-Cl) :   1.0086 B( 38-C , 39-S ) :   1.1267
B( 38-C , 40-C ) :   1.0804 B( 40-C ,105-H ) :   0.9444 B( 40-C ,106-H ) :   0.9494
B( 40-C ,107-H ) :   0.9492 B( 42-C , 43-C ) :   1.2743 B( 42-C , 56-S ) :   1.0559
B( 43-C , 44-C ) :   1.2873 B( 43-C , 54-C ) :   1.1877 B( 44-C , 45-C ) :   1.4291
B( 44-C , 47-C ) :   0.9907 B( 45-C , 46-S ) :   1.0602 B( 47-C , 48-C ) :   1.5525
B( 47-C , 51-S ) :   1.1273 B( 48-C , 49-C ) :   1.2187 B( 48-C ,108-H ) :   0.9937
B( 49-C , 50-C ) :   1.6071 B( 49-C , 53-Cl) :   1.0041 B( 50-C , 51-S ) :   1.1275
B( 50-C , 52-C ) :   1.0806 B( 52-C ,109-H ) :   0.9446 B( 52-C ,110-H ) :   0.9487
B( 52-C ,111-H ) :   0.9495 B( 54-C , 55-C ) :   1.5710 B( 54-C ,112-H ) :   0.9694
B( 55-C , 56-S ) :   1.0680 B( 55-C , 57-C ) :   1.1527 B( 57-C , 58-C ) :   1.4690
B( 57-C , 61-S ) :   1.1085 B( 58-C , 59-C ) :   1.2837 B( 58-C ,113-H ) :   0.9910
B( 59-C , 60-C ) :   1.4669 B( 59-C , 64-C ) :   0.9920 B( 60-C , 61-S ) :   1.1213
B( 60-C , 62-C ) :   1.1954 B( 62-C , 63-C ) :   1.4777 B( 62-C , 72-S ) :   1.1032
B( 63-C , 64-C ) :   1.0222 B( 63-C , 70-C ) :   1.1942 B( 64-C , 65-C ) :   1.7159
B( 65-C , 66-C ) :   1.1346 B( 65-C , 68-C ) :   1.1313 B( 66-C , 67-N ) :   2.9935
B( 68-C , 69-N ) :   3.0001 B( 70-C , 71-C ) :   1.5026 B( 70-C ,114-H ) :   1.0045
B( 71-C , 72-S ) :   1.1160 B( 71-C , 73-O ) :   1.0032 B( 73-O , 74-C ) :   1.1456
B( 74-C , 75-O ) :   2.1727 B( 74-C , 76-C ) :   0.8897 B( 76-C , 77-C ) :   1.2442
B( 76-C , 80-C ) :   1.5215 B( 77-C , 78-N ) :   1.7061 B( 77-C , 83-C ) :   1.1578
B( 78-N , 79-O ) :   1.0228 B( 78-N , 80-C ) :   0.1044 B( 79-O , 80-C ) :   1.1902
B( 80-C , 81-C ) :   1.1286 B( 81-C , 82-N ) :   3.0379 B( 83-C , 84-N ) :   3.0647

-----------------------------------------------------------------------------
         ABSORPTION SPECTRUM VIA TRANSITION ELECTRIC DIPOLE MOMENTS
-----------------------------------------------------------------------------
State   Energy  Wavelength   fosc         T2         TX        TY        TZ
        (cm-1)    (nm)                  (au**2)     (au)      (au)      (au)
-----------------------------------------------------------------------------
   0   12970.7    771.0   0.130743987   3.31845  -1.27669  -0.19647  -1.28449
   1   19227.4    520.1   0.030891980   0.52893   0.31963   0.53787   0.37076
   2   22119.1    452.1   0.528363326   7.86395  -1.99037  -0.39964  -1.93459
   3   23748.2    421.1   1.533740990  21.26169  -2.93238  -2.35889  -2.66430
   4   24240.5    412.5   0.242143016   3.28857  -0.53349  -1.49386  -0.87882
   5   26454.0    378.0   0.144484768   1.79807  -1.23806  -0.32443  -0.40002
   6   27066.1    369.5   0.399785831   4.86270  -1.69911   0.44403  -1.33362
   7   28042.8    356.6   0.005928914   0.06960   0.16123   0.19156  -0.08315
   8   28748.5    347.8   0.008355504   0.09568   0.12750  -0.02311   0.28088
   9   30121.4    332.0   0.094698521   1.03501  -0.55950  -0.08650  -0.84527
  10   30202.5    331.1   0.757267866   8.25434  -2.57928   0.32366  -1.22348
  11   30502.9    327.8   0.156575625   1.68989  -0.44887   1.08267  -0.56234
  12   30836.7    324.3   0.016004957   0.17087  -0.11054  -0.35867  -0.17323
  13   31176.0    320.8   0.019688780   0.20791   0.28838  -0.05660   0.34863
  14   31680.6    315.7   0.005246077   0.05452  -0.21698  -0.08610   0.00451
  15   31754.1    314.9   0.143723231   1.49005  -0.18476   1.19170   0.18914
  16   31955.9    312.9   0.204118934   2.10285  -0.19023   1.38451   0.38703
  17   32677.3    306.0   0.460409774   4.63845  -0.63784   2.05366   0.11877
  18   33266.3    300.6   0.000922783   0.00913   0.05250  -0.02365   0.07627
  19   33899.9    295.0   0.010565836   0.10261   0.18337  -0.23783   0.11145
  20   34126.5    293.0   0.152742243   1.47348   0.83462  -0.67421   0.56774
  21   34204.9    292.4   0.064748283   0.62318  -0.48483   0.10774  -0.61361
  22   35080.3    285.1   0.019892781   0.18668  -0.23747   0.35148   0.08218
  23   35224.3    283.9   0.010863146   0.10153   0.24432  -0.05180   0.19787
  24   35459.9    282.0   0.024370287   0.22626   0.19479   0.42409  -0.09198
  25   36047.0    277.4   0.060073383   0.54864   0.38916  -0.57981   0.24703
  26   36241.3    275.9   0.006859637   0.06231   0.21499   0.00311   0.12682
  27   36458.4    274.3   0.136314261   1.23089   0.21992   1.06472   0.22111
  28   36735.4    272.2   0.125762327   1.12704  -0.22089  -0.79210  -0.67143
  29   37508.9    266.6   0.025362621   0.22261   0.35179  -0.30814   0.06242
  30   37660.4    265.5   0.003827750   0.03346   0.03605  -0.17610   0.03392
  31   37841.5    264.3   0.001762157   0.01533  -0.05647   0.09827  -0.04984
  32   37932.2    263.6   0.021190569   0.18391   0.40204  -0.06720   0.13325
  33   38370.6    260.6   0.003494293   0.02998  -0.16864  -0.03724  -0.01237
  34   38590.5    259.1   0.013772826   0.11749   0.00647   0.33570   0.06898
  35   38642.6    258.8   0.034826925   0.29670   0.23866   0.47455   0.12062
  36   38736.9    258.2   0.003976357   0.03379  -0.00531  -0.18081   0.03276
  37   39014.2    256.3   0.022615569   0.19084  -0.27025   0.22169  -0.26202
  38   39263.4    254.7   0.038897845   0.32615   0.40890   0.30939   0.25145
  39   39364.1    254.0   0.006507084   0.05442   0.02409   0.20042   0.11692
  40   40049.1    249.7   0.070614863   0.58047   0.45239   0.28691   0.54175
  41   40281.4    248.3   0.091718040   0.74959  -0.61947  -0.45822  -0.39482
  42   40314.3    248.1   0.004941363   0.04035   0.11020   0.13480   0.10018

FINAL SINGLE POINT ENERGY     -6612.348814846994

DIPOLE MOMENT
-------------
                                X             Y             Z
Electronic contribution:     92.31644      26.51846      84.95608
Nuclear contribution   :    -92.58473     -28.28093     -86.22760
                        -----------------------------------------
Total Dipole Moment    :     -0.26829      -1.76247      -1.27152
                        -----------------------------------------
Magnitude (a.u.)       :      2.18976
Magnitude (Debye)      :      5.56594

Rotational constants in cm-1:     0.001139     0.000136     0.000125
Rotational constants in MHz :    34.159835     4.072129     3.740844

                             ****ORCA TERMINATED NORMALLY****
TOTAL RUN TIME: 0 days 0 hours 12 minutes 4 seconds 485 msec
