                         Program Version 4.2.0 -  RELEASE  -
|  1> # ORCA input file
|  2> # SCF done       -161.576182726064          0.000681555311
|  3> ! CAM-B3LYP def2-SVP def2/J RIJCOSX Grid4 TightSCF
|  4> %maxcore 5000
|  5> %tddft
|  6>     Mode sTDDFT
|  7>     Ethresh 5.0
|  8>     maxcore 5000
|  9> end
| 10>
| 11> %pal
| 12>   nprocs 6
| 13>   end
| 14> * xyz 0 1
| 15>    C       -8.99055         1.51890        -3.96310
| 16>    C       -9.36071         1.95719        -2.72354
| 17>    C       -8.42413         2.35970        -1.75009
| 18>    C       -7.06014         2.34825        -1.96128
| 19>    C       -6.64190         1.89598        -3.24491
| 20>    C       -7.61032         1.48448        -4.23434
| 21>    N       -6.93541         1.11899        -5.30915
| 22>    O       -5.65057         1.28756        -5.01658
| 23>    N       -5.44860         1.75190        -3.78647
| 24>    C       -6.10492         2.75751        -0.97485
| 25>    C       -4.73175         2.80372        -1.10335
| 26>    C       -4.11189         3.25571         0.06418
| 27>    C       -5.02912         3.55240         1.08846
| 28>    S       -6.64368         3.28049         0.61699
| 29>    C       -4.31181         3.99763         2.22579
| 30>    C       -2.94054         3.98505         1.92329
| 31>    C       -2.77023         3.51865         0.55257
| 32>    C       -1.59263         3.36827        -0.11872
| 33>    C       -0.35024         3.66581         0.47996
| 34>    N        0.65956         3.90630         0.96786
| 35>    C       -1.52614         2.91239        -1.45277
| 36>    N       -1.44743         2.54305        -2.53490
| 37>    C       -2.14558         4.40897         2.98555
| 38>    C       -2.89752         4.74457         4.09910
| 39>    S       -4.62335         4.52966         3.81778
| 40>    C       -2.42613         5.21381         5.35820
| 41>    C       -3.26913         5.50709         6.40389
| 42>    C       -2.86207         5.96819         7.65251
| 43>    C       -1.44518         6.18466         7.95392
| 44>    C       -0.44160         5.96176         7.07760
| 45>    S       -0.67834         5.39116         5.47766
| 46>    C       -1.41672         6.64998         9.29679
| 47>    C       -2.71475         6.72282         9.80960
| 48>    C       -2.71586         7.18453        11.14590
| 49>    C       -1.45877         7.44040        11.59399
| 50>    S       -0.21960         7.13664        10.42711
| 51>    C       -3.63817         6.29596         8.78590
| 52>    C       -5.04391         6.19984         8.83378
| 53>    C       -5.84453         6.49849         9.89380
| 54>    C       -7.25291         6.38264         9.87547
| 55>    C       -8.08881         5.96600         8.84548
| 56>    C       -9.42876         5.99036         9.21112
| 57>    C       -9.63597         6.42767        10.53118
| 58>    S       -8.16588         6.80793        11.31856
| 59>    C      -11.02507         6.41569        10.79349
| 60>    C      -11.70271         5.97035         9.64129
| 61>    C      -10.72448         5.68873         8.61039
| 62>    C      -10.94631         5.23875         7.34098
| 63>    C       -9.88947         5.00840         6.43649
| 64>    N       -9.03063         4.82112         5.69873
| 65>    C      -12.23734         4.97227         6.83795
| 66>    N      -13.27521         4.74772         6.40580
| 67>    C      -13.08923         5.92886         9.80996
| 68>    C      -13.47196         6.33629        11.07059
| 69>    S      -12.09047         6.78002        12.07293
| 70>    C      -14.79982         6.42646        11.59718
| 71>    C      -15.08363         6.85641        12.87829
| 72>    C      -16.39262         6.94617        13.39168
| 73>    C      -17.49538         6.61207        12.65787
| 74>    C      -17.26675         6.16548        11.34359
| 75>    C      -15.92921         6.06976        10.80668
| 76>    N      -16.03777         5.62682         9.57013
| 77>    O      -17.33861         5.45759         9.34682
| 78>    N      -18.09549         5.77327        10.39308
| 79>    H       -9.69912         1.20967        -4.71221
| 80>    H      -10.40777         2.00289        -2.46448
| 81>    H       -8.79763         2.69386        -0.79269
| 82>    H       -4.23181         2.51736        -2.01081
| 83>    H       -1.07271         4.47431         2.96422
| 84>    H       -4.32617         5.36169         6.22310
| 85>    H        0.59484         6.12872         7.32485
| 86>    H       -3.58392         7.32812        11.76212
| 87>    H       -1.17019         7.79863        12.56285
| 88>    H       -5.51788         5.85185         7.92674
| 89>    H       -5.41000         6.84777        10.81704
| 90>    H       -7.72777         5.66247         7.88084
| 91>    H      -13.80323         5.62183         9.06731
| 92>    H      -14.26359         7.13983        13.52258
| 93>    H      -16.51322         7.29472        14.40646
| 94>    H      -18.49856         6.67836        13.04257
| 95> *
| 96>
| 97>                          ****END OF INPUT****

CARTESIAN COORDINATES (ANGSTROEM)
---------------------------------
  C     -8.990550    1.518900   -3.963100
  C     -9.360710    1.957190   -2.723540
  C     -8.424130    2.359700   -1.750090
  C     -7.060140    2.348250   -1.961280
  C     -6.641900    1.895980   -3.244910
  C     -7.610320    1.484480   -4.234340
  N     -6.935410    1.118990   -5.309150
  O     -5.650570    1.287560   -5.016580
  N     -5.448600    1.751900   -3.786470
  C     -6.104920    2.757510   -0.974850
  C     -4.731750    2.803720   -1.103350
  C     -4.111890    3.255710    0.064180
  C     -5.029120    3.552400    1.088460
  S     -6.643680    3.280490    0.616990
  C     -4.311810    3.997630    2.225790
  C     -2.940540    3.985050    1.923290
  C     -2.770230    3.518650    0.552570
  C     -1.592630    3.368270   -0.118720
  C     -0.350240    3.665810    0.479960
  N      0.659560    3.906300    0.967860
  C     -1.526140    2.912390   -1.452770
  N     -1.447430    2.543050   -2.534900
  C     -2.145580    4.408970    2.985550
  C     -2.897520    4.744570    4.099100
  S     -4.623350    4.529660    3.817780
  C     -2.426130    5.213810    5.358200
  C     -3.269130    5.507090    6.403890
  C     -2.862070    5.968190    7.652510
  C     -1.445180    6.184660    7.953920
  C     -0.441600    5.961760    7.077600
  S     -0.678340    5.391160    5.477660
  C     -1.416720    6.649980    9.296790
  C     -2.714750    6.722820    9.809600
  C     -2.715860    7.184530   11.145900
  C     -1.458770    7.440400   11.593990
  S     -0.219600    7.136640   10.427110
  C     -3.638170    6.295960    8.785900
  C     -5.043910    6.199840    8.833780
  C     -5.844530    6.498490    9.893800
  C     -7.252910    6.382640    9.875470
  C     -8.088810    5.966000    8.845480
  C     -9.428760    5.990360    9.211120
  C     -9.635970    6.427670   10.531180
  S     -8.165880    6.807930   11.318560
  C    -11.025070    6.415690   10.793490
  C    -11.702710    5.970350    9.641290
  C    -10.724480    5.688730    8.610390
  C    -10.946310    5.238750    7.340980
  C     -9.889470    5.008400    6.436490
  N     -9.030630    4.821120    5.698730
  C    -12.237340    4.972270    6.837950
  N    -13.275210    4.747720    6.405800
  C    -13.089230    5.928860    9.809960
  C    -13.471960    6.336290   11.070590
  S    -12.090470    6.780020   12.072930
  C    -14.799820    6.426460   11.597180
  C    -15.083630    6.856410   12.878290
  C    -16.392620    6.946170   13.391680
  C    -17.495380    6.612070   12.657870
  C    -17.266750    6.165480   11.343590
  C    -15.929210    6.069760   10.806680
  N    -16.037770    5.626820    9.570130
  O    -17.338610    5.457590    9.346820
  N    -18.095490    5.773270   10.393080
  H     -9.699120    1.209670   -4.712210
  H    -10.407770    2.002890   -2.464480
  H     -8.797630    2.693860   -0.792690
  H     -4.231810    2.517360   -2.010810
  H     -1.072710    4.474310    2.964220
  H     -4.326170    5.361690    6.223100
  H      0.594840    6.128720    7.324850
  H     -3.583920    7.328120   11.762120
  H     -1.170190    7.798630   12.562850
  H     -5.517880    5.851850    7.926740
  H     -5.410000    6.847770   10.817040
  H     -7.727770    5.662470    7.880840
  H    -13.803230    5.621830    9.067310
  H    -14.263590    7.139830   13.522580
  H    -16.513220    7.294720   14.406460
  H    -18.498560    6.678360   13.042570

 Total Charge           Charge          ....    0
 Multiplicity           Mult            ....    1
 Number of Electrons    NEL             ....  472
 Basis Dimension        Dim             .... 1000

ORBITAL ENERGIES
----------------

  NO   OCC          E(Eh)            E(eV)
   0   2.0000     -88.990817     -2421.5632
   1   2.0000     -88.987583     -2421.4752
   2   2.0000     -88.984780     -2421.3990
   3   2.0000     -88.982370     -2421.3334
   4   2.0000     -88.981697     -2421.3151
   5   2.0000     -88.961497     -2420.7654
   6   2.0000     -19.353936      -526.6474
   7   2.0000     -19.353073      -526.6239
   8   2.0000     -14.479371      -394.0037
   9   2.0000     -14.478904      -393.9910
  10   2.0000     -14.476962      -393.9382
  11   2.0000     -14.476059      -393.9136
  12   2.0000     -14.429675      -392.6514
  13   2.0000     -14.428779      -392.6270
  14   2.0000     -14.424753      -392.5175
  15   2.0000     -14.423794      -392.4914
  16   2.0000     -10.362613      -281.9810
  17   2.0000     -10.359729      -281.9026
  18   2.0000     -10.349228      -281.6168
  19   2.0000     -10.347390      -281.5668
  20   2.0000     -10.334910      -281.2272
  21   2.0000     -10.333324      -281.1840
  22   2.0000     -10.332276      -281.1555
  23   2.0000     -10.331527      -281.1351
  24   2.0000     -10.331435      -281.1326
  25   2.0000     -10.331027      -281.1215
  26   2.0000     -10.329320      -281.0751
  27   2.0000     -10.329115      -281.0695
  28   2.0000     -10.326256      -280.9917
  29   2.0000     -10.325422      -280.9690
  30   2.0000     -10.324175      -280.9351
  31   2.0000     -10.323673      -280.9214
  32   2.0000     -10.322875      -280.8997
  33   2.0000     -10.322101      -280.8786
  34   2.0000     -10.321198      -280.8541
  35   2.0000     -10.320662      -280.8395
  36   2.0000     -10.319342      -280.8036
  37   2.0000     -10.318051      -280.7685
  38   2.0000     -10.317140      -280.7437
  39   2.0000     -10.316896      -280.7370
  40   2.0000     -10.303611      -280.3755
  41   2.0000     -10.303558      -280.3741
  42   2.0000     -10.303040      -280.3600
  43   2.0000     -10.302229      -280.3379
  44   2.0000     -10.300931      -280.3026
  45   2.0000     -10.299823      -280.2724
  46   2.0000     -10.299660      -280.2680
  47   2.0000     -10.299437      -280.2619
  48   2.0000     -10.298968      -280.2492
  49   2.0000     -10.298627      -280.2399
  50   2.0000     -10.297684      -280.2142
  51   2.0000     -10.296935      -280.1938
  52   2.0000     -10.295494      -280.1546
  53   2.0000     -10.294956      -280.1400
  54   2.0000     -10.294500      -280.1276
  55   2.0000     -10.293162      -280.0912
  56   2.0000     -10.292648      -280.0772
  57   2.0000     -10.292332      -280.0686
  58   2.0000     -10.292067      -280.0614
  59   2.0000     -10.287280      -279.9311
  60   2.0000     -10.284872      -279.8656
  61   2.0000     -10.281522      -279.7744
  62   2.0000     -10.280691      -279.7518
  63   2.0000     -10.280363      -279.7429
  64   2.0000      -8.084905      -220.0015
  65   2.0000      -8.082050      -219.9238
  66   2.0000      -8.079457      -219.8532
  67   2.0000      -8.077035      -219.7873
  68   2.0000      -8.076808      -219.7811
  69   2.0000      -8.057073      -219.2441
  70   2.0000      -6.054192      -164.7429
  71   2.0000      -6.051290      -164.6640
  72   2.0000      -6.050093      -164.6314
  73   2.0000      -6.048713      -164.5939
  74   2.0000      -6.047191      -164.5524
  75   2.0000      -6.047082      -164.5495
  76   2.0000      -6.046463      -164.5326
  77   2.0000      -6.046255      -164.5270
  78   2.0000      -6.044546      -164.4805
  79   2.0000      -6.044513      -164.4796
  80   2.0000      -6.042150      -164.4153
  81   2.0000      -6.041835      -164.4067
  82   2.0000      -6.041811      -164.4060
  83   2.0000      -6.039432      -164.3413
  84   2.0000      -6.038614      -164.3191
  85   2.0000      -6.026480      -163.9888
  86   2.0000      -6.022235      -163.8733
  87   2.0000      -6.019122      -163.7886
  88   2.0000      -1.307482       -35.5784
  89   2.0000      -1.306349       -35.5476
  90   2.0000      -1.043568       -28.3969
  91   2.0000      -1.038862       -28.2689
  92   2.0000      -1.019504       -27.7421
  93   2.0000      -1.018835       -27.7239
  94   2.0000      -1.013966       -27.5914
  95   2.0000      -1.010877       -27.5074
  96   2.0000      -1.010522       -27.4977
  97   2.0000      -1.004091       -27.3227
  98   2.0000      -1.003632       -27.3102
  99   2.0000      -1.002826       -27.2883
 100   2.0000      -1.000609       -27.2279
 101   2.0000      -0.993193       -27.0262
 102   2.0000      -0.986036       -26.8314
 103   2.0000      -0.974714       -26.5233
 104   2.0000      -0.955228       -25.9931
 105   2.0000      -0.954238       -25.9661
 106   2.0000      -0.933976       -25.4148
 107   2.0000      -0.922015       -25.0893
 108   2.0000      -0.920418       -25.0458
 109   2.0000      -0.913621       -24.8609
 110   2.0000      -0.909133       -24.7388
 111   2.0000      -0.894558       -24.3422
 112   2.0000      -0.885070       -24.0840
 113   2.0000      -0.875734       -23.8299
 114   2.0000      -0.873312       -23.7640
 115   2.0000      -0.863054       -23.4849
 116   2.0000      -0.856923       -23.3181
 117   2.0000      -0.852278       -23.1917
 118   2.0000      -0.848233       -23.0816
 119   2.0000      -0.840986       -22.8844
 120   2.0000      -0.822587       -22.3837
 121   2.0000      -0.808353       -21.9964
 122   2.0000      -0.791260       -21.5313
 123   2.0000      -0.782075       -21.2813
 124   2.0000      -0.776897       -21.1405
 125   2.0000      -0.774147       -21.0656
 126   2.0000      -0.768853       -20.9215
 127   2.0000      -0.760180       -20.6855
 128   2.0000      -0.746534       -20.3142
 129   2.0000      -0.745154       -20.2767
 130   2.0000      -0.740660       -20.1544
 131   2.0000      -0.735095       -20.0030
 132   2.0000      -0.710170       -19.3247
 133   2.0000      -0.706019       -19.2118
 134   2.0000      -0.699840       -19.0436
 135   2.0000      -0.687858       -18.7176
 136   2.0000      -0.683763       -18.6061
 137   2.0000      -0.678920       -18.4743
 138   2.0000      -0.671019       -18.2594
 139   2.0000      -0.660240       -17.9660
 140   2.0000      -0.658370       -17.9152
 141   2.0000      -0.651206       -17.7202
 142   2.0000      -0.643896       -17.5213
 143   2.0000      -0.637126       -17.3371
 144   2.0000      -0.634598       -17.2683
 145   2.0000      -0.632244       -17.2042
 146   2.0000      -0.625110       -17.0101
 147   2.0000      -0.619186       -16.8489
 148   2.0000      -0.615477       -16.7480
 149   2.0000      -0.613190       -16.6858
 150   2.0000      -0.609267       -16.5790
 151   2.0000      -0.604803       -16.4575
 152   2.0000      -0.603976       -16.4350
 153   2.0000      -0.599232       -16.3059
 154   2.0000      -0.597625       -16.2622
 155   2.0000      -0.587103       -15.9759
 156   2.0000      -0.580568       -15.7981
 157   2.0000      -0.574935       -15.6448
 158   2.0000      -0.571453       -15.5500
 159   2.0000      -0.568807       -15.4780
 160   2.0000      -0.561297       -15.2737
 161   2.0000      -0.558463       -15.1965
 162   2.0000      -0.546052       -14.8588
 163   2.0000      -0.543851       -14.7990
 164   2.0000      -0.542902       -14.7731
 165   2.0000      -0.541839       -14.7442
 166   2.0000      -0.531824       -14.4717
 167   2.0000      -0.525660       -14.3039
 168   2.0000      -0.520378       -14.1602
 169   2.0000      -0.518702       -14.1146
 170   2.0000      -0.517590       -14.0843
 171   2.0000      -0.511027       -13.9057
 172   2.0000      -0.503779       -13.7085
 173   2.0000      -0.503523       -13.7016
 174   2.0000      -0.502547       -13.6750
 175   2.0000      -0.501166       -13.6374
 176   2.0000      -0.497507       -13.5378
 177   2.0000      -0.495934       -13.4951
 178   2.0000      -0.492584       -13.4039
 179   2.0000      -0.491414       -13.3720
 180   2.0000      -0.491059       -13.3624
 181   2.0000      -0.483508       -13.1569
 182   2.0000      -0.482523       -13.1301
 183   2.0000      -0.481250       -13.0955
 184   2.0000      -0.476421       -12.9641
 185   2.0000      -0.471843       -12.8395
 186   2.0000      -0.469088       -12.7645
 187   2.0000      -0.466799       -12.7023
 188   2.0000      -0.465335       -12.6624
 189   2.0000      -0.464567       -12.6415
 190   2.0000      -0.461154       -12.5486
 191   2.0000      -0.458749       -12.4832
 192   2.0000      -0.457892       -12.4599
 193   2.0000      -0.456290       -12.4163
 194   2.0000      -0.455083       -12.3834
 195   2.0000      -0.452231       -12.3058
 196   2.0000      -0.450541       -12.2598
 197   2.0000      -0.446068       -12.1381
 198   2.0000      -0.439471       -11.9586
 199   2.0000      -0.439172       -11.9505
 200   2.0000      -0.437070       -11.8933
 201   2.0000      -0.436896       -11.8885
 202   2.0000      -0.436576       -11.8799
 203   2.0000      -0.434757       -11.8303
 204   2.0000      -0.433787       -11.8040
 205   2.0000      -0.433392       -11.7932
 206   2.0000      -0.432800       -11.7771
 207   2.0000      -0.427884       -11.6433
 208   2.0000      -0.425124       -11.5682
 209   2.0000      -0.422042       -11.4843
 210   2.0000      -0.421448       -11.4682
 211   2.0000      -0.419587       -11.4175
 212   2.0000      -0.416175       -11.3247
 213   2.0000      -0.409621       -11.1463
 214   2.0000      -0.404930       -11.0187
 215   2.0000      -0.401212       -10.9175
 216   2.0000      -0.400591       -10.9006
 217   2.0000      -0.396864       -10.7992
 218   2.0000      -0.391061       -10.6413
 219   2.0000      -0.390472       -10.6253
 220   2.0000      -0.385957       -10.5024
 221   2.0000      -0.368081       -10.0160
 222   2.0000      -0.365344        -9.9415
 223   2.0000      -0.360691        -9.8149
 224   2.0000      -0.356755        -9.7078
 225   2.0000      -0.347536        -9.4569
 226   2.0000      -0.343446        -9.3456
 227   2.0000      -0.337189        -9.1754
 228   2.0000      -0.324170        -8.8211
 229   2.0000      -0.319293        -8.6884
 230   2.0000      -0.317843        -8.6490
 231   2.0000      -0.310695        -8.4544
 232   2.0000      -0.288191        -7.8421
 233   2.0000      -0.274231        -7.4622
 234   2.0000      -0.255910        -6.9637
 235   2.0000      -0.221491        -6.0271
 236   0.0000      -0.106292        -2.8923
 237   0.0000      -0.100983        -2.7479
 238   0.0000      -0.072042        -1.9604
 239   0.0000      -0.064972        -1.7680
 240   0.0000      -0.058085        -1.5806

MULLIKEN ATOMIC CHARGES
-----------------------
   0 C :   -0.021375
   1 C :    0.041640
   2 C :   -0.078156
   3 C :    0.172127
   4 C :   -0.073275
   5 C :    0.003904
   6 N :    0.057270
   7 O :   -0.089928
   8 N :    0.040153
   9 C :   -0.122090
  10 C :   -0.050749
  11 C :    0.019660
  12 C :   -0.084593
  13 S :    0.175650
  14 C :   -0.094550
  15 C :    0.021353
  16 C :    0.306717
  17 C :   -0.300331
  18 C :   -0.187683
  19 N :    0.168415
  20 C :   -0.193407
  21 N :    0.191640
  22 C :   -0.062580
  23 C :   -0.064956
  24 S :    0.181921
  25 C :   -0.015998
  26 C :   -0.099687
  27 C :    0.061692
  28 C :    0.063976
  29 C :   -0.120898
  30 S :    0.136471
  31 C :   -0.113885
  32 C :    0.054652
  33 C :   -0.012045
  34 C :   -0.065331
  35 S :    0.133042
  36 C :    0.096285
  37 C :   -0.014475
  38 C :    0.038449
  39 C :   -0.065125
  40 C :   -0.052914
  41 C :    0.015145
  42 C :   -0.112866
  43 S :    0.176921
  44 C :   -0.082952
  45 C :    0.008113
  46 C :    0.316746
  47 C :   -0.308034
  48 C :   -0.178203
  49 N :    0.148725
  50 C :   -0.195059
  51 N :    0.187021
  52 C :   -0.045133
  53 C :   -0.128261
  54 S :    0.156332
  55 C :    0.178508
  56 C :   -0.085636
  57 C :    0.050688
  58 C :   -0.035098
  59 C :    0.010366
  60 C :   -0.078585
  61 N :    0.043641
  62 O :   -0.091988
  63 N :    0.055452
  64 H :   -0.006368
  65 H :    0.005346
  66 H :   -0.003082
  67 H :    0.026828
  68 H :    0.021512
  69 H :   -0.002234
  70 H :    0.039807
  71 H :   -0.012693
  72 H :    0.025546
  73 H :   -0.037149
  74 H :   -0.052106
  75 H :    0.000266
  76 H :    0.024530
  77 H :   -0.007951
  78 H :    0.000707
  79 H :   -0.009790
Sum of atomic charges:   -0.0000000

LOEWDIN ATOMIC CHARGES
----------------------
   0 C :   -0.018496
   1 C :   -0.004825
   2 C :   -0.022786
   3 C :   -0.033481
   4 C :   -0.047676
   5 C :   -0.056734
   6 N :   -0.020339
   7 O :    0.082165
   8 N :   -0.023710
   9 C :   -0.165604
  10 C :   -0.015480
  11 C :   -0.072755
  12 C :   -0.172814
  13 S :    0.480596
  14 C :   -0.179963
  15 C :   -0.064476
  16 C :    0.080236
  17 C :   -0.097654
  18 C :   -0.014715
  19 N :   -0.034892
  20 C :   -0.021996
  21 N :   -0.019323
  22 C :   -0.040083
  23 C :   -0.180344
  24 S :    0.486056
  25 C :   -0.177383
  26 C :   -0.032857
  27 C :   -0.014824
  28 C :   -0.050259
  29 C :   -0.137405
  30 S :    0.465360
  31 C :   -0.199792
  32 C :   -0.037360
  33 C :   -0.067341
  34 C :   -0.165380
  35 S :    0.427779
  36 C :   -0.051694
  37 C :   -0.001693
  38 C :   -0.067836
  39 C :   -0.148538
  40 C :   -0.040578
  41 C :   -0.057676
  42 C :   -0.204350
  43 S :    0.464718
  44 C :   -0.161656
  45 C :   -0.084007
  46 C :    0.084725
  47 C :   -0.105554
  48 C :   -0.010019
  49 N :   -0.049789
  50 C :   -0.021987
  51 N :   -0.024823
  52 C :   -0.012975
  53 C :   -0.172814
  54 S :    0.465894
  55 C :   -0.031095
  56 C :   -0.029951
  57 C :   -0.005186
  58 C :   -0.023473
  59 C :   -0.056354
  60 C :   -0.048245
  61 N :   -0.023400
  62 O :    0.080178
  63 N :   -0.022105
  64 H :    0.041229
  65 H :    0.038251
  66 H :    0.026414
  67 H :    0.042220
  68 H :    0.034849
  69 H :    0.027129
  70 H :    0.038257
  71 H :    0.027827
  72 H :    0.023845
  73 H :    0.027588
  74 H :    0.023467
  75 H :    0.034989
  76 H :    0.041823
  77 H :    0.024343
  78 H :    0.036659
  79 H :    0.039943

  Mayer bond orders larger than 0.100000
B(  0-C ,  1-C ) :   1.5292 B(  0-C ,  3-C ) :   0.1066 B(  0-C ,  5-C ) :   1.1637
B(  0-C , 64-H ) :   1.0227 B(  1-C ,  2-C ) :   1.2056 B(  1-C , 65-H ) :   0.9812
B(  2-C ,  3-C ) :   1.5196 B(  2-C , 66-H ) :   0.9854 B(  3-C ,  4-C ) :   1.1445
B(  3-C ,  9-C ) :   1.1093 B(  4-C ,  5-C ) :   1.1471 B(  4-C ,  8-N ) :   1.5926
B(  5-C ,  6-N ) :   1.5932 B(  6-N ,  7-O ) :   1.0763 B(  6-N ,  8-N ) :   0.1848
B(  7-O ,  8-N ) :   1.0635 B(  9-C , 10-C ) :   1.4999 B(  9-C , 13-S ) :   1.0856
B( 10-C , 11-C ) :   1.2423 B( 10-C , 67-H ) :   0.9814 B( 11-C , 12-C ) :   1.4410
B( 11-C , 16-C ) :   0.9977 B( 12-C , 13-S ) :   1.1330 B( 12-C , 14-C ) :   1.1822
B( 14-C , 15-C ) :   1.4481 B( 14-C , 24-S ) :   1.1238 B( 15-C , 16-C ) :   0.9900
B( 15-C , 22-C ) :   1.3062 B( 16-C , 17-C ) :   1.7140 B( 17-C , 18-C ) :   1.1347
B( 17-C , 20-C ) :   1.1344 B( 18-C , 19-N ) :   2.9871 B( 20-C , 21-N ) :   2.9964
B( 22-C , 23-C ) :   1.4496 B( 22-C , 68-H ) :   0.9802 B( 23-C , 24-S ) :   1.1069
B( 23-C , 25-C ) :   1.1677 B( 25-C , 26-C ) :   1.5229 B( 25-C , 30-S ) :   1.0588
B( 26-C , 27-C ) :   1.2553 B( 26-C , 69-H ) :   0.9601 B( 27-C , 28-C ) :   1.0526
B( 27-C , 36-C ) :   1.3633 B( 28-C , 29-C ) :   1.6065 B( 28-C , 31-C ) :   1.1755
B( 29-C , 30-S ) :   1.1393 B( 29-C , 70-H ) :   0.9413 B( 31-C , 32-C ) :   1.4559
B( 31-C , 35-S ) :   1.0803 B( 32-C , 33-C ) :   1.2094 B( 32-C , 36-C ) :   1.0690
B( 33-C , 34-C ) :   1.5884 B( 33-C , 71-H ) :   1.0010 B( 34-C , 35-S ) :   1.1585
B( 34-C , 72-H ) :   0.9642 B( 36-C , 37-C ) :   1.2011 B( 37-C , 38-C ) :   1.6194
B( 37-C , 73-H ) :   0.9555 B( 38-C , 39-C ) :   1.1361 B( 38-C , 74-H ) :   0.9646
B( 39-C , 40-C ) :   1.4307 B( 39-C , 43-S ) :   1.1144 B( 40-C , 41-C ) :   1.3137
B( 40-C , 75-H ) :   0.9864 B( 41-C , 42-C ) :   1.4329 B( 41-C , 46-C ) :   0.9891
B( 42-C , 43-S ) :   1.0974 B( 42-C , 44-C ) :   1.2014 B( 44-C , 45-C ) :   1.4306
B( 44-C , 54-S ) :   1.1358 B( 45-C , 46-C ) :   1.0077 B( 45-C , 52-C ) :   1.2377
B( 46-C , 47-C ) :   1.7007 B( 47-C , 48-C ) :   1.1404 B( 47-C , 50-C ) :   1.1344
B( 48-C , 49-N ) :   2.9744 B( 50-C , 51-N ) :   2.9985 B( 52-C , 53-C ) :   1.5064
B( 52-C , 76-H ) :   0.9814 B( 53-C , 54-S ) :   1.0695 B( 53-C , 55-C ) :   1.1143
B( 55-C , 56-C ) :   1.5109 B( 55-C , 58-C ) :   0.1061 B( 55-C , 60-C ) :   1.1445
B( 56-C , 57-C ) :   1.2066 B( 56-C , 77-H ) :   0.9858 B( 57-C , 58-C ) :   1.5281
B( 57-C , 78-H ) :   0.9797 B( 58-C , 59-C ) :   1.1618 B( 58-C , 79-H ) :   1.0246
B( 59-C , 60-C ) :   1.1493 B( 59-C , 63-N ) :   1.5929 B( 60-C , 61-N ) :   1.5960
B( 61-N , 62-O ) :   1.0630 B( 61-N , 63-N ) :   0.1844 B( 62-O , 63-N ) :   1.0731

-----------------------------------------------------------------------------
         ABSORPTION SPECTRUM VIA TRANSITION ELECTRIC DIPOLE MOMENTS
-----------------------------------------------------------------------------
State   Energy  Wavelength   fosc         T2         TX        TY        TZ
        (cm-1)    (nm)                  (au**2)     (au)      (au)      (au)
-----------------------------------------------------------------------------
   0    9551.7   1046.9   0.225107953   7.75864  -2.23672   0.38600   1.61453
   1   10963.3    912.1   0.131345256   3.94409   0.61432   0.65415   1.77166
   2   16798.6    595.3   0.115302300   2.25965  -1.35056   0.11949   0.64913
   3   17755.9    563.2   0.742619543  13.76891   1.98639  -0.88235  -3.00743
   4   19291.2    518.4   0.158200372   2.69976   1.08529  -0.33016  -1.18865
   5   21694.9    460.9   0.366519161   5.56180   2.22786  -0.10189  -0.76686
   6   22337.9    447.7   0.682845378  10.06364  -2.56653  -0.77228  -1.69709
   7   24230.7    412.7   0.002020479   0.02745  -0.16252   0.00216   0.03216
   8   24485.4    408.4   0.276785413   3.72144  -1.83329  -0.31973  -0.50819
   9   24826.6    402.8   0.040449031   0.53637   0.72918   0.04198  -0.05393
  10   26338.9    379.7   0.322727571   4.03380   1.84641   0.37791   0.69407
  11   27071.1    369.4   0.039537635   0.48082  -0.34902  -0.22043  -0.55714
  12   28201.6    354.6   0.103752732   1.21116   0.50925  -0.27984  -0.93462
  13   28829.1    346.9   0.147903282   1.68897   0.95702   0.35562   0.80413
  14   29022.1    344.6   0.099946935   1.13375  -0.30066  -0.35885  -0.95634
  15   29992.6    333.4   0.143726405   1.57760   0.54510  -0.34095  -1.07899
  16   30441.5    328.5   0.085733725   0.92718   0.73811   0.24920   0.56592
  17   30744.8    325.3   0.306476246   3.28171  -1.25534  -0.50911  -1.20276
  18   31410.0    318.4   0.647721764   6.78885  -2.35297   0.21326   1.09860
  19   31570.0    316.8   0.127316559   1.32766   1.12630  -0.00667  -0.24301
  20   31825.6    314.2   0.366374963   3.78988   0.14236  -0.61720  -1.84084
  21   32758.9    305.3   0.224746854   2.25860   0.71735  -0.38021  -1.26469
  22   32991.0    303.1   0.221877037   2.21408  -1.48332  -0.08260   0.08376
  23   33625.4    297.4   0.012239617   0.11983   0.27891  -0.04422  -0.20021
  24   34440.6    290.4   0.589065363   5.63078  -0.58758  -0.78828  -2.15966
  25   34848.5    287.0   0.169902557   1.60506  -0.42248  -0.41875  -1.11858
  26   35529.1    281.5   0.040559056   0.37582  -0.51131   0.07806   0.32907
  27   35635.4    280.6   0.056441113   0.52142  -0.71970  -0.05693  -0.01444
  28   36130.3    276.8   0.037896129   0.34530   0.11867   0.19512   0.54143
  29   36392.0    274.8   0.072695337   0.65762   0.14369   0.27008   0.75102
  30   36533.2    273.7   0.042611090   0.38398   0.07981  -0.19767  -0.58184
  31   37469.2    266.9   0.104455599   0.91777   0.79285   0.22858   0.48674
  32   37667.3    265.5   0.103586502   0.90534  -0.39841   0.26095   0.82372
  33   38115.3    262.4   0.000352309   0.00304  -0.05394   0.00269   0.01122
  34   38300.7    261.1   0.025657757   0.22054  -0.44161  -0.07715  -0.13990
  35   38554.2    259.4   0.029257941   0.24983   0.28981   0.14849   0.37920
  36   38722.1    258.3   0.028266086   0.24032   0.48632   0.01594  -0.05958
  37   39295.6    254.5   0.035818508   0.30008   0.49101  -0.04526  -0.23862
  38   39330.4    254.3   0.002001331   0.01675   0.12751  -0.00480  -0.02169
  39   39587.3    252.6   0.026698647   0.22203  -0.07502  -0.15694  -0.43792
  40   39827.3    251.1   0.010270516   0.08490  -0.04547   0.09443   0.27187
  41   39948.9    250.3   0.018710218   0.15419   0.34712   0.07948   0.16547

FINAL SINGLE POINT ENERGY     -4812.243039461101

DIPOLE MOMENT
-------------
                                X             Y             Z
Electronic contribution:      9.53488      -3.59475     -11.95934
Nuclear contribution   :     -9.89797       5.08109      16.15587
                        -----------------------------------------
Total Dipole Moment    :     -0.36309       1.48634       4.19653
                        -----------------------------------------
Magnitude (a.u.)       :      4.46676
Magnitude (Debye)      :     11.35359

Rotational constants in cm-1:     0.001003     0.000441     0.000306
Rotational constants in MHz :    30.064518    13.218415     9.181733

                             ****ORCA TERMINATED NORMALLY****
TOTAL RUN TIME: 0 days 0 hours 7 minutes 28 seconds 124 msec
