                         Program Version 4.2.0 -  RELEASE  -
|  1> # ORCA input file
|  2> # SCF done       -172.497698946415          0.000782108926
|  3> ! CAM-B3LYP def2-SVP def2/J RIJCOSX Grid4 TightSCF
|  4> %maxcore 5000
|  5> %tddft
|  6>     Mode sTDDFT
|  7>     Ethresh 5.0
|  8>     maxcore 5000
|  9> end
| 10>
| 11> %pal
| 12>   nprocs 6
| 13>   end
| 14> * xyz 0 1
| 15>    C      -17.05530         5.05290        -5.52151
| 16>    C      -15.95390         4.27504        -5.72434
| 17>    C      -14.64945         4.69771        -5.38115
| 18>    C      -14.36986         5.92068        -4.81642
| 19>    C      -15.49825         6.76267        -4.61194
| 20>    C      -16.83110         6.32157        -4.95620
| 21>    N      -17.66161         7.29874        -4.64256
| 22>    O      -16.91135         8.27570        -4.13965
| 23>    N      -15.61358         7.97830        -4.11060
| 24>    C      -13.02377         6.34602        -4.44139
| 25>    C      -12.69795         7.70771        -4.42306
| 26>    C      -11.43057         8.09271        -4.05876
| 27>    C      -10.46270         7.13854        -3.70382
| 28>    C      -10.77821         5.78811        -3.71524
| 29>    C      -12.05321         5.40434        -4.08330
| 30>    C       -9.24137         7.83119        -3.35033
| 31>    C       -9.45927         9.21437        -3.48105
| 32>    C      -10.86605         9.48952        -3.95859
| 33>    C      -10.86499        10.19180        -5.32963
| 34>    C      -10.10587         9.41023        -6.39522
| 35>    C      -11.65447        10.33986        -2.94561
| 36>    C      -11.70377         9.71180        -1.55822
| 37>    C       -8.46565        10.11325        -3.18460
| 38>    C       -7.21551         9.64648        -2.74804
| 39>    C       -7.00902         8.26285        -2.64390
| 40>    C       -8.00636         7.35479        -2.93522
| 41>    C       -6.13610        10.53186        -2.38833
| 42>    C       -6.20041        11.87392        -2.27619
| 43>    C       -5.11588        12.70443        -1.87946
| 44>    C       -5.16005        14.07237        -1.68546
| 45>    C       -3.93238        14.58806        -1.26479
| 46>    C       -2.94068        13.60113        -1.14503
| 47>    S       -3.51860        12.04531        -1.54555
| 48>    C       -1.74379        14.21516        -0.69591
| 49>    C       -1.98114        15.58893        -0.52612
| 50>    C       -3.36268        15.87012        -0.88611
| 51>    C       -3.98844        17.08270        -0.87032
| 52>    C       -3.32445        18.26408        -0.48041
| 53>    N       -2.78643        19.22560        -0.16174
| 54>    C       -5.33828        17.23576        -1.24858
| 55>    N       -6.43713        17.36379        -1.55156
| 56>    C       -0.86299        16.28145        -0.06272
| 57>    C        0.22791        15.45038         0.11486
| 58>    S       -0.14278        13.77713        -0.30004
| 59>    C        1.52390        15.79993         0.59688
| 60>    C        2.56159        14.90191         0.63376
| 61>    C        3.84166        15.16430         1.12370
| 62>    C        4.18793        16.51668         1.59071
| 63>    C        3.32447        17.55413         1.63654
| 64>    S        1.68047        17.45903         1.16118
| 65>    C        5.56324        16.45856         1.94245
| 66>    C        6.04710        15.17148         1.71493
| 67>    C        7.41346        15.05115         2.05262
| 68>    C        7.91901        16.22461         2.51453
| 69>    S        6.76747        17.51720         2.56292
| 70>    C        4.97954        14.34150         1.21565
| 71>    C        5.17535        12.96988         0.90354
| 72>    C        4.22733        12.03228         0.66702
| 73>    C        4.46541        10.66443         0.31220
| 74>    C        5.68841        10.02735         0.21260
| 75>    C        5.82215         8.67352        -0.15411
| 76>    C        4.75460         7.87113        -0.44960
| 77>    C        3.48135         8.46322        -0.37117
| 78>    C        3.33762         9.84753         0.01014
| 79>    N        2.05082        10.12865        -0.00687
| 80>    O        1.42894         9.00554        -0.36950
| 81>    N        2.26761         7.99201        -0.59366
| 82>    H      -18.05353         4.73846        -5.77433
| 83>    H      -16.06682         3.29469        -6.16334
| 84>    H      -13.83651         4.02026        -5.59444
| 85>    H      -13.44459         8.43752        -4.69150
| 86>    H      -10.04606         5.04669        -3.43180
| 87>    H      -12.31230         4.35628        -4.06135
| 88>    H      -10.41441        11.18009        -5.21619
| 89>    H      -11.89961        10.33052        -5.64958
| 90>    H       -9.06498         9.27805        -6.10763
| 91>    H      -10.13593         9.94339        -7.34274
| 92>    H      -10.54899         8.42725        -6.53930
| 93>    H      -12.67234        10.47000        -3.31781
| 94>    H      -11.19112        11.32681        -2.88139
| 95>    H      -12.19456         8.74195        -1.59488
| 96>    H      -12.26053        10.35262        -0.87878
| 97>    H      -10.70039         9.57579        -1.15964
| 98>    H       -8.64230        11.17231        -3.29136
| 99>    H       -6.04329         7.90592        -2.31521
|100>    H       -7.82707         6.29429        -2.83907
|101>    H       -5.19258        10.04774        -2.16295
|102>    H       -7.12263        12.40443        -2.46748
|103>    H       -6.05108        14.65383        -1.83877
|104>    H       -0.83255        17.33749         0.13668
|105>    H        2.35024        13.92333         0.22810
|106>    H        3.61392        18.53184         1.98838
|107>    H        7.99699        14.15269         1.96313
|108>    H        8.92068        16.42493         2.84146
|109>    H        6.21547        12.66933         0.87754
|110>    H        3.18019        12.27679         0.74725
|111>    H        6.59079        10.57855         0.42792
|112>    H        6.81969         8.26134        -0.20146
|113>    H        4.86002         6.83740        -0.73131
|114> *
|115>
|116>                          ****END OF INPUT****

CARTESIAN COORDINATES (ANGSTROEM)
---------------------------------
  C    -17.055300    5.052900   -5.521510
  C    -15.953900    4.275040   -5.724340
  C    -14.649450    4.697710   -5.381150
  C    -14.369860    5.920680   -4.816420
  C    -15.498250    6.762670   -4.611940
  C    -16.831100    6.321570   -4.956200
  N    -17.661610    7.298740   -4.642560
  O    -16.911350    8.275700   -4.139650
  N    -15.613580    7.978300   -4.110600
  C    -13.023770    6.346020   -4.441390
  C    -12.697950    7.707710   -4.423060
  C    -11.430570    8.092710   -4.058760
  C    -10.462700    7.138540   -3.703820
  C    -10.778210    5.788110   -3.715240
  C    -12.053210    5.404340   -4.083300
  C     -9.241370    7.831190   -3.350330
  C     -9.459270    9.214370   -3.481050
  C    -10.866050    9.489520   -3.958590
  C    -10.864990   10.191800   -5.329630
  C    -10.105870    9.410230   -6.395220
  C    -11.654470   10.339860   -2.945610
  C    -11.703770    9.711800   -1.558220
  C     -8.465650   10.113250   -3.184600
  C     -7.215510    9.646480   -2.748040
  C     -7.009020    8.262850   -2.643900
  C     -8.006360    7.354790   -2.935220
  C     -6.136100   10.531860   -2.388330
  C     -6.200410   11.873920   -2.276190
  C     -5.115880   12.704430   -1.879460
  C     -5.160050   14.072370   -1.685460
  C     -3.932380   14.588060   -1.264790
  C     -2.940680   13.601130   -1.145030
  S     -3.518600   12.045310   -1.545550
  C     -1.743790   14.215160   -0.695910
  C     -1.981140   15.588930   -0.526120
  C     -3.362680   15.870120   -0.886110
  C     -3.988440   17.082700   -0.870320
  C     -3.324450   18.264080   -0.480410
  N     -2.786430   19.225600   -0.161740
  C     -5.338280   17.235760   -1.248580
  N     -6.437130   17.363790   -1.551560
  C     -0.862990   16.281450   -0.062720
  C      0.227910   15.450380    0.114860
  S     -0.142780   13.777130   -0.300040
  C      1.523900   15.799930    0.596880
  C      2.561590   14.901910    0.633760
  C      3.841660   15.164300    1.123700
  C      4.187930   16.516680    1.590710
  C      3.324470   17.554130    1.636540
  S      1.680470   17.459030    1.161180
  C      5.563240   16.458560    1.942450
  C      6.047100   15.171480    1.714930
  C      7.413460   15.051150    2.052620
  C      7.919010   16.224610    2.514530
  S      6.767470   17.517200    2.562920
  C      4.979540   14.341500    1.215650
  C      5.175350   12.969880    0.903540
  C      4.227330   12.032280    0.667020
  C      4.465410   10.664430    0.312200
  C      5.688410   10.027350    0.212600
  C      5.822150    8.673520   -0.154110
  C      4.754600    7.871130   -0.449600
  C      3.481350    8.463220   -0.371170
  C      3.337620    9.847530    0.010140
  N      2.050820   10.128650   -0.006870
  O      1.428940    9.005540   -0.369500
  N      2.267610    7.992010   -0.593660
  H    -18.053530    4.738460   -5.774330
  H    -16.066820    3.294690   -6.163340
  H    -13.836510    4.020260   -5.594440
  H    -13.444590    8.437520   -4.691500
  H    -10.046060    5.046690   -3.431800
  H    -12.312300    4.356280   -4.061350
  H    -10.414410   11.180090   -5.216190
  H    -11.899610   10.330520   -5.649580
  H     -9.064980    9.278050   -6.107630
  H    -10.135930    9.943390   -7.342740
  H    -10.548990    8.427250   -6.539300
  H    -12.672340   10.470000   -3.317810
  H    -11.191120   11.326810   -2.881390
  H    -12.194560    8.741950   -1.594880
  H    -12.260530   10.352620   -0.878780
  H    -10.700390    9.575790   -1.159640
  H     -8.642300   11.172310   -3.291360
  H     -6.043290    7.905920   -2.315210
  H     -7.827070    6.294290   -2.839070
  H     -5.192580   10.047740   -2.162950
  H     -7.122630   12.404430   -2.467480
  H     -6.051080   14.653830   -1.838770
  H     -0.832550   17.337490    0.136680
  H      2.350240   13.923330    0.228100
  H      3.613920   18.531840    1.988380
  H      7.996990   14.152690    1.963130
  H      8.920680   16.424930    2.841460
  H      6.215470   12.669330    0.877540
  H      3.180190   12.276790    0.747250
  H      6.590790   10.578550    0.427920
  H      6.819690    8.261340   -0.201460
  H      4.860020    6.837400   -0.731310

 Total Charge           Charge          ....    0
 Multiplicity           Mult            ....    1
 Number of Electrons    NEL             ....  484
 Basis Dimension        Dim             .... 1114

ORBITAL ENERGIES
----------------

  NO   OCC          E(Eh)            E(eV)
   0   2.0000     -88.985185     -2421.4100
   1   2.0000     -88.979706     -2421.2609
   2   2.0000     -88.977369     -2421.1973
   3   2.0000     -88.955348     -2420.5981
   4   2.0000     -19.348141      -526.4897
   5   2.0000     -19.344830      -526.3996
   6   2.0000     -14.473040      -393.8314
   7   2.0000     -14.471326      -393.7848
   8   2.0000     -14.471214      -393.7817
   9   2.0000     -14.467557      -393.6822
  10   2.0000     -14.425888      -392.5484
  11   2.0000     -14.425298      -392.5323
  12   2.0000     -10.358867      -281.8791
  13   2.0000     -10.346571      -281.5445
  14   2.0000     -10.329571      -281.0819
  15   2.0000     -10.327600      -281.0283
  16   2.0000     -10.327363      -281.0218
  17   2.0000     -10.326473      -280.9976
  18   2.0000     -10.325857      -280.9809
  19   2.0000     -10.323750      -280.9235
  20   2.0000     -10.322504      -280.8896
  21   2.0000     -10.318687      -280.7857
  22   2.0000     -10.316920      -280.7377
  23   2.0000     -10.313895      -280.6553
  24   2.0000     -10.313648      -280.6486
  25   2.0000     -10.313236      -280.6374
  26   2.0000     -10.302158      -280.3360
  27   2.0000     -10.298166      -280.2273
  28   2.0000     -10.297919      -280.2206
  29   2.0000     -10.297575      -280.2113
  30   2.0000     -10.296869      -280.1920
  31   2.0000     -10.295980      -280.1679
  32   2.0000     -10.295533      -280.1557
  33   2.0000     -10.294973      -280.1405
  34   2.0000     -10.292834      -280.0822
  35   2.0000     -10.291491      -280.0457
  36   2.0000     -10.290962      -280.0313
  37   2.0000     -10.289567      -279.9933
  38   2.0000     -10.289097      -279.9806
  39   2.0000     -10.287473      -279.9364
  40   2.0000     -10.285625      -279.8861
  41   2.0000     -10.284312      -279.8504
  42   2.0000     -10.284091      -279.8444
  43   2.0000     -10.283834      -279.8373
  44   2.0000     -10.282458      -279.7999
  45   2.0000     -10.282161      -279.7918
  46   2.0000     -10.280125      -279.7364
  47   2.0000     -10.279198      -279.7112
  48   2.0000     -10.274359      -279.5795
  49   2.0000     -10.273946      -279.5683
  50   2.0000     -10.273796      -279.5642
  51   2.0000     -10.272316      -279.5239
  52   2.0000     -10.271670      -279.5064
  53   2.0000     -10.271494      -279.5016
  54   2.0000     -10.271475      -279.5010
  55   2.0000     -10.271050      -279.4895
  56   2.0000     -10.270615      -279.4776
  57   2.0000     -10.269884      -279.4578
  58   2.0000     -10.269805      -279.4556
  59   2.0000     -10.269179      -279.4386
  60   2.0000     -10.267232      -279.3856
  61   2.0000     -10.265953      -279.3508
  62   2.0000     -10.265391      -279.3355
  63   2.0000     -10.259426      -279.1732
  64   2.0000     -10.257122      -279.1105
  65   2.0000     -10.243341      -278.7355
  66   2.0000     -10.240153      -278.6487
  67   2.0000      -8.079245      -219.8474
  68   2.0000      -8.074168      -219.7093
  69   2.0000      -8.072577      -219.6660
  70   2.0000      -8.050683      -219.0702
  71   2.0000      -6.048540      -164.5892
  72   2.0000      -6.044375      -164.4758
  73   2.0000      -6.043367      -164.4484
  74   2.0000      -6.042196      -164.4165
  75   2.0000      -6.041577      -164.3997
  76   2.0000      -6.039242      -164.3361
  77   2.0000      -6.037573      -164.2907
  78   2.0000      -6.036633      -164.2651
  79   2.0000      -6.034427      -164.2051
  80   2.0000      -6.020171      -163.8172
  81   2.0000      -6.015894      -163.7008
  82   2.0000      -6.012683      -163.6134
  83   2.0000      -1.300625       -35.3918
  84   2.0000      -1.295437       -35.2506
  85   2.0000      -1.038288       -28.2532
  86   2.0000      -1.017149       -27.6780
  87   2.0000      -1.006192       -27.3799
  88   2.0000      -1.004266       -27.3275
  89   2.0000      -1.003126       -27.2965
  90   2.0000      -1.000059       -27.2130
  91   2.0000      -0.993195       -27.0262
  92   2.0000      -0.992913       -27.0185
  93   2.0000      -0.987165       -26.8621
  94   2.0000      -0.984849       -26.7991
  95   2.0000      -0.970494       -26.4085
  96   2.0000      -0.952117       -25.9084
  97   2.0000      -0.945066       -25.7166
  98   2.0000      -0.928074       -25.2542
  99   2.0000      -0.922291       -25.0968
 100   2.0000      -0.913340       -24.8533
 101   2.0000      -0.908553       -24.7230
 102   2.0000      -0.906703       -24.6726
 103   2.0000      -0.894494       -24.3404
 104   2.0000      -0.887469       -24.1493
 105   2.0000      -0.881608       -23.9898
 106   2.0000      -0.873232       -23.7619
 107   2.0000      -0.862733       -23.4761
 108   2.0000      -0.853365       -23.2213
 109   2.0000      -0.846122       -23.0242
 110   2.0000      -0.845532       -23.0081
 111   2.0000      -0.832666       -22.6580
 112   2.0000      -0.831607       -22.6292
 113   2.0000      -0.828622       -22.5480
 114   2.0000      -0.826362       -22.4865
 115   2.0000      -0.816887       -22.2286
 116   2.0000      -0.803024       -21.8514
 117   2.0000      -0.786493       -21.4016
 118   2.0000      -0.770553       -20.9678
 119   2.0000      -0.770233       -20.9591
 120   2.0000      -0.762380       -20.7454
 121   2.0000      -0.759260       -20.6605
 122   2.0000      -0.756641       -20.5892
 123   2.0000      -0.743819       -20.2403
 124   2.0000      -0.735815       -20.0226
 125   2.0000      -0.734486       -19.9864
 126   2.0000      -0.729810       -19.8591
 127   2.0000      -0.721693       -19.6383
 128   2.0000      -0.708189       -19.2708
 129   2.0000      -0.697243       -18.9730
 130   2.0000      -0.692358       -18.8400
 131   2.0000      -0.682927       -18.5834
 132   2.0000      -0.675730       -18.3875
 133   2.0000      -0.670690       -18.2504
 134   2.0000      -0.669569       -18.2199
 135   2.0000      -0.667172       -18.1547
 136   2.0000      -0.659047       -17.9336
 137   2.0000      -0.656731       -17.8706
 138   2.0000      -0.647156       -17.6100
 139   2.0000      -0.635216       -17.2851
 140   2.0000      -0.634655       -17.2698
 141   2.0000      -0.628106       -17.0916
 142   2.0000      -0.623375       -16.9629
 143   2.0000      -0.620942       -16.8967
 144   2.0000      -0.612303       -16.6616
 145   2.0000      -0.610093       -16.6015
 146   2.0000      -0.604171       -16.4403
 147   2.0000      -0.602990       -16.4082
 148   2.0000      -0.600592       -16.3429
 149   2.0000      -0.598814       -16.2946
 150   2.0000      -0.594957       -16.1896
 151   2.0000      -0.591141       -16.0858
 152   2.0000      -0.590585       -16.0706
 153   2.0000      -0.578024       -15.7288
 154   2.0000      -0.571900       -15.5622
 155   2.0000      -0.569801       -15.5051
 156   2.0000      -0.564644       -15.3648
 157   2.0000      -0.563514       -15.3340
 158   2.0000      -0.557042       -15.1579
 159   2.0000      -0.550336       -14.9754
 160   2.0000      -0.541507       -14.7352
 161   2.0000      -0.539718       -14.6865
 162   2.0000      -0.538764       -14.6605
 163   2.0000      -0.534599       -14.5472
 164   2.0000      -0.532204       -14.4820
 165   2.0000      -0.531838       -14.4721
 166   2.0000      -0.520429       -14.1616
 167   2.0000      -0.519282       -14.1304
 168   2.0000      -0.516034       -14.0420
 169   2.0000      -0.513356       -13.9691
 170   2.0000      -0.513181       -13.9644
 171   2.0000      -0.511774       -13.9261
 172   2.0000      -0.510269       -13.8851
 173   2.0000      -0.506094       -13.7715
 174   2.0000      -0.499844       -13.6014
 175   2.0000      -0.499008       -13.5787
 176   2.0000      -0.496787       -13.5183
 177   2.0000      -0.490576       -13.3493
 178   2.0000      -0.487393       -13.2626
 179   2.0000      -0.485893       -13.2218
 180   2.0000      -0.483502       -13.1567
 181   2.0000      -0.481676       -13.1071
 182   2.0000      -0.476417       -12.9640
 183   2.0000      -0.474986       -12.9250
 184   2.0000      -0.471287       -12.8244
 185   2.0000      -0.470259       -12.7964
 186   2.0000      -0.467309       -12.7161
 187   2.0000      -0.466311       -12.6890
 188   2.0000      -0.464412       -12.6373
 189   2.0000      -0.463478       -12.6119
 190   2.0000      -0.463235       -12.6053
 191   2.0000      -0.459741       -12.5102
 192   2.0000      -0.457255       -12.4426
 193   2.0000      -0.457176       -12.4404
 194   2.0000      -0.456483       -12.4215
 195   2.0000      -0.452839       -12.3224
 196   2.0000      -0.449493       -12.2313
 197   2.0000      -0.446716       -12.1558
 198   2.0000      -0.444203       -12.0874
 199   2.0000      -0.442690       -12.0462
 200   2.0000      -0.438938       -11.9441
 201   2.0000      -0.436990       -11.8911
 202   2.0000      -0.435973       -11.8634
 203   2.0000      -0.434818       -11.8320
 204   2.0000      -0.430355       -11.7106
 205   2.0000      -0.426955       -11.6180
 206   2.0000      -0.424596       -11.5538
 207   2.0000      -0.424415       -11.5489
 208   2.0000      -0.421878       -11.4799
 209   2.0000      -0.420684       -11.4474
 210   2.0000      -0.419988       -11.4284
 211   2.0000      -0.418223       -11.3804
 212   2.0000      -0.417062       -11.3488
 213   2.0000      -0.411486       -11.1971
 214   2.0000      -0.407683       -11.0936
 215   2.0000      -0.405327       -11.0295
 216   2.0000      -0.402264       -10.9462
 217   2.0000      -0.394282       -10.7290
 218   2.0000      -0.392965       -10.6931
 219   2.0000      -0.392887       -10.6910
 220   2.0000      -0.391616       -10.6564
 221   2.0000      -0.387998       -10.5580
 222   2.0000      -0.386257       -10.5106
 223   2.0000      -0.384339       -10.4584
 224   2.0000      -0.383039       -10.4230
 225   2.0000      -0.377434       -10.2705
 226   2.0000      -0.365784        -9.9535
 227   2.0000      -0.362796        -9.8722
 228   2.0000      -0.356177        -9.6921
 229   2.0000      -0.352685        -9.5970
 230   2.0000      -0.342318        -9.3149
 231   2.0000      -0.335753        -9.1363
 232   2.0000      -0.332056        -9.0357
 233   2.0000      -0.319515        -8.6944
 234   2.0000      -0.315900        -8.5961
 235   2.0000      -0.312890        -8.5142
 236   2.0000      -0.307705        -8.3731
 237   2.0000      -0.296878        -8.0785
 238   2.0000      -0.284355        -7.7377
 239   2.0000      -0.269406        -7.3309
 240   2.0000      -0.245949        -6.6926
 241   2.0000      -0.223413        -6.0794
 242   0.0000      -0.100451        -2.7334
 243   0.0000      -0.072190        -1.9644
 244   0.0000      -0.058615        -1.5950
 245   0.0000      -0.041956        -1.1417
 246   0.0000      -0.034677        -0.9436

MULLIKEN ATOMIC CHARGES
-----------------------
   0 C :   -0.031145
   1 C :    0.051005
   2 C :   -0.065339
   3 C :    0.124584
   4 C :   -0.067993
   5 C :    0.007260
   6 N :    0.052322
   7 O :   -0.101618
   8 N :    0.033747
   9 C :    0.068107
  10 C :   -0.075611
  11 C :    0.001188
  12 C :    0.114317
  13 C :   -0.051329
  14 C :   -0.029833
  15 C :    0.108678
  16 C :    0.015451
  17 C :   -0.140008
  18 C :    0.071700
  19 C :    0.024499
  20 C :    0.066372
  21 C :    0.027653
  22 C :   -0.092284
  23 C :    0.129235
  24 C :   -0.020734
  25 C :   -0.049765
  26 C :   -0.024382
  27 C :    0.025642
  28 C :   -0.039933
  29 C :   -0.046627
  30 C :    0.015304
  31 C :   -0.099191
  32 S :    0.177819
  33 C :   -0.092489
  34 C :    0.013596
  35 C :    0.302659
  36 C :   -0.302405
  37 C :   -0.187192
  38 N :    0.168817
  39 C :   -0.187866
  40 N :    0.171910
  41 C :   -0.056190
  42 C :   -0.070778
  43 S :    0.189521
  44 C :   -0.016190
  45 C :   -0.104694
  46 C :    0.060331
  47 C :    0.055534
  48 C :   -0.124341
  49 S :    0.137564
  50 C :   -0.106353
  51 C :    0.050672
  52 C :    0.003596
  53 C :   -0.067182
  54 S :    0.127245
  55 C :    0.077840
  56 C :    0.009413
  57 C :   -0.062025
  58 C :    0.120212
  59 C :   -0.063798
  60 C :    0.054558
  61 C :   -0.042545
  62 C :    0.023021
  63 C :   -0.074939
  64 N :    0.030748
  65 O :   -0.110199
  66 N :    0.047427
  67 H :   -0.011363
  68 H :   -0.000925
  69 H :   -0.012409
  70 H :   -0.020078
  71 H :   -0.036163
  72 H :   -0.028322
  73 H :   -0.003475
  74 H :    0.000927
  75 H :    0.021045
  76 H :    0.008669
  77 H :    0.019337
  78 H :    0.008951
  79 H :   -0.005848
  80 H :    0.021747
  81 H :    0.010732
  82 H :    0.017757
  83 H :   -0.042894
  84 H :   -0.027966
  85 H :   -0.035032
  86 H :   -0.015972
  87 H :   -0.007347
  88 H :    0.003241
  89 H :    0.019113
  90 H :   -0.002844
  91 H :    0.037869
  92 H :   -0.019692
  93 H :    0.025112
  94 H :   -0.030374
  95 H :   -0.008707
  96 H :   -0.019821
  97 H :   -0.004338
  98 H :   -0.015497
Sum of atomic charges:   -0.0000000

LOEWDIN ATOMIC CHARGES
----------------------
   0 C :   -0.021569
   1 C :   -0.006590
   2 C :   -0.014736
   3 C :   -0.009052
   4 C :   -0.049010
   5 C :   -0.058153
   6 N :   -0.025860
   7 O :    0.073391
   8 N :   -0.029496
   9 C :   -0.023870
  10 C :   -0.009712
  11 C :    0.004624
  12 C :   -0.013128
  13 C :   -0.019561
  14 C :   -0.016149
  15 C :   -0.016621
  16 C :    0.007838
  17 C :   -0.035726
  18 C :   -0.010549
  19 C :   -0.058036
  20 C :   -0.011219
  21 C :   -0.057135
  22 C :   -0.016373
  23 C :   -0.024805
  24 C :   -0.017471
  25 C :   -0.018252
  26 C :   -0.019573
  27 C :   -0.042393
  28 C :   -0.155317
  29 C :   -0.033723
  30 C :   -0.071731
  31 C :   -0.182454
  32 S :    0.475845
  33 C :   -0.173586
  34 C :   -0.072736
  35 C :    0.084803
  36 C :   -0.105121
  37 C :   -0.015932
  38 N :   -0.036390
  39 C :   -0.016104
  40 N :   -0.035375
  41 C :   -0.038941
  42 C :   -0.184444
  43 S :    0.491806
  44 C :   -0.174435
  45 C :   -0.035622
  46 C :   -0.013192
  47 C :   -0.045968
  48 C :   -0.140302
  49 S :    0.466334
  50 C :   -0.206441
  51 C :   -0.038862
  52 C :   -0.066869
  53 C :   -0.164948
  54 S :    0.420065
  55 C :   -0.057952
  56 C :    0.006568
  57 C :   -0.044158
  58 C :   -0.016478
  59 C :   -0.023277
  60 C :   -0.004763
  61 C :   -0.032702
  62 C :   -0.058533
  63 C :   -0.052942
  64 N :   -0.037370
  65 O :    0.065809
  66 N :   -0.031418
  67 H :    0.039161
  68 H :    0.035327
  69 H :    0.032428
  70 H :    0.026437
  71 H :    0.026871
  72 H :    0.025564
  73 H :    0.019588
  74 H :    0.021708
  75 H :    0.025064
  76 H :    0.024026
  77 H :    0.024598
  78 H :    0.024756
  79 H :    0.018632
  80 H :    0.026076
  81 H :    0.025001
  82 H :    0.023711
  83 H :    0.023023
  84 H :    0.026445
  85 H :    0.027151
  86 H :    0.020613
  87 H :    0.035229
  88 H :    0.039892
  89 H :    0.034465
  90 H :    0.027812
  91 H :    0.037519
  92 H :    0.028491
  93 H :    0.022952
  94 H :    0.027269
  95 H :    0.026278
  96 H :    0.028526
  97 H :    0.034353
  98 H :    0.037078

  Mayer bond orders larger than 0.100000
B(  0-C ,  1-C ) :   1.5375 B(  0-C ,  3-C ) :   0.1075 B(  0-C ,  5-C ) :   1.1628
B(  0-C , 67-H ) :   1.0246 B(  1-C ,  2-C ) :   1.1792 B(  1-C , 68-H ) :   0.9824
B(  2-C ,  3-C ) :   1.5578 B(  2-C , 69-H ) :   0.9910 B(  3-C ,  4-C ) :   1.1501
B(  3-C ,  9-C ) :   0.9837 B(  4-C ,  5-C ) :   1.1442 B(  4-C ,  8-N ) :   1.5810
B(  5-C ,  6-N ) :   1.5938 B(  6-N ,  7-O ) :   1.0693 B(  6-N ,  8-N ) :   0.1858
B(  7-O ,  8-N ) :   1.0618 B(  9-C , 10-C ) :   1.3324 B(  9-C , 14-C ) :   1.3636
B( 10-C , 11-C ) :   1.3882 B( 10-C , 70-H ) :   0.9917 B( 11-C , 12-C ) :   1.3700
B( 11-C , 17-C ) :   0.9124 B( 12-C , 13-C ) :   1.3416 B( 12-C , 15-C ) :   0.9905
B( 13-C , 14-C ) :   1.3863 B( 13-C , 71-H ) :   0.9907 B( 14-C , 72-H ) :   0.9853
B( 15-C , 16-C ) :   1.3550 B( 15-C , 25-C ) :   1.3455 B( 16-C , 17-C ) :   0.9155
B( 16-C , 22-C ) :   1.4125 B( 17-C , 18-C ) :   1.0358 B( 17-C , 20-C ) :   1.0415
B( 18-C , 19-C ) :   1.1015 B( 18-C , 73-H ) :   0.9393 B( 18-C , 74-H ) :   0.9396
B( 19-C , 75-H ) :   0.9643 B( 19-C , 76-H ) :   0.9637 B( 19-C , 77-H ) :   0.9642
B( 20-C , 21-C ) :   1.1032 B( 20-C , 78-H ) :   0.9385 B( 20-C , 79-H ) :   0.9383
B( 21-C , 80-H ) :   0.9637 B( 21-C , 81-H ) :   0.9636 B( 21-C , 82-H ) :   0.9641
B( 22-C , 23-C ) :   1.2944 B( 22-C , 83-H ) :   1.0001 B( 23-C , 24-C ) :   1.3348
B( 23-C , 26-C ) :   1.0795 B( 24-C , 25-C ) :   1.3741 B( 24-C , 84-H ) :   0.9934
B( 25-C , 85-H ) :   0.9919 B( 26-C , 27-C ) :   1.6671 B( 26-C , 86-H ) :   0.9775
B( 27-C , 28-C ) :   1.1525 B( 27-C , 87-H ) :   0.9702 B( 28-C , 29-C ) :   1.4433
B( 28-C , 32-S ) :   1.0922 B( 29-C , 30-C ) :   1.2676 B( 29-C , 88-H ) :   1.0051
B( 30-C , 31-C ) :   1.4440 B( 30-C , 35-C ) :   0.9973 B( 31-C , 32-S ) :   1.1211
B( 31-C , 33-C ) :   1.1870 B( 33-C , 34-C ) :   1.4419 B( 33-C , 43-S ) :   1.1338
B( 34-C , 35-C ) :   0.9993 B( 34-C , 41-C ) :   1.3024 B( 35-C , 36-C ) :   1.7096
B( 36-C , 37-C ) :   1.1336 B( 36-C , 39-C ) :   1.1329 B( 37-C , 38-N ) :   2.9904
B( 39-C , 40-N ) :   2.9946 B( 41-C , 42-C ) :   1.4582 B( 41-C , 89-H ) :   0.9800
B( 42-C , 43-S ) :   1.1029 B( 42-C , 44-C ) :   1.1603 B( 44-C , 45-C ) :   1.5247
B( 44-C , 49-S ) :   1.0642 B( 45-C , 46-C ) :   1.2381 B( 45-C , 90-H ) :   0.9632
B( 46-C , 47-C ) :   1.0572 B( 46-C , 55-C ) :   1.3875 B( 47-C , 48-C ) :   1.6063
B( 47-C , 50-C ) :   1.1771 B( 48-C , 49-S ) :   1.1386 B( 48-C , 91-H ) :   0.9410
B( 50-C , 51-C ) :   1.4462 B( 50-C , 54-S ) :   1.0706 B( 51-C , 52-C ) :   1.2165
B( 51-C , 55-C ) :   1.0970 B( 52-C , 53-C ) :   1.5857 B( 52-C , 92-H ) :   0.9972
B( 53-C , 54-S ) :   1.1572 B( 53-C , 93-H ) :   0.9660 B( 55-C , 56-C ) :   1.1621
B( 56-C , 57-C ) :   1.6071 B( 56-C , 94-H ) :   0.9593 B( 57-C , 58-C ) :   1.1196
B( 57-C , 95-H ) :   0.9807 B( 58-C , 59-C ) :   1.4928 B( 58-C , 61-C ) :   0.1051
B( 58-C , 63-C ) :   1.1178 B( 59-C , 60-C ) :   1.2125 B( 59-C , 96-H ) :   0.9888
B( 60-C , 61-C ) :   1.5195 B( 60-C , 97-H ) :   0.9814 B( 61-C , 62-C ) :   1.1659
B( 61-C , 98-H ) :   1.0231 B( 62-C , 63-C ) :   1.1452 B( 62-C , 66-N ) :   1.5939
B( 63-C , 64-N ) :   1.6123 B( 64-N , 65-O ) :   1.0583 B( 64-N , 66-N ) :   0.1865
B( 65-O , 66-N ) :   1.0629

-----------------------------------------------------------------------------
         ABSORPTION SPECTRUM VIA TRANSITION ELECTRIC DIPOLE MOMENTS
-----------------------------------------------------------------------------
State   Energy  Wavelength   fosc         T2         TX        TY        TZ
        (cm-1)    (nm)                  (au**2)     (au)      (au)      (au)
-----------------------------------------------------------------------------
   0   10442.8    957.6   0.149892370   4.72538  -2.02279  -0.51651  -0.60574
   1   16720.1    598.1   0.110932586   2.18422  -0.78845   1.24975   0.02625
   2   17387.3    575.1   0.479002714   9.06947  -2.73431   1.18777  -0.42685
   3   22768.1    439.2   0.048244423   0.69758   0.79602  -0.24367   0.06755
   4   23265.7    429.8   0.789069931  11.16541   2.27237   2.25726   0.95213
   5   24311.0    411.3   1.283950290  17.38686  -2.93377  -2.65240  -1.32085
   6   25494.8    392.2   0.154143883   1.99044  -0.70600   1.21459   0.12950
   7   26236.0    381.2   0.361130665   4.53151   1.49636   1.45470   0.41984
   8   27363.4    365.5   0.012246027   0.14733   0.20178   0.29630   0.13720
   9   28949.8    345.4   0.027348627   0.31100   0.45193   0.32032   0.06446
  10   29626.3    337.5   0.297375028   3.30447   0.56683  -1.71696  -0.18773
  11   30487.1    328.0   0.193839881   2.09316   0.66989   1.23333   0.35114
  12   30839.5    324.3   0.191738268   2.04681  -0.92895  -1.03275  -0.34248
  13   31220.6    320.3   0.577000849   6.08430  -1.31995   2.08348  -0.03372
  14   31832.2    314.1   0.015627483   0.16162   0.15155   0.37051   0.03713
  15   32446.0    308.2   0.314520783   3.19127   1.69118   0.29769   0.49249
  16   33233.1    300.9   0.104062950   1.03086  -0.35836  -0.89755  -0.31121
  17   33443.4    299.0   0.030038827   0.29570  -0.44596  -0.28878  -0.11586
  18   33888.9    295.1   0.004496073   0.04368   0.18965   0.07304   0.04873
  19   34310.3    291.5   0.029654940   0.28454  -0.45618   0.26309  -0.08500
  20   34358.7    291.0   0.052837607   0.50627   0.62491  -0.27730   0.19714
  21   35044.2    285.4   0.323729601   3.04118   1.66267   0.06608   0.52187
  22   35597.5    280.9   0.050382447   0.46595  -0.65576   0.15804  -0.10463
  23   36016.4    277.7   0.026486546   0.24210  -0.12707  -0.47345   0.04244
  24   37037.2    270.0   0.133538565   1.18698  -0.07676  -1.04485  -0.29897
  25   37173.3    269.0   0.245213891   2.17165   0.78803   1.15837   0.45697
  26   37645.9    265.6   0.069212261   0.60526   0.24755  -0.73259  -0.08536
  27   37999.2    263.2   0.042033305   0.36416  -0.44498   0.40606  -0.03569
  28   38177.4    261.9   0.066216690   0.57100  -0.61194   0.42794  -0.11574
  29   38680.1    258.5   0.099189269   0.84421  -0.77650  -0.38318  -0.30730
  30   39052.1    256.1   0.008457099   0.07129   0.05311   0.25226   0.06956
  31   39114.0    255.7   0.085280772   0.71779   0.79049  -0.26553   0.14971
  32   39818.8    251.1   0.043516453   0.35978  -0.57329   0.08003  -0.15723

FINAL SINGLE POINT ENERGY     -4182.819730434562

DIPOLE MOMENT
-------------
                                X             Y             Z
Electronic contribution:     61.06919      47.16919      28.57358
Nuclear contribution   :    -58.73284     -49.23341     -28.87621
                        -----------------------------------------
Total Dipole Moment    :      2.33635      -2.06422      -0.30263
                        -----------------------------------------
Magnitude (a.u.)       :      3.13227
Magnitude (Debye)      :      7.96161

Rotational constants in cm-1:     0.002033     0.000259     0.000232
Rotational constants in MHz :    60.956568     7.753750     6.944850

                             ****ORCA TERMINATED NORMALLY****
TOTAL RUN TIME: 0 days 0 hours 12 minutes 5 seconds 363 msec
