                         Program Version 4.2.0 -  RELEASE  -
|  1> # ORCA input file
|  2> # SCF done       -174.475689636834          0.000477418229
|  3> ! CAM-B3LYP def2-SVP def2/J RIJCOSX Grid4 TightSCF
|  4> %maxcore 5000
|  5> %tddft
|  6>     Mode sTDDFT
|  7>     Ethresh 5.0
|  8>     maxcore 5000
|  9> end
| 10>
| 11> %pal
| 12>   nprocs 6
| 13>   end
| 14> * xyz 0 1
| 15>    C        3.86623        -4.14650         8.98940
| 16>    O        3.10017        -4.19028         7.80882
| 17>    C        3.41821        -5.10953         6.85859
| 18>    C        4.45475        -5.99779         6.98584
| 19>    C        4.65946        -6.93928         5.96847
| 20>    N        5.60358        -7.87705         5.93153
| 21>    S        5.42587        -8.73326         4.58268
| 22>    N        4.14425        -7.95823         3.98223
| 23>    C        3.79849        -6.97975         4.81956
| 24>    C        2.72867        -6.05819         4.68697
| 25>    C        1.85553        -6.09764         3.52106
| 26>    C        0.53481        -5.84301         3.56639
| 27>    C       -0.28743        -5.87002         2.39869
| 28>    C        0.13942        -6.30444         1.19009
| 29>    C       -0.77014        -6.40806         0.07579
| 30>    C       -0.55834        -6.13792        -1.24246
| 31>    C       -1.82563        -6.19664        -1.93599
| 32>    C       -2.00510        -5.97663        -3.30655
| 33>    N       -2.17943        -5.77872        -4.42466
| 34>    C       -2.82413        -6.47727        -1.03778
| 35>    C       -2.21852        -6.68336         0.24149
| 36>    C       -2.84416        -7.23875         1.33192
| 37>    C       -2.24477        -8.05807         2.34051
| 38>    C       -3.25407        -8.59046         3.10560
| 39>    C       -3.09657        -9.49649         4.16214
| 40>    N       -2.97567       -10.23551         5.03275
| 41>    C       -4.52338        -8.06949         2.66122
| 42>    C       -4.30672        -7.24695         1.59103
| 43>    C       -5.23064        -6.39928         0.91528
| 44>    C       -6.57678        -6.49982         1.02920
| 45>    C       -7.56862        -5.70570         0.37081
| 46>    C       -7.36250        -4.82376        -0.70441
| 47>    O       -6.09658        -4.72820        -1.17279
| 48>    C       -5.82687        -4.34171        -2.51024
| 49>    C       -8.43502        -4.05726        -1.24484
| 50>    O       -8.11094        -3.07981        -2.16102
| 51>    C       -8.38754        -1.75223        -1.76024
| 52>    C       -9.76200        -4.24902        -0.86709
| 53>    C      -10.88819        -3.62312        -1.51026
| 54>    S      -12.30105        -3.23252        -0.57012
| 55>    C      -13.13150        -2.68291        -1.96341
| 56>    C      -12.39018        -2.81204        -3.10100
| 57>    C      -11.08888        -3.33035        -2.84745
| 58>    S       -9.91528        -3.63063        -4.11339
| 59>    C      -10.81441        -2.85731        -5.50444
| 60>    C      -12.30333        -3.13796        -5.41269
| 61>    O      -12.89792        -2.47158        -4.32052
| 62>    C       -9.99163        -5.12960         0.21936
| 63>    N      -11.16195        -5.41823         0.77962
| 64>    S      -10.91915        -6.47063         1.97307
| 65>    N       -9.32100        -6.61108         1.83074
| 66>    C       -8.90606        -5.83503         0.83181
| 67>    C        1.58043        -6.77503         1.04555
| 68>    N        2.07685        -6.44335        -0.26748
| 69>    C        2.88145        -5.48752        -0.40496
| 70>    F        3.30532        -5.17303        -1.62775
| 71>    C        3.39153        -4.70510         0.73085
| 72>    F        4.02941        -3.56321         0.47575
| 73>    N        3.22532        -5.07192         1.92044
| 74>    C        2.52604        -6.31089         2.18082
| 75>    C        2.56281        -5.11914         5.70058
| 76>    O        1.54189        -4.23521         5.56152
| 77>    C        1.71972        -2.87859         5.92922
| 78>    H        4.91128        -3.89980         8.78005
| 79>    H        3.81586        -5.09400         9.53364
| 80>    H        3.42265        -3.35753         9.59453
| 81>    H        5.10673        -6.01514         7.84154
| 82>    H        0.05415        -5.63436         4.50771
| 83>    H       -1.30675        -5.53152         2.50932
| 84>    H        0.36878        -5.89206        -1.72014
| 85>    H       -3.85129        -6.66649        -1.28071
| 86>    H       -1.20466        -8.30977         2.40752
| 87>    H       -5.45946        -8.28598         3.13912
| 88>    H       -4.81141        -5.62020         0.30145
| 89>    H       -6.99727        -7.24622         1.68960
| 90>    H       -5.72368        -3.25893        -2.59815
| 91>    H       -6.60290        -4.68512        -3.19426
| 92>    H       -4.87589        -4.81257        -2.76573
| 93>    H       -9.44533        -1.59546        -1.53497
| 94>    H       -8.09920        -1.12698        -2.60331
| 95>    H       -7.79257        -1.48192        -0.88128
| 96>    H      -14.12890        -2.30088        -1.89325
| 97>    H      -10.38742        -3.28478        -6.40883
| 98>    H      -10.62719        -1.78334        -5.47777
| 99>    H      -12.47646        -4.22071        -5.33904
|100>    H      -12.81874        -2.75171        -6.29567
|101>    H        1.53429        -7.87449         1.06001
|102>    H        3.31070        -7.06830         2.31658
|103>    H        1.02525        -2.31874         5.30205
|104>    H        2.73766        -2.53875         5.73227
|105>    H        1.47623        -2.71332         6.98040
|106> *
|107>
|108>                          ****END OF INPUT****

CARTESIAN COORDINATES (ANGSTROEM)
---------------------------------
  C      3.866230   -4.146500    8.989400
  O      3.100170   -4.190280    7.808820
  C      3.418210   -5.109530    6.858590
  C      4.454750   -5.997790    6.985840
  C      4.659460   -6.939280    5.968470
  N      5.603580   -7.877050    5.931530
  S      5.425870   -8.733260    4.582680
  N      4.144250   -7.958230    3.982230
  C      3.798490   -6.979750    4.819560
  C      2.728670   -6.058190    4.686970
  C      1.855530   -6.097640    3.521060
  C      0.534810   -5.843010    3.566390
  C     -0.287430   -5.870020    2.398690
  C      0.139420   -6.304440    1.190090
  C     -0.770140   -6.408060    0.075790
  C     -0.558340   -6.137920   -1.242460
  C     -1.825630   -6.196640   -1.935990
  C     -2.005100   -5.976630   -3.306550
  N     -2.179430   -5.778720   -4.424660
  C     -2.824130   -6.477270   -1.037780
  C     -2.218520   -6.683360    0.241490
  C     -2.844160   -7.238750    1.331920
  C     -2.244770   -8.058070    2.340510
  C     -3.254070   -8.590460    3.105600
  C     -3.096570   -9.496490    4.162140
  N     -2.975670  -10.235510    5.032750
  C     -4.523380   -8.069490    2.661220
  C     -4.306720   -7.246950    1.591030
  C     -5.230640   -6.399280    0.915280
  C     -6.576780   -6.499820    1.029200
  C     -7.568620   -5.705700    0.370810
  C     -7.362500   -4.823760   -0.704410
  O     -6.096580   -4.728200   -1.172790
  C     -5.826870   -4.341710   -2.510240
  C     -8.435020   -4.057260   -1.244840
  O     -8.110940   -3.079810   -2.161020
  C     -8.387540   -1.752230   -1.760240
  C     -9.762000   -4.249020   -0.867090
  C    -10.888190   -3.623120   -1.510260
  S    -12.301050   -3.232520   -0.570120
  C    -13.131500   -2.682910   -1.963410
  C    -12.390180   -2.812040   -3.101000
  C    -11.088880   -3.330350   -2.847450
  S     -9.915280   -3.630630   -4.113390
  C    -10.814410   -2.857310   -5.504440
  C    -12.303330   -3.137960   -5.412690
  O    -12.897920   -2.471580   -4.320520
  C     -9.991630   -5.129600    0.219360
  N    -11.161950   -5.418230    0.779620
  S    -10.919150   -6.470630    1.973070
  N     -9.321000   -6.611080    1.830740
  C     -8.906060   -5.835030    0.831810
  C      1.580430   -6.775030    1.045550
  N      2.076850   -6.443350   -0.267480
  C      2.881450   -5.487520   -0.404960
  F      3.305320   -5.173030   -1.627750
  C      3.391530   -4.705100    0.730850
  F      4.029410   -3.563210    0.475750
  N      3.225320   -5.071920    1.920440
  C      2.526040   -6.310890    2.180820
  C      2.562810   -5.119140    5.700580
  O      1.541890   -4.235210    5.561520
  C      1.719720   -2.878590    5.929220
  H      4.911280   -3.899800    8.780050
  H      3.815860   -5.094000    9.533640
  H      3.422650   -3.357530    9.594530
  H      5.106730   -6.015140    7.841540
  H      0.054150   -5.634360    4.507710
  H     -1.306750   -5.531520    2.509320
  H      0.368780   -5.892060   -1.720140
  H     -3.851290   -6.666490   -1.280710
  H     -1.204660   -8.309770    2.407520
  H     -5.459460   -8.285980    3.139120
  H     -4.811410   -5.620200    0.301450
  H     -6.997270   -7.246220    1.689600
  H     -5.723680   -3.258930   -2.598150
  H     -6.602900   -4.685120   -3.194260
  H     -4.875890   -4.812570   -2.765730
  H     -9.445330   -1.595460   -1.534970
  H     -8.099200   -1.126980   -2.603310
  H     -7.792570   -1.481920   -0.881280
  H    -14.128900   -2.300880   -1.893250
  H    -10.387420   -3.284780   -6.408830
  H    -10.627190   -1.783340   -5.477770
  H    -12.476460   -4.220710   -5.339040
  H    -12.818740   -2.751710   -6.295670
  H      1.534290   -7.874490    1.060010
  H      3.310700   -7.068300    2.316580
  H      1.025250   -2.318740    5.302050
  H      2.737660   -2.538750    5.732270
  H      1.476230   -2.713320    6.980400

 Total Charge           Charge          ....    0
 Multiplicity           Mult            ....    1
 Number of Electrons    NEL             ....  470
 Basis Dimension        Dim             .... 1038

ORBITAL ENERGIES
----------------

  NO   OCC          E(Eh)            E(eV)
   0   2.0000     -89.012864     -2422.1632
   1   2.0000     -89.012403     -2422.1506
   2   2.0000     -88.946459     -2420.3562
   3   2.0000     -88.928719     -2419.8735
   4   2.0000     -24.801818      -674.8918
   5   2.0000     -24.796141      -674.7373
   6   2.0000     -19.264206      -524.2057
   7   2.0000     -19.254556      -523.9431
   8   2.0000     -19.247267      -523.7448
   9   2.0000     -19.243934      -523.6541
  10   2.0000     -19.241440      -523.5862
  11   2.0000     -14.431006      -392.6876
  12   2.0000     -14.430045      -392.6615
  13   2.0000     -14.428673      -392.6242
  14   2.0000     -14.427752      -392.5991
  15   2.0000     -14.427517      -392.5927
  16   2.0000     -14.424758      -392.5176
  17   2.0000     -14.406049      -392.0085
  18   2.0000     -14.402084      -391.9006
  19   2.0000     -10.414477      -283.3923
  20   2.0000     -10.408144      -283.2200
  21   2.0000     -10.354295      -281.7547
  22   2.0000     -10.350515      -281.6518
  23   2.0000     -10.349702      -281.6297
  24   2.0000     -10.344517      -281.4886
  25   2.0000     -10.335857      -281.2530
  26   2.0000     -10.330359      -281.1034
  27   2.0000     -10.325857      -280.9808
  28   2.0000     -10.325020      -280.9581
  29   2.0000     -10.319037      -280.7953
  30   2.0000     -10.317964      -280.7661
  31   2.0000     -10.317869      -280.7635
  32   2.0000     -10.316763      -280.7334
  33   2.0000     -10.316402      -280.7236
  34   2.0000     -10.315721      -280.7050
  35   2.0000     -10.315368      -280.6954
  36   2.0000     -10.314430      -280.6699
  37   2.0000     -10.313202      -280.6365
  38   2.0000     -10.311793      -280.5982
  39   2.0000     -10.310626      -280.5664
  40   2.0000     -10.310231      -280.5556
  41   2.0000     -10.304740      -280.4062
  42   2.0000     -10.301377      -280.3147
  43   2.0000     -10.300855      -280.3005
  44   2.0000     -10.300335      -280.2864
  45   2.0000     -10.299479      -280.2631
  46   2.0000     -10.298633      -280.2400
  47   2.0000     -10.291716      -280.0518
  48   2.0000     -10.289402      -279.9889
  49   2.0000     -10.288683      -279.9693
  50   2.0000     -10.287424      -279.9351
  51   2.0000     -10.285703      -279.8882
  52   2.0000     -10.284869      -279.8655
  53   2.0000     -10.283841      -279.8375
  54   2.0000     -10.283661      -279.8326
  55   2.0000     -10.280798      -279.7547
  56   2.0000     -10.279313      -279.7143
  57   2.0000     -10.278884      -279.7027
  58   2.0000     -10.278664      -279.6967
  59   2.0000     -10.277670      -279.6696
  60   2.0000     -10.272509      -279.5292
  61   2.0000     -10.269641      -279.4511
  62   2.0000     -10.266911      -279.3769
  63   2.0000      -8.104754      -220.5416
  64   2.0000      -8.104496      -220.5345
  65   2.0000      -8.041392      -218.8174
  66   2.0000      -8.023792      -218.3385
  67   2.0000      -6.076059      -165.3380
  68   2.0000      -6.075858      -165.3325
  69   2.0000      -6.068417      -165.1300
  70   2.0000      -6.068121      -165.1220
  71   2.0000      -6.066856      -165.0876
  72   2.0000      -6.066527      -165.0786
  73   2.0000      -6.010788      -163.5619
  74   2.0000      -6.006545      -163.4464
  75   2.0000      -6.003378      -163.3602
  76   2.0000      -5.994199      -163.1105
  77   2.0000      -5.990076      -162.9982
  78   2.0000      -5.983437      -162.8176
  79   2.0000      -1.327982       -36.1362
  80   2.0000      -1.312471       -35.7142
  81   2.0000      -1.174086       -31.9485
  82   2.0000      -1.164985       -31.7009
  83   2.0000      -1.150481       -31.3062
  84   2.0000      -1.145460       -31.1695
  85   2.0000      -1.139830       -31.0164
  86   2.0000      -1.115407       -30.3518
  87   2.0000      -1.114735       -30.3335
  88   2.0000      -1.076747       -29.2998
  89   2.0000      -1.010844       -27.5065
  90   2.0000      -1.003792       -27.3146
  91   2.0000      -0.992836       -27.0164
  92   2.0000      -0.984937       -26.8015
  93   2.0000      -0.981723       -26.7140
  94   2.0000      -0.971987       -26.4491
  95   2.0000      -0.969170       -26.3724
  96   2.0000      -0.967474       -26.3263
  97   2.0000      -0.956388       -26.0246
  98   2.0000      -0.950087       -25.8532
  99   2.0000      -0.937098       -25.4997
 100   2.0000      -0.909588       -24.7511
 101   2.0000      -0.893683       -24.3183
 102   2.0000      -0.885744       -24.1023
 103   2.0000      -0.869901       -23.6712
 104   2.0000      -0.861856       -23.4523
 105   2.0000      -0.860964       -23.4280
 106   2.0000      -0.856115       -23.2961
 107   2.0000      -0.850665       -23.1478
 108   2.0000      -0.846135       -23.0245
 109   2.0000      -0.843006       -22.9394
 110   2.0000      -0.820316       -22.3219
 111   2.0000      -0.811459       -22.0809
 112   2.0000      -0.806616       -21.9491
 113   2.0000      -0.803377       -21.8610
 114   2.0000      -0.788748       -21.4629
 115   2.0000      -0.783030       -21.3073
 116   2.0000      -0.780780       -21.2461
 117   2.0000      -0.777561       -21.1585
 118   2.0000      -0.769018       -20.9260
 119   2.0000      -0.757539       -20.6137
 120   2.0000      -0.755823       -20.5670
 121   2.0000      -0.735635       -20.0177
 122   2.0000      -0.729291       -19.8450
 123   2.0000      -0.713423       -19.4132
 124   2.0000      -0.706378       -19.2215
 125   2.0000      -0.702430       -19.1141
 126   2.0000      -0.700623       -19.0649
 127   2.0000      -0.691563       -18.8184
 128   2.0000      -0.689772       -18.7696
 129   2.0000      -0.677405       -18.4331
 130   2.0000      -0.674291       -18.3484
 131   2.0000      -0.666030       -18.1236
 132   2.0000      -0.660055       -17.9610
 133   2.0000      -0.655030       -17.8243
 134   2.0000      -0.642865       -17.4932
 135   2.0000      -0.638656       -17.3787
 136   2.0000      -0.631893       -17.1947
 137   2.0000      -0.627108       -17.0645
 138   2.0000      -0.622374       -16.9356
 139   2.0000      -0.620645       -16.8886
 140   2.0000      -0.616474       -16.7751
 141   2.0000      -0.609180       -16.5766
 142   2.0000      -0.608047       -16.5458
 143   2.0000      -0.607253       -16.5242
 144   2.0000      -0.602020       -16.3818
 145   2.0000      -0.598741       -16.2926
 146   2.0000      -0.592075       -16.1112
 147   2.0000      -0.584796       -15.9131
 148   2.0000      -0.583498       -15.8778
 149   2.0000      -0.582220       -15.8430
 150   2.0000      -0.575732       -15.6665
 151   2.0000      -0.568386       -15.4666
 152   2.0000      -0.564571       -15.3628
 153   2.0000      -0.558208       -15.1896
 154   2.0000      -0.557443       -15.1688
 155   2.0000      -0.555410       -15.1135
 156   2.0000      -0.552496       -15.0342
 157   2.0000      -0.546498       -14.8710
 158   2.0000      -0.542715       -14.7680
 159   2.0000      -0.541678       -14.7398
 160   2.0000      -0.537971       -14.6389
 161   2.0000      -0.537043       -14.6137
 162   2.0000      -0.535820       -14.5804
 163   2.0000      -0.535046       -14.5593
 164   2.0000      -0.534141       -14.5347
 165   2.0000      -0.531574       -14.4649
 166   2.0000      -0.522276       -14.2119
 167   2.0000      -0.520013       -14.1503
 168   2.0000      -0.519536       -14.1373
 169   2.0000      -0.515560       -14.0291
 170   2.0000      -0.512898       -13.9567
 171   2.0000      -0.509976       -13.8772
 172   2.0000      -0.507801       -13.8180
 173   2.0000      -0.501964       -13.6591
 174   2.0000      -0.500478       -13.6187
 175   2.0000      -0.498415       -13.5626
 176   2.0000      -0.497464       -13.5367
 177   2.0000      -0.494151       -13.4465
 178   2.0000      -0.490558       -13.3488
 179   2.0000      -0.487999       -13.2791
 180   2.0000      -0.487257       -13.2589
 181   2.0000      -0.485334       -13.2066
 182   2.0000      -0.481060       -13.0903
 183   2.0000      -0.479164       -13.0387
 184   2.0000      -0.471754       -12.8371
 185   2.0000      -0.464575       -12.6417
 186   2.0000      -0.461363       -12.5543
 187   2.0000      -0.460770       -12.5382
 188   2.0000      -0.458368       -12.4728
 189   2.0000      -0.456898       -12.4328
 190   2.0000      -0.454552       -12.3690
 191   2.0000      -0.451801       -12.2941
 192   2.0000      -0.449567       -12.2333
 193   2.0000      -0.443677       -12.0731
 194   2.0000      -0.438249       -11.9254
 195   2.0000      -0.434914       -11.8346
 196   2.0000      -0.434019       -11.8103
 197   2.0000      -0.432859       -11.7787
 198   2.0000      -0.431002       -11.7282
 199   2.0000      -0.429279       -11.6813
 200   2.0000      -0.427267       -11.6265
 201   2.0000      -0.420560       -11.4440
 202   2.0000      -0.418679       -11.3928
 203   2.0000      -0.414920       -11.2905
 204   2.0000      -0.412033       -11.2120
 205   2.0000      -0.408473       -11.1151
 206   2.0000      -0.406516       -11.0619
 207   2.0000      -0.403395       -10.9769
 208   2.0000      -0.400683       -10.9031
 209   2.0000      -0.397124       -10.8063
 210   2.0000      -0.396831       -10.7983
 211   2.0000      -0.393912       -10.7189
 212   2.0000      -0.390135       -10.6161
 213   2.0000      -0.389508       -10.5991
 214   2.0000      -0.386706       -10.5228
 215   2.0000      -0.385069       -10.4783
 216   2.0000      -0.375413       -10.2155
 217   2.0000      -0.373840       -10.1727
 218   2.0000      -0.368395       -10.0245
 219   2.0000      -0.367633       -10.0038
 220   2.0000      -0.363644        -9.8953
 221   2.0000      -0.355098        -9.6627
 222   2.0000      -0.345753        -9.4084
 223   2.0000      -0.341486        -9.2923
 224   2.0000      -0.339833        -9.2473
 225   2.0000      -0.330704        -8.9989
 226   2.0000      -0.314994        -8.5714
 227   2.0000      -0.311030        -8.4635
 228   2.0000      -0.300836        -8.1862
 229   2.0000      -0.295989        -8.0543
 230   2.0000      -0.294049        -8.0015
 231   2.0000      -0.279517        -7.6061
 232   2.0000      -0.264472        -7.1966
 233   2.0000      -0.256839        -6.9890
 234   2.0000      -0.238273        -6.4837
 235   0.0000      -0.113590        -3.0909
 236   0.0000      -0.058749        -1.5986
 237   0.0000      -0.052535        -1.4296
 238   0.0000      -0.033931        -0.9233
 239   0.0000      -0.017430        -0.4743

MULLIKEN ATOMIC CHARGES
-----------------------
   0 C :    0.176532
   1 O :   -0.321702
   2 C :    0.232898
   3 C :   -0.195961
   4 C :    0.061150
   5 N :   -0.264960
   6 S :    0.486842
   7 N :   -0.303169
   8 C :    0.027361
   9 C :    0.052939
  10 C :   -0.024600
  11 C :   -0.021502
  12 C :   -0.018365
  13 C :   -0.068370
  14 C :    0.114079
  15 C :   -0.024243
  16 C :   -0.098579
  17 C :   -0.122773
  18 N :    0.127355
  19 C :   -0.042118
  20 C :    0.035622
  21 C :    0.026136
  22 C :   -0.016581
  23 C :   -0.100758
  24 C :   -0.130767
  25 N :    0.135381
  26 C :   -0.034175
  27 C :    0.095249
  28 C :   -0.016801
  29 C :   -0.053461
  30 C :    0.023867
  31 C :    0.150291
  32 O :   -0.321136
  33 C :    0.207780
  34 C :    0.016143
  35 O :   -0.351454
  36 C :    0.197218
  37 C :    0.106842
  38 C :   -0.290850
  39 S :    0.178466
  40 C :   -0.135957
  41 C :    0.197248
  42 C :   -0.025162
  43 S :    0.032402
  44 C :   -0.086247
  45 C :    0.217048
  46 O :   -0.306619
  47 C :   -0.020691
  48 N :   -0.280146
  49 S :    0.493511
  50 N :   -0.288460
  51 C :    0.015220
  52 C :    0.143439
  53 N :   -0.110866
  54 C :    0.125727
  55 F :   -0.150965
  56 C :    0.109403
  57 F :   -0.151843
  58 N :   -0.070937
  59 C :    0.086208
  60 C :    0.102096
  61 O :   -0.319758
  62 C :    0.204168
  63 H :    0.030773
  64 H :    0.032759
  65 H :    0.041583
  66 H :   -0.032501
  67 H :   -0.008349
  68 H :   -0.005339
  69 H :   -0.003059
  70 H :    0.006663
  71 H :    0.003765
  72 H :   -0.006537
  73 H :    0.011019
  74 H :   -0.003686
  75 H :    0.024398
  76 H :    0.031071
  77 H :    0.028817
  78 H :    0.046683
  79 H :    0.030857
  80 H :    0.016865
  81 H :    0.012030
  82 H :    0.055492
  83 H :    0.064178
  84 H :    0.026698
  85 H :    0.026667
  86 H :    0.031666
  87 H :    0.048535
  88 H :    0.029750
  89 H :    0.019789
  90 H :    0.030771
Sum of atomic charges:   -0.0000000

LOEWDIN ATOMIC CHARGES
----------------------
   0 C :    0.080035
   1 O :   -0.090711
   2 C :    0.046186
   3 C :   -0.082241
   4 C :   -0.052130
   5 N :   -0.289331
   6 S :    0.620174
   7 N :   -0.296978
   8 C :   -0.041107
   9 C :   -0.049218
  10 C :   -0.003640
  11 C :   -0.018625
  12 C :   -0.018442
  13 C :   -0.026443
  14 C :   -0.024921
  15 C :   -0.000409
  16 C :   -0.055818
  17 C :   -0.028486
  18 N :   -0.052896
  19 C :   -0.006002
  20 C :    0.038262
  21 C :    0.043976
  22 C :   -0.007629
  23 C :   -0.054892
  24 C :   -0.029657
  25 N :   -0.050305
  26 C :   -0.001670
  27 C :   -0.026435
  28 C :   -0.031692
  29 C :    0.002448
  30 C :   -0.068004
  31 C :    0.060017
  32 O :   -0.085890
  33 C :    0.083627
  34 C :    0.017458
  35 O :   -0.117635
  36 C :    0.078029
  37 C :   -0.067513
  38 C :   -0.210586
  39 S :    0.473885
  40 C :   -0.215777
  41 C :   -0.018154
  42 C :   -0.214462
  43 S :    0.322143
  44 C :   -0.147306
  45 C :    0.068957
  46 O :   -0.111492
  47 C :   -0.056895
  48 N :   -0.295357
  49 S :    0.625229
  50 N :   -0.293831
  51 C :   -0.042618
  52 C :    0.026114
  53 N :   -0.065395
  54 C :    0.052639
  55 F :   -0.036739
  56 C :    0.037538
  57 F :   -0.041273
  58 N :   -0.058533
  59 C :    0.010567
  60 C :    0.058373
  61 O :   -0.094047
  62 C :    0.081707
  63 H :    0.019081
  64 H :    0.020712
  65 H :    0.030732
  66 H :    0.037994
  67 H :    0.032634
  68 H :    0.032167
  69 H :    0.029699
  70 H :    0.035209
  71 H :    0.034450
  72 H :    0.032034
  73 H :    0.025927
  74 H :    0.032073
  75 H :    0.017890
  76 H :    0.020979
  77 H :    0.020574
  78 H :    0.018939
  79 H :    0.024616
  80 H :    0.015176
  81 H :    0.025841
  82 H :    0.034254
  83 H :    0.027214
  84 H :    0.017433
  85 H :    0.028429
  86 H :    0.047156
  87 H :    0.036874
  88 H :    0.023258
  89 H :    0.017359
  90 H :    0.015120

  Mayer bond orders larger than 0.100000
B(  0-C ,  1-O ) :   0.9555 B(  0-C , 63-H ) :   0.9695 B(  0-C , 64-H ) :   0.9690
B(  0-C , 65-H ) :   0.9776 B(  1-O ,  2-C ) :   1.1442 B(  2-C ,  3-C ) :   1.3900
B(  2-C , 60-C ) :   1.1304 B(  3-C ,  4-C ) :   1.1356 B(  3-C ,  9-C ) :   0.1135
B(  3-C , 66-H ) :   1.0428 B(  4-C ,  5-N ) :   1.5446 B(  4-C ,  8-C ) :   1.1658
B(  5-N ,  6-S ) :   1.2576 B(  5-N ,  7-N ) :   0.1451 B(  6-S ,  7-N ) :   1.2322
B(  7-N ,  8-C ) :   1.5167 B(  7-N , 87-H ) :   0.1009 B(  8-C ,  9-C ) :   1.1859
B(  9-C , 10-C ) :   1.0143 B(  9-C , 60-C ) :   1.5289 B( 10-C , 11-C ) :   1.7644
B( 10-C , 59-C ) :   0.9860 B( 11-C , 12-C ) :   1.0690 B( 11-C , 67-H ) :   0.9814
B( 12-C , 13-C ) :   1.7215 B( 12-C , 68-H ) :   0.9754 B( 13-C , 14-C ) :   1.0411
B( 13-C , 52-C ) :   0.9567 B( 14-C , 15-C ) :   1.6192 B( 14-C , 20-C ) :   1.0590
B( 15-C , 16-C ) :   1.0794 B( 15-C , 69-H ) :   1.0205 B( 16-C , 17-C ) :   1.0676
B( 16-C , 19-C ) :   1.5969 B( 17-C , 18-N ) :   3.0121 B( 19-C , 20-C ) :   1.1160
B( 19-C , 70-H ) :   1.0110 B( 20-C , 21-C ) :   1.4649 B( 21-C , 22-C ) :   1.1032
B( 21-C , 27-C ) :   1.0356 B( 22-C , 23-C ) :   1.6101 B( 22-C , 71-H ) :   1.0097
B( 23-C , 24-C ) :   1.0603 B( 23-C , 26-C ) :   1.1007 B( 24-C , 25-N ) :   3.0408
B( 26-C , 27-C ) :   1.5929 B( 26-C , 72-H ) :   1.0145 B( 27-C , 28-C ) :   1.0745
B( 28-C , 29-C ) :   1.6486 B( 28-C , 73-H ) :   0.9623 B( 29-C , 30-C ) :   1.1489
B( 29-C , 74-H ) :   0.9717 B( 30-C , 31-C ) :   1.3886 B( 30-C , 37-C ) :   0.1122
B( 30-C , 51-C ) :   1.1615 B( 31-C , 32-O ) :   1.1973 B( 31-C , 34-C ) :   1.1394
B( 32-O , 33-C ) :   0.9145 B( 33-C , 75-H ) :   0.9778 B( 33-C , 76-H ) :   0.9716
B( 33-C , 77-H ) :   0.9719 B( 34-C , 35-O ) :   1.1224 B( 34-C , 37-C ) :   1.4341
B( 35-O , 36-C ) :   0.9246 B( 36-C , 78-H ) :   0.9670 B( 36-C , 79-H ) :   0.9805
B( 36-C , 80-H ) :   0.9687 B( 37-C , 38-C ) :   1.0607 B( 37-C , 47-C ) :   1.1684
B( 38-C , 39-S ) :   1.1603 B( 38-C , 40-C ) :   0.1054 B( 38-C , 42-C ) :   1.5104
B( 39-S , 40-C ) :   1.1399 B( 40-C , 41-C ) :   1.5708 B( 40-C , 81-H ) :   0.9680
B( 41-C , 42-C ) :   1.2130 B( 41-C , 46-O ) :   1.1177 B( 42-C , 43-S ) :   1.0359
B( 43-S , 44-C ) :   1.0018 B( 44-C , 45-C ) :   1.0482 B( 44-C , 82-H ) :   0.9469
B( 44-C , 83-H ) :   0.9429 B( 45-C , 46-O ) :   0.9756 B( 45-C , 84-H ) :   0.9486
B( 45-C , 85-H ) :   0.9511 B( 47-C , 48-N ) :   1.5446 B( 47-C , 51-C ) :   1.1513
B( 48-N , 49-S ) :   1.2491 B( 48-N , 50-N ) :   0.1453 B( 49-S , 50-N ) :   1.2455
B( 50-N , 51-C ) :   1.5615 B( 52-C , 53-N ) :   1.0397 B( 52-C , 59-C ) :   0.9771
B( 52-C , 86-H ) :   0.8730 B( 53-N , 54-C ) :   1.9222 B( 54-C , 55-F ) :   1.1442
B( 54-C , 56-C ) :   0.9361 B( 56-C , 57-F ) :   1.1585 B( 56-C , 58-N ) :   1.9604
B( 58-N , 59-C ) :   1.0236 B( 59-C , 87-H ) :   0.8579 B( 60-C , 61-O ) :   1.1959
B( 61-O , 62-C ) :   0.9264 B( 62-C , 88-H ) :   0.9782 B( 62-C , 89-H ) :   0.9729
B( 62-C , 90-H ) :   0.9747

-----------------------------------------------------------------------------
         ABSORPTION SPECTRUM VIA TRANSITION ELECTRIC DIPOLE MOMENTS
-----------------------------------------------------------------------------
State   Energy  Wavelength   fosc         T2         TX        TY        TZ
        (cm-1)    (nm)                  (au**2)     (au)      (au)      (au)
-----------------------------------------------------------------------------
   0    9378.7   1066.2   0.129713334   4.55322  -2.04849   0.37227  -0.46727
   1   12832.2    779.3   0.028627436   0.73444  -0.58727  -0.52816  -0.33256
   2   20571.7    486.1   0.218119589   3.49060  -1.30913   0.80859  -1.05969
   3   21959.2    455.4   0.330970773   4.96190   1.88003  -0.94143   0.73560
   4   22215.4    450.1   0.003949220   0.05852  -0.23208   0.01095   0.06740
   5   22726.1    440.0   0.059492795   0.86182  -0.43830   0.02539  -0.81796
   6   24941.8    400.9   0.003897214   0.05144  -0.07270  -0.20992   0.04572
   7   26336.1    379.7   0.225904900   2.82391  -1.47537  -0.61419  -0.51959
   8   26739.1    374.0   0.041700606   0.51342  -0.34570  -0.32407   0.53748
   9   26883.5    372.0   0.047874341   0.58626  -0.28199   0.06051   0.70928
  10   27376.5    365.3   0.076880158   0.92451  -0.08017   0.32974  -0.89964
  11   28095.4    355.9   0.286723909   3.35973   0.56468   0.41694  -1.69323
  12   28506.2    350.8   0.053906711   0.62256  -0.34648   0.29397  -0.64505
  13   29367.2    340.5   0.055813845   0.62568  -0.76119  -0.06188  -0.20603
  14   29443.6    339.6   0.092051991   1.02924   0.64645   0.35969  -0.69424
  15   30278.0    330.3   0.066871169   0.72709  -0.70838  -0.34430   0.32673
  16   31527.5    317.2   0.029095150   0.30381   0.27566   0.05821  -0.47375
  17   31822.1    314.2   0.017256827   0.17853  -0.40895  -0.07594   0.07429
  18   32800.1    304.9   0.107523398   1.07920   0.91047  -0.08916   0.49223
  19   32971.4    303.3   0.048755018   0.48681  -0.42463   0.55143  -0.04925
  20   33526.7    298.3   0.131772127   1.29392   0.46686   0.95268  -0.41033
  21   33854.1    295.4   0.310311238   3.01760  -0.47506  -0.05362   1.67004
  22   34198.4    292.4   0.160735797   1.54733   0.05041  -0.82654  -0.92824
  23   34456.8    290.2   1.126104894  10.75918   2.25176  -1.58595   1.78144
  24   35138.2    284.6   0.044257185   0.41465   0.35848  -0.10693   0.52412
  25   35588.0    281.0   0.060891389   0.56328   0.57096   0.20506  -0.44186
  26   36236.6    276.0   0.039803507   0.36162   0.13151  -0.05199   0.58448
  27   36362.7    275.0   0.022971881   0.20798   0.06180  -0.37385  -0.25376
  28   37282.3    268.2   0.009500339   0.08389   0.19700  -0.21232   0.00075
  29   37413.2    267.3   0.135862200   1.19550  -0.25476  -0.06614  -1.06124
  30   37916.9    263.7   0.021281310   0.18477  -0.04064  -0.08337   0.41973
  31   38563.8    259.3   0.006458923   0.05514   0.10614  -0.11472   0.17525
  32   38961.1    256.7   0.005007404   0.04231   0.20508  -0.00742  -0.01408
  33   39614.8    252.4   0.005352767   0.04448  -0.18277   0.07287  -0.07595
  34   39861.2    250.9   0.029496588   0.24361  -0.03915   0.01713   0.49172
  35   40204.6    248.7   0.002916777   0.02388   0.04616  -0.03972  -0.14204

FINAL SINGLE POINT ENERGY     -4296.055798808171

DIPOLE MOMENT
-------------
                                X             Y             Z
Electronic contribution:     18.10532     -21.86557      -2.84805
Nuclear contribution   :    -18.27026      24.25816       3.84569
                        -----------------------------------------
Total Dipole Moment    :     -0.16493       2.39260       0.99764
                        -----------------------------------------
Magnitude (a.u.)       :      2.59750
Magnitude (Debye)      :      6.60232

Rotational constants in cm-1:     0.002220     0.000402     0.000374
Rotational constants in MHz :    66.561285    12.045170    11.211914

                             ****ORCA TERMINATED NORMALLY****
TOTAL RUN TIME: 0 days 0 hours 11 minutes 4 seconds 869 msec
