                         Program Version 4.2.0 -  RELEASE  -
|  1> # ORCA input file
|  2> # SCF done       -161.518090358781          0.000282037745
|  3> ! CAM-B3LYP def2-SVP def2/J RIJCOSX Grid4 TightSCF
|  4> %maxcore 5000
|  5> %tddft
|  6>     Mode sTDDFT
|  7>     Ethresh 5.0
|  8>     maxcore 5000
|  9> end
| 10>
| 11> %pal
| 12>   nprocs 6
| 13>   end
| 14> * xyz 0 1
| 15>    C        3.02280         6.89712        10.26385
| 16>    N        4.21067         6.88974         9.61394
| 17>    C        3.99084         6.88853         8.26179
| 18>    C        2.61951         6.89550         8.06364
| 19>    C        2.01731         6.90120         9.32872
| 20>    C        5.03057         6.87782         7.33607
| 21>    C        5.94031         6.86354         6.53281
| 22>    C        6.98863         6.83981         5.62055
| 23>    C        6.81543         6.79772         4.28047
| 24>    C        7.87871         6.75969         3.33775
| 25>    S        9.54617         6.77159         3.84761
| 26>    C       10.10491         6.68242         2.19871
| 27>    C        9.03656         6.63540         1.32044
| 28>    C        7.78557         6.69408         1.95829
| 29>    C        6.49509         6.66546         1.19720
| 30>    C        6.72599         6.94915        -0.28537
| 31>    C        7.86739         6.08208        -0.81304
| 32>    N        7.99489         6.23306        -2.25774
| 33>    C        9.17686         6.53454        -0.16416
| 34>    C       11.48972         6.67850         1.87070
| 35>    C       12.48418         6.73026         2.78178
| 36>    C       13.89973         6.75378         2.53873
| 37>    C       14.58752         6.32170         1.46890
| 38>    C       13.99132         5.66541         0.26297
| 39>    C       16.08617         6.51397         1.42434
| 40>    N       16.40621         7.66813         0.61375
| 41>    C       17.01068         8.77840         1.04192
| 42>    C       17.12711         9.91437         0.28955
| 43>    C       17.84577        11.04813         0.67988
| 44>    C       17.94019        12.18575        -0.08951
| 45>    C       18.71366        13.34281         0.14008
| 46>    C       18.62841        14.28188        -0.84958
| 47>    C       17.76193        13.92013        -1.89987
| 48>    S       17.06487        12.35275        -1.60760
| 49>    C       17.44014        14.60960        -3.06129
| 50>    C       17.98441        15.77676        -3.61970
| 51>    C       17.46141        16.08598        -4.84660
| 52>    C       16.48157        15.18333        -5.31467
| 53>    S       16.23165        13.93689        -4.13079
| 54>    C       15.74100        15.33174        -6.48498
| 55>    C       14.70289        14.55701        -6.97282
| 56>    C       14.24181        13.29369        -6.60503
| 57>    C       12.80341        12.99131        -6.75196
| 58>    O       11.96624        13.64368        -7.34239
| 59>    C       12.58279        11.74934        -5.97086
| 60>    C       11.41706        11.13079        -5.63162
| 61>    C       11.45896         9.99419        -4.78689
| 62>    C       12.71956         9.51446        -4.33226
| 63>    C       12.75420         8.39632        -3.47859
| 64>    C       11.58286         7.80501        -3.09859
| 65>    C       10.33063         8.25985        -3.52437
| 66>    C       10.28467         9.34007        -4.36537
| 67>    F       11.63375         6.73325        -2.26716
| 68>    C       13.91540        10.16301        -4.72243
| 69>    C       13.84410        11.26656        -5.52314
| 70>    C       14.88274        12.16341        -6.02725
| 71>    C       16.23712        11.87503        -6.04876
| 72>    C       17.17352        12.66542        -6.73601
| 73>    N       17.96231        13.28518        -7.29687
| 74>    C       16.80684        10.74095        -5.45063
| 75>    N       17.32290         9.84303        -4.94937
| 76>    H        2.96986         6.89856        11.33495
| 77>    H        5.12085         6.88579        10.04345
| 78>    H        2.12484         6.89703         7.11279
| 79>    H        0.96463         6.90742         9.53152
| 80>    H        7.99039         6.85105         6.03460
| 81>    H        5.81201         6.78178         3.87721
| 82>    H        5.79885         7.39882         1.61039
| 83>    H        6.03621         5.67701         1.31312
| 84>    H        6.98492         7.99873        -0.43375
| 85>    H        5.81007         6.74616        -0.84444
| 86>    H        7.66905         5.03374        -0.51857
| 87>    H        8.70577         5.59620        -2.60494
| 88>    H        7.12126         5.99588        -2.71654
| 89>    H        9.44194         7.51303        -0.57610
| 90>    H        9.97840         5.84113        -0.42606
| 91>    H       11.70510         6.68093         0.81469
| 92>    H       12.20062         6.80391         3.82549
| 93>    H       14.47635         7.15164         3.36662
| 94>    H       13.60607         6.39838        -0.44610
| 95>    H       13.16302         5.02216         0.55271
| 96>    H       14.73624         5.06098        -0.25186
| 97>    H       16.56798         5.63034         0.98719
| 98>    H       16.49370         6.67370         2.42422
| 99>    H       15.98507         7.69245        -0.30472
|100>    H       17.44294         8.72908         2.03278
|101>    H       16.65592         9.93959        -0.68434
|102>    H       18.37716        11.03173         1.62248
|103>    H       19.32390        13.44534         1.02059
|104>    H       19.15598        15.21875        -0.84705
|105>    H       18.75610        16.34266        -3.12897
|106>    H       17.76536        16.93250        -5.43629
|107>    H       15.94768        16.24773        -7.02478
|108>    H       14.05785        15.04840        -7.69579
|109>    H       10.46897        11.50818        -5.98481
|110>    H       13.70264         8.01269        -3.13456
|111>    H        9.43607         7.75756        -3.18455
|112>    H        9.33224         9.71101        -4.71358
|113>    H       14.85672         9.78394        -4.35793
|114> *
|115>
|116>                          ****END OF INPUT****

CARTESIAN COORDINATES (ANGSTROEM)
---------------------------------
  C      3.022800    6.897120   10.263850
  N      4.210670    6.889740    9.613940
  C      3.990840    6.888530    8.261790
  C      2.619510    6.895500    8.063640
  C      2.017310    6.901200    9.328720
  C      5.030570    6.877820    7.336070
  C      5.940310    6.863540    6.532810
  C      6.988630    6.839810    5.620550
  C      6.815430    6.797720    4.280470
  C      7.878710    6.759690    3.337750
  S      9.546170    6.771590    3.847610
  C     10.104910    6.682420    2.198710
  C      9.036560    6.635400    1.320440
  C      7.785570    6.694080    1.958290
  C      6.495090    6.665460    1.197200
  C      6.725990    6.949150   -0.285370
  C      7.867390    6.082080   -0.813040
  N      7.994890    6.233060   -2.257740
  C      9.176860    6.534540   -0.164160
  C     11.489720    6.678500    1.870700
  C     12.484180    6.730260    2.781780
  C     13.899730    6.753780    2.538730
  C     14.587520    6.321700    1.468900
  C     13.991320    5.665410    0.262970
  C     16.086170    6.513970    1.424340
  N     16.406210    7.668130    0.613750
  C     17.010680    8.778400    1.041920
  C     17.127110    9.914370    0.289550
  C     17.845770   11.048130    0.679880
  C     17.940190   12.185750   -0.089510
  C     18.713660   13.342810    0.140080
  C     18.628410   14.281880   -0.849580
  C     17.761930   13.920130   -1.899870
  S     17.064870   12.352750   -1.607600
  C     17.440140   14.609600   -3.061290
  C     17.984410   15.776760   -3.619700
  C     17.461410   16.085980   -4.846600
  C     16.481570   15.183330   -5.314670
  S     16.231650   13.936890   -4.130790
  C     15.741000   15.331740   -6.484980
  C     14.702890   14.557010   -6.972820
  C     14.241810   13.293690   -6.605030
  C     12.803410   12.991310   -6.751960
  O     11.966240   13.643680   -7.342390
  C     12.582790   11.749340   -5.970860
  C     11.417060   11.130790   -5.631620
  C     11.458960    9.994190   -4.786890
  C     12.719560    9.514460   -4.332260
  C     12.754200    8.396320   -3.478590
  C     11.582860    7.805010   -3.098590
  C     10.330630    8.259850   -3.524370
  C     10.284670    9.340070   -4.365370
  F     11.633750    6.733250   -2.267160
  C     13.915400   10.163010   -4.722430
  C     13.844100   11.266560   -5.523140
  C     14.882740   12.163410   -6.027250
  C     16.237120   11.875030   -6.048760
  C     17.173520   12.665420   -6.736010
  N     17.962310   13.285180   -7.296870
  C     16.806840   10.740950   -5.450630
  N     17.322900    9.843030   -4.949370
  H      2.969860    6.898560   11.334950
  H      5.120850    6.885790   10.043450
  H      2.124840    6.897030    7.112790
  H      0.964630    6.907420    9.531520
  H      7.990390    6.851050    6.034600
  H      5.812010    6.781780    3.877210
  H      5.798850    7.398820    1.610390
  H      6.036210    5.677010    1.313120
  H      6.984920    7.998730   -0.433750
  H      5.810070    6.746160   -0.844440
  H      7.669050    5.033740   -0.518570
  H      8.705770    5.596200   -2.604940
  H      7.121260    5.995880   -2.716540
  H      9.441940    7.513030   -0.576100
  H      9.978400    5.841130   -0.426060
  H     11.705100    6.680930    0.814690
  H     12.200620    6.803910    3.825490
  H     14.476350    7.151640    3.366620
  H     13.606070    6.398380   -0.446100
  H     13.163020    5.022160    0.552710
  H     14.736240    5.060980   -0.251860
  H     16.567980    5.630340    0.987190
  H     16.493700    6.673700    2.424220
  H     15.985070    7.692450   -0.304720
  H     17.442940    8.729080    2.032780
  H     16.655920    9.939590   -0.684340
  H     18.377160   11.031730    1.622480
  H     19.323900   13.445340    1.020590
  H     19.155980   15.218750   -0.847050
  H     18.756100   16.342660   -3.128970
  H     17.765360   16.932500   -5.436290
  H     15.947680   16.247730   -7.024780
  H     14.057850   15.048400   -7.695790
  H     10.468970   11.508180   -5.984810
  H     13.702640    8.012690   -3.134560
  H      9.436070    7.757560   -3.184550
  H      9.332240    9.711010   -4.713580
  H     14.856720    9.783940   -4.357930

 Total Charge           Charge          ....    0
 Multiplicity           Mult            ....    1
 Number of Electrons    NEL             ....  444
 Basis Dimension        Dim             .... 1056

ORBITAL ENERGIES
----------------

  NO   OCC          E(Eh)            E(eV)
   0   2.0000     -88.952252     -2420.5138
   1   2.0000     -88.946523     -2420.3579
   2   2.0000     -88.944820     -2420.3116
   3   2.0000     -24.782810      -674.3745
   4   2.0000     -19.176828      -521.8280
   5   2.0000     -14.470309      -393.7571
   6   2.0000     -14.457532      -393.4094
   7   2.0000     -14.395433      -391.7196
   8   2.0000     -14.380499      -391.3133
   9   2.0000     -14.374026      -391.1371
  10   2.0000     -10.352154      -281.6964
  11   2.0000     -10.351021      -281.6656
  12   2.0000     -10.330963      -281.1198
  13   2.0000     -10.328356      -281.0489
  14   2.0000     -10.326518      -280.9989
  15   2.0000     -10.310934      -280.5748
  16   2.0000     -10.303925      -280.3840
  17   2.0000     -10.303918      -280.3839
  18   2.0000     -10.301160      -280.3088
  19   2.0000     -10.298982      -280.2496
  20   2.0000     -10.297508      -280.2094
  21   2.0000     -10.297480      -280.2087
  22   2.0000     -10.294847      -280.1370
  23   2.0000     -10.293946      -280.1125
  24   2.0000     -10.293616      -280.1035
  25   2.0000     -10.292105      -280.0624
  26   2.0000     -10.289796      -279.9996
  27   2.0000     -10.289153      -279.9821
  28   2.0000     -10.286934      -279.9217
  29   2.0000     -10.286297      -279.9044
  30   2.0000     -10.284973      -279.8683
  31   2.0000     -10.282951      -279.8133
  32   2.0000     -10.281624      -279.7772
  33   2.0000     -10.281309      -279.7686
  34   2.0000     -10.279584      -279.7217
  35   2.0000     -10.279154      -279.7100
  36   2.0000     -10.278660      -279.6966
  37   2.0000     -10.277562      -279.6667
  38   2.0000     -10.276457      -279.6366
  39   2.0000     -10.275559      -279.6122
  40   2.0000     -10.275298      -279.6051
  41   2.0000     -10.274724      -279.5894
  42   2.0000     -10.274240      -279.5763
  43   2.0000     -10.273652      -279.5603
  44   2.0000     -10.272763      -279.5361
  45   2.0000     -10.272544      -279.5301
  46   2.0000     -10.272477      -279.5283
  47   2.0000     -10.271029      -279.4889
  48   2.0000     -10.269952      -279.4596
  49   2.0000     -10.267103      -279.3821
  50   2.0000     -10.266838      -279.3749
  51   2.0000     -10.266254      -279.3590
  52   2.0000     -10.266209      -279.3577
  53   2.0000     -10.265509      -279.3387
  54   2.0000     -10.265440      -279.3368
  55   2.0000     -10.264209      -279.3033
  56   2.0000     -10.259512      -279.1755
  57   2.0000     -10.259090      -279.1640
  58   2.0000     -10.252035      -278.9720
  59   2.0000     -10.251946      -278.9696
  60   2.0000     -10.248012      -278.8626
  61   2.0000      -8.048401      -219.0081
  62   2.0000      -8.041107      -218.8097
  63   2.0000      -8.040403      -218.7905
  64   2.0000      -6.017984      -163.7577
  65   2.0000      -6.013894      -163.6464
  66   2.0000      -6.010442      -163.5524
  67   2.0000      -6.009654      -163.5310
  68   2.0000      -6.009567      -163.5286
  69   2.0000      -6.006205      -163.4372
  70   2.0000      -6.005824      -163.4268
  71   2.0000      -6.003210      -163.3557
  72   2.0000      -6.002387      -163.3333
  73   2.0000      -1.292038       -35.1581
  74   2.0000      -1.090321       -29.6691
  75   2.0000      -1.072063       -29.1723
  76   2.0000      -1.068697       -29.0807
  77   2.0000      -0.997933       -27.1551
  78   2.0000      -0.990572       -26.9548
  79   2.0000      -0.983628       -26.7659
  80   2.0000      -0.975137       -26.5348
  81   2.0000      -0.971570       -26.4378
  82   2.0000      -0.968783       -26.3619
  83   2.0000      -0.956110       -26.0171
  84   2.0000      -0.945512       -25.7287
  85   2.0000      -0.932316       -25.3696
  86   2.0000      -0.913887       -24.8681
  87   2.0000      -0.905638       -24.6437
  88   2.0000      -0.898945       -24.4615
  89   2.0000      -0.896714       -24.4008
  90   2.0000      -0.880341       -23.9553
  91   2.0000      -0.874358       -23.7925
  92   2.0000      -0.865754       -23.5584
  93   2.0000      -0.862642       -23.4737
  94   2.0000      -0.859703       -23.3937
  95   2.0000      -0.855392       -23.2764
  96   2.0000      -0.850379       -23.1400
  97   2.0000      -0.843685       -22.9578
  98   2.0000      -0.838937       -22.8286
  99   2.0000      -0.821472       -22.3534
 100   2.0000      -0.816921       -22.2296
 101   2.0000      -0.810990       -22.0682
 102   2.0000      -0.808562       -22.0021
 103   2.0000      -0.801255       -21.8033
 104   2.0000      -0.799108       -21.7448
 105   2.0000      -0.793591       -21.5947
 106   2.0000      -0.778699       -21.1895
 107   2.0000      -0.760005       -20.6808
 108   2.0000      -0.750344       -20.4179
 109   2.0000      -0.732456       -19.9311
 110   2.0000      -0.726727       -19.7753
 111   2.0000      -0.719738       -19.5851
 112   2.0000      -0.713733       -19.4217
 113   2.0000      -0.709357       -19.3026
 114   2.0000      -0.693061       -18.8591
 115   2.0000      -0.683440       -18.5973
 116   2.0000      -0.682524       -18.5724
 117   2.0000      -0.679192       -18.4817
 118   2.0000      -0.675067       -18.3695
 119   2.0000      -0.661874       -18.0105
 120   2.0000      -0.660321       -17.9682
 121   2.0000      -0.654526       -17.8106
 122   2.0000      -0.650027       -17.6881
 123   2.0000      -0.645674       -17.5697
 124   2.0000      -0.641622       -17.4594
 125   2.0000      -0.635217       -17.2851
 126   2.0000      -0.628478       -17.1018
 127   2.0000      -0.622243       -16.9321
 128   2.0000      -0.618663       -16.8347
 129   2.0000      -0.610771       -16.6199
 130   2.0000      -0.606738       -16.5102
 131   2.0000      -0.604077       -16.4378
 132   2.0000      -0.601503       -16.3677
 133   2.0000      -0.594176       -16.1683
 134   2.0000      -0.589527       -16.0418
 135   2.0000      -0.585654       -15.9365
 136   2.0000      -0.580698       -15.8016
 137   2.0000      -0.575174       -15.6513
 138   2.0000      -0.566132       -15.4052
 139   2.0000      -0.561578       -15.2813
 140   2.0000      -0.558337       -15.1931
 141   2.0000      -0.554236       -15.0815
 142   2.0000      -0.549717       -14.9586
 143   2.0000      -0.546115       -14.8605
 144   2.0000      -0.541858       -14.7447
 145   2.0000      -0.538935       -14.6652
 146   2.0000      -0.535544       -14.5729
 147   2.0000      -0.529367       -14.4048
 148   2.0000      -0.524991       -14.2857
 149   2.0000      -0.523900       -14.2560
 150   2.0000      -0.520260       -14.1570
 151   2.0000      -0.516566       -14.0565
 152   2.0000      -0.514627       -14.0037
 153   2.0000      -0.511038       -13.9060
 154   2.0000      -0.508268       -13.8307
 155   2.0000      -0.506581       -13.7848
 156   2.0000      -0.505572       -13.7573
 157   2.0000      -0.505208       -13.7474
 158   2.0000      -0.502938       -13.6856
 159   2.0000      -0.501133       -13.6365
 160   2.0000      -0.498784       -13.5726
 161   2.0000      -0.498061       -13.5529
 162   2.0000      -0.496757       -13.5174
 163   2.0000      -0.492201       -13.3935
 164   2.0000      -0.490953       -13.3595
 165   2.0000      -0.484763       -13.1911
 166   2.0000      -0.480947       -13.0872
 167   2.0000      -0.479706       -13.0535
 168   2.0000      -0.477721       -12.9994
 169   2.0000      -0.476487       -12.9659
 170   2.0000      -0.472694       -12.8627
 171   2.0000      -0.471532       -12.8310
 172   2.0000      -0.470259       -12.7964
 173   2.0000      -0.468354       -12.7446
 174   2.0000      -0.462156       -12.5759
 175   2.0000      -0.460094       -12.5198
 176   2.0000      -0.457985       -12.4624
 177   2.0000      -0.456302       -12.4166
 178   2.0000      -0.453493       -12.3402
 179   2.0000      -0.449070       -12.2198
 180   2.0000      -0.446850       -12.1594
 181   2.0000      -0.444346       -12.0913
 182   2.0000      -0.438594       -11.9347
 183   2.0000      -0.435795       -11.8586
 184   2.0000      -0.432241       -11.7619
 185   2.0000      -0.429962       -11.6999
 186   2.0000      -0.425331       -11.5738
 187   2.0000      -0.424234       -11.5440
 188   2.0000      -0.420897       -11.4532
 189   2.0000      -0.420251       -11.4356
 190   2.0000      -0.418717       -11.3939
 191   2.0000      -0.413188       -11.2434
 192   2.0000      -0.409545       -11.1443
 193   2.0000      -0.408241       -11.1088
 194   2.0000      -0.405710       -11.0399
 195   2.0000      -0.400964       -10.9108
 196   2.0000      -0.399219       -10.8633
 197   2.0000      -0.395349       -10.7580
 198   2.0000      -0.394156       -10.7255
 199   2.0000      -0.389048       -10.5865
 200   2.0000      -0.388793       -10.5796
 201   2.0000      -0.383758       -10.4426
 202   2.0000      -0.377738       -10.2788
 203   2.0000      -0.365306        -9.9405
 204   2.0000      -0.358593        -9.7578
 205   2.0000      -0.356322        -9.6960
 206   2.0000      -0.342639        -9.3237
 207   2.0000      -0.340073        -9.2539
 208   2.0000      -0.335723        -9.1355
 209   2.0000      -0.321731        -8.7547
 210   2.0000      -0.320224        -8.7137
 211   2.0000      -0.318928        -8.6785
 212   2.0000      -0.317457        -8.6385
 213   2.0000      -0.309583        -8.4242
 214   2.0000      -0.304882        -8.2963
 215   2.0000      -0.300622        -8.1804
 216   2.0000      -0.283642        -7.7183
 217   2.0000      -0.274687        -7.4746
 218   2.0000      -0.271018        -7.3748
 219   2.0000      -0.260311        -7.0834
 220   2.0000      -0.228783        -6.2255
 221   2.0000      -0.210782        -5.7357
 222   0.0000      -0.085995        -2.3400
 223   0.0000      -0.052219        -1.4210
 224   0.0000      -0.032940        -0.8963
 225   0.0000      -0.023131        -0.6294
 226   0.0000      -0.002611        -0.0711

MULLIKEN ATOMIC CHARGES
-----------------------
   0 C :    0.047599
   1 N :   -0.048628
   2 C :   -0.011216
   3 C :   -0.017990
   4 C :   -0.006666
   5 C :    0.089600
   6 C :   -0.072799
   7 C :   -0.091292
   8 C :   -0.001120
   9 C :   -0.096079
  10 S :    0.078537
  11 C :   -0.099022
  12 C :   -0.063863
  13 C :   -0.089265
  14 C :    0.132791
  15 C :    0.057380
  16 C :   -0.076425
  17 N :   -0.146186
  18 C :    0.170706
  19 C :   -0.012600
  20 C :   -0.005387
  21 C :    0.034623
  22 C :   -0.223409
  23 C :    0.076553
  24 C :    0.200163
  25 N :   -0.119005
  26 C :    0.083345
  27 C :   -0.045698
  28 C :    0.036478
  29 C :   -0.062901
  30 C :    0.062528
  31 C :    0.004647
  32 C :   -0.004881
  33 S :    0.104114
  34 C :   -0.068952
  35 C :    0.039871
  36 C :    0.032995
  37 C :   -0.021257
  38 S :    0.112275
  39 C :    0.004606
  40 C :    0.023307
  41 C :   -0.165625
  42 C :    0.136659
  43 O :   -0.162642
  44 C :    0.017767
  45 C :   -0.095738
  46 C :    0.102768
  47 C :    0.109354
  48 C :   -0.103182
  49 C :    0.298564
  50 C :   -0.034357
  51 C :   -0.016705
  52 F :   -0.209821
  53 C :   -0.108382
  54 C :    0.049800
  55 C :    0.280009
  56 C :   -0.385450
  57 C :   -0.212830
  58 N :    0.148598
  59 C :   -0.171757
  60 N :    0.114513
  61 H :   -0.002161
  62 H :    0.123013
  63 H :   -0.029282
  64 H :   -0.019890
  65 H :    0.024235
  66 H :   -0.000769
  67 H :    0.018697
  68 H :    0.014470
  69 H :    0.008670
  70 H :   -0.008699
  71 H :   -0.010332
  72 H :    0.104892
  73 H :    0.093914
  74 H :    0.025538
  75 H :    0.009881
  76 H :   -0.012799
  77 H :   -0.006425
  78 H :   -0.024834
  79 H :    0.044300
  80 H :    0.039961
  81 H :    0.008596
  82 H :    0.025148
  83 H :    0.015306
  84 H :    0.134801
  85 H :    0.013484
  86 H :    0.009796
  87 H :   -0.007878
  88 H :   -0.008082
  89 H :   -0.011662
  90 H :   -0.016832
  91 H :   -0.015507
  92 H :   -0.013142
  93 H :    0.015502
  94 H :   -0.022553
  95 H :   -0.033096
  96 H :   -0.037361
  97 H :   -0.019857
  98 H :   -0.028064
Sum of atomic charges:   -0.0000000

LOEWDIN ATOMIC CHARGES
----------------------
   0 C :   -0.011738
   1 N :    0.100710
   2 C :   -0.046580
   3 C :   -0.049159
   4 C :   -0.080310
   5 C :   -0.047684
   6 C :   -0.043724
   7 C :   -0.048552
   8 C :   -0.025293
   9 C :   -0.168131
  10 S :    0.416965
  11 C :   -0.175429
  12 C :   -0.049463
  13 C :   -0.057660
  14 C :   -0.025320
  15 C :   -0.027215
  16 C :    0.016495
  17 N :   -0.091944
  18 C :   -0.028599
  19 C :   -0.025757
  20 C :   -0.048611
  21 C :   -0.038749
  22 C :   -0.048849
  23 C :   -0.057820
  24 C :    0.050103
  25 N :    0.040154
  26 C :    0.084390
  27 C :   -0.128033
  28 C :    0.016488
  29 C :   -0.193317
  30 C :    0.000917
  31 C :   -0.063708
  32 C :   -0.123756
  33 S :    0.408319
  34 C :   -0.223251
  35 C :   -0.021955
  36 C :   -0.052119
  37 C :   -0.115052
  38 S :    0.482626
  39 C :   -0.074412
  40 C :    0.028867
  41 C :   -0.126980
  42 C :    0.078957
  43 O :   -0.165587
  44 C :   -0.051257
  45 C :    0.021627
  46 C :   -0.023517
  47 C :   -0.000090
  48 C :   -0.054462
  49 C :    0.081668
  50 C :   -0.053824
  51 C :    0.002160
  52 F :   -0.080730
  53 C :   -0.011389
  54 C :   -0.005385
  55 C :    0.026989
  56 C :   -0.190180
  57 C :   -0.028844
  58 N :   -0.074281
  59 C :   -0.018464
  60 N :   -0.098100
  61 H :    0.020198
  62 H :    0.092445
  63 H :    0.026272
  64 H :    0.024190
  65 H :    0.034257
  66 H :    0.036695
  67 H :    0.033090
  68 H :    0.032420
  69 H :    0.026191
  70 H :    0.020688
  71 H :    0.004014
  72 H :    0.058024
  73 H :    0.056681
  74 H :    0.037444
  75 H :    0.025926
  76 H :    0.032880
  77 H :    0.021212
  78 H :    0.025105
  79 H :    0.032371
  80 H :    0.041909
  81 H :    0.027715
  82 H :    0.026727
  83 H :    0.030687
  84 H :    0.089363
  85 H :    0.033895
  86 H :    0.024269
  87 H :    0.036542
  88 H :    0.035510
  89 H :    0.032877
  90 H :    0.031227
  91 H :    0.032717
  92 H :    0.036536
  93 H :    0.041985
  94 H :    0.035027
  95 H :    0.030753
  96 H :    0.026299
  97 H :    0.032190
  98 H :    0.031519

  Mayer bond orders larger than 0.100000
B(  0-C ,  1-N ) :   1.2345 B(  0-C ,  2-C ) :   0.1058 B(  0-C ,  4-C ) :   1.4691
B(  0-C , 61-H ) :   0.9929 B(  1-N ,  2-C ) :   1.2376 B(  1-N , 62-H ) :   0.9426
B(  2-C ,  3-C ) :   1.4737 B(  2-C ,  5-C ) :   0.8343 B(  3-C ,  4-C ) :   1.3175
B(  3-C , 63-H ) :   1.0173 B(  4-C , 64-H ) :   1.0046 B(  5-C ,  6-C ) :   2.2358
B(  6-C ,  7-C ) :   1.0085 B(  7-C ,  8-C ) :   1.6862 B(  7-C , 65-H ) :   0.9532
B(  8-C ,  9-C ) :   1.1553 B(  8-C , 66-H ) :   0.9734 B(  9-C , 10-S ) :   1.1051
B(  9-C , 13-C ) :   1.5002 B( 10-S , 11-C ) :   1.0912 B( 11-C , 12-C ) :   1.4969
B( 11-C , 19-C ) :   1.1677 B( 12-C , 13-C ) :   1.3101 B( 12-C , 18-C ) :   1.0410
B( 13-C , 14-C ) :   1.0476 B( 14-C , 15-C ) :   1.0916 B( 14-C , 67-H ) :   0.9143
B( 14-C , 68-H ) :   0.9060 B( 15-C , 16-C ) :   1.0385 B( 15-C , 69-H ) :   0.9337
B( 15-C , 70-H ) :   0.9298 B( 16-C , 17-N ) :   1.0712 B( 16-C , 18-C ) :   1.0386
B( 16-C , 71-H ) :   0.9357 B( 17-N , 72-H ) :   0.9467 B( 17-N , 73-H ) :   0.9583
B( 17-N , 96-H ) :   0.1544 B( 18-C , 74-H ) :   0.8980 B( 18-C , 75-H ) :   0.9085
B( 19-C , 20-C ) :   1.6800 B( 19-C , 76-H ) :   0.9628 B( 20-C , 21-C ) :   1.1213
B( 20-C , 77-H ) :   0.9584 B( 21-C , 22-C ) :   1.8175 B( 21-C , 78-H ) :   0.9512
B( 22-C , 23-C ) :   1.0744 B( 22-C , 24-C ) :   1.0472 B( 23-C , 79-H ) :   0.9391
B( 23-C , 80-H ) :   0.9390 B( 23-C , 81-H ) :   0.9464 B( 24-C , 25-N ) :   0.9820
B( 24-C , 82-H ) :   0.9329 B( 24-C , 83-H ) :   0.9389 B( 25-N , 26-C ) :   1.3323
B( 25-N , 84-H ) :   0.9314 B( 26-C , 27-C ) :   1.4840 B( 26-C , 85-H ) :   0.9686
B( 27-C , 28-C ) :   1.2601 B( 27-C , 86-H ) :   0.9628 B( 28-C , 29-C ) :   1.4962
B( 28-C , 87-H ) :   0.9788 B( 29-C , 30-C ) :   1.2033 B( 29-C , 33-S ) :   1.0229
B( 30-C , 31-C ) :   1.5183 B( 30-C , 88-H ) :   0.9972 B( 31-C , 32-C ) :   1.2463
B( 31-C , 89-H ) :   0.9965 B( 32-C , 33-S ) :   1.1257 B( 32-C , 34-C ) :   1.3792
B( 34-C , 35-C ) :   1.2606 B( 34-C , 38-S ) :   1.0495 B( 35-C , 36-C ) :   1.5010
B( 35-C , 90-H ) :   0.9930 B( 36-C , 37-C ) :   1.2367 B( 36-C , 91-H ) :   0.9977
B( 37-C , 38-S ) :   1.1398 B( 37-C , 39-C ) :   1.3442 B( 39-C , 40-C ) :   1.4462
B( 39-C , 92-H ) :   0.9575 B( 40-C , 41-C ) :   1.3485 B( 40-C , 93-H ) :   0.9357
B( 41-C , 42-C ) :   0.9832 B( 41-C , 55-C ) :   1.1991 B( 42-C , 43-O ) :   2.2517
B( 42-C , 44-C ) :   0.9043 B( 44-C , 45-C ) :   1.4910 B( 44-C , 54-C ) :   1.2185
B( 45-C , 46-C ) :   1.1680 B( 45-C , 94-H ) :   1.0154 B( 46-C , 47-C ) :   1.2712
B( 46-C , 51-C ) :   1.2374 B( 47-C , 48-C ) :   1.2125 B( 47-C , 53-C ) :   1.1795
B( 48-C , 49-C ) :   1.4334 B( 48-C , 95-H ) :   1.0056 B( 49-C , 50-C ) :   1.2650
B( 49-C , 52-F ) :   1.0172 B( 50-C , 51-C ) :   1.4554 B( 50-C , 96-H ) :   0.9553
B( 51-C , 97-H ) :   0.9992 B( 53-C , 54-C ) :   1.4910 B( 53-C , 98-H ) :   0.9929
B( 54-C , 55-C ) :   0.9804 B( 55-C , 56-C ) :   1.4943 B( 56-C , 57-C ) :   1.1708
B( 56-C , 59-C ) :   1.1636 B( 57-C , 58-N ) :   3.0087 B( 59-C , 60-N ) :   2.9575

-----------------------------------------------------------------------------
         ABSORPTION SPECTRUM VIA TRANSITION ELECTRIC DIPOLE MOMENTS
-----------------------------------------------------------------------------
State   Energy  Wavelength   fosc         T2         TX        TY        TZ
        (cm-1)    (nm)                  (au**2)     (au)      (au)      (au)
-----------------------------------------------------------------------------
   0   12112.9    825.6   0.563015251  15.30194   1.02970  -1.02934   3.63072
   1   21216.0    471.3   0.028703518   0.44540   0.64956   0.07779  -0.13197
   2   21647.4    462.0   0.371234555   5.64572   1.84136   0.99840  -1.12175
   3   23120.2    432.5   0.273796947   3.89864  -0.14144  -1.64803   1.07826
   4   23525.6    425.1   1.122518054  15.70828  -3.40047  -0.19919   2.02618
   5   24314.1    411.3   0.167366119   2.26614  -1.03418   0.68415   0.85355
   6   25110.9    398.2   0.072592147   0.95171   0.25801  -0.81636  -0.46765
   7   26109.4    383.0   0.751113272   9.47074  -0.61781  -2.97203   0.50605
   8   27850.1    359.1   0.003759504   0.04444  -0.18581   0.09879  -0.01254
   9   29275.8    341.6   0.008280144   0.09311   0.24305  -0.14315  -0.11639
  10   29707.9    336.6   0.121602729   1.34756   0.07665   1.12816   0.26255
  11   31164.5    320.9   0.087448645   0.92378  -0.86096  -0.30180  -0.30239
  12   31427.4    318.2   0.080872142   0.84716  -0.56074  -0.72685  -0.06654
  13   32030.0    312.2   0.035112096   0.36089  -0.13633  -0.55064   0.19775
  14   32480.4    307.9   0.409407551   4.14963  -1.72763  -1.02831   0.32790
  15   32970.7    303.3   0.077491181   0.77375  -0.72010   0.06767   0.50062
  16   33187.5    301.3   0.056741157   0.56286  -0.58239  -0.39167  -0.26510
  17   33558.5    298.0   0.143338979   1.40617   0.35311   0.63934  -0.93420
  18   33725.2    296.5   0.016616070   0.16220  -0.12534  -0.36692  -0.10889
  19   34264.0    291.9   0.086002820   0.82632   0.67532   0.37192   0.48160
  20   34553.2    289.4   0.043570698   0.41513  -0.10821   0.21824  -0.59648
  21   35129.8    284.7   0.040672958   0.38116  -0.11669   0.37904  -0.47315
  22   35474.9    281.9   0.031590089   0.29316   0.40842   0.34118  -0.09972
  23   35764.7    279.6   0.087072811   0.80150  -0.44222  -0.43988   0.64222
  24   36175.6    276.4   0.096246801   0.87588  -0.65557  -0.26584   0.61274
  25   36323.1    275.3   0.039155558   0.35488   0.16654  -0.07643  -0.56684
  26   36633.6    273.0   0.210381739   1.89062   1.32343   0.37282   0.01275
  27   36691.5    272.5   0.356901027   3.20227  -0.85024  -0.03741  -1.57415
  28   37135.9    269.3   0.023317619   0.20671   0.30948   0.22181   0.24846
  29   38029.6    263.0   0.007704073   0.06669  -0.06659  -0.16693   0.18545
  30   38313.4    261.0   0.033635520   0.28902   0.25567  -0.00291   0.47291
  31   38627.5    258.9   0.098069344   0.83582   0.45379  -0.17267   0.77465
  32   39145.1    255.5   0.018328269   0.15414   0.36330  -0.05139  -0.13970
  33   39272.9    254.6   0.013212348   0.11075  -0.29386   0.05934   0.14449
  34   39429.3    253.6   0.002934046   0.02450   0.13861   0.01045   0.07194
  35   40063.6    249.6   0.021750175   0.17873  -0.13662   0.27128   0.29406

FINAL SINGLE POINT ENERGY     -3606.099925729553

DIPOLE MOMENT
-------------
                                X             Y             Z
Electronic contribution:     32.43385      35.38605     -35.99839
Nuclear contribution   :    -32.80404     -37.68643      41.63273
                        -----------------------------------------
Total Dipole Moment    :     -0.37019      -2.30038       5.63434
                        -----------------------------------------
Magnitude (a.u.)       :      6.09710
Magnitude (Debye)      :     15.49759

Rotational constants in cm-1:     0.001836     0.000432     0.000402
Rotational constants in MHz :    55.043377    12.958871    12.047596

                             ****ORCA TERMINATED NORMALLY****
TOTAL RUN TIME: 0 days 0 hours 8 minutes 40 seconds 963 msec
