                         Program Version 4.2.0 -  RELEASE  -
|  1> # ORCA input file
|  2> # SCF done       -191.215784260629          0.000615296885
|  3> ! CAM-B3LYP def2-SVP def2/J RIJCOSX Grid4 TightSCF
|  4> %maxcore 5000
|  5> %tddft
|  6>     Mode sTDDFT
|  7>     Ethresh 5.0
|  8>     maxcore 5000
|  9> end
| 10>
| 11> %pal
| 12>   nprocs 6
| 13>   end
| 14> * xyz 0 1
| 15>    C       -3.38086         0.47045         5.33965
| 16>    C       -2.94249         0.22902         4.05232
| 17>    O       -2.94102        -1.07714         3.69191
| 18>    C       -2.09323        -1.56324         2.66764
| 19>    C       -2.57290         1.30401         3.18670
| 20>    O       -2.25494         1.01355         1.87313
| 21>    C       -3.33309         1.18845         0.97078
| 22>    C       -2.54474         2.62491         3.63241
| 23>    C       -2.99099         2.86218         4.95708
| 24>    C       -3.42973         1.78605         5.80072
| 25>    N       -3.82637         2.22380         6.99820
| 26>    S       -3.65948         3.82014         7.04998
| 27>    N       -3.07920         4.04258         5.56221
| 28>    C       -2.10592         3.73917         2.83497
| 29>    C       -1.45763         3.73193         1.61569
| 30>    C       -1.19071         5.02130         1.15210
| 31>    C       -1.62803         6.01805         2.04014
| 32>    S       -2.36382         5.37225         3.43751
| 33>    C       -1.30216         7.28334         1.48257
| 34>    C       -0.66941         7.08397         0.24623
| 35>    C       -0.58862         5.65175        -0.00755
| 36>    C       -0.08896         5.03801        -1.11965
| 37>    C        0.47045         5.76313        -2.19175
| 38>    N        0.93108         6.34736        -3.06470
| 39>    C       -0.12144         3.63773        -1.28294
| 40>    N       -0.16235         2.50135        -1.43395
| 41>    C       -0.32378         8.27719        -0.38892
| 42>    C       -0.68704         9.38312         0.35712
| 43>    S       -1.46750         8.93945         1.86888
| 44>    C       -0.51230        10.74962         0.02173
| 45>    C       -0.86867        11.85664         0.76827
| 46>    C       -0.56766        13.04908         0.10941
| 47>    C        0.02359        12.84739        -1.14858
| 48>    S        0.21440        11.19258        -1.51938
| 49>    C        0.27512        14.11109        -1.74657
| 50>    C       -0.16049        15.10784        -0.86038
| 51>    C       -0.68855        14.48127         0.33815
| 52>    C       -1.17558        15.10392         1.45114
| 53>    C       -1.20194        16.50844         1.57310
| 54>    N       -1.21541        17.64967         1.68903
| 55>    C       -1.66881        14.38473         2.55889
| 56>    N       -2.07065        13.80579         3.46395
| 57>    C        0.01166        16.39662        -1.36754
| 58>    C        0.58502        16.39315        -2.62441
| 59>    S        0.91175        14.76186        -3.19271
| 60>    C        0.92532        17.49964        -3.47897
| 61>    C        0.70756        18.84315        -3.16430
| 62>    O        0.12348        19.08673        -1.96936
| 63>    C        0.35138        20.27590        -1.23422
| 64>    C        1.02144        19.89907        -4.09539
| 65>    O        0.55500        21.11418        -3.70470
| 66>    C        0.39721        22.16256        -4.63042
| 67>    C        1.67770        19.64249        -5.28193
| 68>    C        1.93473        18.29115        -5.60329
| 69>    C        1.53008        17.23119        -4.73163
| 70>    N        1.84168        16.03574        -5.21981
| 71>    S        2.58594        16.23122        -6.64102
| 72>    N        2.54948        17.83835        -6.69375
| 73>    C        2.17075        20.61738        -6.27238
| 74>    C        3.22193        21.46619        -5.98691
| 75>    O        3.63589        21.47162        -4.68571
| 76>    C        5.00514        21.63941        -4.37604
| 77>    C        3.78006        22.31595        -7.00505
| 78>    O        4.75976        23.16650        -6.59078
| 79>    C        5.37030        24.00592        -7.54219
| 80>    C        3.32503        22.25866        -8.29824
| 81>    C        2.27077        21.38841        -8.61135
| 82>    C        1.67531        20.57390        -7.59094
| 83>    N        0.66677        19.83867        -8.05463
| 84>    S        0.51049        20.12674        -9.63038
| 85>    N        1.69089        21.21131        -9.79719
| 86>    H       -3.67895        -0.35124         5.96763
| 87>    H       -1.96366        -2.62373         2.88686
| 88>    H       -1.12287        -1.06537         2.67516
| 89>    H       -2.54578        -1.45543         1.67965
| 90>    H       -3.72186         2.21088         1.00420
| 91>    H       -4.14870         0.49105         1.19155
| 92>    H       -2.92966         0.98405        -0.01931
| 93>    H       -1.17333         2.82995         1.10748
| 94>    H        0.16544         8.35482        -1.34329
| 95>    H       -1.32649        11.78156         1.73846
| 96>    H       -0.27466        17.29318        -0.85564
| 97>    H        0.18335        19.99874        -0.19205
| 98>    H       -0.35086        21.06138        -1.51699
| 99>    H        1.37215        20.63853        -1.35952
|100>    H        0.00223        21.80197        -5.58251
|101>    H        1.33622        22.69346        -4.79916
|102>    H       -0.32204        22.84283        -4.17221
|103>    H        5.64306        21.10229        -5.08073
|104>    H        5.12831        21.21352        -3.38001
|105>    H        5.28837        22.69363        -4.35975
|106>    H        4.64732        24.69239        -7.99258
|107>    H        5.86339        23.42687        -8.32843
|108>    H        6.11593        24.57628        -6.99068
|109>    H        3.73750        22.86819        -9.08327
|110> *
|111>
|112>                          ****END OF INPUT****

CARTESIAN COORDINATES (ANGSTROEM)
---------------------------------
  C     -3.380860    0.470450    5.339650
  C     -2.942490    0.229020    4.052320
  O     -2.941020   -1.077140    3.691910
  C     -2.093230   -1.563240    2.667640
  C     -2.572900    1.304010    3.186700
  O     -2.254940    1.013550    1.873130
  C     -3.333090    1.188450    0.970780
  C     -2.544740    2.624910    3.632410
  C     -2.990990    2.862180    4.957080
  C     -3.429730    1.786050    5.800720
  N     -3.826370    2.223800    6.998200
  S     -3.659480    3.820140    7.049980
  N     -3.079200    4.042580    5.562210
  C     -2.105920    3.739170    2.834970
  C     -1.457630    3.731930    1.615690
  C     -1.190710    5.021300    1.152100
  C     -1.628030    6.018050    2.040140
  S     -2.363820    5.372250    3.437510
  C     -1.302160    7.283340    1.482570
  C     -0.669410    7.083970    0.246230
  C     -0.588620    5.651750   -0.007550
  C     -0.088960    5.038010   -1.119650
  C      0.470450    5.763130   -2.191750
  N      0.931080    6.347360   -3.064700
  C     -0.121440    3.637730   -1.282940
  N     -0.162350    2.501350   -1.433950
  C     -0.323780    8.277190   -0.388920
  C     -0.687040    9.383120    0.357120
  S     -1.467500    8.939450    1.868880
  C     -0.512300   10.749620    0.021730
  C     -0.868670   11.856640    0.768270
  C     -0.567660   13.049080    0.109410
  C      0.023590   12.847390   -1.148580
  S      0.214400   11.192580   -1.519380
  C      0.275120   14.111090   -1.746570
  C     -0.160490   15.107840   -0.860380
  C     -0.688550   14.481270    0.338150
  C     -1.175580   15.103920    1.451140
  C     -1.201940   16.508440    1.573100
  N     -1.215410   17.649670    1.689030
  C     -1.668810   14.384730    2.558890
  N     -2.070650   13.805790    3.463950
  C      0.011660   16.396620   -1.367540
  C      0.585020   16.393150   -2.624410
  S      0.911750   14.761860   -3.192710
  C      0.925320   17.499640   -3.478970
  C      0.707560   18.843150   -3.164300
  O      0.123480   19.086730   -1.969360
  C      0.351380   20.275900   -1.234220
  C      1.021440   19.899070   -4.095390
  O      0.555000   21.114180   -3.704700
  C      0.397210   22.162560   -4.630420
  C      1.677700   19.642490   -5.281930
  C      1.934730   18.291150   -5.603290
  C      1.530080   17.231190   -4.731630
  N      1.841680   16.035740   -5.219810
  S      2.585940   16.231220   -6.641020
  N      2.549480   17.838350   -6.693750
  C      2.170750   20.617380   -6.272380
  C      3.221930   21.466190   -5.986910
  O      3.635890   21.471620   -4.685710
  C      5.005140   21.639410   -4.376040
  C      3.780060   22.315950   -7.005050
  O      4.759760   23.166500   -6.590780
  C      5.370300   24.005920   -7.542190
  C      3.325030   22.258660   -8.298240
  C      2.270770   21.388410   -8.611350
  C      1.675310   20.573900   -7.590940
  N      0.666770   19.838670   -8.054630
  S      0.510490   20.126740   -9.630380
  N      1.690890   21.211310   -9.797190
  H     -3.678950   -0.351240    5.967630
  H     -1.963660   -2.623730    2.886860
  H     -1.122870   -1.065370    2.675160
  H     -2.545780   -1.455430    1.679650
  H     -3.721860    2.210880    1.004200
  H     -4.148700    0.491050    1.191550
  H     -2.929660    0.984050   -0.019310
  H     -1.173330    2.829950    1.107480
  H      0.165440    8.354820   -1.343290
  H     -1.326490   11.781560    1.738460
  H     -0.274660   17.293180   -0.855640
  H      0.183350   19.998740   -0.192050
  H     -0.350860   21.061380   -1.516990
  H      1.372150   20.638530   -1.359520
  H      0.002230   21.801970   -5.582510
  H      1.336220   22.693460   -4.799160
  H     -0.322040   22.842830   -4.172210
  H      5.643060   21.102290   -5.080730
  H      5.128310   21.213520   -3.380010
  H      5.288370   22.693630   -4.359750
  H      4.647320   24.692390   -7.992580
  H      5.863390   23.426870   -8.328430
  H      6.115930   24.576280   -6.990680
  H      3.737500   22.868190   -9.083270

 Total Charge           Charge          ....    0
 Multiplicity           Mult            ....    1
 Number of Electrons    NEL             ....  542
 Basis Dimension        Dim             .... 1142

ORBITAL ENERGIES
----------------

  NO   OCC          E(Eh)            E(eV)
   0   2.0000     -89.018032     -2422.3038
   1   2.0000     -89.009934     -2422.0834
   2   2.0000     -89.008294     -2422.0388
   3   2.0000     -88.979907     -2421.2664
   4   2.0000     -88.977656     -2421.2051
   5   2.0000     -88.972027     -2421.0519
   6   2.0000     -88.963598     -2420.8226
   7   2.0000     -19.266173      -524.2592
   8   2.0000     -19.255691      -523.9740
   9   2.0000     -19.250945      -523.8448
  10   2.0000     -19.249686      -523.8106
  11   2.0000     -19.246622      -523.7272
  12   2.0000     -19.245449      -523.6953
  13   2.0000     -14.436143      -392.8274
  14   2.0000     -14.429646      -392.6506
  15   2.0000     -14.428118      -392.6091
  16   2.0000     -14.426460      -392.5639
  17   2.0000     -14.424747      -392.5173
  18   2.0000     -14.424418      -392.5084
  19   2.0000     -14.422022      -392.4432
  20   2.0000     -14.421026      -392.4161
  21   2.0000     -14.417759      -392.3272
  22   2.0000     -14.417498      -392.3201
  23   2.0000     -10.356034      -281.8020
  24   2.0000     -10.352767      -281.7131
  25   2.0000     -10.352654      -281.7100
  26   2.0000     -10.350534      -281.6524
  27   2.0000     -10.348846      -281.6064
  28   2.0000     -10.347851      -281.5794
  29   2.0000     -10.347538      -281.5708
  30   2.0000     -10.346685      -281.5476
  31   2.0000     -10.341715      -281.4124
  32   2.0000     -10.338009      -281.3115
  33   2.0000     -10.336930      -281.2822
  34   2.0000     -10.323140      -280.9069
  35   2.0000     -10.323128      -280.9066
  36   2.0000     -10.322926      -280.9011
  37   2.0000     -10.322046      -280.8771
  38   2.0000     -10.320132      -280.8251
  39   2.0000     -10.320034      -280.8224
  40   2.0000     -10.319525      -280.8085
  41   2.0000     -10.319368      -280.8043
  42   2.0000     -10.319065      -280.7960
  43   2.0000     -10.318769      -280.7880
  44   2.0000     -10.318437      -280.7790
  45   2.0000     -10.317069      -280.7417
  46   2.0000     -10.315969      -280.7118
  47   2.0000     -10.315832      -280.7081
  48   2.0000     -10.314542      -280.6730
  49   2.0000     -10.313388      -280.6416
  50   2.0000     -10.313382      -280.6414
  51   2.0000     -10.313141      -280.6348
  52   2.0000     -10.313111      -280.6340
  53   2.0000     -10.311350      -280.5861
  54   2.0000     -10.311307      -280.5849
  55   2.0000     -10.305086      -280.4156
  56   2.0000     -10.304324      -280.3949
  57   2.0000     -10.303033      -280.3598
  58   2.0000     -10.292697      -280.0785
  59   2.0000     -10.291718      -280.0519
  60   2.0000     -10.291121      -280.0356
  61   2.0000     -10.290934      -280.0306
  62   2.0000     -10.290101      -280.0079
  63   2.0000     -10.288418      -279.9621
  64   2.0000     -10.288002      -279.9508
  65   2.0000     -10.285234      -279.8755
  66   2.0000     -10.284649      -279.8595
  67   2.0000     -10.281970      -279.7866
  68   2.0000     -10.278223      -279.6847
  69   2.0000     -10.273244      -279.5492
  70   2.0000     -10.271577      -279.5038
  71   2.0000      -8.109743      -220.6773
  72   2.0000      -8.101681      -220.4579
  73   2.0000      -8.100283      -220.4199
  74   2.0000      -8.074312      -219.7132
  75   2.0000      -8.072066      -219.6521
  76   2.0000      -8.065121      -219.4631
  77   2.0000      -8.056505      -219.2286
  78   2.0000      -6.081013      -165.4728
  79   2.0000      -6.073323      -165.2635
  80   2.0000      -6.073097      -165.2574
  81   2.0000      -6.071981      -165.2270
  82   2.0000      -6.071531      -165.2148
  83   2.0000      -6.065450      -165.0493
  84   2.0000      -6.063913      -165.0075
  85   2.0000      -6.063573      -164.9982
  86   2.0000      -6.062485      -164.9686
  87   2.0000      -6.043601      -164.4547
  88   2.0000      -6.041339      -164.3932
  89   2.0000      -6.039440      -164.3415
  90   2.0000      -6.037192      -164.2803
  91   2.0000      -6.036605      -164.2644
  92   2.0000      -6.034528      -164.2078
  93   2.0000      -6.034387      -164.2040
  94   2.0000      -6.029904      -164.0820
  95   2.0000      -6.027637      -164.0203
  96   2.0000      -6.025968      -163.9749
  97   2.0000      -6.021281      -163.8474
  98   2.0000      -6.019002      -163.7854
  99   2.0000      -1.174704       -31.9653
 100   2.0000      -1.169148       -31.8141
 101   2.0000      -1.160999       -31.5924
 102   2.0000      -1.147135       -31.2151
 103   2.0000      -1.142892       -31.0997
 104   2.0000      -1.137909       -30.9641
 105   2.0000      -1.118909       -30.4471
 106   2.0000      -1.113379       -30.2966
 107   2.0000      -1.109597       -30.1937
 108   2.0000      -1.032562       -28.0974
 109   2.0000      -1.026746       -27.9392
 110   2.0000      -1.012743       -27.5581
 111   2.0000      -1.008434       -27.4409
 112   2.0000      -0.999320       -27.1929
 113   2.0000      -0.995441       -27.0873
 114   2.0000      -0.991770       -26.9874
 115   2.0000      -0.982483       -26.7347
 116   2.0000      -0.975147       -26.5351
 117   2.0000      -0.970885       -26.4191
 118   2.0000      -0.963174       -26.2093
 119   2.0000      -0.958884       -26.0926
 120   2.0000      -0.954090       -25.9621
 121   2.0000      -0.945516       -25.7288
 122   2.0000      -0.941535       -25.6205
 123   2.0000      -0.936447       -25.4820
 124   2.0000      -0.905349       -24.6358
 125   2.0000      -0.891961       -24.2715
 126   2.0000      -0.875551       -23.8250
 127   2.0000      -0.864636       -23.5279
 128   2.0000      -0.860559       -23.4170
 129   2.0000      -0.859180       -23.3795
 130   2.0000      -0.858031       -23.3482
 131   2.0000      -0.853728       -23.2311
 132   2.0000      -0.852454       -23.1965
 133   2.0000      -0.844786       -22.9878
 134   2.0000      -0.837751       -22.7964
 135   2.0000      -0.831886       -22.6368
 136   2.0000      -0.812823       -22.1180
 137   2.0000      -0.809509       -22.0279
 138   2.0000      -0.801390       -21.8069
 139   2.0000      -0.795998       -21.6602
 140   2.0000      -0.785251       -21.3678
 141   2.0000      -0.781576       -21.2678
 142   2.0000      -0.780786       -21.2463
 143   2.0000      -0.767091       -20.8736
 144   2.0000      -0.761036       -20.7088
 145   2.0000      -0.758449       -20.6384
 146   2.0000      -0.740088       -20.1388
 147   2.0000      -0.722594       -19.6628
 148   2.0000      -0.708990       -19.2926
 149   2.0000      -0.702415       -19.1137
 150   2.0000      -0.697306       -18.9747
 151   2.0000      -0.695783       -18.9332
 152   2.0000      -0.692550       -18.8453
 153   2.0000      -0.688559       -18.7366
 154   2.0000      -0.684349       -18.6221
 155   2.0000      -0.682083       -18.5604
 156   2.0000      -0.676500       -18.4085
 157   2.0000      -0.671126       -18.2623
 158   2.0000      -0.661610       -18.0033
 159   2.0000      -0.658616       -17.9218
 160   2.0000      -0.640317       -17.4239
 161   2.0000      -0.631606       -17.1869
 162   2.0000      -0.631190       -17.1755
 163   2.0000      -0.624487       -16.9931
 164   2.0000      -0.619093       -16.8464
 165   2.0000      -0.618353       -16.8262
 166   2.0000      -0.615558       -16.7502
 167   2.0000      -0.612024       -16.6540
 168   2.0000      -0.611255       -16.6331
 169   2.0000      -0.608432       -16.5563
 170   2.0000      -0.607426       -16.5289
 171   2.0000      -0.601619       -16.3709
 172   2.0000      -0.599343       -16.3089
 173   2.0000      -0.597314       -16.2537
 174   2.0000      -0.592246       -16.1158
 175   2.0000      -0.587436       -15.9850
 176   2.0000      -0.577033       -15.7019
 177   2.0000      -0.568610       -15.4727
 178   2.0000      -0.566923       -15.4268
 179   2.0000      -0.557262       -15.1639
 180   2.0000      -0.552665       -15.0388
 181   2.0000      -0.552061       -15.0223
 182   2.0000      -0.545624       -14.8472
 183   2.0000      -0.544356       -14.8127
 184   2.0000      -0.541457       -14.7338
 185   2.0000      -0.541180       -14.7263
 186   2.0000      -0.539255       -14.6739
 187   2.0000      -0.537106       -14.6154
 188   2.0000      -0.536211       -14.5911
 189   2.0000      -0.534951       -14.5568
 190   2.0000      -0.533868       -14.5273
 191   2.0000      -0.531972       -14.4757
 192   2.0000      -0.530827       -14.4445
 193   2.0000      -0.529258       -14.4018
 194   2.0000      -0.526192       -14.3184
 195   2.0000      -0.522227       -14.2105
 196   2.0000      -0.517867       -14.0919
 197   2.0000      -0.510926       -13.9030
 198   2.0000      -0.510074       -13.8798
 199   2.0000      -0.508944       -13.8491
 200   2.0000      -0.503276       -13.6948
 201   2.0000      -0.497635       -13.5413
 202   2.0000      -0.497193       -13.5293
 203   2.0000      -0.496331       -13.5058
 204   2.0000      -0.492010       -13.3883
 205   2.0000      -0.490049       -13.3349
 206   2.0000      -0.486353       -13.2343
 207   2.0000      -0.482963       -13.1421
 208   2.0000      -0.479706       -13.0535
 209   2.0000      -0.477638       -12.9972
 210   2.0000      -0.470536       -12.8039
 211   2.0000      -0.470100       -12.7921
 212   2.0000      -0.466469       -12.6933
 213   2.0000      -0.464843       -12.6490
 214   2.0000      -0.462917       -12.5966
 215   2.0000      -0.458938       -12.4883
 216   2.0000      -0.456879       -12.4323
 217   2.0000      -0.455385       -12.3917
 218   2.0000      -0.454009       -12.3542
 219   2.0000      -0.453752       -12.3472
 220   2.0000      -0.450806       -12.2670
 221   2.0000      -0.450264       -12.2523
 222   2.0000      -0.449367       -12.2279
 223   2.0000      -0.446536       -12.1509
 224   2.0000      -0.441642       -12.0177
 225   2.0000      -0.439371       -11.9559
 226   2.0000      -0.437620       -11.9082
 227   2.0000      -0.434464       -11.8224
 228   2.0000      -0.432954       -11.7813
 229   2.0000      -0.432530       -11.7697
 230   2.0000      -0.432182       -11.7603
 231   2.0000      -0.430097       -11.7035
 232   2.0000      -0.429076       -11.6758
 233   2.0000      -0.428516       -11.6605
 234   2.0000      -0.427168       -11.6238
 235   2.0000      -0.425014       -11.5652
 236   2.0000      -0.422029       -11.4840
 237   2.0000      -0.417659       -11.3651
 238   2.0000      -0.416548       -11.3348
 239   2.0000      -0.414320       -11.2742
 240   2.0000      -0.411069       -11.1858
 241   2.0000      -0.406167       -11.0524
 242   2.0000      -0.396876       -10.7996
 243   2.0000      -0.393639       -10.7114
 244   2.0000      -0.393081       -10.6963
 245   2.0000      -0.391306       -10.6480
 246   2.0000      -0.390588       -10.6285
 247   2.0000      -0.388983       -10.5848
 248   2.0000      -0.388647       -10.5756
 249   2.0000      -0.386675       -10.5220
 250   2.0000      -0.384367       -10.4592
 251   2.0000      -0.376211       -10.2372
 252   2.0000      -0.372749       -10.1430
 253   2.0000      -0.371697       -10.1144
 254   2.0000      -0.359267        -9.7762
 255   2.0000      -0.356809        -9.7093
 256   2.0000      -0.356151        -9.6914
 257   2.0000      -0.347885        -9.4664
 258   2.0000      -0.345975        -9.4145
 259   2.0000      -0.336230        -9.1493
 260   2.0000      -0.330279        -8.9874
 261   2.0000      -0.320421        -8.7191
 262   2.0000      -0.309645        -8.4259
 263   2.0000      -0.303949        -8.2709
 264   2.0000      -0.302432        -8.2296
 265   2.0000      -0.296417        -8.0659
 266   2.0000      -0.292099        -7.9484
 267   2.0000      -0.287801        -7.8315
 268   2.0000      -0.283521        -7.7150
 269   2.0000      -0.257460        -7.0058
 270   2.0000      -0.226185        -6.1548
 271   0.0000      -0.094709        -2.5772
 272   0.0000      -0.088004        -2.3947
 273   0.0000      -0.060033        -1.6336
 274   0.0000      -0.051885        -1.4119
 275   0.0000      -0.043613        -1.1868

MULLIKEN ATOMIC CHARGES
-----------------------
   0 C :   -0.152781
   1 C :    0.224218
   2 O :   -0.314394
   3 C :    0.200027
   4 C :   -0.024308
   5 O :   -0.358542
   6 C :    0.188135
   7 C :    0.220458
   8 C :   -0.052243
   9 C :    0.119656
  10 N :   -0.272238
  11 S :    0.504190
  12 N :   -0.335450
  13 C :   -0.175771
  14 C :   -0.060334
  15 C :    0.014968
  16 C :   -0.072583
  17 S :    0.212469
  18 C :   -0.108134
  19 C :    0.016167
  20 C :    0.303825
  21 C :   -0.309276
  22 C :   -0.191702
  23 N :    0.169214
  24 C :   -0.188053
  25 N :    0.163414
  26 C :   -0.068864
  27 C :   -0.049664
  28 S :    0.190695
  29 C :   -0.056775
  30 C :   -0.064819
  31 C :    0.010612
  32 C :   -0.102576
  33 S :    0.187680
  34 C :   -0.075341
  35 C :    0.021585
  36 C :    0.306509
  37 C :   -0.309767
  38 C :   -0.187681
  39 N :    0.163111
  40 C :   -0.193692
  41 N :    0.165664
  42 C :   -0.053442
  43 C :   -0.147880
  44 S :    0.201966
  45 C :    0.143880
  46 C :    0.087949
  47 O :   -0.317081
  48 C :    0.209417
  49 C :    0.120767
  50 O :   -0.328133
  51 C :    0.220009
  52 C :   -0.013229
  53 C :    0.009225
  54 C :   -0.011557
  55 N :   -0.344805
  56 S :    0.494025
  57 N :   -0.266411
  58 C :   -0.110677
  59 C :    0.120427
  60 O :   -0.322826
  61 C :    0.201885
  62 C :    0.240341
  63 O :   -0.322629
  64 C :    0.177874
  65 C :   -0.229273
  66 C :    0.089821
  67 C :    0.034139
  68 N :   -0.274339
  69 S :    0.477638
  70 N :   -0.271312
  71 H :   -0.025977
  72 H :    0.030405
  73 H :    0.030308
  74 H :    0.016135
  75 H :    0.033625
  76 H :    0.023565
  77 H :    0.051166
  78 H :    0.019883
  79 H :    0.008778
  80 H :    0.007758
  81 H :    0.004802
  82 H :    0.042645
  83 H :    0.029001
  84 H :    0.018460
  85 H :    0.032641
  86 H :    0.027728
  87 H :    0.030727
  88 H :    0.017709
  89 H :    0.028815
  90 H :    0.030434
  91 H :    0.029610
  92 H :    0.031715
  93 H :    0.040798
  94 H :   -0.034109
Sum of atomic charges:   -0.0000000

LOEWDIN ATOMIC CHARGES
----------------------
   0 C :   -0.056358
   1 C :    0.051043
   2 O :   -0.102345
   3 C :    0.081552
   4 C :    0.025970
   5 O :   -0.124822
   6 C :    0.078670
   7 C :   -0.055058
   8 C :   -0.058950
   9 C :   -0.050143
  10 N :   -0.289436
  11 S :    0.634194
  12 N :   -0.313122
  13 C :   -0.168658
  14 C :   -0.025642
  15 C :   -0.084015
  16 C :   -0.184470
  17 S :    0.518979
  18 C :   -0.182046
  19 C :   -0.068592
  20 C :    0.087000
  21 C :   -0.112218
  22 C :   -0.016991
  23 N :   -0.040370
  24 C :   -0.014162
  25 N :   -0.043363
  26 C :   -0.044417
  27 C :   -0.176996
  28 S :    0.481033
  29 C :   -0.186573
  30 C :   -0.039169
  31 C :   -0.074783
  32 C :   -0.171311
  33 S :    0.479505
  34 C :   -0.196204
  35 C :   -0.080018
  36 C :    0.088678
  37 C :   -0.114476
  38 C :   -0.011585
  39 N :   -0.046210
  40 C :   -0.016723
  41 N :   -0.044253
  42 C :   -0.029616
  43 C :   -0.154938
  44 S :    0.515812
  45 C :   -0.076546
  46 C :    0.060805
  47 O :   -0.083780
  48 C :    0.083372
  49 C :    0.055042
  50 O :   -0.085374
  51 C :    0.083467
  52 C :   -0.066475
  53 C :   -0.038233
  54 C :   -0.051613
  55 N :   -0.317682
  56 S :    0.617733
  57 N :   -0.282057
  58 C :   -0.051865
  59 C :    0.046310
  60 O :   -0.106519
  61 C :    0.079206
  62 C :    0.042623
  63 O :   -0.094136
  64 C :    0.079541
  65 C :   -0.081960
  66 C :   -0.054044
  67 C :   -0.051613
  68 N :   -0.289040
  69 S :    0.620160
  70 N :   -0.296277
  71 H :    0.042055
  72 H :    0.023214
  73 H :    0.019906
  74 H :    0.014042
  75 H :    0.017279
  76 H :    0.015422
  77 H :    0.031498
  78 H :    0.038081
  79 H :    0.034345
  80 H :    0.034287
  81 H :    0.035210
  82 H :    0.025926
  83 H :    0.017524
  84 H :    0.016667
  85 H :    0.023814
  86 H :    0.019544
  87 H :    0.025492
  88 H :    0.016166
  89 H :    0.023140
  90 H :    0.014179
  91 H :    0.019336
  92 H :    0.019645
  93 H :    0.030325
  94 H :    0.037457

  Mayer bond orders larger than 0.100000
B(  0-C ,  1-C ) :   1.4235 B(  0-C ,  7-C ) :   0.1193 B(  0-C ,  9-C ) :   1.1467
B(  0-C , 71-H ) :   1.0545 B(  1-C ,  2-O ) :   1.1608 B(  1-C ,  4-C ) :   1.1528
B(  2-O ,  3-C ) :   0.9349 B(  3-C , 72-H ) :   0.9781 B(  3-C , 73-H ) :   0.9733
B(  3-C , 74-H ) :   0.9756 B(  4-C ,  5-O ) :   1.1175 B(  4-C ,  7-C ) :   1.4367
B(  5-O ,  6-C ) :   0.9119 B(  6-C , 75-H ) :   0.9667 B(  6-C , 76-H ) :   0.9670
B(  6-C , 77-H ) :   0.9815 B(  7-C ,  8-C ) :   1.1440 B(  7-C , 13-C ) :   1.0967
B(  8-C ,  9-C ) :   1.1630 B(  8-C , 12-N ) :   1.4991 B(  9-C , 10-N ) :   1.5062
B( 10-N , 11-S ) :   1.2721 B( 10-N , 12-N ) :   0.1495 B( 11-S , 12-N ) :   1.2376
B( 13-C , 14-C ) :   1.4536 B( 13-C , 17-S ) :   1.1089 B( 14-C , 15-C ) :   1.2588
B( 14-C , 78-H ) :   0.9943 B( 15-C , 16-C ) :   1.4274 B( 15-C , 20-C ) :   1.0005
B( 16-C , 17-S ) :   1.1077 B( 16-C , 18-C ) :   1.1743 B( 18-C , 19-C ) :   1.4550
B( 18-C , 28-S ) :   1.1153 B( 19-C , 20-C ) :   0.9897 B( 19-C , 26-C ) :   1.2939
B( 20-C , 21-C ) :   1.7013 B( 21-C , 22-C ) :   1.1345 B( 21-C , 24-C ) :   1.1381
B( 22-C , 23-N ) :   2.9935 B( 24-C , 25-N ) :   2.9869 B( 26-C , 27-C ) :   1.4634
B( 26-C , 79-H ) :   0.9864 B( 27-C , 28-S ) :   1.1100 B( 27-C , 29-C ) :   1.1653
B( 29-C , 30-C ) :   1.4655 B( 29-C , 33-S ) :   1.1011 B( 30-C , 31-C ) :   1.2958
B( 30-C , 80-H ) :   0.9858 B( 31-C , 32-C ) :   1.4490 B( 31-C , 36-C ) :   0.9901
B( 32-C , 33-S ) :   1.1238 B( 32-C , 34-C ) :   1.1735 B( 34-C , 35-C ) :   1.4317
B( 34-C , 44-S ) :   1.0901 B( 35-C , 36-C ) :   1.0005 B( 35-C , 42-C ) :   1.2442
B( 36-C , 37-C ) :   1.6990 B( 37-C , 38-C ) :   1.1367 B( 37-C , 40-C ) :   1.1344
B( 38-C , 39-N ) :   2.9961 B( 40-C , 41-N ) :   2.9937 B( 42-C , 43-C ) :   1.4572
B( 42-C , 81-H ) :   0.9975 B( 43-C , 44-S ) :   1.1146 B( 43-C , 45-C ) :   1.1190
B( 45-C , 46-C ) :   1.4590 B( 45-C , 52-C ) :   0.1045 B( 45-C , 54-C ) :   1.1583
B( 46-C , 47-O ) :   1.2153 B( 46-C , 49-C ) :   1.0853 B( 47-O , 48-C ) :   0.9109
B( 48-C , 82-H ) :   0.9737 B( 48-C , 83-H ) :   0.9759 B( 48-C , 84-H ) :   0.9747
B( 49-C , 50-O ) :   1.1875 B( 49-C , 52-C ) :   1.4495 B( 50-O , 51-C ) :   0.9374
B( 51-C , 85-H ) :   0.9586 B( 51-C , 86-H ) :   0.9690 B( 51-C , 87-H ) :   0.9741
B( 52-C , 53-C ) :   1.2574 B( 52-C , 58-C ) :   0.8716 B( 53-C , 54-C ) :   1.1579
B( 53-C , 57-N ) :   1.5621 B( 54-C , 55-N ) :   1.5087 B( 55-N , 56-S ) :   1.2194
B( 55-N , 57-N ) :   0.1420 B( 56-S , 57-N ) :   1.2507 B( 58-C , 59-C ) :   1.5929
B( 58-C , 65-C ) :   0.1213 B( 58-C , 67-C ) :   1.2475 B( 59-C , 60-O ) :   1.1985
B( 59-C , 62-C ) :   1.1307 B( 60-O , 61-C ) :   0.9318 B( 61-C , 88-H ) :   0.9735
B( 61-C , 89-H ) :   0.9787 B( 61-C , 90-H ) :   0.9735 B( 62-C , 63-O ) :   1.1439
B( 62-C , 65-C ) :   1.3821 B( 63-O , 64-C ) :   0.9571 B( 64-C , 91-H ) :   0.9691
B( 64-C , 92-H ) :   0.9694 B( 64-C , 93-H ) :   0.9776 B( 65-C , 66-C ) :   1.1098
B( 65-C , 94-H ) :   1.0488 B( 66-C , 67-C ) :   1.1744 B( 66-C , 70-N ) :   1.5391
B( 67-C , 68-N ) :   1.5382 B( 68-N , 69-S ) :   1.2522 B( 68-N , 70-N ) :   0.1489
B( 69-S , 70-N ) :   1.2544

-----------------------------------------------------------------------------
         ABSORPTION SPECTRUM VIA TRANSITION ELECTRIC DIPOLE MOMENTS
-----------------------------------------------------------------------------
State   Energy  Wavelength   fosc         T2         TX        TY        TZ
        (cm-1)    (nm)                  (au**2)     (au)      (au)      (au)
-----------------------------------------------------------------------------
   0   11310.9    884.1   0.278215277   8.09762  -0.56425  -2.53802   1.15658
   1   11763.7    850.1   0.000602123   0.01685   0.00435  -0.09264   0.09083
   2   20796.7    480.8   0.372308008   5.89365   0.51912   2.09593  -1.10962
   3   21696.6    460.9   0.776345920  11.77984  -0.84442  -2.87105   1.68043
   4   22786.7    438.9   0.242180409   3.49892  -0.52333  -1.43313   1.08222
   5   23187.7    431.3   0.152938872   2.17138  -0.24342  -1.26163   0.72139
   6   26993.1    370.5   0.134970784   1.64612   0.32691   1.08577  -0.60029
   7   27126.1    368.6   0.226317697   2.74667  -0.23364  -1.53282   0.58527
   8   28020.7    356.9   0.133583014   1.56945  -0.00189   1.25270  -0.01379
   9   28357.4    352.6   0.271081893   3.14709  -0.24252   1.63789   0.63685
  10   28764.9    347.6   0.123895836   1.41798  -0.47544   0.63330   0.88931
  11   29845.8    335.1   0.010873254   0.11994  -0.22261   0.14635   0.22127
  12   30241.9    330.7   0.171557009   1.86756   0.50910  -0.03918  -1.26761
  13   30542.0    327.4   0.094279518   1.01624  -0.24152  -0.93792   0.27967
  14   31496.0    317.5   0.050413127   0.52694  -0.24679  -0.49150   0.47378
  15   31598.6    316.5   0.664286409   6.92090   1.12655   0.64572  -2.28798
  16   32276.6    309.8   0.134447596   1.37133  -0.23527   1.09564   0.33993
  17   32389.8    308.7   0.360675395   3.66593  -0.68221   0.71347   1.64057
  18   32811.1    304.8   0.123190902   1.23604   0.22948  -1.03304  -0.34089
  19   33102.9    302.1   0.349030907   3.47115  -0.24234   1.69400   0.73675
  20   33546.0    298.1   0.048541341   0.47637  -0.04519  -0.43728  -0.53209
  21   33697.3    296.8   0.027858516   0.27217   0.11351  -0.10829  -0.49755
  22   34069.3    293.5   0.045369439   0.43840   0.43072  -0.45566  -0.21274
  23   34229.6    292.1   0.212378554   2.04261  -0.40321   0.80458   1.11026
  24   34406.4    290.6   0.001095221   0.01048   0.08622   0.03777   0.04022
  25   34730.5    287.9   0.105720630   1.00213  -0.26245   0.78164   0.56771
  26   35047.4    285.3   0.069380320   0.65171   0.12277   0.71756   0.34893
  27   35431.2    282.2   0.108146746   1.00486  -0.91436   0.23206   0.33903
  28   35607.9    280.8   0.077704925   0.71842  -0.47882  -0.46371   0.52356
  29   35805.6    279.3   0.016432383   0.15109  -0.14030   0.18750   0.31024
  30   36543.1    273.6   0.029913595   0.26949  -0.27397  -0.25408   0.36038
  31   36691.2    272.5   0.015086404   0.13536  -0.36739   0.00171  -0.01970
  32   36853.8    271.3   0.195333156   1.74489  -0.80736  -0.58109  -0.86914
  33   37000.3    270.3   0.035405738   0.31502  -0.31715   0.08881  -0.45448
  34   37085.7    269.6   0.011624550   0.10319  -0.19583  -0.18125   0.17886
  35   37434.0    267.1   0.011392747   0.10019  -0.04806  -0.18745  -0.25049
  36   37537.3    266.4   0.012115662   0.10626  -0.10881  -0.00271   0.30726
  37   37715.7    265.1   0.192332076   1.67882   0.09276   0.43151  -1.21820
  38   38068.4    262.7   0.150204600   1.29896  -0.54208  -0.63866  -0.77280
  39   38108.5    262.4   0.014458824   0.12491   0.27859   0.19541  -0.09545
  40   38198.2    261.8   0.003717525   0.03204   0.15043   0.08956  -0.03727
  41   38290.7    261.2   0.002656627   0.02284   0.12006   0.09134   0.00918
  42   38489.5    259.8   0.000944465   0.00808   0.02932   0.08489  -0.00360
  43   38661.9    258.7   0.003711217   0.03160   0.12608   0.07657   0.09921
  44   38847.2    257.4   0.059875570   0.50742  -0.21919  -0.65902   0.15834
  45   39539.0    252.9   0.139373536   1.16046   0.32212   0.65817  -0.78963
  46   39758.0    251.5   0.055519156   0.45972  -0.14670  -0.62893   0.20650
  47   40009.1    249.9   0.084292936   0.69360  -0.30278  -0.56501   0.53168

FINAL SINGLE POINT ENERGY     -5625.155109243717

DIPOLE MOMENT
-------------
                                X             Y             Z
Electronic contribution:    -15.97831     -31.33579      13.31926
Nuclear contribution   :     17.34061      34.00389     -14.71423
                        -----------------------------------------
Total Dipole Moment    :      1.36230       2.66810      -1.39497
                        -----------------------------------------
Magnitude (a.u.)       :      3.30463
Magnitude (Debye)      :      8.39970

Rotational constants in cm-1:     0.002428     0.000212     0.000199
Rotational constants in MHz :    72.784384     6.348719     5.961774

                             ****ORCA TERMINATED NORMALLY****
TOTAL RUN TIME: 0 days 0 hours 14 minutes 26 seconds 423 msec
