                         Program Version 4.2.0 -  RELEASE  -
|  1> # ORCA input file
|  2> # SCF done       -163.694778662814          0.000824711465
|  3> ! CAM-B3LYP def2-SVP def2/J RIJCOSX Grid4 TightSCF
|  4> %maxcore 5000
|  5> %tddft
|  6>     Mode sTDDFT
|  7>     Ethresh 5.0
|  8>     maxcore 5000
|  9> end
| 10>
| 11> %pal
| 12>   nprocs 6
| 13>   end
| 14> * xyz 0 1
| 15>    C        2.02294         0.29006         3.31096
| 16>    C        2.60641         0.19666         2.07724
| 17>    C        2.64113        -1.00742         1.35595
| 18>    C        2.08882        -2.17833         1.84268
| 19>    C        1.47546        -2.11109         3.12708
| 20>    C        1.44436        -0.86926         3.86071
| 21>    N        0.84139        -0.94875         5.04274
| 22>   Se        0.28192        -2.58207         5.29754
| 23>    N        0.89888        -3.12901         3.74904
| 24>    C        2.11069        -3.41681         1.11532
| 25>    C        2.65388        -3.65110        -0.13396
| 26>    C        2.48759        -4.97492        -0.54086
| 27>    C        1.81078        -5.75346         0.41340
| 28>    S        1.38357        -4.85674         1.80245
| 29>    C        1.68762        -7.07346        -0.09671
| 30>    C        2.28401        -7.12419        -1.36699
| 31>    C        2.80883        -5.80505        -1.68799
| 32>    C        3.46121        -5.43260        -2.82695
| 33>    C        3.71277        -6.33887        -3.87802
| 34>    N        3.91796        -7.07526        -4.73278
| 35>    C        3.92624        -4.11625        -3.02666
| 36>    N        4.30376        -3.04609        -3.19212
| 37>    C        2.20721        -8.38537        -1.95612
| 38>    C        1.55691        -9.29609        -1.14387
| 39>    S        1.03361        -8.57949         0.37433
| 40>    C        1.29444       -10.66058        -1.42548
| 41>    C        0.65283       -11.58908        -0.62687
| 42>    C        0.57189       -12.83898        -1.24277
| 43>    C        1.15667       -12.85703        -2.51965
| 44>    S        1.80746       -11.34275        -2.96341
| 45>    C        1.02174       -14.15915        -3.06227
| 46>    C        0.35233       -14.96806        -2.12938
| 47>    C        0.04862       -14.16581        -0.95379
| 48>    C       -0.59080       -14.57219         0.18020
| 49>    C       -1.05368       -15.89433         0.34736
| 50>    N       -1.42963       -16.96851         0.48697
| 51>    C       -0.83083       -13.69738         1.26063
| 52>    N       -1.02711       -12.98871         2.14026
| 53>    C        0.16808       -16.27631        -2.57953
| 54>    C        0.69118       -16.46527        -3.84532
| 55>    S        1.42490       -15.00261        -4.49040
| 56>    C        0.69183       -17.64978        -4.62441
| 57>    C        1.21903       -17.81609        -5.89187
| 58>    C        1.04447       -19.11693        -6.36187
| 59>    C        0.37924       -19.94785        -5.44594
| 60>    S       -0.03225       -19.12778        -4.00514
| 61>    C        0.25462       -21.24456        -6.01235
| 62>    C        0.84413       -21.22541        -7.28785
| 63>    C        1.35765       -19.89333        -7.55255
| 64>    C        1.99708       -19.45740        -8.67623
| 65>    C        2.24515       -20.30812        -9.77331
| 66>    N        2.44860       -20.99666       -10.66751
| 67>    C        2.45174       -18.12936        -8.81397
| 68>    N        2.81823       -17.04849        -8.92541
| 69>    C        0.77694       -22.46223        -7.92930
| 70>    C        0.14400       -23.41747        -7.15631
| 71>    S       -0.38137       -22.77763        -5.61073
| 72>    C       -0.09741       -24.79389        -7.48882
| 73>    C        0.31797       -25.36721        -8.67700
| 74>    C        0.07744       -26.71566        -8.98537
| 75>    C       -0.58535       -27.55159        -8.12910
| 76>    C       -1.03424       -27.02565        -6.90316
| 77>    C       -0.79077       -25.64154        -6.57713
| 78>    N       -1.26020       -25.26642        -5.39629
| 79>   Se       -2.03907       -26.63631        -4.62538
| 80>    N       -1.69101       -27.69996        -5.96448
| 81>    H        1.99299         1.21215         3.86761
| 82>    H        3.05782         1.07078         1.63259
| 83>    H        3.11734        -1.00760         0.38850
| 84>    H        3.14498        -2.89766        -0.72115
| 85>    H        2.59781        -8.64324        -2.92424
| 86>    H        0.27000       -11.35100         0.34933
| 87>    H       -0.31902       -17.06068        -2.02845
| 88>    H        1.70238       -17.02088        -6.43071
| 89>    H        1.16964       -22.65409        -8.91042
| 90>    H        0.84838       -24.76684        -9.39878
| 91>    H        0.43318       -27.09372        -9.93200
| 92>    H       -0.77132       -28.58725        -8.36113
| 93> *
| 94>
| 95>                          ****END OF INPUT****

CARTESIAN COORDINATES (ANGSTROEM)
---------------------------------
  C      2.022940    0.290060    3.310960
  C      2.606410    0.196660    2.077240
  C      2.641130   -1.007420    1.355950
  C      2.088820   -2.178330    1.842680
  C      1.475460   -2.111090    3.127080
  C      1.444360   -0.869260    3.860710
  N      0.841390   -0.948750    5.042740
  Se     0.281920   -2.582070    5.297540
  N      0.898880   -3.129010    3.749040
  C      2.110690   -3.416810    1.115320
  C      2.653880   -3.651100   -0.133960
  C      2.487590   -4.974920   -0.540860
  C      1.810780   -5.753460    0.413400
  S      1.383570   -4.856740    1.802450
  C      1.687620   -7.073460   -0.096710
  C      2.284010   -7.124190   -1.366990
  C      2.808830   -5.805050   -1.687990
  C      3.461210   -5.432600   -2.826950
  C      3.712770   -6.338870   -3.878020
  N      3.917960   -7.075260   -4.732780
  C      3.926240   -4.116250   -3.026660
  N      4.303760   -3.046090   -3.192120
  C      2.207210   -8.385370   -1.956120
  C      1.556910   -9.296090   -1.143870
  S      1.033610   -8.579490    0.374330
  C      1.294440  -10.660580   -1.425480
  C      0.652830  -11.589080   -0.626870
  C      0.571890  -12.838980   -1.242770
  C      1.156670  -12.857030   -2.519650
  S      1.807460  -11.342750   -2.963410
  C      1.021740  -14.159150   -3.062270
  C      0.352330  -14.968060   -2.129380
  C      0.048620  -14.165810   -0.953790
  C     -0.590800  -14.572190    0.180200
  C     -1.053680  -15.894330    0.347360
  N     -1.429630  -16.968510    0.486970
  C     -0.830830  -13.697380    1.260630
  N     -1.027110  -12.988710    2.140260
  C      0.168080  -16.276310   -2.579530
  C      0.691180  -16.465270   -3.845320
  S      1.424900  -15.002610   -4.490400
  C      0.691830  -17.649780   -4.624410
  C      1.219030  -17.816090   -5.891870
  C      1.044470  -19.116930   -6.361870
  C      0.379240  -19.947850   -5.445940
  S     -0.032250  -19.127780   -4.005140
  C      0.254620  -21.244560   -6.012350
  C      0.844130  -21.225410   -7.287850
  C      1.357650  -19.893330   -7.552550
  C      1.997080  -19.457400   -8.676230
  C      2.245150  -20.308120   -9.773310
  N      2.448600  -20.996660  -10.667510
  C      2.451740  -18.129360   -8.813970
  N      2.818230  -17.048490   -8.925410
  C      0.776940  -22.462230   -7.929300
  C      0.144000  -23.417470   -7.156310
  S     -0.381370  -22.777630   -5.610730
  C     -0.097410  -24.793890   -7.488820
  C      0.317970  -25.367210   -8.677000
  C      0.077440  -26.715660   -8.985370
  C     -0.585350  -27.551590   -8.129100
  C     -1.034240  -27.025650   -6.903160
  C     -0.790770  -25.641540   -6.577130
  N     -1.260200  -25.266420   -5.396290
  Se    -2.039070  -26.636310   -4.625380
  N     -1.691010  -27.699960   -5.964480
  H      1.992990    1.212150    3.867610
  H      3.057820    1.070780    1.632590
  H      3.117340   -1.007600    0.388500
  H      3.144980   -2.897660   -0.721150
  H      2.597810   -8.643240   -2.924240
  H      0.270000  -11.351000    0.349330
  H     -0.319020  -17.060680   -2.028450
  H      1.702380  -17.020880   -6.430710
  H      1.169640  -22.654090   -8.910420
  H      0.848380  -24.766840   -9.398780
  H      0.433180  -27.093720   -9.932000
  H     -0.771320  -28.587250   -8.361130

 Total Charge           Charge          ....    0
 Multiplicity           Mult            ....    1
 Number of Electrons    NEL             ....  534
 Basis Dimension        Dim             .... 1044

ORBITAL ENERGIES
----------------

  NO   OCC          E(Eh)            E(eV)
   0   2.0000    -453.982544    -12353.4931
   1   2.0000    -453.982404    -12353.4892
   2   2.0000     -88.990122     -2421.5443
   3   2.0000     -88.990021     -2421.5416
   4   2.0000     -88.988225     -2421.4927
   5   2.0000     -88.988178     -2421.4914
   6   2.0000     -88.978650     -2421.2322
   7   2.0000     -88.978635     -2421.2318
   8   2.0000     -58.196370     -1583.6037
   9   2.0000     -58.196270     -1583.6010
  10   2.0000     -52.267041     -1422.2585
  11   2.0000     -52.266936     -1422.2556
  12   2.0000     -52.264754     -1422.1963
  13   2.0000     -52.264651     -1422.1935
  14   2.0000     -52.264220     -1422.1817
  15   2.0000     -52.264119     -1422.1790
  16   2.0000     -14.440418      -392.9438
  17   2.0000     -14.440411      -392.9435
  18   2.0000     -14.437602      -392.8671
  19   2.0000     -14.437552      -392.8658
  20   2.0000     -14.431483      -392.7006
  21   2.0000     -14.431414      -392.6987
  22   2.0000     -14.426726      -392.5712
  23   2.0000     -14.426718      -392.5709
  24   2.0000     -14.426641      -392.5689
  25   2.0000     -14.426600      -392.5677
  26   2.0000     -10.365255      -282.0529
  27   2.0000     -10.359060      -281.8843
  28   2.0000     -10.359049      -281.8841
  29   2.0000     -10.352789      -281.7137
  30   2.0000     -10.347377      -281.5664
  31   2.0000     -10.347377      -281.5664
  32   2.0000     -10.331929      -281.1461
  33   2.0000     -10.331866      -281.1444
  34   2.0000     -10.331212      -281.1266
  35   2.0000     -10.331001      -281.1208
  36   2.0000     -10.328816      -281.0614
  37   2.0000     -10.328777      -281.0603
  38   2.0000     -10.328401      -281.0501
  39   2.0000     -10.328358      -281.0489
  40   2.0000     -10.327550      -281.0269
  41   2.0000     -10.327507      -281.0257
  42   2.0000     -10.327446      -281.0241
  43   2.0000     -10.327379      -281.0223
  44   2.0000     -10.327270      -281.0193
  45   2.0000     -10.327221      -281.0180
  46   2.0000     -10.326662      -281.0028
  47   2.0000     -10.326615      -281.0015
  48   2.0000     -10.323654      -280.9209
  49   2.0000     -10.323642      -280.9206
  50   2.0000     -10.318256      -280.7740
  51   2.0000     -10.318219      -280.7730
  52   2.0000     -10.315940      -280.7110
  53   2.0000     -10.315905      -280.7100
  54   2.0000     -10.305878      -280.4372
  55   2.0000     -10.305822      -280.4357
  56   2.0000     -10.302962      -280.3579
  57   2.0000     -10.302903      -280.3562
  58   2.0000     -10.301544      -280.3193
  59   2.0000     -10.301535      -280.3190
  60   2.0000     -10.299648      -280.2677
  61   2.0000     -10.299641      -280.2675
  62   2.0000     -10.299100      -280.2528
  63   2.0000     -10.299065      -280.2518
  64   2.0000     -10.293919      -280.1118
  65   2.0000     -10.293916      -280.1117
  66   2.0000     -10.293455      -280.0992
  67   2.0000     -10.293428      -280.0984
  68   2.0000     -10.291501      -280.0460
  69   2.0000     -10.291426      -280.0439
  70   2.0000     -10.290053      -280.0066
  71   2.0000     -10.289980      -280.0046
  72   2.0000     -10.285578      -279.8848
  73   2.0000     -10.285500      -279.8827
  74   2.0000      -8.084504      -219.9905
  75   2.0000      -8.084438      -219.9887
  76   2.0000      -8.082571      -219.9379
  77   2.0000      -8.082556      -219.9375
  78   2.0000      -8.071608      -219.6396
  79   2.0000      -8.071605      -219.6395
  80   2.0000      -7.972101      -216.9319
  81   2.0000      -7.972060      -216.9308
  82   2.0000      -6.053770      -164.7315
  83   2.0000      -6.053746      -164.7308
  84   2.0000      -6.051854      -164.6793
  85   2.0000      -6.051835      -164.6788
  86   2.0000      -6.049612      -164.6183
  87   2.0000      -6.049588      -164.6177
  88   2.0000      -6.047708      -164.5665
  89   2.0000      -6.047691      -164.5660
  90   2.0000      -6.046781      -164.5413
  91   2.0000      -6.046742      -164.5402
  92   2.0000      -6.044894      -164.4899
  93   2.0000      -6.044862      -164.4891
  94   2.0000      -6.041033      -164.3849
  95   2.0000      -6.041009      -164.3842
  96   2.0000      -6.036354      -164.2576
  97   2.0000      -6.036343      -164.2572
  98   2.0000      -6.034228      -164.1997
  99   2.0000      -6.034199      -164.1989
 100   2.0000      -5.922282      -161.1535
 101   2.0000      -5.922274      -161.1533
 102   2.0000      -5.915701      -160.9744
 103   2.0000      -5.915626      -160.9724
 104   2.0000      -5.911839      -160.8693
 105   2.0000      -5.911771      -160.8675
 106   2.0000      -2.276421       -61.9446
 107   2.0000      -2.276391       -61.9437
 108   2.0000      -2.275779       -61.9271
 109   2.0000      -2.275758       -61.9265
 110   2.0000      -2.271234       -61.8034
 111   2.0000      -2.271161       -61.8014
 112   2.0000      -2.266128       -61.6645
 113   2.0000      -2.266082       -61.6632
 114   2.0000      -2.265964       -61.6600
 115   2.0000      -2.265885       -61.6579
 116   2.0000      -1.093151       -29.7461
 117   2.0000      -1.093102       -29.7448
 118   2.0000      -1.045383       -28.4463
 119   2.0000      -1.038937       -28.2709
 120   2.0000      -1.038007       -28.2456
 121   2.0000      -1.023170       -27.8419
 122   2.0000      -1.018510       -27.7151
 123   2.0000      -1.017880       -27.6979
 124   2.0000      -1.009268       -27.4636
 125   2.0000      -1.005345       -27.3568
 126   2.0000      -1.004610       -27.3368
 127   2.0000      -1.003887       -27.3172
 128   2.0000      -0.995409       -27.0865
 129   2.0000      -0.987800       -26.8794
 130   2.0000      -0.973127       -26.4801
 131   2.0000      -0.969853       -26.3910
 132   2.0000      -0.961671       -26.1684
 133   2.0000      -0.958197       -26.0739
 134   2.0000      -0.954725       -25.9794
 135   2.0000      -0.946703       -25.7611
 136   2.0000      -0.946622       -25.7589
 137   2.0000      -0.918870       -25.0037
 138   2.0000      -0.906748       -24.6739
 139   2.0000      -0.897735       -24.4286
 140   2.0000      -0.871735       -23.7211
 141   2.0000      -0.869230       -23.6529
 142   2.0000      -0.866309       -23.5735
 143   2.0000      -0.860986       -23.4286
 144   2.0000      -0.856098       -23.2956
 145   2.0000      -0.853648       -23.2289
 146   2.0000      -0.850770       -23.1506
 147   2.0000      -0.850191       -23.1349
 148   2.0000      -0.843387       -22.9497
 149   2.0000      -0.842903       -22.9365
 150   2.0000      -0.826046       -22.4779
 151   2.0000      -0.801248       -21.8031
 152   2.0000      -0.777795       -21.1649
 153   2.0000      -0.776242       -21.1226
 154   2.0000      -0.771809       -21.0020
 155   2.0000      -0.765521       -20.8309
 156   2.0000      -0.751011       -20.4361
 157   2.0000      -0.740753       -20.1569
 158   2.0000      -0.732256       -19.9257
 159   2.0000      -0.718645       -19.5553
 160   2.0000      -0.707964       -19.2647
 161   2.0000      -0.704851       -19.1800
 162   2.0000      -0.695358       -18.9217
 163   2.0000      -0.694275       -18.8922
 164   2.0000      -0.693763       -18.8783
 165   2.0000      -0.685604       -18.6562
 166   2.0000      -0.683946       -18.6111
 167   2.0000      -0.674633       -18.3577
 168   2.0000      -0.671190       -18.2640
 169   2.0000      -0.668854       -18.2005
 170   2.0000      -0.644683       -17.5427
 171   2.0000      -0.640355       -17.4250
 172   2.0000      -0.629680       -17.1345
 173   2.0000      -0.629024       -17.1166
 174   2.0000      -0.623076       -16.9548
 175   2.0000      -0.619118       -16.8471
 176   2.0000      -0.614868       -16.7314
 177   2.0000      -0.613257       -16.6876
 178   2.0000      -0.607085       -16.5196
 179   2.0000      -0.606141       -16.4939
 180   2.0000      -0.590868       -16.0783
 181   2.0000      -0.585948       -15.9444
 182   2.0000      -0.579949       -15.7812
 183   2.0000      -0.579479       -15.7684
 184   2.0000      -0.573868       -15.6157
 185   2.0000      -0.570838       -15.5333
 186   2.0000      -0.560336       -15.2475
 187   2.0000      -0.559349       -15.2207
 188   2.0000      -0.548754       -14.9324
 189   2.0000      -0.544818       -14.8253
 190   2.0000      -0.543365       -14.7857
 191   2.0000      -0.542066       -14.7504
 192   2.0000      -0.534494       -14.5443
 193   2.0000      -0.534216       -14.5367
 194   2.0000      -0.532692       -14.4953
 195   2.0000      -0.529637       -14.4121
 196   2.0000      -0.517295       -14.0763
 197   2.0000      -0.514447       -13.9988
 198   2.0000      -0.508271       -13.8307
 199   2.0000      -0.505695       -13.7606
 200   2.0000      -0.505585       -13.7577
 201   2.0000      -0.498807       -13.5732
 202   2.0000      -0.497697       -13.5430
 203   2.0000      -0.494604       -13.4589
 204   2.0000      -0.493282       -13.4229
 205   2.0000      -0.491426       -13.3724
 206   2.0000      -0.489116       -13.3095
 207   2.0000      -0.487080       -13.2541
 208   2.0000      -0.481573       -13.1043
 209   2.0000      -0.480992       -13.0885
 210   2.0000      -0.480101       -13.0642
 211   2.0000      -0.479980       -13.0609
 212   2.0000      -0.478146       -13.0110
 213   2.0000      -0.471948       -12.8424
 214   2.0000      -0.468144       -12.7388
 215   2.0000      -0.465948       -12.6791
 216   2.0000      -0.465612       -12.6700
 217   2.0000      -0.462864       -12.5952
 218   2.0000      -0.462580       -12.5874
 219   2.0000      -0.459584       -12.5059
 220   2.0000      -0.458535       -12.4774
 221   2.0000      -0.458462       -12.4754
 222   2.0000      -0.456756       -12.4290
 223   2.0000      -0.455091       -12.3836
 224   2.0000      -0.454643       -12.3715
 225   2.0000      -0.449204       -12.2235
 226   2.0000      -0.444348       -12.0913
 227   2.0000      -0.442840       -12.0503
 228   2.0000      -0.441977       -12.0268
 229   2.0000      -0.441010       -12.0005
 230   2.0000      -0.438478       -11.9316
 231   2.0000      -0.438292       -11.9265
 232   2.0000      -0.437529       -11.9058
 233   2.0000      -0.437072       -11.8933
 234   2.0000      -0.436749       -11.8846
 235   2.0000      -0.436432       -11.8759
 236   2.0000      -0.435798       -11.8587
 237   2.0000      -0.434076       -11.8118
 238   2.0000      -0.433349       -11.7920
 239   2.0000      -0.426545       -11.6069
 240   2.0000      -0.425901       -11.5894
 241   2.0000      -0.422666       -11.5013
 242   2.0000      -0.422268       -11.4905
 243   2.0000      -0.419947       -11.4273
 244   2.0000      -0.411375       -11.1941
 245   2.0000      -0.399723       -10.8770
 246   2.0000      -0.399071       -10.8593
 247   2.0000      -0.388665       -10.5761
 248   2.0000      -0.385334       -10.4855
 249   2.0000      -0.385268       -10.4837
 250   2.0000      -0.375164       -10.2087
 251   2.0000      -0.357128        -9.7179
 252   2.0000      -0.357039        -9.7155
 253   2.0000      -0.355276        -9.6675
 254   2.0000      -0.350601        -9.5403
 255   2.0000      -0.343454        -9.3459
 256   2.0000      -0.343210        -9.3392
 257   2.0000      -0.330034        -8.9807
 258   2.0000      -0.328291        -8.9332
 259   2.0000      -0.327807        -8.9201
 260   2.0000      -0.323546        -8.8041
 261   2.0000      -0.316160        -8.6031
 262   2.0000      -0.316029        -8.5996
 263   2.0000      -0.307910        -8.3786
 264   2.0000      -0.282995        -7.7007
 265   2.0000      -0.254650        -6.9294
 266   2.0000      -0.232227        -6.3192
 267   0.0000      -0.107037        -2.9126
 268   0.0000      -0.099173        -2.6986
 269   0.0000      -0.099083        -2.6962
 270   0.0000      -0.073228        -1.9926
 271   0.0000      -0.072910        -1.9840

MULLIKEN ATOMIC CHARGES
-----------------------
   0 C :   -0.021048
   1 C :    0.052569
   2 C :   -0.062520
   3 C :    0.153339
   4 C :   -0.020443
   5 C :    0.055601
   6 N :   -0.267164
   7 Se:    0.531386
   8 N :   -0.334331
   9 C :   -0.097441
  10 C :   -0.051648
  11 C :    0.015537
  12 C :   -0.084469
  13 S :    0.216256
  14 C :   -0.102398
  15 C :    0.013307
  16 C :    0.307120
  17 C :   -0.305763
  18 C :   -0.187006
  19 N :    0.167727
  20 C :   -0.187013
  21 N :    0.168107
  22 C :   -0.069280
  23 C :   -0.050165
  24 S :    0.193136
  25 C :   -0.051097
  26 C :   -0.067034
  27 C :    0.013991
  28 C :   -0.097704
  29 S :    0.194283
  30 C :   -0.097903
  31 C :    0.017409
  32 C :    0.299789
  33 C :   -0.300438
  34 C :   -0.189816
  35 N :    0.175231
  36 C :   -0.186469
  37 N :    0.171206
  38 C :   -0.069234
  39 C :   -0.050750
  40 S :    0.193798
  41 C :   -0.050350
  42 C :   -0.071166
  43 C :    0.015921
  44 C :   -0.103361
  45 S :    0.192763
  46 C :   -0.083774
  47 C :    0.013052
  48 C :    0.307591
  49 C :   -0.305550
  50 C :   -0.183853
  51 N :    0.164008
  52 C :   -0.190504
  53 N :    0.171832
  54 C :   -0.050480
  55 C :   -0.096961
  56 S :    0.216336
  57 C :    0.156259
  58 C :   -0.066103
  59 C :    0.050413
  60 C :   -0.016600
  61 C :    0.049333
  62 C :   -0.017206
  63 N :   -0.336018
  64 Se:    0.532129
  65 N :   -0.265904
  66 H :   -0.016928
  67 H :   -0.001686
  68 H :   -0.012490
  69 H :    0.000486
  70 H :    0.010792
  71 H :    0.008802
  72 H :    0.009079
  73 H :    0.010933
  74 H :   -0.000098
  75 H :   -0.011042
  76 H :   -0.001873
  77 H :   -0.016442
Sum of atomic charges:   -0.0000000

LOEWDIN ATOMIC CHARGES
----------------------
   0 C :   -0.021146
   1 C :   -0.010972
   2 C :   -0.008571
   3 C :   -0.040998
   4 C :   -0.042534
   5 C :   -0.043251
   6 N :   -0.245626
   7 Se:    0.573717
   8 N :   -0.277730
   9 C :   -0.162830
  10 C :   -0.025813
  11 C :   -0.075593
  12 C :   -0.190797
  13 S :    0.519508
  14 C :   -0.175598
  15 C :   -0.070356
  16 C :    0.085425
  17 C :   -0.108456
  18 C :   -0.016426
  19 N :   -0.037784
  20 C :   -0.015231
  21 N :   -0.038768
  22 C :   -0.039843
  23 C :   -0.183876
  24 S :    0.481510
  25 C :   -0.177545
  26 C :   -0.040785
  27 C :   -0.070067
  28 C :   -0.180635
  29 S :    0.485972
  30 C :   -0.180733
  31 C :   -0.070049
  32 C :    0.084529
  33 C :   -0.103037
  34 C :   -0.016257
  35 N :   -0.033968
  36 C :   -0.016048
  37 N :   -0.034201
  38 C :   -0.040902
  39 C :   -0.177442
  40 S :    0.485947
  41 C :   -0.183781
  42 C :   -0.039905
  43 C :   -0.070355
  44 C :   -0.175702
  45 S :    0.481512
  46 C :   -0.190680
  47 C :   -0.075591
  48 C :    0.085426
  49 C :   -0.108474
  50 C :   -0.015074
  51 N :   -0.039010
  52 C :   -0.016621
  53 N :   -0.037506
  54 C :   -0.025716
  55 C :   -0.162916
  56 S :    0.519468
  57 C :   -0.040905
  58 C :   -0.008764
  59 C :   -0.011045
  60 C :   -0.021076
  61 C :   -0.043604
  62 C :   -0.042523
  63 N :   -0.277696
  64 Se:    0.573820
  65 N :   -0.245439
  66 H :    0.037939
  67 H :    0.035846
  68 H :    0.034244
  69 H :    0.036739
  70 H :    0.034495
  71 H :    0.035357
  72 H :    0.035387
  73 H :    0.034534
  74 H :    0.036702
  75 H :    0.034377
  76 H :    0.035814
  77 H :    0.037981

  Mayer bond orders larger than 0.100000
B(  0-C ,  1-C ) :   1.5015 B(  0-C ,  3-C ) :   0.1008 B(  0-C ,  5-C ) :   1.1872
B(  0-C , 66-H ) :   1.0193 B(  1-C ,  2-C ) :   1.1974 B(  1-C , 67-H ) :   0.9824
B(  2-C ,  3-C ) :   1.5123 B(  2-C , 68-H ) :   0.9945 B(  3-C ,  4-C ) :   1.1421
B(  3-C ,  9-C ) :   1.0857 B(  4-C ,  5-C ) :   1.1290 B(  4-C ,  8-N ) :   1.5543
B(  5-C ,  6-N ) :   1.5633 B(  6-N ,  7-Se) :   1.2605 B(  6-N ,  8-N ) :   0.1316
B(  7-Se,  8-N ) :   1.2120 B(  9-C , 10-C ) :   1.4656 B(  9-C , 13-S ) :   1.1187
B( 10-C , 11-C ) :   1.2972 B( 10-C , 69-H ) :   0.9873 B( 11-C , 12-C ) :   1.4285
B( 11-C , 16-C ) :   0.9987 B( 12-C , 13-S ) :   1.0959 B( 12-C , 14-C ) :   1.1789
B( 14-C , 15-C ) :   1.4530 B( 14-C , 24-S ) :   1.1206 B( 15-C , 16-C ) :   0.9910
B( 15-C , 22-C ) :   1.2990 B( 16-C , 17-C ) :   1.7073 B( 17-C , 18-C ) :   1.1303
B( 17-C , 20-C ) :   1.1372 B( 18-C , 19-N ) :   2.9912 B( 20-C , 21-N ) :   2.9888
B( 22-C , 23-C ) :   1.4604 B( 22-C , 70-H ) :   0.9849 B( 23-C , 24-S ) :   1.1051
B( 23-C , 25-C ) :   1.1671 B( 25-C , 26-C ) :   1.4636 B( 25-C , 29-S ) :   1.1084
B( 26-C , 27-C ) :   1.2959 B( 26-C , 71-H ) :   0.9877 B( 27-C , 28-C ) :   1.4505
B( 27-C , 32-C ) :   0.9930 B( 28-C , 29-S ) :   1.1199 B( 28-C , 30-C ) :   1.1828
B( 30-C , 31-C ) :   1.4488 B( 30-C , 40-S ) :   1.1195 B( 31-C , 32-C ) :   0.9916
B( 31-C , 38-C ) :   1.2963 B( 32-C , 33-C ) :   1.7154 B( 33-C , 34-C ) :   1.1345
B( 33-C , 36-C ) :   1.1312 B( 34-C , 35-N ) :   2.9940 B( 36-C , 37-N ) :   2.9934
B( 38-C , 39-C ) :   1.4632 B( 38-C , 72-H ) :   0.9881 B( 39-C , 40-S ) :   1.1084
B( 39-C , 41-C ) :   1.1668 B( 41-C , 42-C ) :   1.4603 B( 41-C , 45-S ) :   1.1051
B( 42-C , 43-C ) :   1.2995 B( 42-C , 73-H ) :   0.9852 B( 43-C , 44-C ) :   1.4515
B( 43-C , 48-C ) :   0.9896 B( 44-C , 45-S ) :   1.1203 B( 44-C , 46-C ) :   1.1788
B( 46-C , 47-C ) :   1.4302 B( 46-C , 56-S ) :   1.0961 B( 47-C , 48-C ) :   1.0002
B( 47-C , 54-C ) :   1.2968 B( 48-C , 49-C ) :   1.7070 B( 49-C , 50-C ) :   1.1341
B( 49-C , 52-C ) :   1.1336 B( 50-C , 51-N ) :   2.9879 B( 52-C , 53-N ) :   2.9919
B( 54-C , 55-C ) :   1.4667 B( 54-C , 74-H ) :   0.9866 B( 55-C , 56-S ) :   1.1185
B( 55-C , 57-C ) :   1.0861 B( 57-C , 58-C ) :   1.5134 B( 57-C , 60-C ) :   0.1010
B( 57-C , 62-C ) :   1.1400 B( 58-C , 59-C ) :   1.1974 B( 58-C , 75-H ) :   0.9947
B( 59-C , 60-C ) :   1.5026 B( 59-C , 76-H ) :   0.9821 B( 60-C , 61-C ) :   1.1879
B( 60-C , 77-H ) :   1.0188 B( 61-C , 62-C ) :   1.1286 B( 61-C , 65-N ) :   1.5658
B( 62-C , 63-N ) :   1.5545 B( 63-N , 64-Se) :   1.2125 B( 63-N , 65-N ) :   0.1314
B( 64-Se, 65-N ) :   1.2606

-----------------------------------------------------------------------------
         ABSORPTION SPECTRUM VIA TRANSITION ELECTRIC DIPOLE MOMENTS
-----------------------------------------------------------------------------
State   Energy  Wavelength   fosc         T2         TX        TY        TZ
        (cm-1)    (nm)                  (au**2)     (au)      (au)      (au)
-----------------------------------------------------------------------------
   0   10300.5    970.8   0.290123600   9.27260  -0.27772  -2.80137  -1.16095
   1   11930.2    838.2   0.198290077   5.47176  -0.20316  -2.15482  -0.88726
   2   12157.9    822.5   0.000021619   0.00059   0.01786  -0.01039   0.01260
   3   19180.9    521.4   0.000021329   0.00037   0.01200  -0.00940   0.01156
   4   20304.0    492.5   1.289870484  20.91417  -0.39767  -4.21287  -1.73429
   5   21011.5    475.9   0.013252465   0.20764   0.24693   0.13710  -0.35759
   6   21843.1    457.8   0.011518317   0.17360   0.21167   0.05017  -0.35536
   7   21887.3    456.9   0.189730121   2.85377   0.13682   1.56620   0.61812
   8   24480.4    408.5   0.562070017   7.55872  -0.25761  -2.52752  -1.05071
   9   26452.2    378.0   0.689875034   8.58588  -0.27786  -2.69256  -1.12196
  10   27298.0    366.3   0.018706053   0.22559  -0.23342  -0.12907   0.39300
  11   27390.5    365.1   0.030389756   0.36526  -0.07695  -0.55257  -0.23238
  12   29203.3    342.4   0.059227961   0.66768   0.39506   0.22767  -0.67807
  13   29529.9    338.6   0.246878350   2.75231   0.13896   1.53191   0.62149
  14   29854.6    335.0   0.206443096   2.27649  -0.67707  -0.46161   1.26688
  15   30867.3    324.0   0.138681171   1.47909  -0.09860  -1.13082  -0.43660
  16   31012.0    322.5   0.558724895   5.93121   1.15691   0.71115  -2.02164
  17   31137.0    321.2   0.054540310   0.57666  -0.34618  -0.22783   0.63633
  18   32256.6    310.0   0.036463741   0.37215   0.04115   0.56307   0.23110
  19   32509.1    307.6   0.037683809   0.38162   0.30400   0.17959  -0.50690
  20   32634.8    306.4   0.993340349  10.02058   1.49774   0.94031  -2.62548
  21   32658.4    306.2   0.185013555   1.86503  -0.14343  -1.25232  -0.52549
  22   33753.2    296.3   0.034852951   0.33994   0.28079   0.16620  -0.48319
  23   33986.9    294.2   0.183005597   1.77267   0.11436   1.22920   0.49865
  24   34200.2    292.4   0.057217575   0.55078  -0.35827  -0.21648   0.61283
  25   34311.7    291.4   0.072139589   0.69216  -0.08556  -0.76678  -0.31127
  26   34451.8    290.3   0.203936419   1.94876   0.65222   0.41013  -1.16412
  27   34641.1    288.7   0.023482161   0.22316   0.02949   0.43667   0.17781
  28   34871.3    286.8   0.200237417   1.89039  -0.66791  -0.40149   1.13274
  29   35202.8    284.1   0.060500867   0.56580  -0.07026  -0.69302  -0.28388
  30   35281.6    283.4   0.000288697   0.00269   0.02662   0.01647  -0.04140
  31   35825.7    279.1   0.078262220   0.71917   0.05802   0.78581   0.31354
  32   36206.4    276.2   0.036178126   0.32895  -0.26000  -0.15592   0.48687
  33   36321.0    275.3   0.013014296   0.11796   0.02465   0.31433   0.13621
  34   36601.4    273.2   0.119322326   1.07325   0.18615   0.99689   0.21167
  35   36603.5    273.2   0.175979849   1.58276  -0.59573  -0.22076   1.08588
  36   37519.8    266.5   0.004062707   0.03565  -0.09523  -0.05239   0.15438
  37   37830.4    264.3   0.086278433   0.75082   0.05787   0.80164   0.32381
  38   38192.4    261.8   0.012152208   0.10475   0.15921   0.08989  -0.26706
  39   38290.4    261.2   0.002633222   0.02264   0.01342   0.13759   0.05939
  40   38437.2    260.2   0.044959625   0.38508  -0.05288  -0.57359  -0.23080
  41   39000.2    256.4   0.180087020   1.52016  -0.60936  -0.41958   0.98630
  42   39005.7    256.4   0.039827133   0.33615   0.01700  -0.47812  -0.32751
  43   39769.9    251.4   0.027849241   0.23053   0.23214   0.13572  -0.39778
  44   39795.5    251.3   0.002122072   0.01756  -0.02324  -0.12872  -0.02112
  45   40183.6    248.9   0.128825715   1.05543   0.07704   0.94910   0.38563
  46   40246.6    248.5   0.029660845   0.24262  -0.23047  -0.14294   0.41118

FINAL SINGLE POINT ENERGY     -9571.786551379459

DIPOLE MOMENT
-------------
                                X             Y             Z
Electronic contribution:    -42.86572     -25.27181      71.25415
Nuclear contribution   :     41.83356      24.65551     -69.51782
                        -----------------------------------------
Total Dipole Moment    :     -1.03216      -0.61631       1.73633
                        -----------------------------------------
Magnitude (a.u.)       :      2.11188
Magnitude (Debye)      :      5.36797

Rotational constants in cm-1:     0.002328     0.000175     0.000163
Rotational constants in MHz :    69.793886     5.253808     4.886434

                             ****ORCA TERMINATED NORMALLY****
TOTAL RUN TIME: 0 days 0 hours 7 minutes 45 seconds 774 msec
