                         Program Version 4.2.0 -  RELEASE  -
|  1> # ORCA input file
|  2> # SCF done       -179.021076107687          0.000939123104
|  3> ! CAM-B3LYP def2-SVP def2/J RIJCOSX Grid4 TightSCF
|  4> %maxcore 5000
|  5> %tddft
|  6>     Mode sTDDFT
|  7>     Ethresh 5.0
|  8>     maxcore 5000
|  9> end
| 10>
| 11> %pal
| 12>   nprocs 6
| 13>   end
| 14> * xyz 0 1
| 15>    C        6.21414         6.83944        -0.03828
| 16>    S        6.07449         5.19612         0.40173
| 17>    C        4.32931         5.31818         0.40480
| 18>    C        3.91658         6.58747         0.02967
| 19>    C        5.00469         7.45075        -0.22728
| 20>    C        4.85268         8.86018        -0.70463
| 21>    C        3.40269         9.34487        -0.61250
| 22>    C        3.07928         9.78794         0.81431
| 23>    C        2.43814         8.25411        -1.10223
| 24>    C        2.71066         7.85633        -2.55246
| 25>    C        2.50824         7.03124        -0.18317
| 26>    C        3.57810         4.14917         0.74115
| 27>    C        2.36970         4.16978         1.47896
| 28>    C        1.60892         2.97371         1.74557
| 29>    N        0.54973         3.02261         2.56634
| 30>    C        0.17971         4.16639         3.07890
| 31>    C        0.89101         5.37031         2.75643
| 32>    N        1.95855         5.33512         2.00030
| 33>    C        0.46800         6.62388         3.26558
| 34>    N        0.11236         7.63264         3.67539
| 35>    C       -0.89501         4.19180         4.00395
| 36>    N       -1.73449         4.23988         4.78095
| 37>    C        1.99836         1.71616         1.23270
| 38>    C        3.26201         1.67484         0.61548
| 39>    C        4.04248         2.86443         0.38502
| 40>    N        5.18883         2.57788        -0.23666
| 41>    S        5.28383         1.00145        -0.48396
| 42>    N        3.87318         0.57948         0.16272
| 43>    C        1.19241         0.55158         1.33379
| 44>    S        1.86584        -1.03437         1.05232
| 45>    C        0.34675        -1.85883         1.31242
| 46>    C       -0.65018        -0.92118         1.58260
| 47>    C       -0.16257         0.41573         1.58892
| 48>    O       -1.16879         1.28399         1.78306
| 49>    C       -2.28476         0.52588         1.92263
| 50>    N       -3.51608         1.20785         2.10994
| 51>    O       -4.49494         0.51245         2.29277
| 52>    O       -3.49913         2.41695         2.06001
| 53>    C       -2.04492        -0.81935         1.81712
| 54>    C        0.24061        -3.25935         1.20215
| 55>    S       -1.27638        -4.08674         1.40469
| 56>    C       -0.54522        -5.63750         1.09495
| 57>    C        0.82598        -5.48498         0.85301
| 58>    C        1.25546        -4.15460         0.91520
| 59>    C        1.73672        -6.51688         0.55437
| 60>    N        2.54392        -7.28966         0.29884
| 61>    C       -1.36457        -6.78679         1.10370
| 62>    C       -0.95844        -8.07034         0.89378
| 63>    C       -1.89495        -9.12841         0.89497
| 64>    C       -1.59159       -10.44572         0.69634
| 65>    C       -2.52271       -11.55856         0.65114
| 66>    C       -3.88443       -11.50286         0.80620
| 67>    C       -4.73546       -12.62694         0.74605
| 68>    N       -5.48206       -13.49808         0.70957
| 69>    C       -4.63943       -10.33537         1.04462
| 70>    N       -5.32664        -9.43535         1.23637
| 71>    C       -1.75218       -12.77158         0.39955
| 72>    C       -0.38098       -12.43144         0.29773
| 73>    C       -0.21866       -10.97643         0.48235
| 74>    O        0.82345       -10.36064         0.46690
| 75>    C        0.60060       -13.36239         0.05969
| 76>    C        0.21097       -14.69728        -0.08815
| 77>    C       -1.16164       -15.02977         0.01432
| 78>    C       -2.15328       -14.08789         0.25718
| 79>    S       -1.42381       -16.73367        -0.20244
| 80>    C        0.28901       -16.97269        -0.42568
| 81>    C        1.02194       -15.83677        -0.34157
| 82>   Br        0.94737       -18.69825        -0.74873
| 83>    H        7.18710         7.27726        -0.14933
| 84>    H        5.19863         8.91560        -1.74084
| 85>    H        5.50011         9.51700        -0.11889
| 86>    H        3.28935        10.21386        -1.27025
| 87>    H        3.34889         9.01980         1.53429
| 88>    H        2.01891        10.00479         0.92022
| 89>    H        3.63584        10.68984         1.05995
| 90>    H        1.42077         8.65682        -1.04803
| 91>    H        3.64848         7.31359        -2.64118
| 92>    H        2.75593         8.73684        -3.18950
| 93>    H        1.91348         7.21322        -2.91973
| 94>    H        1.91912         6.21225        -0.60370
| 95>    H        2.06334         7.28349         0.78093
| 96>    H       -2.77582        -1.59778         1.89110
| 97>    H        2.27338        -3.84665         0.75280
| 98>    H       -2.41602        -6.60189         1.29342
| 99>    H        0.08047        -8.30312         0.71586
|100>    H       -2.92890        -8.85094         1.05661
|101>    H        1.63572       -13.06740        -0.01149
|102>    H       -3.18353       -14.39399         0.32642
|103>    H        2.09018       -15.80167        -0.45374
|104> *
|105>
|106>                          ****END OF INPUT****

CARTESIAN COORDINATES (ANGSTROEM)
---------------------------------
  C      6.214140    6.839440   -0.038280
  S      6.074490    5.196120    0.401730
  C      4.329310    5.318180    0.404800
  C      3.916580    6.587470    0.029670
  C      5.004690    7.450750   -0.227280
  C      4.852680    8.860180   -0.704630
  C      3.402690    9.344870   -0.612500
  C      3.079280    9.787940    0.814310
  C      2.438140    8.254110   -1.102230
  C      2.710660    7.856330   -2.552460
  C      2.508240    7.031240   -0.183170
  C      3.578100    4.149170    0.741150
  C      2.369700    4.169780    1.478960
  C      1.608920    2.973710    1.745570
  N      0.549730    3.022610    2.566340
  C      0.179710    4.166390    3.078900
  C      0.891010    5.370310    2.756430
  N      1.958550    5.335120    2.000300
  C      0.468000    6.623880    3.265580
  N      0.112360    7.632640    3.675390
  C     -0.895010    4.191800    4.003950
  N     -1.734490    4.239880    4.780950
  C      1.998360    1.716160    1.232700
  C      3.262010    1.674840    0.615480
  C      4.042480    2.864430    0.385020
  N      5.188830    2.577880   -0.236660
  S      5.283830    1.001450   -0.483960
  N      3.873180    0.579480    0.162720
  C      1.192410    0.551580    1.333790
  S      1.865840   -1.034370    1.052320
  C      0.346750   -1.858830    1.312420
  C     -0.650180   -0.921180    1.582600
  C     -0.162570    0.415730    1.588920
  O     -1.168790    1.283990    1.783060
  C     -2.284760    0.525880    1.922630
  N     -3.516080    1.207850    2.109940
  O     -4.494940    0.512450    2.292770
  O     -3.499130    2.416950    2.060010
  C     -2.044920   -0.819350    1.817120
  C      0.240610   -3.259350    1.202150
  S     -1.276380   -4.086740    1.404690
  C     -0.545220   -5.637500    1.094950
  C      0.825980   -5.484980    0.853010
  C      1.255460   -4.154600    0.915200
  C      1.736720   -6.516880    0.554370
  N      2.543920   -7.289660    0.298840
  C     -1.364570   -6.786790    1.103700
  C     -0.958440   -8.070340    0.893780
  C     -1.894950   -9.128410    0.894970
  C     -1.591590  -10.445720    0.696340
  C     -2.522710  -11.558560    0.651140
  C     -3.884430  -11.502860    0.806200
  C     -4.735460  -12.626940    0.746050
  N     -5.482060  -13.498080    0.709570
  C     -4.639430  -10.335370    1.044620
  N     -5.326640   -9.435350    1.236370
  C     -1.752180  -12.771580    0.399550
  C     -0.380980  -12.431440    0.297730
  C     -0.218660  -10.976430    0.482350
  O      0.823450  -10.360640    0.466900
  C      0.600600  -13.362390    0.059690
  C      0.210970  -14.697280   -0.088150
  C     -1.161640  -15.029770    0.014320
  C     -2.153280  -14.087890    0.257180
  S     -1.423810  -16.733670   -0.202440
  C      0.289010  -16.972690   -0.425680
  C      1.021940  -15.836770   -0.341570
  Br     0.947370  -18.698250   -0.748730
  H      7.187100    7.277260   -0.149330
  H      5.198630    8.915600   -1.740840
  H      5.500110    9.517000   -0.118890
  H      3.289350   10.213860   -1.270250
  H      3.348890    9.019800    1.534290
  H      2.018910   10.004790    0.920220
  H      3.635840   10.689840    1.059950
  H      1.420770    8.656820   -1.048030
  H      3.648480    7.313590   -2.641180
  H      2.755930    8.736840   -3.189500
  H      1.913480    7.213220   -2.919730
  H      1.919120    6.212250   -0.603700
  H      2.063340    7.283490    0.780930
  H     -2.775820   -1.597780    1.891100
  H      2.273380   -3.846650    0.752800
  H     -2.416020   -6.601890    1.293420
  H      0.080470   -8.303120    0.715860
  H     -2.928900   -8.850940    1.056610
  H      1.635720  -13.067400   -0.011490
  H     -3.183530  -14.393990    0.326420
  H      2.090180  -15.801670   -0.453740

 Total Charge           Charge          ....    0
 Multiplicity           Mult            ....    1
 Number of Electrons    NEL             ....  526
 Basis Dimension        Dim             .... 1095

ORBITAL ENERGIES
----------------

  NO   OCC          E(Eh)            E(eV)
   0   2.0000    -482.887314    -13140.0318
   1   2.0000     -89.058584     -2423.4073
   2   2.0000     -88.997300     -2421.7397
   3   2.0000     -88.992590     -2421.6115
   4   2.0000     -88.977627     -2421.2043
   5   2.0000     -88.957667     -2420.6612
   6   2.0000     -62.565033     -1702.4811
   7   2.0000     -56.398984     -1534.6944
   8   2.0000     -56.396262     -1534.6203
   9   2.0000     -56.396233     -1534.6195
  10   2.0000     -19.322981      -525.8051
  11   2.0000     -19.253094      -523.9033
  12   2.0000     -19.250987      -523.8460
  13   2.0000     -19.219546      -522.9904
  14   2.0000     -14.664679      -399.0462
  15   2.0000     -14.466792      -393.6614
  16   2.0000     -14.466513      -393.6538
  17   2.0000     -14.465004      -393.6128
  18   2.0000     -14.462707      -393.5503
  19   2.0000     -14.432146      -392.7187
  20   2.0000     -14.428819      -392.6281
  21   2.0000     -14.420839      -392.4110
  22   2.0000     -14.420348      -392.3976
  23   2.0000     -14.418199      -392.3391
  24   2.0000     -10.400114      -283.0015
  25   2.0000     -10.384650      -282.5807
  26   2.0000     -10.383922      -282.5609
  27   2.0000     -10.369799      -282.1766
  28   2.0000     -10.369046      -282.1561
  29   2.0000     -10.361198      -281.9425
  30   2.0000     -10.356327      -281.8100
  31   2.0000     -10.354910      -281.7714
  32   2.0000     -10.353609      -281.7360
  33   2.0000     -10.353550      -281.7344
  34   2.0000     -10.347906      -281.5809
  35   2.0000     -10.347000      -281.5562
  36   2.0000     -10.346563      -281.5443
  37   2.0000     -10.345351      -281.5113
  38   2.0000     -10.344469      -281.4873
  39   2.0000     -10.341019      -281.3934
  40   2.0000     -10.339024      -281.3391
  41   2.0000     -10.331388      -281.1314
  42   2.0000     -10.330718      -281.1131
  43   2.0000     -10.328045      -281.0404
  44   2.0000     -10.325829      -280.9801
  45   2.0000     -10.325489      -280.9708
  46   2.0000     -10.323617      -280.9199
  47   2.0000     -10.322071      -280.8778
  48   2.0000     -10.321893      -280.8730
  49   2.0000     -10.321001      -280.8487
  50   2.0000     -10.319379      -280.8046
  51   2.0000     -10.318899      -280.7915
  52   2.0000     -10.317336      -280.7490
  53   2.0000     -10.316951      -280.7385
  54   2.0000     -10.311156      -280.5808
  55   2.0000     -10.310118      -280.5526
  56   2.0000     -10.308070      -280.4969
  57   2.0000     -10.307083      -280.4700
  58   2.0000     -10.304192      -280.3913
  59   2.0000     -10.302840      -280.3545
  60   2.0000     -10.298544      -280.2376
  61   2.0000     -10.298327      -280.2317
  62   2.0000     -10.295045      -280.1424
  63   2.0000     -10.294475      -280.1269
  64   2.0000     -10.286165      -279.9008
  65   2.0000     -10.276359      -279.6339
  66   2.0000     -10.268235      -279.4129
  67   2.0000     -10.266047      -279.3533
  68   2.0000     -10.265610      -279.3414
  69   2.0000     -10.264784      -279.3190
  70   2.0000     -10.252949      -278.9969
  71   2.0000     -10.249299      -278.8976
  72   2.0000      -8.794473      -239.3098
  73   2.0000      -8.149665      -221.7637
  74   2.0000      -8.092521      -220.2087
  75   2.0000      -8.086056      -220.0328
  76   2.0000      -8.073609      -219.6941
  77   2.0000      -8.053043      -219.1344
  78   2.0000      -6.630777      -180.4326
  79   2.0000      -6.616212      -180.0363
  80   2.0000      -6.615999      -180.0305
  81   2.0000      -6.120684      -166.5523
  82   2.0000      -6.112938      -166.3415
  83   2.0000      -6.112551      -166.3310
  84   2.0000      -6.061812      -164.9503
  85   2.0000      -6.057664      -164.8374
  86   2.0000      -6.055639      -164.7823
  87   2.0000      -6.054642      -164.7552
  88   2.0000      -6.051166      -164.6606
  89   2.0000      -6.048018      -164.5749
  90   2.0000      -6.043297      -164.4465
  91   2.0000      -6.039027      -164.3303
  92   2.0000      -6.034822      -164.2159
  93   2.0000      -6.022335      -163.8761
  94   2.0000      -6.017932      -163.7563
  95   2.0000      -6.015376      -163.6867
  96   2.0000      -2.746660       -74.7404
  97   2.0000      -2.742552       -74.6286
  98   2.0000      -2.742404       -74.6246
  99   2.0000      -2.730819       -74.3094
 100   2.0000      -2.730809       -74.3091
 101   2.0000      -1.336881       -36.3784
 102   2.0000      -1.246781       -33.9266
 103   2.0000      -1.155850       -31.4523
 104   2.0000      -1.153976       -31.4013
 105   2.0000      -1.135085       -30.8872
 106   2.0000      -1.125206       -30.6184
 107   2.0000      -1.051940       -28.6247
 108   2.0000      -1.035873       -28.1875
 109   2.0000      -1.025798       -27.9134
 110   2.0000      -1.020461       -27.7681
 111   2.0000      -1.016794       -27.6684
 112   2.0000      -1.015940       -27.6451
 113   2.0000      -1.008201       -27.4346
 114   2.0000      -1.004261       -27.3273
 115   2.0000      -0.999100       -27.1869
 116   2.0000      -0.998196       -27.1623
 117   2.0000      -0.993013       -27.0213
 118   2.0000      -0.992494       -27.0071
 119   2.0000      -0.978122       -26.6160
 120   2.0000      -0.949594       -25.8398
 121   2.0000      -0.947366       -25.7791
 122   2.0000      -0.935122       -25.4460
 123   2.0000      -0.927529       -25.2394
 124   2.0000      -0.916463       -24.9382
 125   2.0000      -0.911387       -24.8001
 126   2.0000      -0.911005       -24.7897
 127   2.0000      -0.906019       -24.6540
 128   2.0000      -0.893862       -24.3232
 129   2.0000      -0.889684       -24.2095
 130   2.0000      -0.888301       -24.1719
 131   2.0000      -0.875252       -23.8168
 132   2.0000      -0.861146       -23.4330
 133   2.0000      -0.848251       -23.0821
 134   2.0000      -0.840500       -22.8712
 135   2.0000      -0.839869       -22.8540
 136   2.0000      -0.831576       -22.6283
 137   2.0000      -0.819573       -22.3017
 138   2.0000      -0.814723       -22.1697
 139   2.0000      -0.811102       -22.0712
 140   2.0000      -0.796991       -21.6872
 141   2.0000      -0.781393       -21.2628
 142   2.0000      -0.775894       -21.1131
 143   2.0000      -0.762414       -20.7463
 144   2.0000      -0.752163       -20.4674
 145   2.0000      -0.744960       -20.2714
 146   2.0000      -0.740956       -20.1624
 147   2.0000      -0.736993       -20.0546
 148   2.0000      -0.726127       -19.7589
 149   2.0000      -0.713340       -19.4110
 150   2.0000      -0.705402       -19.1950
 151   2.0000      -0.698185       -18.9986
 152   2.0000      -0.696254       -18.9460
 153   2.0000      -0.693232       -18.8638
 154   2.0000      -0.690750       -18.7963
 155   2.0000      -0.689371       -18.7587
 156   2.0000      -0.676893       -18.4192
 157   2.0000      -0.671779       -18.2800
 158   2.0000      -0.667364       -18.1599
 159   2.0000      -0.659847       -17.9553
 160   2.0000      -0.655823       -17.8459
 161   2.0000      -0.650236       -17.6938
 162   2.0000      -0.648082       -17.6352
 163   2.0000      -0.639905       -17.4127
 164   2.0000      -0.634435       -17.2639
 165   2.0000      -0.630768       -17.1641
 166   2.0000      -0.627380       -17.0719
 167   2.0000      -0.622012       -16.9258
 168   2.0000      -0.606638       -16.5075
 169   2.0000      -0.603481       -16.4215
 170   2.0000      -0.601629       -16.3712
 171   2.0000      -0.598781       -16.2936
 172   2.0000      -0.589496       -16.0410
 173   2.0000      -0.587227       -15.9793
 174   2.0000      -0.585661       -15.9366
 175   2.0000      -0.581519       -15.8239
 176   2.0000      -0.580346       -15.7920
 177   2.0000      -0.573741       -15.6123
 178   2.0000      -0.564729       -15.3671
 179   2.0000      -0.559760       -15.2318
 180   2.0000      -0.557708       -15.1760
 181   2.0000      -0.553675       -15.0663
 182   2.0000      -0.547168       -14.8892
 183   2.0000      -0.544905       -14.8276
 184   2.0000      -0.543305       -14.7841
 185   2.0000      -0.539887       -14.6911
 186   2.0000      -0.536297       -14.5934
 187   2.0000      -0.533190       -14.5088
 188   2.0000      -0.532075       -14.4785
 189   2.0000      -0.530450       -14.4343
 190   2.0000      -0.523457       -14.2440
 191   2.0000      -0.522702       -14.2234
 192   2.0000      -0.514279       -13.9942
 193   2.0000      -0.511481       -13.9181
 194   2.0000      -0.511407       -13.9161
 195   2.0000      -0.502591       -13.6762
 196   2.0000      -0.501362       -13.6428
 197   2.0000      -0.499926       -13.6037
 198   2.0000      -0.497585       -13.5400
 199   2.0000      -0.496544       -13.5117
 200   2.0000      -0.495799       -13.4914
 201   2.0000      -0.492695       -13.4069
 202   2.0000      -0.489777       -13.3275
 203   2.0000      -0.485027       -13.1983
 204   2.0000      -0.483630       -13.1602
 205   2.0000      -0.480478       -13.0745
 206   2.0000      -0.479999       -13.0614
 207   2.0000      -0.474977       -12.9248
 208   2.0000      -0.473799       -12.8927
 209   2.0000      -0.467369       -12.7177
 210   2.0000      -0.461557       -12.5596
 211   2.0000      -0.460370       -12.5273
 212   2.0000      -0.457658       -12.4535
 213   2.0000      -0.456915       -12.4333
 214   2.0000      -0.456608       -12.4249
 215   2.0000      -0.453152       -12.3309
 216   2.0000      -0.452975       -12.3261
 217   2.0000      -0.451804       -12.2942
 218   2.0000      -0.451625       -12.2893
 219   2.0000      -0.449123       -12.2213
 220   2.0000      -0.447150       -12.1676
 221   2.0000      -0.446317       -12.1449
 222   2.0000      -0.445597       -12.1253
 223   2.0000      -0.444588       -12.0979
 224   2.0000      -0.441667       -12.0184
 225   2.0000      -0.438576       -11.9343
 226   2.0000      -0.437614       -11.9081
 227   2.0000      -0.435925       -11.8621
 228   2.0000      -0.430629       -11.7180
 229   2.0000      -0.427698       -11.6382
 230   2.0000      -0.427417       -11.6306
 231   2.0000      -0.425416       -11.5761
 232   2.0000      -0.420318       -11.4374
 233   2.0000      -0.418826       -11.3968
 234   2.0000      -0.417319       -11.3558
 235   2.0000      -0.413615       -11.2550
 236   2.0000      -0.410972       -11.1831
 237   2.0000      -0.410530       -11.1711
 238   2.0000      -0.407608       -11.0916
 239   2.0000      -0.402375       -10.9492
 240   2.0000      -0.397835       -10.8256
 241   2.0000      -0.390757       -10.6330
 242   2.0000      -0.389967       -10.6115
 243   2.0000      -0.388089       -10.5604
 244   2.0000      -0.387943       -10.5565
 245   2.0000      -0.382564       -10.4101
 246   2.0000      -0.381255       -10.3745
 247   2.0000      -0.380460       -10.3528
 248   2.0000      -0.376575       -10.2471
 249   2.0000      -0.374997       -10.2042
 250   2.0000      -0.360725        -9.8158
 251   2.0000      -0.359193        -9.7741
 252   2.0000      -0.355674        -9.6784
 253   2.0000      -0.353112        -9.6087
 254   2.0000      -0.343579        -9.3493
 255   2.0000      -0.338637        -9.2148
 256   2.0000      -0.333801        -9.0832
 257   2.0000      -0.317624        -8.6430
 258   2.0000      -0.316285        -8.6065
 259   2.0000      -0.307359        -8.3637
 260   2.0000      -0.296557        -8.0697
 261   2.0000      -0.286885        -7.8065
 262   2.0000      -0.251238        -6.8365
 263   0.0000      -0.132662        -3.6099
 264   0.0000      -0.108996        -2.9659
 265   0.0000      -0.079773        -2.1707
 266   0.0000      -0.064471        -1.7543
 267   0.0000      -0.054541        -1.4841

MULLIKEN ATOMIC CHARGES
-----------------------
   0 C :   -0.111414
   1 S :    0.167620
   2 C :   -0.270639
   3 C :    0.001394
   4 C :   -0.086203
   5 C :    0.168367
   6 C :   -0.099789
   7 C :    0.064246
   8 C :   -0.089729
   9 C :    0.069661
  10 C :    0.167344
  11 C :    0.126946
  12 C :   -0.080787
  13 C :   -0.086255
  14 N :    0.055648
  15 C :   -0.116844
  16 C :   -0.139140
  17 N :    0.050309
  18 C :   -0.211967
  19 N :    0.243322
  20 C :   -0.216326
  21 N :    0.248114
  22 C :    0.190464
  23 C :   -0.021366
  24 C :   -0.008105
  25 N :   -0.270722
  26 S :    0.560172
  27 N :   -0.316701
  28 C :   -0.302016
  29 S :    0.207980
  30 C :   -0.071915
  31 C :    0.074266
  32 C :    0.229826
  33 O :   -0.157898
  34 C :    0.247582
  35 N :    0.271942
  36 O :   -0.239960
  37 O :   -0.219438
  38 C :   -0.100265
  39 C :   -0.050253
  40 S :    0.161654
  41 C :   -0.052958
  42 C :   -0.028194
  43 C :   -0.021458
  44 C :   -0.190928
  45 N :    0.150124
  46 C :    0.058622
  47 C :   -0.025598
  48 C :   -0.045286
  49 C :   -0.055477
  50 C :    0.327880
  51 C :   -0.349418
  52 C :   -0.185979
  53 N :    0.154015
  54 C :   -0.187721
  55 N :    0.144786
  56 C :    0.014151
  57 C :   -0.012798
  58 C :    0.141340
  59 O :   -0.130619
  60 C :   -0.067718
  61 C :    0.117700
  62 C :   -0.091377
  63 C :   -0.020776
  64 S :    0.188387
  65 C :   -0.122841
  66 C :    0.038840
  67 Br:    0.026287
  68 H :    0.013185
  69 H :    0.012890
  70 H :    0.003061
  71 H :   -0.009431
  72 H :    0.019123
  73 H :    0.014945
  74 H :    0.004755
  75 H :   -0.009944
  76 H :    0.013662
  77 H :    0.007049
  78 H :    0.004283
  79 H :   -0.009970
  80 H :    0.036668
  81 H :    0.018556
  82 H :    0.010356
  83 H :    0.007556
  84 H :    0.054125
  85 H :    0.010102
  86 H :   -0.006211
  87 H :   -0.005840
  88 H :   -0.001028
Sum of atomic charges:   -0.0000000

LOEWDIN ATOMIC CHARGES
----------------------
   0 C :   -0.177261
   1 S :    0.468997
   2 C :   -0.184203
   3 C :   -0.022615
   4 C :   -0.066759
   5 C :   -0.021017
   6 C :   -0.029146
   7 C :   -0.049523
   8 C :   -0.028880
   9 C :   -0.050938
  10 C :   -0.027135
  11 C :   -0.021280
  12 C :   -0.016872
  13 C :   -0.005329
  14 N :    0.006930
  15 C :   -0.020169
  16 C :   -0.029003
  17 N :    0.018367
  18 C :   -0.038267
  19 N :   -0.005442
  20 C :   -0.036269
  21 N :    0.000721
  22 C :   -0.050361
  23 C :   -0.046152
  24 C :   -0.049055
  25 N :   -0.279099
  26 S :    0.687266
  27 N :   -0.306191
  28 C :   -0.186917
  29 S :    0.511868
  30 C :   -0.185688
  31 C :   -0.078674
  32 C :    0.034725
  33 O :    0.026490
  34 C :    0.034494
  35 N :    0.271391
  36 O :   -0.201448
  37 O :   -0.183087
  38 C :   -0.021773
  39 C :   -0.172043
  40 S :    0.476974
  41 C :   -0.147017
  42 C :   -0.082842
  43 C :   -0.024930
  44 C :   -0.034557
  45 N :   -0.028707
  46 C :   -0.005096
  47 C :   -0.010792
  48 C :    0.060618
  49 C :   -0.082694
  50 C :    0.074334
  51 C :   -0.137548
  52 C :   -0.018209
  53 N :   -0.050659
  54 C :   -0.019552
  55 N :   -0.052215
  56 C :   -0.021299
  57 C :   -0.050397
  58 C :    0.082262
  59 O :   -0.128633
  60 C :    0.023999
  61 C :   -0.031061
  62 C :   -0.143136
  63 C :   -0.009553
  64 S :    0.433788
  65 C :   -0.270506
  66 C :   -0.069914
  67 Br:    0.138962
  68 H :    0.022962
  69 H :    0.031003
  70 H :    0.031607
  71 H :    0.021666
  72 H :    0.024472
  73 H :    0.025706
  74 H :    0.024028
  75 H :    0.022940
  76 H :    0.022491
  77 H :    0.022522
  78 H :    0.023510
  79 H :    0.025776
  80 H :    0.033545
  81 H :    0.042129
  82 H :    0.039220
  83 H :    0.038016
  84 H :    0.040949
  85 H :    0.041595
  86 H :    0.042698
  87 H :    0.041191
  88 H :    0.039701

  Mayer bond orders larger than 0.100000
B(  0-C ,  1-S ) :   1.1823 B(  0-C ,  2-C ) :   0.1001 B(  0-C ,  4-C ) :   1.5241
B(  0-C , 68-H ) :   0.9731 B(  1-S ,  2-C ) :   1.1385 B(  2-C ,  3-C ) :   1.4752
B(  2-C , 11-C ) :   1.1211 B(  3-C ,  4-C ) :   1.3166 B(  3-C , 10-C ) :   1.0691
B(  4-C ,  5-C ) :   1.0184 B(  5-C ,  6-C ) :   1.0475 B(  5-C , 69-H ) :   0.9123
B(  5-C , 70-H ) :   0.9193 B(  6-C ,  7-C ) :   1.0747 B(  6-C ,  8-C ) :   1.0256
B(  6-C , 71-H ) :   0.9189 B(  7-C , 72-H ) :   0.9614 B(  7-C , 73-H ) :   0.9652
B(  7-C , 74-H ) :   0.9591 B(  8-C ,  9-C ) :   1.0712 B(  8-C , 10-C ) :   1.0354
B(  8-C , 75-H ) :   0.9154 B(  9-C , 76-H ) :   0.9607 B(  9-C , 77-H ) :   0.9648
B(  9-C , 78-H ) :   0.9614 B( 10-C , 79-H ) :   0.9089 B( 10-C , 80-H ) :   0.8823
B( 11-C , 12-C ) :   1.2846 B( 11-C , 22-C ) :   0.1260 B( 11-C , 24-C ) :   1.2161
B( 12-C , 13-C ) :   1.0840 B( 12-C , 17-N ) :   1.4404 B( 13-C , 14-N ) :   1.4625
B( 13-C , 22-C ) :   1.2558 B( 14-N , 15-C ) :   1.7306 B( 15-C , 16-C ) :   1.1903
B( 15-C , 20-C ) :   1.1550 B( 16-C , 17-N ) :   1.7355 B( 16-C , 18-C ) :   1.1502
B( 18-C , 19-N ) :   3.0465 B( 20-C , 21-N ) :   3.0467 B( 22-C , 23-C ) :   1.2125
B( 22-C , 28-C ) :   1.1405 B( 23-C , 24-C ) :   1.1211 B( 23-C , 27-N ) :   1.4872
B( 24-C , 25-N ) :   1.4973 B( 25-N , 26-S ) :   1.3052 B( 25-N , 27-N ) :   0.1532
B( 26-S , 27-N ) :   1.2653 B( 28-C , 29-S ) :   1.1399 B( 28-C , 30-C ) :   0.1201
B( 28-C , 32-C ) :   1.4308 B( 29-S , 30-C ) :   1.1183 B( 30-C , 31-C ) :   1.3592
B( 30-C , 39-C ) :   1.1989 B( 31-C , 32-C ) :   1.2373 B( 31-C , 38-C ) :   1.0854
B( 32-C , 33-O ) :   1.1403 B( 33-O , 34-C ) :   1.1322 B( 34-C , 35-N ) :   0.9078
B( 34-C , 38-C ) :   1.5748 B( 35-N , 36-O ) :   1.5342 B( 35-N , 37-O ) :   1.5210
B( 36-O , 37-O ) :   0.2844 B( 38-C , 81-H ) :   1.0166 B( 39-C , 40-S ) :   1.1309
B( 39-C , 43-C ) :   1.4300 B( 40-S , 41-C ) :   1.1240 B( 41-C , 42-C ) :   1.4288
B( 41-C , 46-C ) :   1.1379 B( 42-C , 43-C ) :   1.3239 B( 42-C , 44-C ) :   1.1037
B( 43-C , 82-H ) :   1.0023 B( 44-C , 45-N ) :   2.9912 B( 46-C , 47-C ) :   1.5801
B( 46-C , 83-H ) :   0.9578 B( 47-C , 48-C ) :   1.1606 B( 47-C , 84-H ) :   0.9675
B( 48-C , 49-C ) :   1.5449 B( 48-C , 85-H ) :   0.9631 B( 49-C , 50-C ) :   1.0648
B( 49-C , 58-C ) :   0.9350 B( 50-C , 51-C ) :   1.6246 B( 50-C , 56-C ) :   1.0038
B( 51-C , 52-C ) :   1.1419 B( 51-C , 54-C ) :   1.1489 B( 52-C , 53-N ) :   2.9687
B( 54-C , 55-N ) :   2.9562 B( 56-C , 57-C ) :   1.2761 B( 56-C , 63-C ) :   1.4061
B( 57-C , 58-C ) :   0.9436 B( 57-C , 60-C ) :   1.4219 B( 58-C , 59-O ) :   2.2126
B( 60-C , 61-C ) :   1.2463 B( 60-C , 86-H ) :   1.0176 B( 61-C , 62-C ) :   1.3027
B( 61-C , 66-C ) :   1.1625 B( 62-C , 63-C ) :   1.3344 B( 62-C , 64-S ) :   1.0864
B( 63-C , 87-H ) :   0.9791 B( 64-S , 65-C ) :   1.0861 B( 65-C , 66-C ) :   1.6164
B( 65-C , 67-Br) :   1.0208 B( 66-C , 88-H ) :   1.0007

-----------------------------------------------------------------------------
         ABSORPTION SPECTRUM VIA TRANSITION ELECTRIC DIPOLE MOMENTS
-----------------------------------------------------------------------------
State   Energy  Wavelength   fosc         T2         TX        TY        TZ
        (cm-1)    (nm)                  (au**2)     (au)      (au)      (au)
-----------------------------------------------------------------------------
   0   10447.6    957.2   0.767031097  24.16978  -1.98456  -4.49354   0.19862
   1   17007.8    588.0   1.002034340  19.39592  -0.70965  -4.32348  -0.44702
   2   19073.2    524.3   0.042628587   0.73579  -0.31046   0.66432   0.44507
   3   20124.1    496.9   0.003879414   0.06346  -0.19875  -0.03234  -0.15139
   4   22719.6    440.1   0.040235183   0.58302   0.66024   0.38102  -0.04378
   5   24335.0    410.9   0.074056191   1.00186  -0.88996  -0.41009   0.20412
   6   25134.1    397.9   0.146087893   1.91349  -0.15478   1.36834   0.13108
   7   25489.5    392.3   0.141365647   1.82582   0.17878  -1.33582  -0.09717
   8   25616.7    390.4   0.018381799   0.23623  -0.27110   0.31610  -0.25064
   9   26265.3    380.7   0.003196753   0.04007   0.12267  -0.03592  -0.15405
  10   26273.8    380.6   0.012115232   0.15180   0.22296  -0.20120  -0.24822
  11   26641.9    375.3   0.020052506   0.24779  -0.43998  -0.18829   0.13694
  12   27389.2    365.1   0.003232781   0.03886   0.16766  -0.00092   0.10367
  13   27884.4    358.6   0.045150342   0.53306  -0.03290   0.72574   0.07262
  14   28191.1    354.7   0.127754577   1.49190   0.61520  -1.04615  -0.13786
  15   30064.1    332.6   0.177859921   1.94762   0.14735   1.37498   0.18798
  16   30387.6    329.1   0.114492056   1.24038  -1.11207  -0.06024   0.00746
  17   31263.9    319.9   0.367890494   3.87393   0.22319  -1.83585  -0.67362
  18   31825.6    314.2   0.072623941   0.75124  -0.27004   0.79661   0.20913
  19   32196.1    310.6   0.000450952   0.00461   0.05066  -0.04501   0.00432
  20   32295.0    309.6   0.006413899   0.06538  -0.05785   0.07165  -0.23854
  21   32422.3    308.4   0.463966384   4.71105  -1.64976   1.28631   0.57856
  22   32631.8    306.5   0.451996438   4.56006   1.73635  -0.01998  -1.24288
  23   33346.0    299.9   0.075003161   0.74048   0.70793  -0.29275  -0.39193
  24   33398.1    299.4   0.060702929   0.59836   0.71689  -0.00129  -0.29056
  25   33588.5    297.7   0.109044873   1.06879  -0.91595   0.17252   0.44728
  26   34576.2    289.2   0.192978132   1.83741   1.28702   0.28526  -0.31561
  27   34876.6    286.7   0.021959470   0.20728  -0.21249   0.40210  -0.02111
  28   35328.0    283.1   0.104262883   0.97160  -0.48414   0.85566   0.07110
  29   35662.9    280.4   0.064843788   0.59859   0.53601  -0.54024  -0.13937
  30   35950.5    278.2   0.070265859   0.64345   0.70183  -0.22132  -0.31923
  31   36093.5    277.1   0.012812999   0.11687  -0.17699  -0.12203   0.26581
  32   36375.3    274.9   0.000299955   0.00271  -0.03803   0.02487   0.02550
  33   36959.0    270.6   0.001899033   0.01692  -0.04910   0.07051  -0.09764
  34   37129.9    269.3   0.020015987   0.17747  -0.35015   0.16237   0.16882
  35   37176.6    269.0   0.003301512   0.02924   0.12762  -0.09382  -0.06440
  36   37656.8    265.6   0.222044613   1.94121   0.56410  -1.23753  -0.30253
  37   37837.2    264.3   0.021680650   0.18864  -0.34653   0.23795   0.10923
  38   37998.9    263.2   0.060071971   0.52045  -0.59333   0.40435   0.07009
  39   38115.9    262.4   0.014994408   0.12951   0.32868  -0.14633   0.00803
  40   38475.3    259.9   0.002898810   0.02480  -0.04563  -0.13399   0.06906
  41   38682.4    258.5   0.163563693   1.39203   1.17253  -0.05517  -0.11901
  42   39051.1    256.1   0.057214359   0.48233   0.27952  -0.50583  -0.38514
  43   39145.1    255.5   0.006933760   0.05831  -0.09172  -0.22198  -0.02501
  44   39422.4    253.7   0.104689638   0.87425   0.59338  -0.65792  -0.29883
  45   39590.4    252.6   0.072776248   0.60517   0.15614   0.76184  -0.01962
  46   39756.8    251.5   0.058676198   0.48588   0.68833   0.03564  -0.10398
  47   39831.9    251.1   0.322436102   2.66494  -1.56694  -0.22564   0.39841
  48   40247.2    248.5   0.004942235   0.04043   0.17824  -0.09080   0.02028

FINAL SINGLE POINT ENERGY     -7250.881003673502

DIPOLE MOMENT
-------------
                                X             Y             Z
Electronic contribution:    -16.13370    -245.65078       2.34735
Nuclear contribution   :     20.44987     245.61696      -4.43174
                        -----------------------------------------
Total Dipole Moment    :      4.31617      -0.03382      -2.08439
                        -----------------------------------------
Magnitude (a.u.)       :      4.79324
Magnitude (Debye)      :     12.18345

Rotational constants in cm-1:     0.002162     0.000207     0.000192
Rotational constants in MHz :    64.830104     6.190912     5.742308

                             ****ORCA TERMINATED NORMALLY****
TOTAL RUN TIME: 0 days 0 hours 8 minutes 12 seconds 559 msec
