                         Program Version 4.2.0 -  RELEASE  -
|  1> # ORCA input file
|  2> # SCF done       -199.994894777101          0.000927478257
|  3> ! CAM-B3LYP def2-SVP def2/J RIJCOSX Grid4 TightSCF
|  4> %maxcore 5000
|  5> %tddft
|  6>     Mode sTDDFT
|  7>     Ethresh 5.0
|  8>     maxcore 5000
|  9> end
| 10>
| 11> %pal
| 12>   nprocs 6
| 13>   end
| 14> * xyz 0 1
| 15>    C        1.29102        -4.12983        -3.14910
| 16>    C        0.39967        -4.68941        -4.00860
| 17>    S        1.21278        -5.46464        -5.32129
| 18>    C        2.79165        -5.03363        -4.71112
| 19>    C        4.03739        -5.41495        -5.41312
| 20>    C        2.65099        -4.32933        -3.55556
| 21>    C        3.54094        -3.69924        -2.58316
| 22>    O        4.76264        -3.67834        -2.60371
| 23>    C        2.65909        -3.09455        -1.57277
| 24>    C        1.27565        -3.37258        -1.91245
| 25>    C        0.13559        -3.02544        -1.23207
| 26>    C       -1.13766        -3.39281        -1.71272
| 27>    N       -2.18119        -3.68087        -2.09435
| 28>    C        0.07908        -2.30406        -0.02522
| 29>    N       -0.03031        -1.72815         0.96324
| 30>    C        3.07472        -2.36432        -0.48464
| 31>    C        4.36259        -2.03453        -0.05947
| 32>    S        5.87557        -2.49018        -0.80159
| 33>    C        6.82730        -1.66353         0.39781
| 34>    C        5.99849        -1.05450         1.32597
| 35>    C        4.61696        -1.25875         1.08812
| 36>    C        3.80326        -0.64572         2.06479
| 37>    C        4.54470        -0.00039         3.01317
| 38>    C        4.03605         0.73620         4.17200
| 39>    O        2.87065         0.88035         4.43959
| 40>    O        5.04640         1.23232         4.90416
| 41>    C        4.67409         1.96514         6.06071
| 42>    S        6.26498        -0.10693         2.75814
| 43>    C        8.26423        -1.69224         0.33023
| 44>    C        8.89244        -2.53748        -0.60018
| 45>    C       10.26130        -2.58154        -0.65591
| 46>    C       11.04020        -1.78374         0.20255
| 47>    C       10.42963        -0.93740         1.11753
| 48>    C        9.05158        -0.89891         1.17686
| 49>    C       12.43595        -2.04393        -0.07124
| 50>    C       12.51899        -3.00311        -1.09675
| 51>    C       11.14117        -3.42144        -1.55055
| 52>    C       10.90970        -3.09281        -3.03717
| 53>    C       11.11949        -1.61776        -3.35699
| 54>    C       10.90498        -4.92497        -1.31175
| 55>    C       11.11844        -5.33513         0.14041
| 56>    C       13.73937        -3.44092        -1.54439
| 57>    C       14.91477        -2.92975        -0.97270
| 58>    C       14.81745        -1.96911         0.04497
| 59>    C       13.59152        -1.52551         0.49606
| 60>    C       16.20064        -3.39801        -1.42518
| 61>    C       17.45214        -3.05514        -0.95253
| 62>    C       18.47714        -3.72093        -1.62716
| 63>    C       18.00235        -4.58136        -2.62861
| 64>    S       16.29939        -4.56648        -2.73394
| 65>    C       19.11107        -5.20527        -3.25175
| 66>    C       20.29134        -4.74442        -2.63477
| 67>    C       19.93007        -3.79398        -1.59592
| 68>    C       20.77157        -3.11634        -0.76385
| 69>    C       20.29362        -2.21377         0.20948
| 70>    N       19.90248        -1.48441         1.00318
| 71>    C       22.17250        -3.27781        -0.81337
| 72>    N       23.31048        -3.41306        -0.84158
| 73>    C       21.43794        -5.31999        -3.17001
| 74>    C       21.15603        -6.18430        -4.21746
| 75>    S       19.41902        -6.32160        -4.49655
| 76>    C       22.10578        -6.96140        -4.91831
| 77>    C       22.00085        -7.60661        -6.11196
| 78>    C       22.93472        -8.73895        -6.40494
| 79>    O       23.93485        -9.02571        -5.78679
| 80>    C       22.32598        -9.43015        -7.54335
| 81>    C       22.58062       -10.55889        -8.25958
| 82>    S       21.37568       -10.73498        -9.51177
| 83>    C       20.56394        -9.27980        -9.05652
| 84>    C       21.17759        -8.69683        -7.99403
| 85>    C       21.04940        -7.49111        -7.20035
| 86>    C       20.35953        -6.37253        -7.59316
| 87>    C       19.52509        -6.38694        -8.72790
| 88>    N       18.82705        -6.39770        -9.63888
| 89>    C       20.48785        -5.11207        -6.98098
| 90>    N       20.60526        -4.06282        -6.52902
| 91>    C       23.67917       -11.53416        -8.08340
| 92>    H       -0.67114        -4.70614        -3.97383
| 93>    H        4.08895        -6.49488        -5.54750
| 94>    H        4.89221        -5.08161        -4.82899
| 95>    H        4.07729        -4.95479        -6.40032
| 96>    H        2.29856        -1.96759         0.15765
| 97>    H        2.72850        -0.66804         2.09147
| 98>    H        5.60130         2.29298         6.52310
| 99>    H        4.10597         1.33036         6.74380
|100>    H        4.05706         2.82219         5.78324
|101>    H        8.28811        -3.14911        -1.25347
|102>    H       11.01967        -0.31814         1.77562
|103>    H        8.57061        -0.24015         1.88239
|104>    H        9.88985        -3.37894        -3.30121
|105>    H       11.59351        -3.69535        -3.63859
|106>    H       10.43045        -0.99874        -2.78684
|107>    H       10.94723        -1.43802        -4.41540
|108>    H       12.13537        -1.31117        -3.11729
|109>    H       11.58433        -5.49113        -1.95228
|110>    H        9.88331        -5.16742        -1.61010
|111>    H       12.13778        -5.12320         0.45591
|112>    H       10.93724        -6.40090         0.25738
|113>    H       10.43790        -4.79700         0.79644
|114>    H       13.80715        -4.17991        -2.33026
|115>    H       15.71521        -1.56659         0.48571
|116>    H       13.53706        -0.78683         1.28098
|117>    H       17.61634        -2.35712        -0.15321
|118>    H       22.44289        -5.11288        -2.84899
|119>    H       23.03698        -7.13601        -4.38613
|120>    H       19.69222        -8.97125        -9.59811
|121>    H       24.29433       -11.23070        -7.23929
|122>    H       24.29831       -11.58083        -8.97892
|123>    H       23.28276       -12.53258        -7.90098
|124> *
|125>
|126>                          ****END OF INPUT****

CARTESIAN COORDINATES (ANGSTROEM)
---------------------------------
  C      1.291020   -4.129830   -3.149100
  C      0.399670   -4.689410   -4.008600
  S      1.212780   -5.464640   -5.321290
  C      2.791650   -5.033630   -4.711120
  C      4.037390   -5.414950   -5.413120
  C      2.650990   -4.329330   -3.555560
  C      3.540940   -3.699240   -2.583160
  O      4.762640   -3.678340   -2.603710
  C      2.659090   -3.094550   -1.572770
  C      1.275650   -3.372580   -1.912450
  C      0.135590   -3.025440   -1.232070
  C     -1.137660   -3.392810   -1.712720
  N     -2.181190   -3.680870   -2.094350
  C      0.079080   -2.304060   -0.025220
  N     -0.030310   -1.728150    0.963240
  C      3.074720   -2.364320   -0.484640
  C      4.362590   -2.034530   -0.059470
  S      5.875570   -2.490180   -0.801590
  C      6.827300   -1.663530    0.397810
  C      5.998490   -1.054500    1.325970
  C      4.616960   -1.258750    1.088120
  C      3.803260   -0.645720    2.064790
  C      4.544700   -0.000390    3.013170
  C      4.036050    0.736200    4.172000
  O      2.870650    0.880350    4.439590
  O      5.046400    1.232320    4.904160
  C      4.674090    1.965140    6.060710
  S      6.264980   -0.106930    2.758140
  C      8.264230   -1.692240    0.330230
  C      8.892440   -2.537480   -0.600180
  C     10.261300   -2.581540   -0.655910
  C     11.040200   -1.783740    0.202550
  C     10.429630   -0.937400    1.117530
  C      9.051580   -0.898910    1.176860
  C     12.435950   -2.043930   -0.071240
  C     12.518990   -3.003110   -1.096750
  C     11.141170   -3.421440   -1.550550
  C     10.909700   -3.092810   -3.037170
  C     11.119490   -1.617760   -3.356990
  C     10.904980   -4.924970   -1.311750
  C     11.118440   -5.335130    0.140410
  C     13.739370   -3.440920   -1.544390
  C     14.914770   -2.929750   -0.972700
  C     14.817450   -1.969110    0.044970
  C     13.591520   -1.525510    0.496060
  C     16.200640   -3.398010   -1.425180
  C     17.452140   -3.055140   -0.952530
  C     18.477140   -3.720930   -1.627160
  C     18.002350   -4.581360   -2.628610
  S     16.299390   -4.566480   -2.733940
  C     19.111070   -5.205270   -3.251750
  C     20.291340   -4.744420   -2.634770
  C     19.930070   -3.793980   -1.595920
  C     20.771570   -3.116340   -0.763850
  C     20.293620   -2.213770    0.209480
  N     19.902480   -1.484410    1.003180
  C     22.172500   -3.277810   -0.813370
  N     23.310480   -3.413060   -0.841580
  C     21.437940   -5.319990   -3.170010
  C     21.156030   -6.184300   -4.217460
  S     19.419020   -6.321600   -4.496550
  C     22.105780   -6.961400   -4.918310
  C     22.000850   -7.606610   -6.111960
  C     22.934720   -8.738950   -6.404940
  O     23.934850   -9.025710   -5.786790
  C     22.325980   -9.430150   -7.543350
  C     22.580620  -10.558890   -8.259580
  S     21.375680  -10.734980   -9.511770
  C     20.563940   -9.279800   -9.056520
  C     21.177590   -8.696830   -7.994030
  C     21.049400   -7.491110   -7.200350
  C     20.359530   -6.372530   -7.593160
  C     19.525090   -6.386940   -8.727900
  N     18.827050   -6.397700   -9.638880
  C     20.487850   -5.112070   -6.980980
  N     20.605260   -4.062820   -6.529020
  C     23.679170  -11.534160   -8.083400
  H     -0.671140   -4.706140   -3.973830
  H      4.088950   -6.494880   -5.547500
  H      4.892210   -5.081610   -4.828990
  H      4.077290   -4.954790   -6.400320
  H      2.298560   -1.967590    0.157650
  H      2.728500   -0.668040    2.091470
  H      5.601300    2.292980    6.523100
  H      4.105970    1.330360    6.743800
  H      4.057060    2.822190    5.783240
  H      8.288110   -3.149110   -1.253470
  H     11.019670   -0.318140    1.775620
  H      8.570610   -0.240150    1.882390
  H      9.889850   -3.378940   -3.301210
  H     11.593510   -3.695350   -3.638590
  H     10.430450   -0.998740   -2.786840
  H     10.947230   -1.438020   -4.415400
  H     12.135370   -1.311170   -3.117290
  H     11.584330   -5.491130   -1.952280
  H      9.883310   -5.167420   -1.610100
  H     12.137780   -5.123200    0.455910
  H     10.937240   -6.400900    0.257380
  H     10.437900   -4.797000    0.796440
  H     13.807150   -4.179910   -2.330260
  H     15.715210   -1.566590    0.485710
  H     13.537060   -0.786830    1.280980
  H     17.616340   -2.357120   -0.153210
  H     22.442890   -5.112880   -2.848990
  H     23.036980   -7.136010   -4.386130
  H     19.692220   -8.971250   -9.598110
  H     24.294330  -11.230700   -7.239290
  H     24.298310  -11.580830   -8.978920
  H     23.282760  -12.532580   -7.900980

 Total Charge           Charge          ....    0
 Multiplicity           Mult            ....    1
 Number of Electrons    NEL             ....  568
 Basis Dimension        Dim             .... 1262

ORBITAL ENERGIES
----------------

  NO   OCC          E(Eh)            E(eV)
   0   2.0000     -88.997837     -2421.7543
   1   2.0000     -88.994976     -2421.6764
   2   2.0000     -88.979655     -2421.2595
   3   2.0000     -88.974537     -2421.1202
   4   2.0000     -88.973577     -2421.0941
   5   2.0000     -88.967837     -2420.9379
   6   2.0000     -19.267831      -524.3043
   7   2.0000     -19.219725      -522.9953
   8   2.0000     -19.216435      -522.9058
   9   2.0000     -19.209760      -522.7241
  10   2.0000     -14.435235      -392.8027
  11   2.0000     -14.434176      -392.7739
  12   2.0000     -14.417961      -392.3327
  13   2.0000     -14.417323      -392.3153
  14   2.0000     -14.413854      -392.2209
  15   2.0000     -14.408211      -392.0674
  16   2.0000     -10.409787      -283.2647
  17   2.0000     -10.371387      -282.2198
  18   2.0000     -10.370955      -282.2080
  19   2.0000     -10.369804      -282.1767
  20   2.0000     -10.357266      -281.8355
  21   2.0000     -10.347120      -281.5594
  22   2.0000     -10.347094      -281.5587
  23   2.0000     -10.344627      -281.4916
  24   2.0000     -10.338345      -281.3207
  25   2.0000     -10.335528      -281.2440
  26   2.0000     -10.335283      -281.2374
  27   2.0000     -10.334193      -281.2077
  28   2.0000     -10.334120      -281.2057
  29   2.0000     -10.331510      -281.1347
  30   2.0000     -10.330872      -281.1173
  31   2.0000     -10.329679      -281.0848
  32   2.0000     -10.327050      -281.0133
  33   2.0000     -10.327030      -281.0128
  34   2.0000     -10.326799      -281.0065
  35   2.0000     -10.324521      -280.9445
  36   2.0000     -10.321431      -280.8604
  37   2.0000     -10.320962      -280.8476
  38   2.0000     -10.320331      -280.8305
  39   2.0000     -10.319507      -280.8081
  40   2.0000     -10.319489      -280.8076
  41   2.0000     -10.319406      -280.8053
  42   2.0000     -10.316950      -280.7385
  43   2.0000     -10.315914      -280.7103
  44   2.0000     -10.315677      -280.7038
  45   2.0000     -10.313375      -280.6412
  46   2.0000     -10.311831      -280.5992
  47   2.0000     -10.311412      -280.5878
  48   2.0000     -10.309101      -280.5249
  49   2.0000     -10.304878      -280.4100
  50   2.0000     -10.304674      -280.4044
  51   2.0000     -10.304152      -280.3902
  52   2.0000     -10.303718      -280.3784
  53   2.0000     -10.302048      -280.3330
  54   2.0000     -10.301480      -280.3175
  55   2.0000     -10.297873      -280.2194
  56   2.0000     -10.297190      -280.2008
  57   2.0000     -10.295224      -280.1473
  58   2.0000     -10.290961      -280.0313
  59   2.0000     -10.289686      -279.9966
  60   2.0000     -10.288796      -279.9724
  61   2.0000     -10.288612      -279.9674
  62   2.0000     -10.288184      -279.9557
  63   2.0000     -10.287866      -279.9471
  64   2.0000     -10.287206      -279.9291
  65   2.0000     -10.287165      -279.9280
  66   2.0000     -10.287042      -279.9246
  67   2.0000     -10.286617      -279.9131
  68   2.0000     -10.286499      -279.9099
  69   2.0000     -10.285403      -279.8800
  70   2.0000     -10.285192      -279.8743
  71   2.0000     -10.283543      -279.8294
  72   2.0000     -10.282249      -279.7942
  73   2.0000     -10.274372      -279.5799
  74   2.0000     -10.273792      -279.5641
  75   2.0000     -10.256330      -279.0889
  76   2.0000     -10.255408      -279.0638
  77   2.0000      -8.092002      -220.1946
  78   2.0000      -8.089231      -220.1192
  79   2.0000      -8.075489      -219.7452
  80   2.0000      -8.070457      -219.6083
  81   2.0000      -8.066135      -219.4907
  82   2.0000      -8.062610      -219.3948
  83   2.0000      -6.061225      -164.9343
  84   2.0000      -6.058412      -164.8578
  85   2.0000      -6.057024      -164.8200
  86   2.0000      -6.054449      -164.7499
  87   2.0000      -6.054271      -164.7451
  88   2.0000      -6.051777      -164.6772
  89   2.0000      -6.044744      -164.4859
  90   2.0000      -6.040159      -164.3611
  91   2.0000      -6.039751      -164.3500
  92   2.0000      -6.038066      -164.3041
  93   2.0000      -6.035553      -164.2357
  94   2.0000      -6.035146      -164.2247
  95   2.0000      -6.032961      -164.1652
  96   2.0000      -6.032338      -164.1483
  97   2.0000      -6.030929      -164.1099
  98   2.0000      -6.028561      -164.0455
  99   2.0000      -6.028033      -164.0311
 100   2.0000      -6.024002      -163.9214
 101   2.0000      -1.198517       -32.6133
 102   2.0000      -1.134417       -30.8690
 103   2.0000      -1.132174       -30.8080
 104   2.0000      -1.103832       -30.0368
 105   2.0000      -1.051720       -28.6188
 106   2.0000      -1.027283       -27.9538
 107   2.0000      -1.024913       -27.8893
 108   2.0000      -1.022264       -27.8172
 109   2.0000      -1.018621       -27.7181
 110   2.0000      -1.012382       -27.5483
 111   2.0000      -1.009053       -27.4577
 112   2.0000      -1.006945       -27.4004
 113   2.0000      -1.003074       -27.2950
 114   2.0000      -1.001419       -27.2500
 115   2.0000      -0.995592       -27.0914
 116   2.0000      -0.989451       -26.9243
 117   2.0000      -0.972484       -26.4626
 118   2.0000      -0.966413       -26.2974
 119   2.0000      -0.963064       -26.2063
 120   2.0000      -0.960142       -26.1268
 121   2.0000      -0.952099       -25.9079
 122   2.0000      -0.934123       -25.4188
 123   2.0000      -0.920695       -25.0534
 124   2.0000      -0.908074       -24.7100
 125   2.0000      -0.903835       -24.5946
 126   2.0000      -0.895359       -24.3640
 127   2.0000      -0.887109       -24.1395
 128   2.0000      -0.882596       -24.0166
 129   2.0000      -0.875053       -23.8114
 130   2.0000      -0.871663       -23.7191
 131   2.0000      -0.868655       -23.6373
 132   2.0000      -0.863120       -23.4867
 133   2.0000      -0.860086       -23.4041
 134   2.0000      -0.853363       -23.2212
 135   2.0000      -0.848664       -23.0933
 136   2.0000      -0.847508       -23.0619
 137   2.0000      -0.844721       -22.9860
 138   2.0000      -0.836548       -22.7636
 139   2.0000      -0.810906       -22.0659
 140   2.0000      -0.807960       -21.9857
 141   2.0000      -0.801477       -21.8093
 142   2.0000      -0.797284       -21.6952
 143   2.0000      -0.793417       -21.5900
 144   2.0000      -0.784379       -21.3440
 145   2.0000      -0.779004       -21.1978
 146   2.0000      -0.772912       -21.0320
 147   2.0000      -0.759588       -20.6694
 148   2.0000      -0.744571       -20.2608
 149   2.0000      -0.738998       -20.1092
 150   2.0000      -0.736301       -20.0358
 151   2.0000      -0.726452       -19.7678
 152   2.0000      -0.723105       -19.6767
 153   2.0000      -0.708157       -19.2699
 154   2.0000      -0.706577       -19.2269
 155   2.0000      -0.697771       -18.9873
 156   2.0000      -0.691452       -18.8154
 157   2.0000      -0.686876       -18.6908
 158   2.0000      -0.684414       -18.6239
 159   2.0000      -0.683010       -18.5857
 160   2.0000      -0.676856       -18.4182
 161   2.0000      -0.672766       -18.3069
 162   2.0000      -0.667777       -18.1711
 163   2.0000      -0.663862       -18.0646
 164   2.0000      -0.661371       -17.9968
 165   2.0000      -0.648244       -17.6396
 166   2.0000      -0.639568       -17.4035
 167   2.0000      -0.630648       -17.1608
 168   2.0000      -0.628799       -17.1105
 169   2.0000      -0.626916       -17.0593
 170   2.0000      -0.624570       -16.9954
 171   2.0000      -0.620079       -16.8732
 172   2.0000      -0.610102       -16.6017
 173   2.0000      -0.605233       -16.4692
 174   2.0000      -0.604108       -16.4386
 175   2.0000      -0.600166       -16.3313
 176   2.0000      -0.595125       -16.1942
 177   2.0000      -0.592267       -16.1164
 178   2.0000      -0.581661       -15.8278
 179   2.0000      -0.579343       -15.7647
 180   2.0000      -0.577541       -15.7157
 181   2.0000      -0.570843       -15.5334
 182   2.0000      -0.566047       -15.4029
 183   2.0000      -0.559019       -15.2117
 184   2.0000      -0.556994       -15.1566
 185   2.0000      -0.555428       -15.1140
 186   2.0000      -0.553564       -15.0632
 187   2.0000      -0.546604       -14.8738
 188   2.0000      -0.546301       -14.8656
 189   2.0000      -0.544632       -14.8202
 190   2.0000      -0.541349       -14.7309
 191   2.0000      -0.540671       -14.7124
 192   2.0000      -0.538534       -14.6543
 193   2.0000      -0.535067       -14.5599
 194   2.0000      -0.529209       -14.4005
 195   2.0000      -0.528871       -14.3913
 196   2.0000      -0.526801       -14.3350
 197   2.0000      -0.524818       -14.2810
 198   2.0000      -0.522541       -14.2191
 199   2.0000      -0.522285       -14.2121
 200   2.0000      -0.517872       -14.0920
 201   2.0000      -0.516653       -14.0588
 202   2.0000      -0.515090       -14.0163
 203   2.0000      -0.514640       -14.0041
 204   2.0000      -0.512843       -13.9552
 205   2.0000      -0.511976       -13.9316
 206   2.0000      -0.508709       -13.8427
 207   2.0000      -0.504814       -13.7367
 208   2.0000      -0.503841       -13.7102
 209   2.0000      -0.502221       -13.6661
 210   2.0000      -0.500164       -13.6102
 211   2.0000      -0.495770       -13.4906
 212   2.0000      -0.492221       -13.3940
 213   2.0000      -0.491684       -13.3794
 214   2.0000      -0.488548       -13.2941
 215   2.0000      -0.486737       -13.2448
 216   2.0000      -0.483804       -13.1650
 217   2.0000      -0.481125       -13.0921
 218   2.0000      -0.480124       -13.0648
 219   2.0000      -0.479764       -13.0550
 220   2.0000      -0.477252       -12.9867
 221   2.0000      -0.474569       -12.9137
 222   2.0000      -0.473195       -12.8763
 223   2.0000      -0.465762       -12.6740
 224   2.0000      -0.464316       -12.6347
 225   2.0000      -0.463066       -12.6007
 226   2.0000      -0.462116       -12.5748
 227   2.0000      -0.461524       -12.5587
 228   2.0000      -0.459645       -12.5076
 229   2.0000      -0.458672       -12.4811
 230   2.0000      -0.457622       -12.4525
 231   2.0000      -0.455544       -12.3960
 232   2.0000      -0.455084       -12.3835
 233   2.0000      -0.451846       -12.2954
 234   2.0000      -0.449096       -12.2205
 235   2.0000      -0.447743       -12.1837
 236   2.0000      -0.446465       -12.1489
 237   2.0000      -0.445859       -12.1324
 238   2.0000      -0.444720       -12.1014
 239   2.0000      -0.443568       -12.0701
 240   2.0000      -0.441006       -12.0004
 241   2.0000      -0.440526       -11.9873
 242   2.0000      -0.438378       -11.9289
 243   2.0000      -0.436054       -11.8656
 244   2.0000      -0.435123       -11.8403
 245   2.0000      -0.434813       -11.8319
 246   2.0000      -0.433543       -11.7973
 247   2.0000      -0.431093       -11.7306
 248   2.0000      -0.430837       -11.7237
 249   2.0000      -0.428795       -11.6681
 250   2.0000      -0.426230       -11.5983
 251   2.0000      -0.425164       -11.5693
 252   2.0000      -0.423342       -11.5197
 253   2.0000      -0.421067       -11.4578
 254   2.0000      -0.418765       -11.3952
 255   2.0000      -0.416269       -11.3272
 256   2.0000      -0.412854       -11.2343
 257   2.0000      -0.410169       -11.1613
 258   2.0000      -0.405535       -11.0352
 259   2.0000      -0.405142       -11.0245
 260   2.0000      -0.404188       -10.9985
 261   2.0000      -0.400361       -10.8944
 262   2.0000      -0.397378       -10.8132
 263   2.0000      -0.394307       -10.7296
 264   2.0000      -0.388401       -10.5689
 265   2.0000      -0.384545       -10.4640
 266   2.0000      -0.368507       -10.0276
 267   2.0000      -0.361997        -9.8505
 268   2.0000      -0.353562        -9.6209
 269   2.0000      -0.342785        -9.3277
 270   2.0000      -0.340749        -9.2722
 271   2.0000      -0.339051        -9.2260
 272   2.0000      -0.337361        -9.1801
 273   2.0000      -0.332926        -9.0594
 274   2.0000      -0.331299        -9.0151
 275   2.0000      -0.330892        -9.0040
 276   2.0000      -0.329150        -8.9566
 277   2.0000      -0.325851        -8.8669
 278   2.0000      -0.317258        -8.6330
 279   2.0000      -0.312464        -8.5026
 280   2.0000      -0.305683        -8.3181
 281   2.0000      -0.299462        -8.1488
 282   2.0000      -0.267869        -7.2891
 283   2.0000      -0.250145        -6.8068
 284   0.0000      -0.115531        -3.1438
 285   0.0000      -0.099147        -2.6979
 286   0.0000      -0.089823        -2.4442
 287   0.0000      -0.050785        -1.3819
 288   0.0000      -0.046651        -1.2694

MULLIKEN ATOMIC CHARGES
-----------------------
   0 C :    0.034829
   1 C :   -0.142216
   2 S :    0.147812
   3 C :   -0.319730
   4 C :    0.119490
   5 C :    0.057496
   6 C :    0.167525
   7 O :   -0.200241
   8 C :   -0.112160
   9 C :    0.308092
  10 C :   -0.346093
  11 C :   -0.194647
  12 N :    0.149276
  13 C :   -0.188175
  14 N :    0.150406
  15 C :   -0.041065
  16 C :   -0.067887
  17 S :    0.183683
  18 C :   -0.104649
  19 C :   -0.033376
  20 C :    0.129264
  21 C :   -0.020486
  22 C :   -0.107942
  23 C :    0.203384
  24 O :   -0.182038
  25 O :   -0.312391
  26 C :    0.188557
  27 S :    0.155328
  28 C :    0.125429
  29 C :   -0.119994
  30 C :    0.008863
  31 C :    0.116118
  32 C :   -0.047860
  33 C :   -0.033031
  34 C :    0.112737
  35 C :    0.012714
  36 C :   -0.142504
  37 C :    0.066606
  38 C :    0.024747
  39 C :    0.066785
  40 C :    0.024221
  41 C :   -0.129301
  42 C :    0.157402
  43 C :   -0.032521
  44 C :   -0.044970
  45 C :   -0.061997
  46 C :   -0.046695
  47 C :    0.019092
  48 C :   -0.095688
  49 S :    0.169606
  50 C :   -0.076080
  51 C :    0.021558
  52 C :    0.302119
  53 C :   -0.292855
  54 C :   -0.182139
  55 N :    0.167438
  56 C :   -0.189550
  57 N :    0.178245
  58 C :    0.005540
  59 C :   -0.090630
  60 S :    0.206718
  61 C :    0.038181
  62 C :   -0.145376
  63 C :    0.135743
  64 O :   -0.149374
  65 C :    0.059846
  66 C :   -0.312289
  67 S :    0.151700
  68 C :   -0.138162
  69 C :    0.029585
  70 C :    0.247932
  71 C :   -0.318731
  72 C :   -0.180575
  73 N :    0.151825
  74 C :   -0.210664
  75 N :    0.172643
  76 C :    0.112186
  77 H :    0.049287
  78 H :    0.035653
  79 H :    0.043367
  80 H :    0.038121
  81 H :   -0.005156
  82 H :    0.032465
  83 H :    0.036741
  84 H :    0.037881
  85 H :    0.037750
  86 H :   -0.009641
  87 H :   -0.029304
  88 H :   -0.023152
  89 H :    0.004079
  90 H :   -0.000677
  91 H :    0.022844
  92 H :    0.014420
  93 H :    0.020316
  94 H :   -0.001347
  95 H :    0.003478
  96 H :    0.019962
  97 H :    0.013679
  98 H :    0.023278
  99 H :   -0.021697
 100 H :   -0.018794
 101 H :   -0.026154
 102 H :    0.007524
 103 H :    0.018494
 104 H :    0.034689
 105 H :    0.046735
 106 H :    0.049822
 107 H :    0.041134
 108 H :    0.037568
Sum of atomic charges:   -0.0000000

LOEWDIN ATOMIC CHARGES
----------------------
   0 C :   -0.061554
   1 C :   -0.149592
   2 S :    0.458830
   3 C :   -0.130958
   4 C :   -0.058388
   5 C :   -0.102824
   6 C :    0.085518
   7 O :   -0.182544
   8 C :   -0.110366
   9 C :    0.077956
  10 C :   -0.151638
  11 C :   -0.015293
  12 N :   -0.061510
  13 C :   -0.021435
  14 N :   -0.058388
  15 C :    0.052873
  16 C :   -0.190497
  17 S :    0.534147
  18 C :   -0.156466
  19 C :   -0.195446
  20 C :   -0.044108
  21 C :   -0.009321
  22 C :   -0.190456
  23 C :    0.067149
  24 O :   -0.160786
  25 O :   -0.101887
  26 C :    0.083527
  27 S :    0.436645
  28 C :   -0.042865
  29 C :   -0.017817
  30 C :    0.006320
  31 C :   -0.009941
  32 C :   -0.012954
  33 C :   -0.013928
  34 C :   -0.014978
  35 C :    0.010122
  36 C :   -0.035997
  37 C :   -0.011124
  38 C :   -0.057138
  39 C :   -0.010934
  40 C :   -0.057510
  41 C :   -0.030117
  42 C :   -0.038241
  43 C :   -0.009090
  44 C :   -0.009685
  45 C :   -0.139565
  46 C :   -0.033564
  47 C :   -0.053781
  48 C :   -0.192173
  49 S :    0.483707
  50 C :   -0.147742
  51 C :   -0.076017
  52 C :    0.081523
  53 C :   -0.098349
  54 C :   -0.014792
  55 N :   -0.032787
  56 C :   -0.017524
  57 N :   -0.027481
  58 C :    0.015251
  59 C :   -0.181397
  60 S :    0.511844
  61 C :    0.051067
  62 C :   -0.100622
  63 C :    0.083550
  64 O :   -0.149119
  65 C :   -0.104915
  66 C :   -0.128692
  67 S :    0.463651
  68 C :   -0.154054
  69 C :   -0.061148
  70 C :    0.062794
  71 C :   -0.149800
  72 C :   -0.017449
  73 N :   -0.054981
  74 C :   -0.039495
  75 N :   -0.050225
  76 C :   -0.057852
  77 H :    0.034928
  78 H :    0.041824
  79 H :    0.046173
  80 H :    0.043231
  81 H :    0.049930
  82 H :    0.048461
  83 H :    0.027298
  84 H :    0.025895
  85 H :    0.025794
  86 H :    0.021113
  87 H :    0.030273
  88 H :    0.016762
  89 H :    0.022635
  90 H :    0.020449
  91 H :    0.025830
  92 H :    0.026535
  93 H :    0.024977
  94 H :    0.020147
  95 H :    0.022396
  96 H :    0.024738
  97 H :    0.026114
  98 H :    0.026020
  99 H :    0.016231
 100 H :    0.031670
 101 H :    0.031203
 102 H :    0.039381
 103 H :    0.047188
 104 H :    0.055009
 105 H :    0.034441
 106 H :    0.049043
 107 H :    0.044326
 108 H :    0.042811

  Mayer bond orders larger than 0.100000
B(  0-C ,  1-C ) :   1.5574 B(  0-C ,  5-C ) :   1.2030 B(  0-C ,  9-C ) :   0.9837
B(  1-C ,  2-S ) :   1.1516 B(  1-C , 77-H ) :   0.9557 B(  2-S ,  3-C ) :   1.1617
B(  3-C ,  4-C ) :   1.0873 B(  3-C ,  5-C ) :   1.5465 B(  4-C , 78-H ) :   0.9425
B(  4-C , 79-H ) :   0.9455 B(  4-C , 80-H ) :   0.9426 B(  5-C ,  6-C ) :   0.9864
B(  6-C ,  7-O ) :   2.0694 B(  6-C ,  8-C ) :   0.9948 B(  8-C ,  9-C ) :   1.1015
B(  8-C , 15-C ) :   1.4857 B(  9-C , 10-C ) :   1.6215 B( 10-C , 11-C ) :   1.1536
B( 10-C , 13-C ) :   1.1429 B( 11-C , 12-N ) :   2.9891 B( 13-C , 14-N ) :   2.9744
B( 15-C , 16-C ) :   1.3101 B( 15-C , 81-H ) :   0.9364 B( 16-C , 17-S ) :   1.0810
B( 16-C , 20-C ) :   1.2649 B( 17-S , 18-C ) :   1.1505 B( 18-C , 19-C ) :   1.4320
B( 18-C , 28-C ) :   1.1054 B( 19-C , 20-C ) :   1.2912 B( 19-C , 27-S ) :   1.0474
B( 20-C , 21-C ) :   1.1635 B( 21-C , 22-C ) :   1.6031 B( 21-C , 82-H ) :   0.9981
B( 22-C , 23-C ) :   0.9484 B( 22-C , 27-S ) :   1.0790 B( 23-C , 24-O ) :   2.1557
B( 23-C , 25-O ) :   1.2293 B( 25-O , 26-C ) :   0.9178 B( 26-C , 83-H ) :   0.9811
B( 26-C , 84-H ) :   0.9772 B( 26-C , 85-H ) :   0.9766 B( 28-C , 29-C ) :   1.2674
B( 28-C , 33-C ) :   1.3351 B( 29-C , 30-C ) :   1.4241 B( 29-C , 86-H ) :   0.9966
B( 30-C , 31-C ) :   1.3557 B( 30-C , 36-C ) :   0.9124 B( 31-C , 32-C ) :   1.3383
B( 31-C , 34-C ) :   0.9969 B( 32-C , 33-C ) :   1.4039 B( 32-C , 87-H ) :   0.9908
B( 33-C , 88-H ) :   0.9775 B( 34-C , 35-C ) :   1.3675 B( 34-C , 44-C ) :   1.3288
B( 35-C , 36-C ) :   0.9111 B( 35-C , 41-C ) :   1.4256 B( 36-C , 37-C ) :   1.0379
B( 36-C , 39-C ) :   1.0390 B( 37-C , 38-C ) :   1.1008 B( 37-C , 89-H ) :   0.9397
B( 37-C , 90-H ) :   0.9389 B( 38-C , 91-H ) :   0.9641 B( 38-C , 92-H ) :   0.9639
B( 38-C , 93-H ) :   0.9646 B( 39-C , 40-C ) :   1.1008 B( 39-C , 94-H ) :   0.9386
B( 39-C , 95-H ) :   0.9396 B( 40-C , 96-H ) :   0.9642 B( 40-C , 97-H ) :   0.9639
B( 40-C , 98-H ) :   0.9643 B( 41-C , 42-C ) :   1.2797 B( 41-C , 99-H ) :   0.9882
B( 42-C , 43-C ) :   1.3499 B( 42-C , 45-C ) :   1.0660 B( 43-C , 44-C ) :   1.3963
B( 43-C ,100-H ) :   0.9894 B( 44-C ,101-H ) :   0.9922 B( 45-C , 46-C ) :   1.4827
B( 45-C , 49-S ) :   1.1207 B( 46-C , 47-C ) :   1.2821 B( 46-C ,102-H ) :   0.9897
B( 47-C , 48-C ) :   1.4426 B( 47-C , 52-C ) :   1.0021 B( 48-C , 49-S ) :   1.1087
B( 48-C , 50-C ) :   1.2017 B( 50-C , 51-C ) :   1.3963 B( 50-C , 60-S ) :   1.1625
B( 51-C , 52-C ) :   0.9926 B( 51-C , 58-C ) :   1.3059 B( 52-C , 53-C ) :   1.7144
B( 53-C , 54-C ) :   1.1337 B( 53-C , 56-C ) :   1.1323 B( 54-C , 55-N ) :   2.9843
B( 56-C , 57-N ) :   2.9935 B( 58-C , 59-C ) :   1.3945 B( 58-C ,103-H ) :   1.0023
B( 59-C , 60-S ) :   1.0802 B( 59-C , 61-C ) :   1.1485 B( 61-C , 62-C ) :   1.6358
B( 61-C ,104-H ) :   0.9446 B( 62-C , 63-C ) :   0.9511 B( 62-C , 70-C ) :   1.0447
B( 63-C , 64-O ) :   2.2266 B( 63-C , 65-C ) :   0.9471 B( 65-C , 66-C ) :   1.5558
B( 65-C , 69-C ) :   1.2015 B( 66-C , 67-S ) :   1.1663 B( 66-C , 76-C ) :   1.0852
B( 67-S , 68-C ) :   1.1546 B( 68-C , 69-C ) :   1.5539 B( 68-C ,105-H ) :   0.9592
B( 69-C , 70-C ) :   1.0107 B( 70-C , 71-C ) :   1.6505 B( 71-C , 72-C ) :   1.1368
B( 71-C , 74-C ) :   1.1505 B( 72-C , 73-N ) :   3.0029 B( 74-C , 75-N ) :   3.0218
B( 76-C ,106-H ) :   0.9461 B( 76-C ,107-H ) :   0.9436 B( 76-C ,108-H ) :   0.9433

-----------------------------------------------------------------------------
         ABSORPTION SPECTRUM VIA TRANSITION ELECTRIC DIPOLE MOMENTS
-----------------------------------------------------------------------------
State   Energy  Wavelength   fosc         T2         TX        TY        TZ
        (cm-1)    (nm)                  (au**2)     (au)      (au)      (au)
-----------------------------------------------------------------------------
   0   13192.6    758.0   0.306858519   7.65742  -2.30511   0.92649   1.21883
   1   17841.6    560.5   1.353779144  24.97979   4.86889   0.63221   0.93486
   2   20326.0    492.0   0.743115046  12.03595  -0.65237   1.72877   2.93627
   3   21923.6    456.1   0.007586253   0.11392  -0.15542   0.10796  -0.27948
   4   25467.1    392.7   0.252922386   3.26952   1.33172  -0.92910  -0.79550
   5   26001.8    384.6   0.015007709   0.19001   0.21893   0.29624  -0.23308
   6   27402.8    364.9   0.002756440   0.03312  -0.09699  -0.14867  -0.04008
   7   27848.3    359.1   0.025664329   0.30339   0.08687  -0.54054  -0.06050
   8   27889.3    358.6   0.001039520   0.01227  -0.05336  -0.01481  -0.09594
   9   28597.5    349.7   0.104057059   1.19790  -1.03933   0.11555  -0.32302
  10   29112.6    343.5   0.118348311   1.33831  -0.37918   0.61710   0.90206
  11   29196.5    342.5   0.010667791   0.12029  -0.20909  -0.07201  -0.26718
  12   29709.2    336.6   0.347567875   3.85146   1.88500   0.12021   0.53273
  13   29991.4    333.4   0.219424373   2.40860  -1.40655  -0.49124  -0.43463
  14   30335.7    329.6   0.652770957   7.08406   1.48161  -1.61493  -1.51027
  15   30720.6    325.5   0.259581915   2.78176  -1.17421   0.85427   0.82050
  16   31589.2    316.6   0.193073181   2.01214   1.04953  -0.56544  -0.76870
  17   31974.2    312.8   0.101602098   1.04611  -0.90870   0.29114   0.36827
  18   32264.7    309.9   0.099239170   1.01259   0.28179   0.66440   0.70126
  19   32622.6    306.5   0.097456751   0.98349   0.68267  -0.22043   0.68473
  20   32768.4    305.2   0.028727580   0.28862   0.44293   0.01351  -0.30372
  21   33115.3    302.0   0.135781197   1.34986   0.31965  -1.00992  -0.47722
  22   33334.1    300.0   0.023783265   0.23489  -0.21623   0.09956   0.42216
  23   33647.5    297.2   0.363812429   3.55959   1.06141   1.13942   1.06523
  24   33927.7    294.7   0.202013050   1.96020  -0.51335   0.79368   1.03283
  25   34274.5    291.8   0.034605528   0.33239   0.22576  -0.46878  -0.24833
  26   35167.2    284.4   0.044919721   0.42051  -0.52496  -0.06984  -0.37423
  27   35380.3    282.6   0.076824551   0.71485   0.57218   0.18416   0.59460
  28   35576.9    281.1   0.181487798   1.67940  -0.41953   1.11129   0.51810
  29   35831.6    279.1   0.075076237   0.68978   0.27345  -0.39296  -0.67866
  30   35980.5    277.9   0.000254751   0.00233  -0.00403  -0.01752  -0.04481
  31   36225.9    276.0   0.006301780   0.05727   0.19027  -0.11432  -0.08942
  32   36427.5    274.5   0.014227676   0.12858  -0.06759   0.22193   0.27343
  33   36761.8    272.0   0.026317331   0.23568  -0.38308   0.25209   0.15930
  34   37147.2    269.2   0.005628884   0.04989   0.17979  -0.07371  -0.11012
  35   37717.4    265.1   0.027988212   0.24429   0.29608  -0.16079  -0.36162
  36   37785.4    264.7   0.011957873   0.10419  -0.09635  -0.03155  -0.30644
  37   37814.3    264.5   0.485948018   4.23067  -0.94933   0.88126   1.59776
  38   38275.1    261.3   0.018571160   0.15973   0.35549   0.05206  -0.17508
  39   38642.6    258.8   0.410748469   3.49933  -1.02048   1.48551   0.50123
  40   38785.9    257.8   0.132112475   1.12136  -0.05510  -1.03113  -0.23474
  41   39299.1    254.5   0.038856747   0.32551  -0.30000   0.07731  -0.47910
  42   39465.8    253.4   0.062579066   0.52202  -0.67916   0.22940   0.09016
  43   39911.3    250.6   0.007338380   0.06053  -0.07326  -0.21007  -0.10504
  44   40076.0    249.5   0.000433150   0.00356   0.04681   0.00014   0.03698

FINAL SINGLE POINT ENERGY     -5357.714944299787

DIPOLE MOMENT
-------------
                                X             Y             Z
Electronic contribution:     19.52927      -5.57525     -15.58902
Nuclear contribution   :    -18.19859       3.39376      15.03021
                        -----------------------------------------
Total Dipole Moment    :      1.33067      -2.18148      -0.55881
                        -----------------------------------------
Magnitude (a.u.)       :      2.61569
Magnitude (Debye)      :      6.64856

Rotational constants in cm-1:     0.001144     0.000209     0.000180
Rotational constants in MHz :    34.283543     6.268487     5.393537

                             ****ORCA TERMINATED NORMALLY****
TOTAL RUN TIME: 0 days 0 hours 11 minutes 16 seconds 691 msec
