                         Program Version 4.2.0 -  RELEASE  -
|  1> # ORCA input file
|  2> # SCF done       -190.598156590147          0.000811519418
|  3> ! CAM-B3LYP def2-SVP def2/J RIJCOSX Grid4 TightSCF
|  4> %maxcore 5000
|  5> %tddft
|  6>     Mode sTDDFT
|  7>     Ethresh 5.0
|  8>     maxcore 5000
|  9> end
| 10>
| 11> %pal
| 12>   nprocs 6
| 13>   end
| 14> * xyz 0 1
| 15>    C        0.08154        -1.64108         3.19472
| 16>    C       -1.15868        -1.46302         3.72240
| 17>    S       -1.16657        -0.15057         4.84540
| 18>    C        0.53507         0.17287         4.61375
| 19>    C        1.23217         1.27029         5.31877
| 20>    C        1.03980        -0.70626         3.70636
| 21>    C        2.34885        -0.96119         3.10522
| 22>    O        3.40913        -0.44427         3.39135
| 23>    C        2.11934        -2.08762         2.15274
| 24>    C        0.73474        -2.50931         2.23733
| 25>    C        0.10513        -3.49306         1.51584
| 26>    C       -1.26491        -3.76785         1.69886
| 27>    N       -2.37903        -4.00507         1.84046
| 28>    C        0.71010        -4.30536         0.53935
| 29>    N        1.14767        -4.98741        -0.27545
| 30>    C        3.10881        -2.73321         1.45867
| 31>    C        4.39983        -2.23690         1.20555
| 32>    S        5.71689        -3.36074         0.96944
| 33>    C        6.89909        -2.09630         0.77000
| 34>    C        6.26384        -0.85976         0.82234
| 35>    C        4.86419        -0.92727         1.04815
| 36>    C        4.25197         0.34471         0.96212
| 37>    C        5.15415         1.33757         0.72261
| 38>    C        4.84036         2.75737         0.55099
| 39>    O        3.74294         3.23245         0.69948
| 40>    O        5.92003         3.45923         0.17269
| 41>    C        5.71623         4.84971        -0.01428
| 42>    S        6.79611         0.77517         0.58615
| 43>    C        8.27766        -2.38607         0.59283
| 44>    C        9.23559        -1.39796         0.64734
| 45>    C       10.59670        -1.59994         0.47433
| 46>    C       11.14856        -2.92513         0.19253
| 47>    C       10.39574        -4.04581         0.11268
| 48>    S        8.69073        -4.07171         0.31243
| 49>    C       12.55071        -2.72124         0.06328
| 50>    C       12.86296        -1.37065         0.25806
| 51>    C       14.25114        -1.13444         0.14296
| 52>    C       14.93514        -2.27657        -0.12920
| 53>    S       13.93593        -3.68304        -0.25620
| 54>    C       11.64583        -0.65074         0.52491
| 55>    C       11.42465         0.70673         0.81620
| 56>    C       12.32691         1.72647         0.88368
| 57>    C       11.93776         3.04126         1.22539
| 58>    C       10.67394         3.48915         1.60433
| 59>    C       10.65516         4.84796         1.87017
| 60>    C       11.90672         5.47219         1.69359
| 61>    S       13.10948         4.35237         1.20983
| 62>    C       11.76361         6.84698         1.97692
| 63>    C       10.41274         7.09667         2.31926
| 64>    C        9.68320         5.84810         2.28742
| 65>    C        8.37966         5.63569         2.63423
| 66>    C        7.81352         4.34499         2.66754
| 67>    N        7.35970         3.29241         2.71292
| 68>    C        7.52898         6.69935         2.99833
| 69>    N        6.83442         7.57160         3.26736
| 70>    C       10.17525         8.41941         2.66376
| 71>    C       11.32218         9.19763         2.59891
| 72>    S       12.71567         8.25578         2.05671
| 73>    C       11.48419        10.57262         2.85440
| 74>    C       10.67244        11.42547         3.54505
| 75>    C       10.83839        12.89363         3.31016
| 76>    O       11.74775        13.42605         2.71231
| 77>    C        9.65160        13.50309         3.91045
| 78>    C        9.12098        14.75318         3.99470
| 79>    S        7.62337        14.68748         4.89118
| 80>    C        7.75035        12.98378         5.14657
| 81>    C        8.87623        12.49102         4.56774
| 82>    C        9.56544        11.21880         4.45761
| 83>    C        9.31319        10.14452         5.27455
| 84>    C        8.23742        10.15428         6.18609
| 85>    N        7.36688        10.14836         6.93363
| 86>    C       10.11403         8.99430         5.36931
| 87>    N       10.75526         8.04993         5.50090
| 88>    C        9.65597        16.02066         3.44984
| 89>    H       -2.06601        -2.00331         3.54043
| 90>    H        1.10026         1.18387         6.39669
| 91>    H        0.83357         2.23713         5.01052
| 92>    H        2.29244         1.23196         5.07837
| 93>    H        2.91428        -3.73477         1.09429
| 94>    H        3.19898         0.53713         1.03941
| 95>    H        6.64722         5.24429        -0.41419
| 96>    H        5.47073         5.32986         0.93591
| 97>    H        4.89486         5.02084        -0.71329
| 98>    H        8.88234        -0.39925         0.85293
| 99>    H       10.81841        -5.01887        -0.08184
|100>    H       14.73281        -0.18066         0.25297
|101>    H       15.99271        -2.38928        -0.26732
|102>    H       10.39243         0.95616         1.01414
|103>    H       13.37147         1.55984         0.67144
|104>    H        9.81544         2.84965         1.68647
|105>    H        9.20793         8.82129         2.90522
|106>    H       12.34368        11.04768         2.39026
|107>    H        6.98059        12.47581         5.69209
|108>    H       10.59873        15.82230         2.94499
|109>    H        9.82084        16.74314         4.24863
|110>    H        8.95452        16.46171         2.74200
|111> *
|112>
|113>                          ****END OF INPUT****

CARTESIAN COORDINATES (ANGSTROEM)
---------------------------------
  C      0.081540   -1.641080    3.194720
  C     -1.158680   -1.463020    3.722400
  S     -1.166570   -0.150570    4.845400
  C      0.535070    0.172870    4.613750
  C      1.232170    1.270290    5.318770
  C      1.039800   -0.706260    3.706360
  C      2.348850   -0.961190    3.105220
  O      3.409130   -0.444270    3.391350
  C      2.119340   -2.087620    2.152740
  C      0.734740   -2.509310    2.237330
  C      0.105130   -3.493060    1.515840
  C     -1.264910   -3.767850    1.698860
  N     -2.379030   -4.005070    1.840460
  C      0.710100   -4.305360    0.539350
  N      1.147670   -4.987410   -0.275450
  C      3.108810   -2.733210    1.458670
  C      4.399830   -2.236900    1.205550
  S      5.716890   -3.360740    0.969440
  C      6.899090   -2.096300    0.770000
  C      6.263840   -0.859760    0.822340
  C      4.864190   -0.927270    1.048150
  C      4.251970    0.344710    0.962120
  C      5.154150    1.337570    0.722610
  C      4.840360    2.757370    0.550990
  O      3.742940    3.232450    0.699480
  O      5.920030    3.459230    0.172690
  C      5.716230    4.849710   -0.014280
  S      6.796110    0.775170    0.586150
  C      8.277660   -2.386070    0.592830
  C      9.235590   -1.397960    0.647340
  C     10.596700   -1.599940    0.474330
  C     11.148560   -2.925130    0.192530
  C     10.395740   -4.045810    0.112680
  S      8.690730   -4.071710    0.312430
  C     12.550710   -2.721240    0.063280
  C     12.862960   -1.370650    0.258060
  C     14.251140   -1.134440    0.142960
  C     14.935140   -2.276570   -0.129200
  S     13.935930   -3.683040   -0.256200
  C     11.645830   -0.650740    0.524910
  C     11.424650    0.706730    0.816200
  C     12.326910    1.726470    0.883680
  C     11.937760    3.041260    1.225390
  C     10.673940    3.489150    1.604330
  C     10.655160    4.847960    1.870170
  C     11.906720    5.472190    1.693590
  S     13.109480    4.352370    1.209830
  C     11.763610    6.846980    1.976920
  C     10.412740    7.096670    2.319260
  C      9.683200    5.848100    2.287420
  C      8.379660    5.635690    2.634230
  C      7.813520    4.344990    2.667540
  N      7.359700    3.292410    2.712920
  C      7.528980    6.699350    2.998330
  N      6.834420    7.571600    3.267360
  C     10.175250    8.419410    2.663760
  C     11.322180    9.197630    2.598910
  S     12.715670    8.255780    2.056710
  C     11.484190   10.572620    2.854400
  C     10.672440   11.425470    3.545050
  C     10.838390   12.893630    3.310160
  O     11.747750   13.426050    2.712310
  C      9.651600   13.503090    3.910450
  C      9.120980   14.753180    3.994700
  S      7.623370   14.687480    4.891180
  C      7.750350   12.983780    5.146570
  C      8.876230   12.491020    4.567740
  C      9.565440   11.218800    4.457610
  C      9.313190   10.144520    5.274550
  C      8.237420   10.154280    6.186090
  N      7.366880   10.148360    6.933630
  C     10.114030    8.994300    5.369310
  N     10.755260    8.049930    5.500900
  C      9.655970   16.020660    3.449840
  H     -2.066010   -2.003310    3.540430
  H      1.100260    1.183870    6.396690
  H      0.833570    2.237130    5.010520
  H      2.292440    1.231960    5.078370
  H      2.914280   -3.734770    1.094290
  H      3.198980    0.537130    1.039410
  H      6.647220    5.244290   -0.414190
  H      5.470730    5.329860    0.935910
  H      4.894860    5.020840   -0.713290
  H      8.882340   -0.399250    0.852930
  H     10.818410   -5.018870   -0.081840
  H     14.732810   -0.180660    0.252970
  H     15.992710   -2.389280   -0.267320
  H     10.392430    0.956160    1.014140
  H     13.371470    1.559840    0.671440
  H      9.815440    2.849650    1.686470
  H      9.207930    8.821290    2.905220
  H     12.343680   11.047680    2.390260
  H      6.980590   12.475810    5.692090
  H     10.598730   15.822300    2.944990
  H      9.820840   16.743140    4.248630
  H      8.954520   16.461710    2.742000

 Total Charge           Charge          ....    0
 Multiplicity           Mult            ....    1
 Number of Electrons    NEL             ....  560
 Basis Dimension        Dim             .... 1178

ORBITAL ENERGIES
----------------

  NO   OCC          E(Eh)            E(eV)
   0   2.0000     -88.992439     -2421.6074
   1   2.0000     -88.989883     -2421.5378
   2   2.0000     -88.989804     -2421.5357
   3   2.0000     -88.983003     -2421.3506
   4   2.0000     -88.972806     -2421.0731
   5   2.0000     -88.970846     -2421.0198
   6   2.0000     -88.968975     -2420.9689
   7   2.0000     -88.968322     -2420.9511
   8   2.0000     -19.266473      -524.2674
   9   2.0000     -19.210933      -522.7561
  10   2.0000     -19.209385      -522.7139
  11   2.0000     -19.208249      -522.6830
  12   2.0000     -14.434128      -392.7726
  13   2.0000     -14.433994      -392.7689
  14   2.0000     -14.414045      -392.2261
  15   2.0000     -14.410676      -392.1344
  16   2.0000     -14.408454      -392.0740
  17   2.0000     -14.407650      -392.0521
  18   2.0000     -10.408620      -283.2329
  19   2.0000     -10.366746      -282.0935
  20   2.0000     -10.365287      -282.0538
  21   2.0000     -10.364272      -282.0262
  22   2.0000     -10.354131      -281.7502
  23   2.0000     -10.343885      -281.4714
  24   2.0000     -10.342005      -281.4203
  25   2.0000     -10.341937      -281.4184
  26   2.0000     -10.341566      -281.4083
  27   2.0000     -10.340378      -281.3760
  28   2.0000     -10.336815      -281.2790
  29   2.0000     -10.336335      -281.2660
  30   2.0000     -10.334314      -281.2110
  31   2.0000     -10.334140      -281.2063
  32   2.0000     -10.333695      -281.1941
  33   2.0000     -10.329266      -281.0736
  34   2.0000     -10.327604      -281.0284
  35   2.0000     -10.327103      -281.0148
  36   2.0000     -10.324801      -280.9521
  37   2.0000     -10.323724      -280.9228
  38   2.0000     -10.323143      -280.9070
  39   2.0000     -10.321790      -280.8702
  40   2.0000     -10.321306      -280.8570
  41   2.0000     -10.320433      -280.8333
  42   2.0000     -10.320261      -280.8286
  43   2.0000     -10.316790      -280.7341
  44   2.0000     -10.315721      -280.7050
  45   2.0000     -10.313885      -280.6551
  46   2.0000     -10.313687      -280.6497
  47   2.0000     -10.312675      -280.6221
  48   2.0000     -10.311514      -280.5906
  49   2.0000     -10.311360      -280.5864
  50   2.0000     -10.311203      -280.5821
  51   2.0000     -10.311050      -280.5779
  52   2.0000     -10.310486      -280.5626
  53   2.0000     -10.308891      -280.5192
  54   2.0000     -10.307595      -280.4839
  55   2.0000     -10.305024      -280.4140
  56   2.0000     -10.303254      -280.3658
  57   2.0000     -10.300902      -280.3018
  58   2.0000     -10.300478      -280.2903
  59   2.0000     -10.298824      -280.2452
  60   2.0000     -10.296989      -280.1953
  61   2.0000     -10.296577      -280.1841
  62   2.0000     -10.296275      -280.1759
  63   2.0000     -10.296022      -280.1690
  64   2.0000     -10.295183      -280.1462
  65   2.0000     -10.294074      -280.1160
  66   2.0000     -10.293420      -280.0982
  67   2.0000     -10.290353      -280.0147
  68   2.0000     -10.288010      -279.9510
  69   2.0000     -10.286681      -279.9148
  70   2.0000     -10.281928      -279.7855
  71   2.0000     -10.280714      -279.7525
  72   2.0000     -10.277582      -279.6672
  73   2.0000     -10.276632      -279.6414
  74   2.0000      -8.087228      -220.0647
  75   2.0000      -8.085234      -220.0104
  76   2.0000      -8.084403      -219.9878
  77   2.0000      -8.078161      -219.8179
  78   2.0000      -8.068777      -219.5626
  79   2.0000      -8.066693      -219.5059
  80   2.0000      -8.063777      -219.4265
  81   2.0000      -8.063474      -219.4183
  82   2.0000      -6.056394      -164.8029
  83   2.0000      -6.054857      -164.7610
  84   2.0000      -6.053634      -164.7278
  85   2.0000      -6.052301      -164.6915
  86   2.0000      -6.050250      -164.6357
  87   2.0000      -6.049622      -164.6186
  88   2.0000      -6.049534      -164.6162
  89   2.0000      -6.047516      -164.5613
  90   2.0000      -6.047043      -164.5484
  91   2.0000      -6.046763      -164.5408
  92   2.0000      -6.043292      -164.4463
  93   2.0000      -6.040236      -164.3632
  94   2.0000      -6.038042      -164.3035
  95   2.0000      -6.035953      -164.2466
  96   2.0000      -6.033458      -164.1787
  97   2.0000      -6.033306      -164.1746
  98   2.0000      -6.033208      -164.1719
  99   2.0000      -6.031371      -164.1219
 100   2.0000      -6.031292      -164.1198
 101   2.0000      -6.029259      -164.0645
 102   2.0000      -6.028949      -164.0560
 103   2.0000      -6.028912      -164.0550
 104   2.0000      -6.025850      -163.9717
 105   2.0000      -6.024749      -163.9418
 106   2.0000      -1.197197       -32.5774
 107   2.0000      -1.126273       -30.6474
 108   2.0000      -1.125715       -30.6323
 109   2.0000      -1.102380       -29.9973
 110   2.0000      -1.047224       -28.4964
 111   2.0000      -1.029537       -28.0151
 112   2.0000      -1.025315       -27.9002
 113   2.0000      -1.018370       -27.7113
 114   2.0000      -1.017455       -27.6864
 115   2.0000      -1.015537       -27.6342
 116   2.0000      -1.011689       -27.5295
 117   2.0000      -1.002905       -27.2904
 118   2.0000      -0.999757       -27.2048
 119   2.0000      -0.998822       -27.1793
 120   2.0000      -0.988857       -26.9082
 121   2.0000      -0.987665       -26.8757
 122   2.0000      -0.986054       -26.8319
 123   2.0000      -0.965747       -26.2793
 124   2.0000      -0.964921       -26.2568
 125   2.0000      -0.956507       -26.0279
 126   2.0000      -0.955820       -26.0092
 127   2.0000      -0.941284       -25.6136
 128   2.0000      -0.924809       -25.1653
 129   2.0000      -0.917998       -24.9800
 130   2.0000      -0.900632       -24.5074
 131   2.0000      -0.895890       -24.3784
 132   2.0000      -0.891275       -24.2528
 133   2.0000      -0.881894       -23.9975
 134   2.0000      -0.879950       -23.9446
 135   2.0000      -0.868594       -23.6356
 136   2.0000      -0.865665       -23.5559
 137   2.0000      -0.863945       -23.5091
 138   2.0000      -0.859351       -23.3841
 139   2.0000      -0.857241       -23.3267
 140   2.0000      -0.849826       -23.1249
 141   2.0000      -0.847881       -23.0720
 142   2.0000      -0.828419       -22.5424
 143   2.0000      -0.816699       -22.2235
 144   2.0000      -0.810443       -22.0533
 145   2.0000      -0.801638       -21.8137
 146   2.0000      -0.796003       -21.6603
 147   2.0000      -0.791407       -21.5353
 148   2.0000      -0.788078       -21.4447
 149   2.0000      -0.781595       -21.2683
 150   2.0000      -0.770513       -20.9667
 151   2.0000      -0.756129       -20.5753
 152   2.0000      -0.744057       -20.2468
 153   2.0000      -0.733225       -19.9521
 154   2.0000      -0.732345       -19.9281
 155   2.0000      -0.724609       -19.7176
 156   2.0000      -0.720065       -19.5940
 157   2.0000      -0.706884       -19.2353
 158   2.0000      -0.702286       -19.1102
 159   2.0000      -0.690189       -18.7810
 160   2.0000      -0.682986       -18.5850
 161   2.0000      -0.680442       -18.5158
 162   2.0000      -0.675698       -18.3867
 163   2.0000      -0.669316       -18.2130
 164   2.0000      -0.663541       -18.0559
 165   2.0000      -0.661458       -17.9992
 166   2.0000      -0.659707       -17.9515
 167   2.0000      -0.656485       -17.8639
 168   2.0000      -0.645966       -17.5776
 169   2.0000      -0.640294       -17.4233
 170   2.0000      -0.637071       -17.3356
 171   2.0000      -0.631081       -17.1726
 172   2.0000      -0.626264       -17.0415
 173   2.0000      -0.619890       -16.8681
 174   2.0000      -0.610439       -16.6109
 175   2.0000      -0.603836       -16.4312
 176   2.0000      -0.602300       -16.3894
 177   2.0000      -0.594876       -16.1874
 178   2.0000      -0.593018       -16.1368
 179   2.0000      -0.587602       -15.9895
 180   2.0000      -0.583278       -15.8718
 181   2.0000      -0.580519       -15.7967
 182   2.0000      -0.577929       -15.7262
 183   2.0000      -0.575911       -15.6713
 184   2.0000      -0.573014       -15.5925
 185   2.0000      -0.563877       -15.3439
 186   2.0000      -0.561173       -15.2703
 187   2.0000      -0.554840       -15.0980
 188   2.0000      -0.550628       -14.9833
 189   2.0000      -0.547457       -14.8971
 190   2.0000      -0.546385       -14.8679
 191   2.0000      -0.539411       -14.6781
 192   2.0000      -0.538125       -14.6431
 193   2.0000      -0.536549       -14.6002
 194   2.0000      -0.531562       -14.4645
 195   2.0000      -0.528962       -14.3938
 196   2.0000      -0.524487       -14.2720
 197   2.0000      -0.523445       -14.2437
 198   2.0000      -0.522225       -14.2105
 199   2.0000      -0.520698       -14.1689
 200   2.0000      -0.517155       -14.0725
 201   2.0000      -0.515080       -14.0160
 202   2.0000      -0.512476       -13.9452
 203   2.0000      -0.510429       -13.8895
 204   2.0000      -0.509125       -13.8540
 205   2.0000      -0.508604       -13.8398
 206   2.0000      -0.506421       -13.7804
 207   2.0000      -0.504813       -13.7367
 208   2.0000      -0.501125       -13.6363
 209   2.0000      -0.500385       -13.6162
 210   2.0000      -0.496909       -13.5216
 211   2.0000      -0.494283       -13.4501
 212   2.0000      -0.491059       -13.3624
 213   2.0000      -0.489345       -13.3158
 214   2.0000      -0.486392       -13.2354
 215   2.0000      -0.484038       -13.1713
 216   2.0000      -0.477456       -12.9922
 217   2.0000      -0.476651       -12.9703
 218   2.0000      -0.474949       -12.9240
 219   2.0000      -0.474129       -12.9017
 220   2.0000      -0.472721       -12.8634
 221   2.0000      -0.470281       -12.7970
 222   2.0000      -0.467262       -12.7149
 223   2.0000      -0.462963       -12.5979
 224   2.0000      -0.461996       -12.5715
 225   2.0000      -0.459177       -12.4948
 226   2.0000      -0.456559       -12.4236
 227   2.0000      -0.456009       -12.4086
 228   2.0000      -0.452927       -12.3248
 229   2.0000      -0.452005       -12.2997
 230   2.0000      -0.449632       -12.2351
 231   2.0000      -0.448818       -12.2130
 232   2.0000      -0.447834       -12.1862
 233   2.0000      -0.447312       -12.1720
 234   2.0000      -0.445213       -12.1149
 235   2.0000      -0.443545       -12.0695
 236   2.0000      -0.443147       -12.0587
 237   2.0000      -0.442794       -12.0490
 238   2.0000      -0.440574       -11.9886
 239   2.0000      -0.439458       -11.9583
 240   2.0000      -0.439122       -11.9491
 241   2.0000      -0.438568       -11.9340
 242   2.0000      -0.432222       -11.7614
 243   2.0000      -0.430758       -11.7215
 244   2.0000      -0.430265       -11.7081
 245   2.0000      -0.429104       -11.6765
 246   2.0000      -0.428739       -11.6666
 247   2.0000      -0.425135       -11.5685
 248   2.0000      -0.424075       -11.5397
 249   2.0000      -0.423552       -11.5254
 250   2.0000      -0.422194       -11.4885
 251   2.0000      -0.421258       -11.4630
 252   2.0000      -0.419924       -11.4267
 253   2.0000      -0.418980       -11.4010
 254   2.0000      -0.418019       -11.3749
 255   2.0000      -0.408757       -11.1228
 256   2.0000      -0.406855       -11.0711
 257   2.0000      -0.405069       -11.0225
 258   2.0000      -0.398217       -10.8360
 259   2.0000      -0.391013       -10.6400
 260   2.0000      -0.381960       -10.3937
 261   2.0000      -0.372004       -10.1227
 262   2.0000      -0.365778        -9.9533
 263   2.0000      -0.361119        -9.8266
 264   2.0000      -0.349776        -9.5179
 265   2.0000      -0.348280        -9.4772
 266   2.0000      -0.342285        -9.3141
 267   2.0000      -0.334736        -9.1086
 268   2.0000      -0.328557        -8.9405
 269   2.0000      -0.327105        -8.9010
 270   2.0000      -0.325542        -8.8585
 271   2.0000      -0.321846        -8.7579
 272   2.0000      -0.321045        -8.7361
 273   2.0000      -0.316931        -8.6241
 274   2.0000      -0.304437        -8.2842
 275   2.0000      -0.303971        -8.2715
 276   2.0000      -0.296852        -8.0778
 277   2.0000      -0.282659        -7.6915
 278   2.0000      -0.263242        -7.1632
 279   2.0000      -0.228668        -6.2224
 280   0.0000      -0.115159        -3.1336
 281   0.0000      -0.102044        -2.7768
 282   0.0000      -0.086164        -2.3447
 283   0.0000      -0.063630        -1.7315
 284   0.0000      -0.047560        -1.2942

MULLIKEN ATOMIC CHARGES
-----------------------
   0 C :    0.044529
   1 C :   -0.141526
   2 S :    0.150031
   3 C :   -0.311338
   4 C :    0.112570
   5 C :    0.048087
   6 C :    0.122521
   7 O :   -0.149473
   8 C :   -0.115350
   9 C :    0.290908
  10 C :   -0.332167
  11 C :   -0.194595
  12 N :    0.149155
  13 C :   -0.195948
  14 N :    0.150957
  15 C :    0.013074
  16 C :   -0.137869
  17 S :    0.173989
  18 C :   -0.124165
  19 C :   -0.061099
  20 C :    0.186309
  21 C :    0.021375
  22 C :   -0.094889
  23 C :    0.207614
  24 O :   -0.189626
  25 O :   -0.312514
  26 C :    0.182323
  27 S :    0.155282
  28 C :   -0.037458
  29 C :   -0.059378
  30 C :    0.045558
  31 C :    0.072729
  32 C :   -0.124123
  33 S :    0.149850
  34 C :   -0.114830
  35 C :    0.050153
  36 C :   -0.002271
  37 C :   -0.066552
  38 S :    0.138424
  39 C :    0.113773
  40 C :   -0.013926
  41 C :    0.031644
  42 C :   -0.065258
  43 C :   -0.054820
  44 C :    0.019301
  45 C :   -0.115113
  46 S :    0.191111
  47 C :   -0.066999
  48 C :   -0.015195
  49 C :    0.318518
  50 C :   -0.305680
  51 C :   -0.181954
  52 N :    0.168534
  53 C :   -0.190481
  54 N :    0.175530
  55 C :   -0.003612
  56 C :   -0.106683
  57 S :    0.202990
  58 C :    0.077312
  59 C :   -0.148302
  60 C :    0.128631
  61 O :   -0.157770
  62 C :    0.062604
  63 C :   -0.314838
  64 S :    0.148138
  65 C :   -0.137296
  66 C :    0.021780
  67 C :    0.272104
  68 C :   -0.332304
  69 C :   -0.176675
  70 N :    0.154194
  71 C :   -0.203081
  72 N :    0.164943
  73 C :    0.115891
  74 H :    0.047347
  75 H :    0.035261
  76 H :    0.043488
  77 H :    0.052349
  78 H :    0.023421
  79 H :    0.008717
  80 H :    0.033112
  81 H :    0.039881
  82 H :    0.042317
  83 H :   -0.015234
  84 H :    0.041987
  85 H :   -0.014761
  86 H :    0.030185
  87 H :   -0.032605
  88 H :   -0.040719
  89 H :    0.009149
  90 H :    0.025384
  91 H :    0.019937
  92 H :    0.050326
  93 H :    0.047175
  94 H :    0.038192
  95 H :    0.037818
Sum of atomic charges:   -0.0000000

LOEWDIN ATOMIC CHARGES
----------------------
   0 C :   -0.063202
   1 C :   -0.150936
   2 S :    0.462266
   3 C :   -0.128018
   4 C :   -0.058125
   5 C :   -0.103432
   6 C :    0.076326
   7 O :   -0.140630
   8 C :   -0.095957
   9 C :    0.075435
  10 C :   -0.146974
  11 C :   -0.015648
  12 N :   -0.059351
  13 C :   -0.024422
  14 N :   -0.057245
  15 C :    0.038444
  16 C :   -0.175501
  17 S :    0.467275
  18 C :   -0.187554
  19 C :   -0.182572
  20 C :   -0.038436
  21 C :    0.007678
  22 C :   -0.181996
  23 C :    0.073006
  24 O :   -0.166011
  25 O :   -0.094873
  26 C :    0.079051
  27 S :    0.447024
  28 C :   -0.185468
  29 C :   -0.015438
  30 C :   -0.011417
  31 C :   -0.050177
  32 C :   -0.133696
  33 S :    0.455329
  34 C :   -0.197502
  35 C :   -0.037242
  36 C :   -0.064420
  37 C :   -0.161639
  38 S :    0.431896
  39 C :   -0.045949
  40 C :    0.004889
  41 C :   -0.064763
  42 C :   -0.141421
  43 C :   -0.038342
  44 C :   -0.047569
  45 C :   -0.206876
  46 S :    0.472344
  47 C :   -0.146149
  48 C :   -0.077669
  49 C :    0.085580
  50 C :   -0.104869
  51 C :   -0.014624
  52 N :   -0.037308
  53 C :   -0.017213
  54 N :   -0.032576
  55 C :    0.014329
  56 C :   -0.187183
  57 S :    0.488532
  58 C :    0.042039
  59 C :   -0.096599
  60 C :    0.082861
  61 O :   -0.155657
  62 C :   -0.105765
  63 C :   -0.130042
  64 S :    0.460909
  65 C :   -0.152143
  66 C :   -0.060442
  67 C :    0.068098
  68 C :   -0.145951
  69 C :   -0.015456
  70 N :   -0.053937
  71 C :   -0.017092
  72 N :   -0.051546
  73 C :   -0.058245
  74 H :    0.034308
  75 H :    0.041918
  76 H :    0.045453
  77 H :    0.049489
  78 H :    0.044890
  79 H :    0.041481
  80 H :    0.024773
  81 H :    0.024281
  82 H :    0.027192
  83 H :    0.023162
  84 H :    0.039281
  85 H :    0.029145
  86 H :    0.025509
  87 H :    0.029953
  88 H :    0.025351
  89 H :    0.036573
  90 H :    0.043196
  91 H :    0.044716
  92 H :    0.035348
  93 H :    0.048131
  94 H :    0.043005
  95 H :    0.042798

  Mayer bond orders larger than 0.100000
B(  0-C ,  1-C ) :   1.5479 B(  0-C ,  5-C ) :   1.2021 B(  0-C ,  9-C ) :   0.9933
B(  1-C ,  2-S ) :   1.1565 B(  1-C , 74-H ) :   0.9556 B(  2-S ,  3-C ) :   1.1607
B(  3-C ,  4-C ) :   1.0867 B(  3-C ,  5-C ) :   1.5522 B(  4-C , 75-H ) :   0.9420
B(  4-C , 76-H ) :   0.9431 B(  4-C , 77-H ) :   0.9451 B(  5-C ,  6-C ) :   0.9621
B(  6-C ,  7-O ) :   2.1719 B(  6-C ,  8-C ) :   0.9570 B(  8-C ,  9-C ) :   1.0946
B(  8-C , 15-C ) :   1.5701 B(  9-C , 10-C ) :   1.6340 B( 10-C , 11-C ) :   1.1483
B( 10-C , 13-C ) :   1.1376 B( 11-C , 12-N ) :   2.9912 B( 13-C , 14-N ) :   2.9811
B( 15-C , 16-C ) :   1.2125 B( 15-C , 78-H ) :   0.9311 B( 16-C , 17-S ) :   1.0974
B( 16-C , 18-C ) :   0.1012 B( 16-C , 20-C ) :   1.3370 B( 17-S , 18-C ) :   1.1506
B( 18-C , 19-C ) :   1.4797 B( 18-C , 28-C ) :   1.1572 B( 19-C , 20-C ) :   1.2831
B( 19-C , 27-S ) :   1.0667 B( 20-C , 21-C ) :   1.1416 B( 21-C , 22-C ) :   1.6341
B( 21-C , 79-H ) :   0.9960 B( 22-C , 23-C ) :   0.9547 B( 22-C , 27-S ) :   1.0735
B( 23-C , 24-O ) :   2.1482 B( 23-C , 25-O ) :   1.2113 B( 25-O , 26-C ) :   0.9157
B( 26-C , 80-H ) :   0.9802 B( 26-C , 81-H ) :   0.9737 B( 26-C , 82-H ) :   0.9731
B( 28-C , 29-C ) :   1.5234 B( 28-C , 33-S ) :   1.0445 B( 29-C , 30-C ) :   1.2778
B( 29-C , 83-H ) :   0.9539 B( 30-C , 31-C ) :   1.0526 B( 30-C , 39-C ) :   1.3459
B( 31-C , 32-C ) :   1.5990 B( 31-C , 34-C ) :   1.1779 B( 32-C , 33-S ) :   1.1472
B( 32-C , 84-H ) :   0.9407 B( 34-C , 35-C ) :   1.4444 B( 34-C , 38-S ) :   1.0825
B( 35-C , 36-C ) :   1.2180 B( 35-C , 39-C ) :   1.0722 B( 36-C , 37-C ) :   1.5845
B( 36-C , 85-H ) :   1.0023 B( 37-C , 38-S ) :   1.1584 B( 37-C , 86-H ) :   0.9653
B( 39-C , 40-C ) :   1.2094 B( 40-C , 41-C ) :   1.5995 B( 40-C , 87-H ) :   0.9517
B( 41-C , 42-C ) :   1.1427 B( 41-C , 88-H ) :   0.9729 B( 42-C , 43-C ) :   1.4099
B( 42-C , 46-S ) :   1.1228 B( 43-C , 44-C ) :   1.3284 B( 43-C , 89-H ) :   0.9847
B( 44-C , 45-C ) :   1.4142 B( 44-C , 49-C ) :   0.9959 B( 45-C , 46-S ) :   1.0889
B( 45-C , 47-C ) :   1.2284 B( 47-C , 48-C ) :   1.3823 B( 47-C , 57-S ) :   1.1591
B( 48-C , 49-C ) :   1.0114 B( 48-C , 55-C ) :   1.3633 B( 49-C , 50-C ) :   1.7003
B( 50-C , 51-C ) :   1.1425 B( 50-C , 53-C ) :   1.1386 B( 51-C , 52-N ) :   2.9384
B( 53-C , 54-N ) :   2.9796 B( 55-C , 56-C ) :   1.3862 B( 55-C , 90-H ) :   0.9800
B( 56-C , 57-S ) :   1.0694 B( 56-C , 58-C ) :   1.1566 B( 58-C , 59-C ) :   1.6475
B( 58-C , 91-H ) :   0.9260 B( 59-C , 60-C ) :   0.9589 B( 59-C , 67-C ) :   1.0537
B( 60-C , 61-O ) :   2.2150 B( 60-C , 62-C ) :   0.9477 B( 62-C , 63-C ) :   1.5561
B( 62-C , 66-C ) :   1.1994 B( 63-C , 64-S ) :   1.1637 B( 63-C , 73-C ) :   1.0873
B( 64-S , 65-C ) :   1.1526 B( 65-C , 66-C ) :   1.5584 B( 65-C , 92-H ) :   0.9570
B( 66-C , 67-C ) :   1.0055 B( 67-C , 68-C ) :   1.6387 B( 68-C , 69-C ) :   1.1322
B( 68-C , 71-C ) :   1.1706 B( 69-C , 70-N ) :   3.0007 B( 71-C , 72-N ) :   2.9926
B( 73-C , 93-H ) :   0.9454 B( 73-C , 94-H ) :   0.9429 B( 73-C , 95-H ) :   0.9428

-----------------------------------------------------------------------------
         ABSORPTION SPECTRUM VIA TRANSITION ELECTRIC DIPOLE MOMENTS
-----------------------------------------------------------------------------
State   Energy  Wavelength   fosc         T2         TX        TY        TZ
        (cm-1)    (nm)                  (au**2)     (au)      (au)      (au)
-----------------------------------------------------------------------------
   0    9290.9   1076.3   0.368518608  13.05796  -1.31103  -3.31329  -0.60104
   1   13305.9    751.5   0.791243035  19.57673  -3.86698  -2.14277   0.17828
   2   17257.6    579.5   0.324606768   6.19230   0.55804  -2.23103  -0.95047
   3   18087.5    552.9   0.648784043  11.80855  -2.23822   2.17669   1.43559
   4   19930.2    501.8   0.188922821   3.12067   1.69597  -0.13901  -0.47437
   5   20601.8    485.4   0.018563678   0.29664   0.49995  -0.16706  -0.13705
   6   23159.3    431.8   0.025173628   0.35785   0.50762   0.03841  -0.31415
   7   24168.7    413.8   0.019581779   0.26673   0.18072  -0.38116  -0.29797
   8   24686.8    405.1   0.027839504   0.37126   0.53685  -0.24139  -0.15741
   9   25186.8    397.0   0.356135178   4.65497   0.19979  -2.09426  -0.47866
  10   25956.9    385.3   0.022009086   0.27914   0.14738   0.39109   0.32322
  11   26211.8    381.5   0.171003301   2.14774  -0.06184  -1.45929   0.11992
  12   26634.0    375.5   0.012972918   0.16035   0.05971   0.24418   0.31171
  13   27207.4    367.5   0.069999057   0.84700   0.04999  -0.61329  -0.68437
  14   27281.2    366.6   0.030621958   0.36953  -0.33515  -0.43940  -0.25324
  15   28320.6    353.1   0.215227386   2.50190  -0.18298  -1.56824   0.09509
  16   28577.9    349.9   0.133254334   1.53506  -0.03184  -1.23563   0.08521
  17   29315.2    341.1   0.031535617   0.35415   0.35230  -0.42867   0.21512
  18   29464.7    339.4   0.005449038   0.06088  -0.10282  -0.07963  -0.20969
  19   29604.6    337.8   0.054439435   0.60538  -0.31781  -0.70283  -0.10208
  20   30037.7    332.9   0.024085148   0.26397   0.14012   0.48926  -0.07048
  21   30210.3    331.0   0.183777361   2.00269  -1.24561   0.67036  -0.04191
  22   30323.0    329.8   0.223120371   2.42238  -1.03292  -1.12055   0.31596
  23   31090.8    321.6   0.199759856   2.11521   1.29382  -0.55646  -0.36276
  24   31387.9    318.6   0.013161045   0.13804   0.13751   0.25952   0.22756
  25   31664.5    315.8   0.004774914   0.04964  -0.17833  -0.12290   0.05232
  26   32147.5    311.1   0.190264472   1.94843   0.31427   1.33572  -0.25599
  27   32321.1    309.4   0.290480197   2.95873  -0.62374   1.52103   0.50611
  28   32611.6    306.6   0.090938795   0.91802   0.82432  -0.37067  -0.31800
  29   32656.8    306.2   0.038922073   0.39237  -0.36826  -0.43396  -0.26160
  30   33026.3    302.8   0.105288214   1.04953  -0.88707   0.26312   0.43979
  31   33059.4    302.5   0.048526151   0.48323   0.38180  -0.44660  -0.37150
  32   33287.9    300.4   0.011001302   0.10880  -0.08663   0.29429  -0.12120
  33   33727.8    296.5   0.218290937   2.13070   1.21288   0.29079  -0.75834
  34   34441.7    290.3   0.110633776   1.05750   0.48157   0.90734   0.04822
  35   34553.9    289.4   0.119098526   1.13471  -0.62878   0.84755   0.14493
  36   34687.6    288.3   0.037252729   0.35356   0.50635   0.31122  -0.01749
  37   34795.1    287.4   0.013944754   0.13194   0.09872   0.22728  -0.26559
  38   35015.1    285.6   0.404339599   3.80160  -1.85613   0.56173   0.20212
  39   35078.1    285.1   0.040225426   0.37752   0.14215   0.58654  -0.11523
  40   35227.4    283.9   0.140284274   1.31100   1.11868   0.23844  -0.05208
  41   35846.2    279.0   0.024402538   0.22411   0.41964  -0.01830  -0.21837
  42   35884.2    278.7   0.055405081   0.50830   0.17835  -0.67397   0.14920
  43   36188.6    276.3   0.056270249   0.51190   0.08953  -0.70547   0.07871
  44   36445.5    274.4   0.047042996   0.42494  -0.47853   0.44077   0.04088
  45   36585.8    273.3   0.016207730   0.14584  -0.14848   0.35098   0.02470
  46   36847.1    271.4   0.067409595   0.60227   0.45821   0.54033  -0.31679
  47   37010.0    270.2   0.041087256   0.36548  -0.21283  -0.37875  -0.42040
  48   37060.3    269.8   0.208533469   1.85243  -0.05544   0.97957   0.94330
  49   37219.6    268.7   0.118383327   1.04711   0.10515   0.66640   0.76940
  50   37728.2    265.1   0.096175207   0.83921  -0.84024  -0.30157  -0.20556
  51   37782.1    264.7   0.232534316   2.02617   0.25649  -1.39460   0.12436
  52   37909.3    263.8   0.029655051   0.25753   0.03504   0.48962   0.12875
  53   38215.1    261.7   0.018586093   0.16011   0.28715  -0.00050   0.27868
  54   38635.2    258.8   0.122442424   1.04334  -0.56187   0.60910   0.59719
  55   38758.0    258.0   0.041163993   0.34965   0.02610  -0.36500   0.46448
  56   38864.8    257.3   0.011480301   0.09725  -0.26796  -0.02154   0.15806
  57   39044.1    256.1   0.179973389   1.51750   0.00016  -1.17871   0.35795
  58   39336.4    254.2   0.009184680   0.07687   0.22950  -0.03028   0.15259
  59   39541.8    252.9   0.133313742   1.10993   0.72638  -0.71495  -0.26673
  60   39694.9    251.9   0.004045390   0.03355  -0.10458  -0.03987   0.14499
  61   39750.2    251.6   0.020540851   0.17012  -0.36512  -0.12502   0.14553
  62   40075.1    249.5   0.070756984   0.58126   0.41796   0.46870   0.43231
  63   40281.7    248.3   0.000939914   0.00768  -0.08537  -0.01281  -0.01518

FINAL SINGLE POINT ENERGY     -5957.479913601958

DIPOLE MOMENT
-------------
                                X             Y             Z
Electronic contribution:      3.33686     -23.97638      -0.83639
Nuclear contribution   :      0.34295      24.90473      -0.46099
                        -----------------------------------------
Total Dipole Moment    :      3.67980       0.92835      -1.29737
                        -----------------------------------------
Magnitude (a.u.)       :      4.01073
Magnitude (Debye)      :     10.19447

Rotational constants in cm-1:     0.000869     0.000373     0.000271
Rotational constants in MHz :    26.040379    11.186750     8.128466

                             ****ORCA TERMINATED NORMALLY****
TOTAL RUN TIME: 0 days 0 hours 10 minutes 14 seconds 288 msec
