                         Program Version 4.2.0 -  RELEASE  -
|  1> # ORCA input file
|  2> # SCF done       -174.868340716361          0.000942660965
|  3> ! CAM-B3LYP def2-SVP def2/J RIJCOSX Grid4 TightSCF
|  4> %maxcore 5000
|  5> %tddft
|  6>     Mode sTDDFT
|  7>     Ethresh 5.0
|  8>     maxcore 5000
|  9> end
| 10>
| 11> %pal
| 12>   nprocs 6
| 13>   end
| 14> * xyz 0 1
| 15>    C        5.24866         4.22734         2.23892
| 16>    C        5.07085         5.54239         2.53101
| 17>    S        3.64305         6.15295         1.77337
| 18>    C        3.26576         4.60905         1.04646
| 19>    C        2.07435         4.41750         0.18930
| 20>    C        4.21918         3.70224         1.39141
| 21>    C        4.47073         2.28276         1.13020
| 22>    O        3.75372         1.50500         0.53214
| 23>    C        5.72792         1.97613         1.86459
| 24>    C        6.19800         3.17407         2.53107
| 25>    C        7.36037         3.33810         3.24250
| 26>    C        7.69110         4.57885         3.82140
| 27>    N        7.96794         5.58510         4.30036
| 28>    C        8.33644         2.34474         3.44350
| 29>    N        9.17767         1.58235         3.61959
| 30>    C        6.22388         0.71600         2.06816
| 31>    C        5.95103        -0.44669         1.31626
| 32>    S        5.97348        -1.98902         2.13692
| 33>    C        5.72479        -2.87762         0.64654
| 34>    C        5.61173        -1.98307        -0.41711
| 35>    C        5.77391        -0.64354        -0.04784
| 36>    C        5.87675         0.34884        -1.15391
| 37>    C        4.64126         0.22784        -2.04934
| 38>    C        4.32182        -1.23640        -2.43371
| 39>    C        4.36987        -1.31144        -3.93338
| 40>    O        3.42499        -1.42860        -4.66117
| 41>    C        5.30272        -2.26945        -1.84817
| 42>    C        5.75982        -4.28172         0.77438
| 43>    C        6.07660        -5.27277        -0.12181
| 44>    C        6.20963        -6.64449         0.22632
| 45>    C        6.66999        -7.44587        -0.77473
| 46>    C        6.90361        -6.76233        -1.98555
| 47>    S        6.53575        -5.06383        -1.80086
| 48>    C        7.34929        -7.23883        -3.20479
| 49>    C        7.87966        -8.50296        -3.53698
| 50>    C        8.29652        -8.59694        -4.83163
| 51>    C        8.08104        -7.42791        -5.60272
| 52>    S        7.34527        -6.19065        -4.60614
| 53>    C        8.40787        -7.24226        -6.92467
| 54>    C        8.06095        -6.14428        -7.72430
| 55>    S        6.89151        -4.95695        -7.21035
| 56>    C        6.95578        -4.15546        -8.75472
| 57>    C        7.90746        -4.74091        -9.58392
| 58>    C        8.50018        -5.87082        -9.02334
| 59>    C        9.49967        -6.69272        -9.77041
| 60>    C       10.15709        -5.85485       -10.86538
| 61>    C        9.09755        -5.19471       -11.74718
| 62>    C        8.26045        -6.21823       -12.48140
| 63>    O        7.12006        -6.07191       -12.80935
| 64>    C        8.21629        -4.22595       -10.95333
| 65>    C        6.13475        -3.03771        -9.03987
| 66>    C        4.87712        -2.79156        -8.58164
| 67>    C        4.32908        -1.40040        -8.63277
| 68>    O        4.83570        -0.45295        -9.19580
| 69>    C        3.11330        -1.45179        -7.82482
| 70>    C        2.17130        -0.56477        -7.40125
| 71>    S        0.96779        -1.40075        -6.46072
| 72>    C        1.74391        -2.92553        -6.65613
| 73>    C        2.87577        -2.80116        -7.39821
| 74>    C        3.89806        -3.66186        -7.95426
| 75>    C        3.78175        -5.02509        -8.06238
| 76>    C        2.73259        -5.72114        -7.43078
| 77>    N        1.90007        -6.31266        -6.90586
| 78>    C        4.59990        -5.86069        -8.84599
| 79>    N        5.19612        -6.59053        -9.50311
| 80>    C        2.09860         0.89242        -7.65154
| 81>    H        5.66463         6.19696         3.13690
| 82>    H        2.13855         5.03983        -0.70334
| 83>    H        1.16718         4.69602         0.72415
| 84>    H        2.01121         3.37266        -0.10603
| 85>    H        6.86936         0.56357         2.92604
| 86>    H        6.77492         0.11333        -1.73452
| 87>    H        5.97126         1.36752        -0.78418
| 88>    H        4.79272         0.82974        -2.94904
| 89>    H        3.79277         0.64316        -1.50813
| 90>    H        3.31073        -1.48253        -2.10033
| 91>    H        5.39453        -1.20919        -4.34624
| 92>    H        6.23237        -2.25020        -2.42702
| 93>    H        4.85843        -3.25691        -1.95616
| 94>    H        5.63522        -4.62998         1.79392
| 95>    H        5.97037        -6.99043         1.21634
| 96>    H        6.83066        -8.50474        -0.67972
| 97>    H        7.96209        -9.29367        -2.81299
| 98>    H        8.73948        -9.47627        -5.26498
| 99>    H        8.96242        -8.03653        -7.40589
|100>    H        8.98325        -7.54805       -10.21837
|101>    H       10.26150        -7.08009        -9.09098
|102>    H       10.80857        -6.48634       -11.47246
|103>    H       10.77205        -5.07783       -10.40626
|104>    H        9.60382        -4.63421       -12.54528
|105>    H        8.82288        -7.13586       -12.74892
|106>    H        7.28500        -4.07322       -11.50450
|107>    H        8.71178        -3.25468       -10.85873
|108>    H        6.56968        -2.25622        -9.65654
|109>    H        1.31979        -3.79548        -6.19635
|110>    H        2.92489         1.18764        -8.29416
|111>    H        2.16078         1.44153        -6.71215
|112>    H        1.15618         1.15581        -8.13052
|113> *
|114>
|115>                          ****END OF INPUT****

CARTESIAN COORDINATES (ANGSTROEM)
---------------------------------
  C      5.248660    4.227340    2.238920
  C      5.070850    5.542390    2.531010
  S      3.643050    6.152950    1.773370
  C      3.265760    4.609050    1.046460
  C      2.074350    4.417500    0.189300
  C      4.219180    3.702240    1.391410
  C      4.470730    2.282760    1.130200
  O      3.753720    1.505000    0.532140
  C      5.727920    1.976130    1.864590
  C      6.198000    3.174070    2.531070
  C      7.360370    3.338100    3.242500
  C      7.691100    4.578850    3.821400
  N      7.967940    5.585100    4.300360
  C      8.336440    2.344740    3.443500
  N      9.177670    1.582350    3.619590
  C      6.223880    0.716000    2.068160
  C      5.951030   -0.446690    1.316260
  S      5.973480   -1.989020    2.136920
  C      5.724790   -2.877620    0.646540
  C      5.611730   -1.983070   -0.417110
  C      5.773910   -0.643540   -0.047840
  C      5.876750    0.348840   -1.153910
  C      4.641260    0.227840   -2.049340
  C      4.321820   -1.236400   -2.433710
  C      4.369870   -1.311440   -3.933380
  O      3.424990   -1.428600   -4.661170
  C      5.302720   -2.269450   -1.848170
  C      5.759820   -4.281720    0.774380
  C      6.076600   -5.272770   -0.121810
  C      6.209630   -6.644490    0.226320
  C      6.669990   -7.445870   -0.774730
  C      6.903610   -6.762330   -1.985550
  S      6.535750   -5.063830   -1.800860
  C      7.349290   -7.238830   -3.204790
  C      7.879660   -8.502960   -3.536980
  C      8.296520   -8.596940   -4.831630
  C      8.081040   -7.427910   -5.602720
  S      7.345270   -6.190650   -4.606140
  C      8.407870   -7.242260   -6.924670
  C      8.060950   -6.144280   -7.724300
  S      6.891510   -4.956950   -7.210350
  C      6.955780   -4.155460   -8.754720
  C      7.907460   -4.740910   -9.583920
  C      8.500180   -5.870820   -9.023340
  C      9.499670   -6.692720   -9.770410
  C     10.157090   -5.854850  -10.865380
  C      9.097550   -5.194710  -11.747180
  C      8.260450   -6.218230  -12.481400
  O      7.120060   -6.071910  -12.809350
  C      8.216290   -4.225950  -10.953330
  C      6.134750   -3.037710   -9.039870
  C      4.877120   -2.791560   -8.581640
  C      4.329080   -1.400400   -8.632770
  O      4.835700   -0.452950   -9.195800
  C      3.113300   -1.451790   -7.824820
  C      2.171300   -0.564770   -7.401250
  S      0.967790   -1.400750   -6.460720
  C      1.743910   -2.925530   -6.656130
  C      2.875770   -2.801160   -7.398210
  C      3.898060   -3.661860   -7.954260
  C      3.781750   -5.025090   -8.062380
  C      2.732590   -5.721140   -7.430780
  N      1.900070   -6.312660   -6.905860
  C      4.599900   -5.860690   -8.845990
  N      5.196120   -6.590530   -9.503110
  C      2.098600    0.892420   -7.651540
  H      5.664630    6.196960    3.136900
  H      2.138550    5.039830   -0.703340
  H      1.167180    4.696020    0.724150
  H      2.011210    3.372660   -0.106030
  H      6.869360    0.563570    2.926040
  H      6.774920    0.113330   -1.734520
  H      5.971260    1.367520   -0.784180
  H      4.792720    0.829740   -2.949040
  H      3.792770    0.643160   -1.508130
  H      3.310730   -1.482530   -2.100330
  H      5.394530   -1.209190   -4.346240
  H      6.232370   -2.250200   -2.427020
  H      4.858430   -3.256910   -1.956160
  H      5.635220   -4.629980    1.793920
  H      5.970370   -6.990430    1.216340
  H      6.830660   -8.504740   -0.679720
  H      7.962090   -9.293670   -2.812990
  H      8.739480   -9.476270   -5.264980
  H      8.962420   -8.036530   -7.405890
  H      8.983250   -7.548050  -10.218370
  H     10.261500   -7.080090   -9.090980
  H     10.808570   -6.486340  -11.472460
  H     10.772050   -5.077830  -10.406260
  H      9.603820   -4.634210  -12.545280
  H      8.822880   -7.135860  -12.748920
  H      7.285000   -4.073220  -11.504500
  H      8.711780   -3.254680  -10.858730
  H      6.569680   -2.256220   -9.656540
  H      1.319790   -3.795480   -6.196350
  H      2.924890    1.187640   -8.294160
  H      2.160780    1.441530   -6.712150
  H      1.156180    1.155810   -8.130520

 Total Charge           Charge          ....    0
 Multiplicity           Mult            ....    1
 Number of Electrons    NEL             ....  500
 Basis Dimension        Dim             .... 1108

ORBITAL ENERGIES
----------------

  NO   OCC          E(Eh)            E(eV)
   0   2.0000     -88.975886     -2421.1570
   1   2.0000     -88.961156     -2420.7561
   2   2.0000     -88.958783     -2420.6915
   3   2.0000     -88.958167     -2420.6748
   4   2.0000     -88.957967     -2420.6693
   5   2.0000     -88.957126     -2420.6465
   6   2.0000     -19.218971      -522.9748
   7   2.0000     -19.216444      -522.9060
   8   2.0000     -19.216221      -522.9000
   9   2.0000     -19.199944      -522.4570
  10   2.0000     -14.411088      -392.1457
  11   2.0000     -14.410220      -392.1220
  12   2.0000     -14.399953      -391.8426
  13   2.0000     -14.397542      -391.7770
  14   2.0000     -10.371115      -282.2124
  15   2.0000     -10.358094      -281.8581
  16   2.0000     -10.355084      -281.7762
  17   2.0000     -10.354026      -281.7474
  18   2.0000     -10.338176      -281.3161
  19   2.0000     -10.335847      -281.2527
  20   2.0000     -10.327910      -281.0367
  21   2.0000     -10.327260      -281.0190
  22   2.0000     -10.326084      -280.9870
  23   2.0000     -10.324246      -280.9370
  24   2.0000     -10.323389      -280.9137
  25   2.0000     -10.322732      -280.8958
  26   2.0000     -10.321787      -280.8701
  27   2.0000     -10.321326      -280.8575
  28   2.0000     -10.318814      -280.7892
  29   2.0000     -10.317113      -280.7429
  30   2.0000     -10.314116      -280.6614
  31   2.0000     -10.313000      -280.6310
  32   2.0000     -10.311044      -280.5778
  33   2.0000     -10.310214      -280.5552
  34   2.0000     -10.310037      -280.5504
  35   2.0000     -10.307200      -280.4732
  36   2.0000     -10.302882      -280.3557
  37   2.0000     -10.301453      -280.3168
  38   2.0000     -10.301015      -280.3049
  39   2.0000     -10.300541      -280.2920
  40   2.0000     -10.299685      -280.2687
  41   2.0000     -10.298953      -280.2488
  42   2.0000     -10.298409      -280.2340
  43   2.0000     -10.297727      -280.2154
  44   2.0000     -10.297516      -280.2097
  45   2.0000     -10.296929      -280.1937
  46   2.0000     -10.296638      -280.1858
  47   2.0000     -10.296316      -280.1770
  48   2.0000     -10.296030      -280.1692
  49   2.0000     -10.289122      -279.9813
  50   2.0000     -10.287537      -279.9381
  51   2.0000     -10.286375      -279.9065
  52   2.0000     -10.285750      -279.8895
  53   2.0000     -10.285543      -279.8839
  54   2.0000     -10.285504      -279.8828
  55   2.0000     -10.283450      -279.8269
  56   2.0000     -10.282539      -279.8021
  57   2.0000     -10.281670      -279.7785
  58   2.0000     -10.281545      -279.7751
  59   2.0000     -10.281436      -279.7721
  60   2.0000     -10.281267      -279.7675
  61   2.0000     -10.280393      -279.7437
  62   2.0000     -10.277255      -279.6583
  63   2.0000     -10.274654      -279.5876
  64   2.0000     -10.272174      -279.5201
  65   2.0000     -10.266206      -279.3577
  66   2.0000      -8.071796      -219.6447
  67   2.0000      -8.057136      -219.2458
  68   2.0000      -8.054693      -219.1793
  69   2.0000      -8.053710      -219.1526
  70   2.0000      -8.053358      -219.1430
  71   2.0000      -8.052886      -219.1302
  72   2.0000      -6.041074      -164.3860
  73   2.0000      -6.036478      -164.2609
  74   2.0000      -6.034319      -164.2022
  75   2.0000      -6.026461      -163.9884
  76   2.0000      -6.024495      -163.9348
  77   2.0000      -6.023094      -163.8967
  78   2.0000      -6.022991      -163.8939
  79   2.0000      -6.022435      -163.8788
  80   2.0000      -6.022203      -163.8725
  81   2.0000      -6.020256      -163.8195
  82   2.0000      -6.018944      -163.7838
  83   2.0000      -6.018913      -163.7829
  84   2.0000      -6.018437      -163.7700
  85   2.0000      -6.018122      -163.7614
  86   2.0000      -6.016223      -163.7097
  87   2.0000      -6.015646      -163.6941
  88   2.0000      -6.014878      -163.6732
  89   2.0000      -6.014323      -163.6581
  90   2.0000      -1.133495       -30.8440
  91   2.0000      -1.131538       -30.7907
  92   2.0000      -1.131161       -30.7805
  93   2.0000      -1.114369       -30.3235
  94   2.0000      -1.019434       -27.7402
  95   2.0000      -1.010434       -27.4953
  96   2.0000      -1.006813       -27.3968
  97   2.0000      -1.002579       -27.2816
  98   2.0000      -1.002081       -27.2680
  99   2.0000      -0.995986       -27.1022
 100   2.0000      -0.989216       -26.9179
 101   2.0000      -0.988315       -26.8934
 102   2.0000      -0.983313       -26.7573
 103   2.0000      -0.976369       -26.5684
 104   2.0000      -0.960669       -26.1411
 105   2.0000      -0.947254       -25.7761
 106   2.0000      -0.933750       -25.4086
 107   2.0000      -0.930928       -25.3318
 108   2.0000      -0.915285       -24.9062
 109   2.0000      -0.906242       -24.6601
 110   2.0000      -0.895125       -24.3576
 111   2.0000      -0.886270       -24.1166
 112   2.0000      -0.879769       -23.9397
 113   2.0000      -0.872287       -23.7361
 114   2.0000      -0.865842       -23.5608
 115   2.0000      -0.860926       -23.4270
 116   2.0000      -0.856412       -23.3041
 117   2.0000      -0.853347       -23.2208
 118   2.0000      -0.848571       -23.0908
 119   2.0000      -0.844282       -22.9741
 120   2.0000      -0.838823       -22.8255
 121   2.0000      -0.832738       -22.6600
 122   2.0000      -0.824411       -22.4334
 123   2.0000      -0.803315       -21.8593
 124   2.0000      -0.793882       -21.6026
 125   2.0000      -0.786145       -21.3921
 126   2.0000      -0.779577       -21.2134
 127   2.0000      -0.769300       -20.9337
 128   2.0000      -0.752243       -20.4696
 129   2.0000      -0.745531       -20.2869
 130   2.0000      -0.742154       -20.1950
 131   2.0000      -0.737543       -20.0696
 132   2.0000      -0.731706       -19.9107
 133   2.0000      -0.721787       -19.6408
 134   2.0000      -0.708494       -19.2791
 135   2.0000      -0.702895       -19.1267
 136   2.0000      -0.697881       -18.9903
 137   2.0000      -0.682146       -18.5621
 138   2.0000      -0.678017       -18.4498
 139   2.0000      -0.669195       -18.2097
 140   2.0000      -0.667901       -18.1745
 141   2.0000      -0.664129       -18.0719
 142   2.0000      -0.659437       -17.9442
 143   2.0000      -0.652326       -17.7507
 144   2.0000      -0.648672       -17.6513
 145   2.0000      -0.647917       -17.6307
 146   2.0000      -0.637763       -17.3544
 147   2.0000      -0.630121       -17.1465
 148   2.0000      -0.627208       -17.0672
 149   2.0000      -0.617157       -16.7937
 150   2.0000      -0.610166       -16.6035
 151   2.0000      -0.605867       -16.4865
 152   2.0000      -0.596447       -16.2302
 153   2.0000      -0.595374       -16.2010
 154   2.0000      -0.591884       -16.1060
 155   2.0000      -0.583054       -15.8657
 156   2.0000      -0.581158       -15.8141
 157   2.0000      -0.578226       -15.7343
 158   2.0000      -0.570211       -15.5162
 159   2.0000      -0.564729       -15.3671
 160   2.0000      -0.563470       -15.3328
 161   2.0000      -0.553975       -15.0744
 162   2.0000      -0.551332       -15.0025
 163   2.0000      -0.550857       -14.9896
 164   2.0000      -0.544324       -14.8118
 165   2.0000      -0.539734       -14.6869
 166   2.0000      -0.536741       -14.6055
 167   2.0000      -0.534130       -14.5344
 168   2.0000      -0.531040       -14.4503
 169   2.0000      -0.528961       -14.3938
 170   2.0000      -0.525261       -14.2931
 171   2.0000      -0.523664       -14.2496
 172   2.0000      -0.519042       -14.1238
 173   2.0000      -0.517318       -14.0769
 174   2.0000      -0.516324       -14.0499
 175   2.0000      -0.514930       -14.0120
 176   2.0000      -0.513209       -13.9651
 177   2.0000      -0.511836       -13.9278
 178   2.0000      -0.510521       -13.8920
 179   2.0000      -0.507948       -13.8220
 180   2.0000      -0.505787       -13.7632
 181   2.0000      -0.504209       -13.7202
 182   2.0000      -0.503315       -13.6959
 183   2.0000      -0.500271       -13.6131
 184   2.0000      -0.498440       -13.5632
 185   2.0000      -0.497106       -13.5269
 186   2.0000      -0.496154       -13.5010
 187   2.0000      -0.491417       -13.3721
 188   2.0000      -0.486397       -13.2355
 189   2.0000      -0.484554       -13.1854
 190   2.0000      -0.483986       -13.1699
 191   2.0000      -0.482000       -13.1159
 192   2.0000      -0.479795       -13.0559
 193   2.0000      -0.477742       -13.0000
 194   2.0000      -0.476203       -12.9581
 195   2.0000      -0.472620       -12.8606
 196   2.0000      -0.467934       -12.7331
 197   2.0000      -0.462595       -12.5879
 198   2.0000      -0.462321       -12.5804
 199   2.0000      -0.458063       -12.4645
 200   2.0000      -0.455260       -12.3883
 201   2.0000      -0.453563       -12.3421
 202   2.0000      -0.453119       -12.3300
 203   2.0000      -0.449303       -12.2261
 204   2.0000      -0.448438       -12.2026
 205   2.0000      -0.444474       -12.0948
 206   2.0000      -0.443591       -12.0707
 207   2.0000      -0.441408       -12.0113
 208   2.0000      -0.440039       -11.9741
 209   2.0000      -0.436348       -11.8736
 210   2.0000      -0.436113       -11.8672
 211   2.0000      -0.434345       -11.8191
 212   2.0000      -0.434049       -11.8111
 213   2.0000      -0.428887       -11.6706
 214   2.0000      -0.427473       -11.6321
 215   2.0000      -0.423912       -11.5352
 216   2.0000      -0.423064       -11.5122
 217   2.0000      -0.422191       -11.4884
 218   2.0000      -0.419362       -11.4114
 219   2.0000      -0.418078       -11.3765
 220   2.0000      -0.416995       -11.3470
 221   2.0000      -0.412902       -11.2356
 222   2.0000      -0.410529       -11.1711
 223   2.0000      -0.408926       -11.1274
 224   2.0000      -0.407381       -11.0854
 225   2.0000      -0.406521       -11.0620
 226   2.0000      -0.404794       -11.0150
 227   2.0000      -0.404517       -11.0075
 228   2.0000      -0.401942       -10.9374
 229   2.0000      -0.393521       -10.7082
 230   2.0000      -0.391366       -10.6496
 231   2.0000      -0.389496       -10.5987
 232   2.0000      -0.371254       -10.1023
 233   2.0000      -0.355256        -9.6670
 234   2.0000      -0.347626        -9.4594
 235   2.0000      -0.341195        -9.2844
 236   2.0000      -0.337572        -9.1858
 237   2.0000      -0.333325        -9.0702
 238   2.0000      -0.330272        -8.9872
 239   2.0000      -0.327831        -8.9207
 240   2.0000      -0.326418        -8.8823
 241   2.0000      -0.321448        -8.7471
 242   2.0000      -0.317541        -8.6407
 243   2.0000      -0.312645        -8.5075
 244   2.0000      -0.308451        -8.3934
 245   2.0000      -0.307060        -8.3555
 246   2.0000      -0.295234        -8.0337
 247   2.0000      -0.285809        -7.7773
 248   2.0000      -0.266633        -7.2554
 249   2.0000      -0.218086        -5.9344
 250   0.0000      -0.107169        -2.9162
 251   0.0000      -0.083388        -2.2691
 252   0.0000      -0.062466        -1.6998
 253   0.0000      -0.044546        -1.2122
 254   0.0000      -0.028546        -0.7768

MULLIKEN ATOMIC CHARGES
-----------------------
   0 C :    0.045551
   1 C :   -0.143075
   2 S :    0.148831
   3 C :   -0.317238
   4 C :    0.117981
   5 C :    0.043177
   6 C :    0.142796
   7 O :   -0.164282
   8 C :   -0.116797
   9 C :    0.284834
  10 C :   -0.333618
  11 C :   -0.194386
  12 N :    0.149376
  13 C :   -0.204424
  14 N :    0.161590
  15 C :    0.002901
  16 C :   -0.141166
  17 S :    0.133163
  18 C :   -0.133302
  19 C :   -0.084702
  20 C :   -0.035073
  21 C :    0.163852
  22 C :    0.042617
  23 C :   -0.093381
  24 C :    0.138504
  25 O :   -0.171495
  26 C :    0.179039
  27 C :    0.000373
  28 C :   -0.013014
  29 C :    0.029952
  30 C :    0.045226
  31 C :   -0.042342
  32 S :    0.056936
  33 C :   -0.033263
  34 C :    0.033225
  35 C :    0.037340
  36 C :   -0.033288
  37 S :    0.072980
  38 C :   -0.018255
  39 C :   -0.085706
  40 S :    0.120364
  41 C :   -0.162591
  42 C :   -0.011758
  43 C :   -0.066240
  44 C :    0.112130
  45 C :    0.040512
  46 C :   -0.123374
  47 C :    0.137612
  48 O :   -0.156784
  49 C :    0.183087
  50 C :    0.015047
  51 C :   -0.142970
  52 C :    0.127120
  53 O :   -0.160427
  54 C :    0.070424
  55 C :   -0.307417
  56 S :    0.157808
  57 C :   -0.134222
  58 C :    0.046252
  59 C :    0.269373
  60 C :   -0.337895
  61 C :   -0.191028
  62 N :    0.144060
  63 C :   -0.185698
  64 N :    0.166308
  65 C :    0.113558
  66 H :    0.048710
  67 H :    0.038167
  68 H :    0.036441
  69 H :    0.045051
  70 H :    0.036160
  71 H :    0.011340
  72 H :    0.003199
  73 H :    0.007281
  74 H :    0.038684
  75 H :    0.013873
  76 H :   -0.011671
  77 H :    0.015546
  78 H :    0.031031
  79 H :   -0.006368
  80 H :   -0.004867
  81 H :   -0.006333
  82 H :   -0.008426
  83 H :   -0.006337
  84 H :   -0.005092
  85 H :    0.030725
  86 H :    0.014818
  87 H :    0.009210
  88 H :    0.016075
  89 H :    0.031230
  90 H :   -0.007165
  91 H :    0.041482
  92 H :    0.020132
  93 H :    0.025046
  94 H :    0.039479
  95 H :    0.043856
  96 H :    0.032226
  97 H :    0.031809
Sum of atomic charges:   -0.0000000

LOEWDIN ATOMIC CHARGES
----------------------
   0 C :   -0.062351
   1 C :   -0.150509
   2 S :    0.460294
   3 C :   -0.130598
   4 C :   -0.058490
   5 C :   -0.104174
   6 C :    0.082784
   7 O :   -0.151615
   8 C :   -0.102160
   9 C :    0.074368
  10 C :   -0.146948
  11 C :   -0.015698
  12 N :   -0.059833
  13 C :   -0.027381
  14 N :   -0.054546
  15 C :    0.051892
  16 C :   -0.185410
  17 S :    0.438300
  18 C :   -0.142810
  19 C :   -0.064303
  20 C :   -0.004449
  21 C :   -0.018280
  22 C :   -0.013894
  23 C :   -0.059507
  24 C :    0.118619
  25 O :   -0.125523
  26 C :   -0.032466
  27 C :   -0.085926
  28 C :   -0.136559
  29 C :   -0.029836
  30 C :   -0.026129
  31 C :   -0.178745
  32 S :    0.404879
  33 C :   -0.171301
  34 C :   -0.033780
  35 C :   -0.024015
  36 C :   -0.147960
  37 S :    0.379650
  38 C :   -0.062887
  39 C :   -0.154217
  40 S :    0.457065
  41 C :   -0.189277
  42 C :   -0.017934
  43 C :   -0.050635
  44 C :   -0.027142
  45 C :   -0.019640
  46 C :   -0.074524
  47 C :    0.114499
  48 O :   -0.106042
  49 C :   -0.017417
  50 C :    0.042619
  51 C :   -0.090025
  52 C :    0.081952
  53 O :   -0.160903
  54 C :   -0.103297
  55 C :   -0.127769
  56 S :    0.475056
  57 C :   -0.148920
  58 C :   -0.057916
  59 C :    0.064888
  60 C :   -0.148659
  61 C :   -0.014064
  62 N :   -0.064996
  63 C :   -0.032626
  64 N :   -0.058308
  65 C :   -0.058772
  66 H :    0.034835
  67 H :    0.042785
  68 H :    0.042685
  69 H :    0.046212
  70 H :    0.045805
  71 H :    0.034903
  72 H :    0.031136
  73 H :    0.024718
  74 H :    0.035101
  75 H :    0.036011
  76 H :   -0.008675
  77 H :    0.029601
  78 H :    0.024533
  79 H :    0.036392
  80 H :    0.035542
  81 H :    0.035468
  82 H :    0.034150
  83 H :    0.035984
  84 H :    0.040210
  85 H :    0.036821
  86 H :    0.031775
  87 H :    0.025102
  88 H :    0.029095
  89 H :    0.048688
  90 H :   -0.008281
  91 H :    0.041987
  92 H :    0.037548
  93 H :    0.046036
  94 H :    0.031705
  95 H :    0.046212
  96 H :    0.040340
  97 H :    0.039874

  Mayer bond orders larger than 0.100000
B(  0-C ,  1-C ) :   1.5519 B(  0-C ,  5-C ) :   1.1995 B(  0-C ,  9-C ) :   0.9918
B(  1-C ,  2-S ) :   1.1535 B(  1-C , 66-H ) :   0.9563 B(  2-S ,  3-C ) :   1.1632
B(  3-C ,  4-C ) :   1.0864 B(  3-C ,  5-C ) :   1.5532 B(  4-C , 67-H ) :   0.9433
B(  4-C , 68-H ) :   0.9418 B(  4-C , 69-H ) :   0.9463 B(  5-C ,  6-C ) :   0.9610
B(  6-C ,  7-O ) :   2.1302 B(  6-C ,  8-C ) :   0.9725 B(  8-C ,  9-C ) :   1.0857
B(  8-C , 15-C ) :   1.5825 B(  9-C , 10-C ) :   1.6418 B( 10-C , 11-C ) :   1.1495
B( 10-C , 13-C ) :   1.1358 B( 11-C , 12-N ) :   2.9919 B( 13-C , 14-N ) :   2.9964
B( 15-C , 16-C ) :   1.1766 B( 15-C , 70-H ) :   0.9346 B( 16-C , 17-S ) :   1.0861
B( 16-C , 20-C ) :   1.4504 B( 17-S , 18-C ) :   1.1358 B( 18-C , 19-C ) :   1.4421
B( 18-C , 27-C ) :   1.1522 B( 19-C , 20-C ) :   1.3485 B( 19-C , 26-C ) :   1.0698
B( 20-C , 21-C ) :   1.0873 B( 21-C , 22-C ) :   1.1068 B( 21-C , 71-H ) :   0.8965
B( 21-C , 72-H ) :   0.9053 B( 22-C , 23-C ) :   1.0287 B( 22-C , 73-H ) :   0.9313
B( 22-C , 74-H ) :   0.9122 B( 23-C , 24-C ) :   0.9169 B( 23-C , 26-C ) :   1.0466
B( 23-C , 75-H ) :   0.9113 B( 24-C , 25-O ) :   2.1692 B( 24-C , 76-H ) :   0.9359
B( 26-C , 77-H ) :   0.8794 B( 26-C , 78-H ) :   0.9094 B( 27-C , 28-C ) :   1.6076
B( 27-C , 79-H ) :   0.9373 B( 28-C , 29-C ) :   1.1470 B( 28-C , 32-S ) :   1.0372
B( 29-C , 30-C ) :   1.5877 B( 29-C , 80-H ) :   0.9978 B( 30-C , 31-C ) :   1.1926
B( 30-C , 81-H ) :   0.9934 B( 31-C , 32-S ) :   1.0424 B( 31-C , 33-C ) :   1.4902
B( 33-C , 34-C ) :   1.1938 B( 33-C , 37-S ) :   1.0490 B( 34-C , 35-C ) :   1.5796
B( 34-C , 82-H ) :   0.9944 B( 35-C , 36-C ) :   1.1542 B( 35-C , 83-H ) :   0.9988
B( 36-C , 37-S ) :   1.0437 B( 36-C , 38-C ) :   1.5437 B( 38-C , 39-C ) :   1.2065
B( 38-C , 84-H ) :   0.9643 B( 39-C , 40-S ) :   1.1086 B( 39-C , 43-C ) :   1.4169
B( 40-S , 41-C ) :   1.1156 B( 41-C , 42-C ) :   1.4086 B( 41-C , 50-C ) :   1.1170
B( 42-C , 43-C ) :   1.3866 B( 42-C , 49-C ) :   1.0595 B( 43-C , 44-C ) :   1.0507
B( 44-C , 45-C ) :   1.0840 B( 44-C , 85-H ) :   0.9058 B( 44-C , 86-H ) :   0.9124
B( 45-C , 46-C ) :   1.0442 B( 45-C , 87-H ) :   0.9335 B( 45-C , 88-H ) :   0.9455
B( 46-C , 47-C ) :   0.9049 B( 46-C , 49-C ) :   1.0524 B( 46-C , 89-H ) :   0.8906
B( 47-C , 48-O ) :   2.2050 B( 47-C , 90-H ) :   0.9474 B( 49-C , 91-H ) :   0.8946
B( 49-C , 92-H ) :   0.8986 B( 50-C , 51-C ) :   1.6617 B( 50-C , 93-H ) :   0.9371
B( 51-C , 52-C ) :   0.9500 B( 51-C , 59-C ) :   1.0417 B( 52-C , 53-O ) :   2.2189
B( 52-C , 54-C ) :   0.9535 B( 54-C , 55-C ) :   1.5506 B( 54-C , 58-C ) :   1.1969
B( 55-C , 56-S ) :   1.1738 B( 55-C , 65-C ) :   1.0868 B( 56-S , 57-C ) :   1.1618
B( 57-C , 58-C ) :   1.5478 B( 57-C , 94-H ) :   0.9570 B( 58-C , 59-C ) :   1.0168
B( 59-C , 60-C ) :   1.6404 B( 60-C , 61-C ) :   1.1497 B( 60-C , 63-C ) :   1.1569
B( 61-C , 62-N ) :   2.9960 B( 63-C , 64-N ) :   2.9961 B( 65-C , 95-H ) :   0.9466
B( 65-C , 96-H ) :   0.9430 B( 65-C , 97-H ) :   0.9444

-----------------------------------------------------------------------------
         ABSORPTION SPECTRUM VIA TRANSITION ELECTRIC DIPOLE MOMENTS
-----------------------------------------------------------------------------
State   Energy  Wavelength   fosc         T2         TX        TY        TZ
        (cm-1)    (nm)                  (au**2)     (au)      (au)      (au)
-----------------------------------------------------------------------------
   0   10348.5    966.3   0.812045359  25.83311  -0.22439  -2.13819  -4.60553
   1   15594.3    641.3   0.434556470   9.17395   1.15311  -2.78010  -0.33957
   2   20067.9    498.3   0.371951208   6.10181   0.24023  -2.38859   0.58199
   3   20659.0    484.1   0.426471876   6.79606   1.55140  -1.34028  -1.61023
   4   24116.8    414.6   0.111333186   1.51978  -0.54573  -1.10411   0.05396
   5   24915.9    401.3   0.087940829   1.16195  -0.29468  -0.80824   0.64951
   6   25480.2    392.5   0.122293872   1.58007   1.23613   0.21679   0.07116
   7   26693.6    374.6   0.130712002   1.61207  -0.71683   1.04700   0.04493
   8   27439.0    364.4   0.271623481   3.25893  -0.84491   1.58925   0.13910
   9   28142.2    355.3   0.015785278   0.18466  -0.04891  -0.38997   0.17376
  10   28373.6    352.4   0.047236453   0.54807  -0.30722  -0.18610   0.64734
  11   28632.6    349.3   0.012820250   0.14740  -0.15878  -0.30811   0.16512
  12   28761.0    347.7   0.037538998   0.42969   0.62107  -0.08999  -0.18936
  13   29004.6    344.8   0.007553172   0.08573   0.25398  -0.03137   0.14227
  14   29808.0    335.5   0.258256364   2.85229  -0.13394  -1.49128   0.78130
  15   29983.5    333.5   0.021040607   0.23102   0.30486  -0.28302  -0.24079
  16   30610.9    326.7   0.046908256   0.50448  -0.32418   0.27846  -0.56732
  17   31126.3    321.3   0.089667900   0.94839   0.53481  -0.27419  -0.76628
  18   31188.4    320.6   0.043939160   0.46380   0.09385   0.60436  -0.29957
  19   31967.9    312.8   0.023331429   0.24027   0.22736   0.42722   0.07786
  20   32697.5    305.8   0.007556377   0.07608   0.18157  -0.15996   0.13238
  21   32943.2    303.6   0.081235716   0.81181   0.03195   0.20544  -0.87669
  22   33173.3    301.4   0.083015655   0.82385   0.20461  -0.82546  -0.31716
  23   33858.2    295.3   0.061131964   0.59440   0.65359  -0.18821  -0.36304
  24   34058.4    293.6   0.093211446   0.90099   0.48572  -0.79454   0.18377
  25   34144.6    292.9   0.016966249   0.16358   0.28702  -0.25903  -0.11877
  26   34422.2    290.5   0.012577756   0.12029  -0.16059   0.02516   0.30639
  27   34638.9    288.7   0.066322412   0.63034   0.50595  -0.09398  -0.60458
  28   34992.1    285.8   0.024437553   0.22991   0.30036   0.25491  -0.27334
  29   35352.3    282.9   0.099233355   0.92409  -0.09017  -0.88661  -0.36039
  30   35651.8    280.5   0.034076488   0.31467  -0.34030   0.35031   0.27595
  31   35956.4    278.1   0.020149009   0.18448  -0.23749  -0.32014   0.15996
  32   36108.9    276.9   0.008920507   0.08133  -0.27732   0.05959   0.02950
  33   36149.8    276.6   0.025159907   0.22913  -0.19220  -0.23727  -0.36864
  34   36367.5    275.0   0.018478939   0.16728   0.38793  -0.06026   0.11470
  35   36470.0    274.2   0.008935444   0.08066  -0.27146   0.05156   0.06566
  36   36934.2    270.8   0.521861952   4.65160   1.50024  -1.50995  -0.34775
  37   37242.6    268.5   0.026606453   0.23519  -0.47853  -0.02065  -0.07597
  38   37687.4    265.3   0.031453918   0.27476  -0.41755   0.19855  -0.24697
  39   37833.6    264.3   0.041559414   0.36163  -0.14399   0.58385  -0.00483
  40   38230.7    261.6   0.176127853   1.51667  -1.02160  -0.10830  -0.67917
  41   38460.4    260.0   0.273006460   2.33687  -0.80585   1.29878  -0.02574
  42   38503.6    259.7   0.093167358   0.79660  -0.82845   0.07185  -0.32419
  43   38622.4    258.9   0.099340592   0.84677   0.26875  -0.66339   0.57831
  44   39135.9    255.5   0.025378199   0.21348   0.18695  -0.29196  -0.30543
  45   39383.3    253.9   0.019425802   0.16238  -0.22081  -0.32747   0.07994
  46   40257.0    248.4   0.036045538   0.29477  -0.35186   0.31229   0.27101

FINAL SINGLE POINT ENERGY     -4905.772514089723

DIPOLE MOMENT
-------------
                                X             Y             Z
Electronic contribution:     -9.52751       7.09639      33.04160
Nuclear contribution   :     10.30377      -7.89463     -32.99948
                        -----------------------------------------
Total Dipole Moment    :      0.77626      -0.79824       0.04212
                        -----------------------------------------
Magnitude (a.u.)       :      1.11424
Magnitude (Debye)      :      2.83218

Rotational constants in cm-1:     0.001502     0.000489     0.000427
Rotational constants in MHz :    45.024791    14.650301    12.788805

                             ****ORCA TERMINATED NORMALLY****
TOTAL RUN TIME: 0 days 0 hours 10 minutes 45 seconds 408 msec
