                         Program Version 4.2.0 -  RELEASE  -
|  1> # ORCA input file
|  2> # SCF done       -195.263598792350          0.011053963157
|  3> ! CAM-B3LYP def2-SVP def2/J RIJCOSX Grid4 TightSCF
|  4> %maxcore 5000
|  5> %tddft
|  6>     Mode sTDDFT
|  7>     Ethresh 5.0
|  8>     maxcore 5000
|  9> end
| 10>
| 11> %pal
| 12>   nprocs 6
| 13>   end
| 14> * xyz 0 1
| 15>    C        8.50712         4.10740         3.08984
| 16>    C        7.57133         4.58346         2.22403
| 17>    S        6.52194         3.31865         1.69809
| 18>    C        7.33220         2.12126         2.67336
| 19>    C        6.91365         0.70025         2.68540
| 20>    C        8.36383         2.70403         3.34405
| 21>    C        9.38913         2.27263         4.29352
| 22>    O        9.43202         1.23358         4.92064
| 23>    C       10.29684         3.45725         4.43376
| 24>    C        9.64414         4.61222         3.83132
| 25>    C       10.00872         5.93092         3.90196
| 26>    C        9.25634         6.92923         3.24876
| 27>    N        8.64759         7.75134         2.72853
| 28>    C       11.10102         6.44240         4.62805
| 29>    N       11.97465         6.91564         5.20380
| 30>    C       11.53088         3.44206         5.00866
| 31>    C       12.28819         2.28378         5.33845
| 32>    C       13.11225         2.15189         6.42701
| 33>    C       13.55520         0.78661         6.49970
| 34>    C       14.42101         0.27373         7.47364
| 35>    N       15.12396        -0.14879         8.27751
| 36>    C       12.98845         0.07180         5.46141
| 37>    C       12.22010         0.96779         4.67189
| 38>    C       11.61283         0.71467         3.45547
| 39>    C       10.96456        -0.54306         3.04693
| 40>    C       10.35999        -0.31120         1.82240
| 41>    C       10.63279         1.03207         1.42887
| 42>    C       11.37498         1.65663         2.41710
| 43>    C       10.13885         1.63685         0.26497
| 44>    N        9.69671         2.14289        -0.66653
| 45>    C       10.81921        -1.67052         3.87178
| 46>    C       10.30632        -2.86329         3.44213
| 47>    C       10.13894        -4.01516         4.23414
| 48>    C        9.73998        -5.21158         3.63861
| 49>    C        9.58918        -6.42154         4.27766
| 50>    C        9.76616        -6.51703         5.72699
| 51>    C       10.13615        -5.48572         6.51960
| 52>    S       10.46120        -3.90084         5.95050
| 53>    C        9.48865        -7.87422         6.06439
| 54>    C        9.19622        -8.59715         4.90914
| 55>    C        8.91905        -9.95361         5.18730
| 56>    C        9.00602       -10.21575         6.51783
| 57>    S        9.43033        -8.83825         7.47972
| 58>    C        9.26979        -7.72788         3.76162
| 59>    C        9.16148        -8.20826         2.45872
| 60>    C        9.26496        -7.49138         1.28092
| 61>    C        9.32313        -8.04110         0.00123
| 62>    C        9.11691        -9.36225        -0.39360
| 63>    C        9.15237        -9.41394        -1.80518
| 64>    C        8.98733       -10.58869        -2.55554
| 65>    N        8.83168       -11.55952        -3.15026
| 66>    C        9.36492        -8.13137        -2.32075
| 67>    C        9.51426        -7.24059        -1.24247
| 68>    C        9.85306        -5.89546        -1.34029
| 69>    C        9.67260        -5.06819        -2.54453
| 70>    C       10.24027        -3.84510        -2.30375
| 71>    C       10.77808        -3.85119        -0.96999
| 72>    C       10.54086        -5.08828        -0.39602
| 73>    C       11.39586        -2.77311        -0.33759
| 74>    N       11.87762        -1.88920         0.22131
| 75>    C        8.91768        -5.44264        -3.69968
| 76>    C        9.25060        -5.08246        -4.95942
| 77>    C        8.50234        -5.43749        -6.11252
| 78>    C        8.98794        -5.51096        -7.38204
| 79>    C        8.07575        -5.46205        -8.56568
| 80>    O        6.86910        -5.56201        -8.55178
| 81>    C        8.96714        -5.20587        -9.70231
| 82>    C        8.82257        -4.98287       -11.03676
| 83>    S       10.39825        -4.75573       -11.76301
| 84>    C       11.21975        -4.97591       -10.26093
| 85>    C       10.33280        -5.20441        -9.25570
| 86>    C       10.36331        -5.51562        -7.84179
| 87>    C       11.47184        -5.95079        -7.15475
| 88>    C       12.75488        -5.93239        -7.74216
| 89>    N       13.80527        -5.90058        -8.20641
| 90>    C       11.43198        -6.56412        -5.88875
| 91>    N       11.42759        -7.12595        -4.88777
| 92>    C        7.57888        -4.93251       -11.83594
| 93>    H        7.42475         5.57678         1.84929
| 94>    H        6.96533         0.27945         1.68085
| 95>    H        5.88532         0.60714         3.03455
| 96>    H        7.56889         0.13906         3.34942
| 97>    H       12.00656         4.38796         5.24048
| 98>    H       13.34076         2.90968         7.15317
| 99>    H       13.22316        -0.94498         5.20739
|100>    H        9.71721        -0.97702         1.28183
|101>    H       11.78592         2.64718         2.36008
|102>    H       11.12655        -1.57440         4.90349
|103>    H       10.04810        -2.96556         2.39709
|104>    H        9.55078        -5.13455         2.58016
|105>    H       10.26736        -5.59560         7.58436
|106>    H        8.66338       -10.69805         4.45519
|107>    H        8.84414       -11.15273         7.01316
|108>    H        9.03458        -9.28093         2.37620
|109>    H        9.31118        -6.41418         1.32969
|110>    H        8.92966       -10.20784         0.24322
|111>    H        9.53118        -7.89942        -3.35556
|112>    H       10.24159        -2.99023        -2.95552
|113>    H       10.94551        -5.40885         0.54557
|114>    H        8.06861        -6.09058        -3.54356
|115>    H       10.16271        -4.52452        -5.11369
|116>    H        7.43979        -5.60042        -5.99700
|117>    H       12.28857        -4.91757       -10.23173
|118>    H        6.72654        -5.12282       -11.18659
|119>    H        7.60196        -5.68101       -12.62816
|120>    H        7.46233        -3.95581       -12.30501
|121> *
|122>
|123>                          ****END OF INPUT****

CARTESIAN COORDINATES (ANGSTROEM)
---------------------------------
  C      8.507120    4.107400    3.089840
  C      7.571330    4.583460    2.224030
  S      6.521940    3.318650    1.698090
  C      7.332200    2.121260    2.673360
  C      6.913650    0.700250    2.685400
  C      8.363830    2.704030    3.344050
  C      9.389130    2.272630    4.293520
  O      9.432020    1.233580    4.920640
  C     10.296840    3.457250    4.433760
  C      9.644140    4.612220    3.831320
  C     10.008720    5.930920    3.901960
  C      9.256340    6.929230    3.248760
  N      8.647590    7.751340    2.728530
  C     11.101020    6.442400    4.628050
  N     11.974650    6.915640    5.203800
  C     11.530880    3.442060    5.008660
  C     12.288190    2.283780    5.338450
  C     13.112250    2.151890    6.427010
  C     13.555200    0.786610    6.499700
  C     14.421010    0.273730    7.473640
  N     15.123960   -0.148790    8.277510
  C     12.988450    0.071800    5.461410
  C     12.220100    0.967790    4.671890
  C     11.612830    0.714670    3.455470
  C     10.964560   -0.543060    3.046930
  C     10.359990   -0.311200    1.822400
  C     10.632790    1.032070    1.428870
  C     11.374980    1.656630    2.417100
  C     10.138850    1.636850    0.264970
  N      9.696710    2.142890   -0.666530
  C     10.819210   -1.670520    3.871780
  C     10.306320   -2.863290    3.442130
  C     10.138940   -4.015160    4.234140
  C      9.739980   -5.211580    3.638610
  C      9.589180   -6.421540    4.277660
  C      9.766160   -6.517030    5.726990
  C     10.136150   -5.485720    6.519600
  S     10.461200   -3.900840    5.950500
  C      9.488650   -7.874220    6.064390
  C      9.196220   -8.597150    4.909140
  C      8.919050   -9.953610    5.187300
  C      9.006020  -10.215750    6.517830
  S      9.430330   -8.838250    7.479720
  C      9.269790   -7.727880    3.761620
  C      9.161480   -8.208260    2.458720
  C      9.264960   -7.491380    1.280920
  C      9.323130   -8.041100    0.001230
  C      9.116910   -9.362250   -0.393600
  C      9.152370   -9.413940   -1.805180
  C      8.987330  -10.588690   -2.555540
  N      8.831680  -11.559520   -3.150260
  C      9.364920   -8.131370   -2.320750
  C      9.514260   -7.240590   -1.242470
  C      9.853060   -5.895460   -1.340290
  C      9.672600   -5.068190   -2.544530
  C     10.240270   -3.845100   -2.303750
  C     10.778080   -3.851190   -0.969990
  C     10.540860   -5.088280   -0.396020
  C     11.395860   -2.773110   -0.337590
  N     11.877620   -1.889200    0.221310
  C      8.917680   -5.442640   -3.699680
  C      9.250600   -5.082460   -4.959420
  C      8.502340   -5.437490   -6.112520
  C      8.987940   -5.510960   -7.382040
  C      8.075750   -5.462050   -8.565680
  O      6.869100   -5.562010   -8.551780
  C      8.967140   -5.205870   -9.702310
  C      8.822570   -4.982870  -11.036760
  S     10.398250   -4.755730  -11.763010
  C     11.219750   -4.975910  -10.260930
  C     10.332800   -5.204410   -9.255700
  C     10.363310   -5.515620   -7.841790
  C     11.471840   -5.950790   -7.154750
  C     12.754880   -5.932390   -7.742160
  N     13.805270   -5.900580   -8.206410
  C     11.431980   -6.564120   -5.888750
  N     11.427590   -7.125950   -4.887770
  C      7.578880   -4.932510  -11.835940
  H      7.424750    5.576780    1.849290
  H      6.965330    0.279450    1.680850
  H      5.885320    0.607140    3.034550
  H      7.568890    0.139060    3.349420
  H     12.006560    4.387960    5.240480
  H     13.340760    2.909680    7.153170
  H     13.223160   -0.944980    5.207390
  H      9.717210   -0.977020    1.281830
  H     11.785920    2.647180    2.360080
  H     11.126550   -1.574400    4.903490
  H     10.048100   -2.965560    2.397090
  H      9.550780   -5.134550    2.580160
  H     10.267360   -5.595600    7.584360
  H      8.663380  -10.698050    4.455190
  H      8.844140  -11.152730    7.013160
  H      9.034580   -9.280930    2.376200
  H      9.311180   -6.414180    1.329690
  H      8.929660  -10.207840    0.243220
  H      9.531180   -7.899420   -3.355560
  H     10.241590   -2.990230   -2.955520
  H     10.945510   -5.408850    0.545570
  H      8.068610   -6.090580   -3.543560
  H     10.162710   -4.524520   -5.113690
  H      7.439790   -5.600420   -5.997000
  H     12.288570   -4.917570  -10.231730
  H      6.726540   -5.122820  -11.186590
  H      7.601960   -5.681010  -12.628160
  H      7.462330   -3.955810  -12.305010

 Total Charge           Charge          ....    0
 Multiplicity           Mult            ....    1
 Number of Electrons    NEL             ....  548
 Basis Dimension        Dim             .... 1248

ORBITAL ENERGIES
----------------

  NO   OCC          E(Eh)            E(eV)
   0   2.0000     -89.004252     -2421.9288
   1   2.0000     -88.986531     -2421.4466
   2   2.0000     -88.977671     -2421.2055
   3   2.0000     -88.975173     -2421.1375
   4   2.0000     -19.230713      -523.2943
   5   2.0000     -19.212691      -522.8039
   6   2.0000     -14.426453      -392.5638
   7   2.0000     -14.425274      -392.5317
   8   2.0000     -14.423952      -392.4957
   9   2.0000     -14.422105      -392.4454
  10   2.0000     -14.417914      -392.3314
  11   2.0000     -14.413842      -392.2206
  12   2.0000     -14.413383      -392.2081
  13   2.0000     -14.408673      -392.0799
  14   2.0000     -10.386494      -282.6309
  15   2.0000     -10.367314      -282.1089
  16   2.0000     -10.354135      -281.7503
  17   2.0000     -10.353897      -281.7439
  18   2.0000     -10.351811      -281.6871
  19   2.0000     -10.351268      -281.6723
  20   2.0000     -10.341647      -281.4105
  21   2.0000     -10.341035      -281.3939
  22   2.0000     -10.340943      -281.3914
  23   2.0000     -10.338884      -281.3353
  24   2.0000     -10.337848      -281.3072
  25   2.0000     -10.337572      -281.2996
  26   2.0000     -10.335858      -281.2530
  27   2.0000     -10.333004      -281.1753
  28   2.0000     -10.328444      -281.0513
  29   2.0000     -10.327230      -281.0182
  30   2.0000     -10.326863      -281.0082
  31   2.0000     -10.325986      -280.9844
  32   2.0000     -10.324050      -280.9317
  33   2.0000     -10.323012      -280.9034
  34   2.0000     -10.322636      -280.8932
  35   2.0000     -10.322149      -280.8799
  36   2.0000     -10.322134      -280.8795
  37   2.0000     -10.319603      -280.8107
  38   2.0000     -10.319365      -280.8042
  39   2.0000     -10.319073      -280.7963
  40   2.0000     -10.318762      -280.7878
  41   2.0000     -10.317925      -280.7650
  42   2.0000     -10.317142      -280.7437
  43   2.0000     -10.316830      -280.7352
  44   2.0000     -10.316783      -280.7339
  45   2.0000     -10.316247      -280.7194
  46   2.0000     -10.316075      -280.7147
  47   2.0000     -10.313544      -280.6458
  48   2.0000     -10.313504      -280.6447
  49   2.0000     -10.313406      -280.6420
  50   2.0000     -10.313130      -280.6345
  51   2.0000     -10.312331      -280.6128
  52   2.0000     -10.311585      -280.5925
  53   2.0000     -10.310663      -280.5674
  54   2.0000     -10.310122      -280.5527
  55   2.0000     -10.309700      -280.5412
  56   2.0000     -10.308812      -280.5170
  57   2.0000     -10.308247      -280.5017
  58   2.0000     -10.307485      -280.4809
  59   2.0000     -10.306351      -280.4501
  60   2.0000     -10.305835      -280.4360
  61   2.0000     -10.302742      -280.3519
  62   2.0000     -10.301422      -280.3159
  63   2.0000     -10.299170      -280.2547
  64   2.0000     -10.298569      -280.2383
  65   2.0000     -10.295870      -280.1649
  66   2.0000     -10.295812      -280.1633
  67   2.0000     -10.295666      -280.1593
  68   2.0000     -10.295278      -280.1488
  69   2.0000     -10.294708      -280.1332
  70   2.0000     -10.292860      -280.0830
  71   2.0000     -10.290007      -280.0053
  72   2.0000     -10.288634      -279.9680
  73   2.0000     -10.288102      -279.9535
  74   2.0000     -10.283095      -279.8172
  75   2.0000     -10.283084      -279.8169
  76   2.0000     -10.275311      -279.6054
  77   2.0000     -10.270468      -279.4737
  78   2.0000      -8.099304      -220.3933
  79   2.0000      -8.082324      -219.9312
  80   2.0000      -8.073083      -219.6797
  81   2.0000      -8.071083      -219.6253
  82   2.0000      -6.068633      -165.1359
  83   2.0000      -6.064168      -165.0144
  84   2.0000      -6.061623      -164.9451
  85   2.0000      -6.051515      -164.6701
  86   2.0000      -6.046933      -164.5454
  87   2.0000      -6.044983      -164.4924
  88   2.0000      -6.042530      -164.4256
  89   2.0000      -6.040348      -164.3662
  90   2.0000      -6.038201      -164.3078
  91   2.0000      -6.035760      -164.2414
  92   2.0000      -6.035149      -164.2248
  93   2.0000      -6.033616      -164.1830
  94   2.0000      -1.146840       -31.2071
  95   2.0000      -1.127348       -30.6767
  96   2.0000      -1.033363       -28.1192
  97   2.0000      -1.031413       -28.0662
  98   2.0000      -1.029330       -28.0095
  99   2.0000      -1.019928       -27.7536
 100   2.0000      -1.016807       -27.6687
 101   2.0000      -1.015159       -27.6239
 102   2.0000      -1.008978       -27.4557
 103   2.0000      -1.003655       -27.3108
 104   2.0000      -1.002678       -27.2843
 105   2.0000      -1.002156       -27.2701
 106   2.0000      -0.999930       -27.2095
 107   2.0000      -0.999178       -27.1890
 108   2.0000      -0.993140       -27.0247
 109   2.0000      -0.992128       -26.9972
 110   2.0000      -0.987619       -26.8745
 111   2.0000      -0.973622       -26.4936
 112   2.0000      -0.973087       -26.4790
 113   2.0000      -0.961773       -26.1712
 114   2.0000      -0.954939       -25.9852
 115   2.0000      -0.934283       -25.4231
 116   2.0000      -0.919460       -25.0198
 117   2.0000      -0.918610       -24.9966
 118   2.0000      -0.906933       -24.6789
 119   2.0000      -0.901904       -24.5421
 120   2.0000      -0.899353       -24.4727
 121   2.0000      -0.895672       -24.3725
 122   2.0000      -0.889346       -24.2003
 123   2.0000      -0.881168       -23.9778
 124   2.0000      -0.874338       -23.7920
 125   2.0000      -0.872120       -23.7316
 126   2.0000      -0.868861       -23.6429
 127   2.0000      -0.859463       -23.3872
 128   2.0000      -0.846861       -23.0443
 129   2.0000      -0.842127       -22.9154
 130   2.0000      -0.829560       -22.5735
 131   2.0000      -0.819254       -22.2930
 132   2.0000      -0.814689       -22.1688
 133   2.0000      -0.811897       -22.0928
 134   2.0000      -0.805375       -21.9154
 135   2.0000      -0.795687       -21.6517
 136   2.0000      -0.793217       -21.5845
 137   2.0000      -0.788011       -21.4429
 138   2.0000      -0.784252       -21.3406
 139   2.0000      -0.770076       -20.9548
 140   2.0000      -0.760092       -20.6832
 141   2.0000      -0.751071       -20.4377
 142   2.0000      -0.749704       -20.4005
 143   2.0000      -0.739454       -20.1216
 144   2.0000      -0.738482       -20.0951
 145   2.0000      -0.722831       -19.6692
 146   2.0000      -0.717349       -19.5201
 147   2.0000      -0.711464       -19.3599
 148   2.0000      -0.706017       -19.2117
 149   2.0000      -0.698219       -18.9995
 150   2.0000      -0.687768       -18.7151
 151   2.0000      -0.682014       -18.5586
 152   2.0000      -0.678808       -18.4713
 153   2.0000      -0.676672       -18.4132
 154   2.0000      -0.676016       -18.3953
 155   2.0000      -0.663715       -18.0606
 156   2.0000      -0.662711       -18.0333
 157   2.0000      -0.657922       -17.9030
 158   2.0000      -0.646170       -17.5832
 159   2.0000      -0.640615       -17.4320
 160   2.0000      -0.636050       -17.3078
 161   2.0000      -0.632281       -17.2052
 162   2.0000      -0.629681       -17.1345
 163   2.0000      -0.626903       -17.0589
 164   2.0000      -0.619839       -16.8667
 165   2.0000      -0.612606       -16.6699
 166   2.0000      -0.609683       -16.5903
 167   2.0000      -0.606513       -16.5041
 168   2.0000      -0.601456       -16.3664
 169   2.0000      -0.600905       -16.3514
 170   2.0000      -0.596180       -16.2229
 171   2.0000      -0.594831       -16.1862
 172   2.0000      -0.586519       -15.9600
 173   2.0000      -0.580361       -15.7924
 174   2.0000      -0.578345       -15.7376
 175   2.0000      -0.573751       -15.6126
 176   2.0000      -0.565291       -15.3824
 177   2.0000      -0.559725       -15.2309
 178   2.0000      -0.553400       -15.0588
 179   2.0000      -0.549531       -14.9535
 180   2.0000      -0.545594       -14.8464
 181   2.0000      -0.542654       -14.7664
 182   2.0000      -0.541270       -14.7287
 183   2.0000      -0.538371       -14.6498
 184   2.0000      -0.537931       -14.6378
 185   2.0000      -0.536054       -14.5868
 186   2.0000      -0.532639       -14.4938
 187   2.0000      -0.530493       -14.4354
 188   2.0000      -0.529996       -14.4219
 189   2.0000      -0.528668       -14.3858
 190   2.0000      -0.525097       -14.2886
 191   2.0000      -0.524532       -14.2732
 192   2.0000      -0.523806       -14.2535
 193   2.0000      -0.520279       -14.1575
 194   2.0000      -0.518213       -14.1013
 195   2.0000      -0.515176       -14.0187
 196   2.0000      -0.513205       -13.9650
 197   2.0000      -0.511510       -13.9189
 198   2.0000      -0.511331       -13.9140
 199   2.0000      -0.509875       -13.8744
 200   2.0000      -0.507787       -13.8176
 201   2.0000      -0.504172       -13.7192
 202   2.0000      -0.499239       -13.5850
 203   2.0000      -0.497228       -13.5303
 204   2.0000      -0.496045       -13.4981
 205   2.0000      -0.493991       -13.4422
 206   2.0000      -0.492018       -13.3885
 207   2.0000      -0.490558       -13.3487
 208   2.0000      -0.490093       -13.3361
 209   2.0000      -0.488274       -13.2866
 210   2.0000      -0.487408       -13.2630
 211   2.0000      -0.484402       -13.1813
 212   2.0000      -0.481722       -13.1083
 213   2.0000      -0.476806       -12.9745
 214   2.0000      -0.476358       -12.9624
 215   2.0000      -0.473510       -12.8849
 216   2.0000      -0.471399       -12.8274
 217   2.0000      -0.467734       -12.7277
 218   2.0000      -0.464543       -12.6408
 219   2.0000      -0.461778       -12.5656
 220   2.0000      -0.457138       -12.4394
 221   2.0000      -0.456036       -12.4094
 222   2.0000      -0.455612       -12.3978
 223   2.0000      -0.454922       -12.3791
 224   2.0000      -0.453377       -12.3370
 225   2.0000      -0.452027       -12.3003
 226   2.0000      -0.451551       -12.2873
 227   2.0000      -0.450913       -12.2700
 228   2.0000      -0.450573       -12.2607
 229   2.0000      -0.449815       -12.2401
 230   2.0000      -0.447599       -12.1798
 231   2.0000      -0.447335       -12.1726
 232   2.0000      -0.444955       -12.1078
 233   2.0000      -0.443078       -12.0568
 234   2.0000      -0.442252       -12.0343
 235   2.0000      -0.441260       -12.0073
 236   2.0000      -0.437818       -11.9136
 237   2.0000      -0.435791       -11.8585
 238   2.0000      -0.435469       -11.8497
 239   2.0000      -0.435144       -11.8409
 240   2.0000      -0.433507       -11.7963
 241   2.0000      -0.430088       -11.7033
 242   2.0000      -0.426547       -11.6069
 243   2.0000      -0.425164       -11.5693
 244   2.0000      -0.424920       -11.5627
 245   2.0000      -0.424566       -11.5530
 246   2.0000      -0.422202       -11.4887
 247   2.0000      -0.420422       -11.4403
 248   2.0000      -0.419373       -11.4117
 249   2.0000      -0.418038       -11.3754
 250   2.0000      -0.415624       -11.3097
 251   2.0000      -0.414598       -11.2818
 252   2.0000      -0.406608       -11.0644
 253   2.0000      -0.404130       -10.9969
 254   2.0000      -0.385898       -10.5008
 255   2.0000      -0.378564       -10.3012
 256   2.0000      -0.377759       -10.2793
 257   2.0000      -0.371933       -10.1208
 258   2.0000      -0.354675        -9.6512
 259   2.0000      -0.354229        -9.6391
 260   2.0000      -0.344105        -9.3636
 261   2.0000      -0.337562        -9.1855
 262   2.0000      -0.334272        -9.0960
 263   2.0000      -0.329545        -8.9674
 264   2.0000      -0.326911        -8.8957
 265   2.0000      -0.324012        -8.8168
 266   2.0000      -0.318145        -8.6572
 267   2.0000      -0.314874        -8.5682
 268   2.0000      -0.307253        -8.3608
 269   2.0000      -0.305412        -8.3107
 270   2.0000      -0.299363        -8.1461
 271   2.0000      -0.278722        -7.5844
 272   2.0000      -0.271997        -7.4014
 273   2.0000      -0.231802        -6.3076
 274   0.0000      -0.148717        -4.0468
 275   0.0000      -0.135210        -3.6792
 276   0.0000      -0.097183        -2.6445
 277   0.0000      -0.086487        -2.3534
 278   0.0000      -0.081476        -2.2171

MULLIKEN ATOMIC CHARGES
-----------------------
   0 C :    0.040853
   1 C :   -0.129640
   2 S :    0.176638
   3 C :   -0.330175
   4 C :    0.118824
   5 C :    0.063947
   6 C :    0.155299
   7 O :   -0.155075
   8 C :   -0.133223
   9 C :    0.299683
  10 C :   -0.335127
  11 C :   -0.193586
  12 N :    0.161698
  13 C :   -0.180911
  14 N :    0.157981
  15 C :   -0.030244
  16 C :    0.067761
  17 C :    0.010821
  18 C :   -0.105119
  19 C :   -0.130964
  20 N :    0.147704
  21 C :   -0.018790
  22 C :    0.074241
  23 C :    0.034345
  24 C :    0.096248
  25 C :    0.041420
  26 C :   -0.116677
  27 C :    0.006217
  28 C :   -0.138928
  29 N :    0.167441
  30 C :    0.002818
  31 C :   -0.028667
  32 C :   -0.014183
  33 C :   -0.060728
  34 C :    0.100333
  35 C :    0.057523
  36 C :   -0.121230
  37 S :    0.153589
  38 C :   -0.102920
  39 C :    0.046825
  40 C :    0.012251
  41 C :   -0.063445
  42 S :    0.146538
  43 C :    0.107594
  44 C :   -0.002686
  45 C :   -0.026029
  46 C :    0.108738
  47 C :   -0.081033
  48 C :   -0.066773
  49 C :   -0.125148
  50 N :    0.140271
  51 C :   -0.066610
  52 C :    0.069213
  53 C :    0.063385
  54 C :    0.074359
  55 C :   -0.027048
  56 C :   -0.137873
  57 C :   -0.058446
  58 C :   -0.113247
  59 N :    0.102606
  60 C :    0.000637
  61 C :   -0.015197
  62 C :    0.039319
  63 C :   -0.120297
  64 C :    0.146314
  65 O :   -0.148762
  66 C :    0.048671
  67 C :   -0.313249
  68 S :    0.150427
  69 C :   -0.138007
  70 C :    0.034573
  71 C :    0.261025
  72 C :   -0.323544
  73 C :   -0.181740
  74 N :    0.146911
  75 C :   -0.188896
  76 N :    0.164603
  77 C :    0.114690
  78 H :    0.052870
  79 H :    0.037321
  80 H :    0.040672
  81 H :    0.047679
  82 H :    0.026951
  83 H :    0.008841
  84 H :    0.009117
  85 H :   -0.007084
  86 H :    0.002472
  87 H :    0.009454
  88 H :   -0.001365
  89 H :   -0.030245
  90 H :    0.047374
  91 H :   -0.006693
  92 H :    0.035033
  93 H :   -0.017058
  94 H :   -0.045594
  95 H :   -0.018878
  96 H :   -0.000449
  97 H :   -0.010496
  98 H :   -0.009692
  99 H :    0.020575
 100 H :    0.023265
 101 H :    0.021267
 102 H :    0.048242
 103 H :    0.049101
 104 H :    0.039484
 105 H :    0.037717
Sum of atomic charges:   -0.0000000

LOEWDIN ATOMIC CHARGES
----------------------
   0 C :   -0.063559
   1 C :   -0.143133
   2 S :    0.486649
   3 C :   -0.132235
   4 C :   -0.059342
   5 C :   -0.102664
   6 C :    0.083807
   7 O :   -0.149263
   8 C :   -0.074037
   9 C :    0.074226
  10 C :   -0.136436
  11 C :   -0.015693
  12 N :   -0.047313
  13 C :   -0.022946
  14 N :   -0.046035
  15 C :    0.063761
  16 C :   -0.034480
  17 C :    0.039350
  18 C :   -0.053990
  19 C :   -0.032394
  20 N :   -0.035565
  21 C :    0.010245
  22 C :    0.036621
  23 C :    0.064789
  24 C :   -0.031571
  25 C :    0.046658
  26 C :   -0.039601
  27 C :   -0.002784
  28 C :   -0.028106
  29 N :   -0.036900
  30 C :    0.004521
  31 C :   -0.047178
  32 C :   -0.138486
  33 C :   -0.020509
  34 C :    0.007143
  35 C :   -0.042625
  36 C :   -0.139980
  37 S :    0.488742
  38 C :   -0.200618
  39 C :   -0.039192
  40 C :   -0.059018
  41 C :   -0.155624
  42 S :    0.437987
  43 C :   -0.038466
  44 C :    0.020490
  45 C :   -0.023892
  46 C :    0.004048
  47 C :   -0.057708
  48 C :   -0.018355
  49 C :   -0.022571
  50 N :   -0.039192
  51 C :   -0.052858
  52 C :    0.047749
  53 C :    0.006698
  54 C :   -0.035029
  55 C :    0.003141
  56 C :   -0.085662
  57 C :   -0.026540
  58 C :   -0.019479
  59 N :   -0.069604
  60 C :    0.036564
  61 C :   -0.037504
  62 C :    0.070744
  63 C :   -0.088251
  64 C :    0.083456
  65 O :   -0.148448
  66 C :   -0.105157
  67 C :   -0.128002
  68 S :    0.462023
  69 C :   -0.153011
  70 C :   -0.061725
  71 C :    0.072368
  72 C :   -0.141184
  73 C :   -0.016550
  74 N :   -0.053755
  75 C :   -0.014439
  76 N :   -0.050778
  77 C :   -0.058087
  78 H :    0.037066
  79 H :    0.041084
  80 H :    0.044841
  81 H :    0.045860
  82 H :    0.051699
  83 H :    0.041397
  84 H :    0.037874
  85 H :    0.030163
  86 H :    0.036990
  87 H :    0.025821
  88 H :    0.036205
  89 H :    0.036153
  90 H :    0.040971
  91 H :    0.033913
  92 H :    0.027451
  93 H :    0.035777
  94 H :    0.023987
  95 H :    0.024872
  96 H :    0.030479
  97 H :    0.031236
  98 H :    0.025734
  99 H :    0.036759
 100 H :    0.033553
 101 H :    0.045589
 102 H :    0.034807
 103 H :    0.048873
 104 H :    0.043505
 105 H :    0.043084

  Mayer bond orders larger than 0.100000
B(  0-C ,  1-C ) :   1.5393 B(  0-C ,  5-C ) :   1.2013 B(  0-C ,  9-C ) :   0.9988
B(  1-C ,  2-S ) :   1.1703 B(  1-C , 78-H ) :   0.9557 B(  2-S ,  3-C ) :   1.1749
B(  3-C ,  4-C ) :   1.0902 B(  3-C ,  5-C ) :   1.5441 B(  4-C , 79-H ) :   0.9418
B(  4-C , 80-H ) :   0.9385 B(  4-C , 81-H ) :   0.9450 B(  5-C ,  6-C ) :   0.9558
B(  6-C ,  7-O ) :   2.1717 B(  6-C ,  8-C ) :   0.9213 B(  8-C ,  9-C ) :   1.0613
B(  8-C , 15-C ) :   1.6429 B(  9-C , 10-C ) :   1.6539 B( 10-C , 11-C ) :   1.1437
B( 10-C , 13-C ) :   1.1402 B( 11-C , 12-N ) :   2.9949 B( 13-C , 14-N ) :   2.9672
B( 15-C , 16-C ) :   1.1042 B( 15-C , 82-H ) :   0.9389 B( 16-C , 17-C ) :   1.5420
B( 16-C , 22-C ) :   1.0702 B( 17-C , 18-C ) :   1.1319 B( 17-C , 83-H ) :   1.0219
B( 18-C , 19-C ) :   1.0588 B( 18-C , 21-C ) :   1.5597 B( 19-C , 20-N ) :   3.0378
B( 21-C , 22-C ) :   1.1358 B( 21-C , 84-H ) :   1.0167 B( 22-C , 23-C ) :   1.4120
B( 23-C , 24-C ) :   1.0658 B( 23-C , 27-C ) :   1.1018 B( 24-C , 25-C ) :   1.5112
B( 24-C , 30-C ) :   1.1787 B( 25-C , 26-C ) :   1.1460 B( 25-C , 85-H ) :   1.0015
B( 26-C , 27-C ) :   1.5642 B( 26-C , 28-C ) :   1.0709 B( 27-C , 86-H ) :   1.0169
B( 28-C , 29-N ) :   3.0444 B( 30-C , 31-C ) :   1.5604 B( 30-C , 87-H ) :   0.9437
B( 31-C , 32-C ) :   1.1992 B( 31-C , 88-H ) :   0.9880 B( 32-C , 33-C ) :   1.4102
B( 32-C , 37-S ) :   1.0829 B( 33-C , 34-C ) :   1.2933 B( 33-C , 89-H ) :   0.9889
B( 34-C , 35-C ) :   1.0886 B( 34-C , 43-C ) :   1.2209 B( 35-C , 36-C ) :   1.5962
B( 35-C , 38-C ) :   1.1587 B( 36-C , 37-S ) :   1.1455 B( 36-C , 90-H ) :   0.9408
B( 38-C , 39-C ) :   1.4491 B( 38-C , 42-S ) :   1.0892 B( 39-C , 40-C ) :   1.2257
B( 39-C , 43-C ) :   1.0820 B( 40-C , 41-C ) :   1.5880 B( 40-C , 91-H ) :   0.9971
B( 41-C , 42-S ) :   1.1568 B( 41-C , 92-H ) :   0.9659 B( 43-C , 44-C ) :   1.3173
B( 44-C , 45-C ) :   1.3991 B( 44-C , 93-H ) :   0.9680 B( 45-C , 46-C ) :   1.2745
B( 45-C , 94-H ) :   0.9669 B( 46-C , 47-C ) :   1.4171 B( 46-C , 52-C ) :   0.9973
B( 47-C , 48-C ) :   1.2542 B( 47-C , 95-H ) :   1.0113 B( 48-C , 49-C ) :   1.0494
B( 48-C , 51-C ) :   1.4056 B( 49-C , 50-N ) :   3.0370 B( 51-C , 52-C ) :   1.2732
B( 51-C , 96-H ) :   1.0053 B( 52-C , 53-C ) :   1.3155 B( 53-C , 54-C ) :   1.1088
B( 53-C , 57-C ) :   1.1715 B( 54-C , 55-C ) :   1.5540 B( 54-C , 60-C ) :   1.0546
B( 55-C , 56-C ) :   1.1437 B( 55-C , 97-H ) :   1.0187 B( 56-C , 57-C ) :   1.5180
B( 56-C , 58-C ) :   1.0797 B( 57-C , 98-H ) :   1.0018 B( 58-C , 59-N ) :   2.9465
B( 60-C , 61-C ) :   1.7039 B( 60-C , 99-H ) :   0.9600 B( 61-C , 62-C ) :   1.1160
B( 61-C ,100-H ) :   0.9565 B( 62-C , 63-C ) :   1.6344 B( 62-C ,101-H ) :   0.9592
B( 63-C , 64-C ) :   0.9451 B( 63-C , 71-C ) :   1.0601 B( 64-C , 65-O ) :   2.2369
B( 64-C , 66-C ) :   0.9433 B( 66-C , 67-C ) :   1.5593 B( 66-C , 70-C ) :   1.1993
B( 67-C , 68-S ) :   1.1657 B( 67-C , 77-C ) :   1.0855 B( 68-S , 69-C ) :   1.1551
B( 69-C , 70-C ) :   1.5515 B( 69-C ,102-H ) :   0.9593 B( 70-C , 71-C ) :   1.0120
B( 71-C , 72-C ) :   1.6341 B( 72-C , 73-C ) :   1.1335 B( 72-C , 75-C ) :   1.1607
B( 73-C , 74-N ) :   2.9991 B( 75-C , 76-N ) :   2.9703 B( 77-C ,103-H ) :   0.9460
B( 77-C ,104-H ) :   0.9436 B( 77-C ,105-H ) :   0.9429

-----------------------------------------------------------------------------
         ABSORPTION SPECTRUM VIA TRANSITION ELECTRIC DIPOLE MOMENTS
-----------------------------------------------------------------------------
State   Energy  Wavelength   fosc         T2         TX        TY        TZ
        (cm-1)    (nm)                  (au**2)     (au)      (au)      (au)
-----------------------------------------------------------------------------
   0    3362.1   2974.4   0.073269003   7.17444  -0.00578   0.72926   2.57732
   1    5254.3   1903.2   0.088443913   5.54153  -0.57212  -2.27720  -0.16904
   2   10616.1    942.0   0.016884861   0.52361   0.01147   0.32249  -0.64767
   3   12483.2    801.1   0.041109571   1.08416  -0.09608  -0.50251   0.90687
   4   14415.9    693.7   0.194865322   4.45007   0.07215   1.86706   0.97926
   5   14896.8    671.3   0.175592448   3.88051  -0.47614  -1.83565  -0.53309
   6   16309.9    613.1   0.027351225   0.55208  -0.11836  -0.72786  -0.09104
   7   16881.1    592.4   0.151848041   2.96131  -0.44251  -1.61795  -0.38436
   8   18146.4    551.1   0.019925489   0.36149   0.07494   0.47743  -0.35767
   9   18299.6    546.5   0.070104972   1.26120  -0.02899   0.21983   1.10092
  10   19385.5    515.8   0.010920872   0.18546   0.20164  -0.11800   0.36177
  11   20177.7    495.6   0.013656126   0.22281  -0.08267   0.45415   0.09862
  12   21134.0    473.2   0.086453348   1.34671  -0.27942  -1.03188  -0.45151
  13   21591.7    463.1   0.185348727   2.82604   0.15758   0.01270   1.67363
  14   21902.1    456.6   0.040393789   0.60716   0.01324  -0.35469  -0.69367
  15   22448.7    445.5   0.206581774   3.02953  -0.44496  -0.79063   1.48541
  16   22848.1    437.7   0.159645087   2.30028  -0.49496  -1.06730   0.95716
  17   23153.4    431.9   0.017823483   0.25343   0.14169   0.36809   0.31283
  18   23345.0    428.4   0.208836354   2.94501  -0.48245   0.10535   1.64352
  19   23722.5    421.5   0.091092145   1.26414   0.41175   1.04498  -0.05121
  20   23935.5    417.8   0.031230850   0.42955  -0.42015   0.43184   0.25795
  21   24782.6    403.5   0.249380011   3.31276   0.02895   1.80978  -0.19139
  22   25273.9    395.7   0.051753982   0.67414  -0.13296   0.17117   0.79193
  23   25711.5    388.9   0.008804794   0.11274   0.03706  -0.28734   0.16970
  24   26032.8    384.1   0.093335194   1.18032   0.08503   1.08016  -0.07960
  25   26240.2    381.1   0.025208477   0.31627  -0.50970   0.15752  -0.17793
  26   26574.3    376.3   0.187418812   2.32181   0.24846  -0.58802  -1.38359
  27   27022.5    370.1   0.295624787   3.60156   0.40297   1.72029   0.69265
  28   27071.6    369.4   0.035360006   0.43001  -0.03866  -0.25370  -0.60344
  29   27591.8    362.4   0.067092408   0.80051   0.29377  -0.55595   0.63649
  30   27881.3    358.7   0.110530537   1.30510   0.43129  -0.03522   1.05728
  31   28423.8    351.8   0.005144318   0.05958   0.19170  -0.05361   0.14129
  32   28706.6    348.4   0.355187152   4.07334  -0.95517   0.91320  -1.52547
  33   29023.8    344.5   0.008240825   0.09347   0.02508   0.30427   0.01628
  34   29190.1    342.6   0.029088970   0.32807   0.17521  -0.51656   0.17475
  35   29664.9    337.1   0.031280866   0.34715   0.27855  -0.32391  -0.40575
  36   29806.7    335.5   0.012005656   0.13260  -0.21046   0.08488  -0.28478
  37   30010.8    333.2   0.002960441   0.03248   0.03419   0.00034   0.17694
  38   30141.2    331.8   0.004754797   0.05193   0.20064  -0.06424  -0.08690
  39   30298.5    330.0   0.195124494   2.12015  -0.81210   0.41864  -1.13375
  40   30729.1    325.4   0.009504060   0.10182   0.01153   0.04986  -0.31496
  41   30823.0    324.4   0.237634343   2.53811  -0.68854   1.43491   0.07118
  42   30902.2    323.6   0.143187931   1.52543  -0.82525   0.03552  -0.91822
  43   31005.6    322.5   0.040881418   0.43407  -0.29147   0.08322  -0.58497
  44   31563.7    316.8   0.206506143   2.15388  -0.06952   1.46594  -0.00722
  45   31689.2    315.6   0.023492367   0.24406   0.05326   0.48584   0.07197
  46   31890.6    313.6   0.176298567   1.81996   0.73900   1.03256   0.45569
  47   32149.1    311.1   0.003716790   0.03806  -0.17462   0.04469  -0.07464
  48   32364.1    309.0   0.073642554   0.74910  -0.75690   0.20521  -0.36618
  49   32605.9    306.7   0.006126453   0.06186   0.09614   0.22862  -0.01858
  50   33001.2    303.0   0.015468767   0.15431  -0.34050  -0.18747   0.05680
  51   33101.0    302.1   0.389516041   3.87400   0.42485   0.18530   1.91289
  52   33313.6    300.2   0.467606441   4.62098   0.77045   0.77282   1.85206
  53   33627.6    297.4   0.042383256   0.41493  -0.09086   0.49798  -0.39836
  54   33696.2    296.8   0.082908222   0.81001   0.42628   0.75484  -0.24191
  55   33763.1    296.2   0.255872175   2.49492   0.12948  -0.85336   1.32285
  56   34263.3    291.9   0.029206149   0.28062  -0.22762  -0.46020   0.13050
  57   34420.4    290.5   0.110625156   1.05807   0.30454  -0.36003   0.91417
  58   34466.5    290.1   0.058938746   0.56296  -0.74386  -0.02864  -0.09390
  59   34643.9    288.7   0.110479522   1.04986  -0.60507   0.04681  -0.82556
  60   34805.1    287.3   0.045581146   0.43114   0.58639  -0.04444   0.29208
  61   35079.9    285.1   0.122455332   1.14920   0.77153  -0.16803   0.72506
  62   35190.5    284.2   0.013066704   0.12224   0.21389  -0.27303   0.04409
  63   35666.8    280.4   0.011590247   0.10698  -0.00487  -0.17919   0.27358
  64   35702.9    280.1   0.061951996   0.57125   0.29469  -0.23134   0.65642
  65   36288.2    275.6   0.288386730   2.61629   0.77771   1.15432   0.82401
  66   36483.3    274.1   0.108543249   0.97946  -0.90478  -0.16916  -0.36360
  67   36720.6    272.3   0.002537542   0.02275  -0.12212  -0.08493   0.02495
  68   36905.6    271.0   0.054314093   0.48450   0.09962  -0.52128   0.45038
  69   37013.7    270.2   0.058479087   0.52013  -0.04430  -0.09636  -0.71336
  70   37215.3    268.7   0.000101828   0.00090  -0.01221  -0.02297   0.01498
  71   37372.3    267.6   0.275408605   2.42607  -0.47567  -1.36268   0.58558
  72   37572.7    266.2   0.592407365   5.19068  -1.07261   0.39651  -1.97052
  73   37691.4    265.3   0.047653379   0.41622   0.30892  -0.55127  -0.12997
  74   37847.1    264.2   0.179186688   1.55865  -0.51231  -1.04982  -0.44054
  75   37886.4    263.9   0.089324442   0.77618  -0.49200  -0.68603  -0.25194
  76   38081.7    262.6   0.065079609   0.56261   0.29420   0.68783  -0.05430
  77   38131.6    262.2   0.079336796   0.68496   0.42759  -0.32597   0.62918
  78   38219.0    261.6   0.094530898   0.81427   0.56206   0.44782   0.54573
  79   38283.9    261.2   0.025205231   0.21675   0.08181  -0.40289  -0.21847
  80   38418.8    260.3   0.067422281   0.57774   0.64747   0.06138   0.39340
  81   38664.4    258.6   0.028761849   0.24490  -0.02357  -0.28702   0.40244
  82   38738.8    258.1   0.108939930   0.92580  -0.42592  -0.30416   0.80739
  83   39050.8    256.1   0.007902939   0.06662   0.02261   0.01239  -0.25683
  84   39229.0    254.9   0.005953629   0.04996   0.20105   0.09704   0.01122
  85   39456.3    253.4   0.010983028   0.09164   0.11240   0.01613  -0.28062
  86   39778.9    251.4   0.024768820   0.20499  -0.09156   0.22142  -0.38416
  87   40073.2    249.5   0.051414235   0.42238  -0.46022   0.08828  -0.45031
  88   40255.8    248.4   0.007998503   0.06541   0.12058   0.22420   0.02467

FINAL SINGLE POINT ENERGY     -4632.112501936262

DIPOLE MOMENT
-------------
                                X             Y             Z
Electronic contribution:     12.65194      18.27394      13.27308
Nuclear contribution   :    -15.20429     -19.47615     -11.34040
                        -----------------------------------------
Total Dipole Moment    :     -2.55235      -1.20221       1.93268
                        -----------------------------------------
Magnitude (a.u.)       :      3.41980
Magnitude (Debye)      :      8.69244

Rotational constants in cm-1:     0.000782     0.000394     0.000289
Rotational constants in MHz :    23.433100    11.808049     8.668509

                             ****ORCA TERMINATED NORMALLY****
TOTAL RUN TIME: 0 days 0 hours 18 minutes 9 seconds 996 msec
