                         Program Version 4.2.0 -  RELEASE  -
|  1> # ORCA input file
|  2> # SCF done       -266.668160724795          0.000491749615
|  3> ! CAM-B3LYP def2-SVP def2/J RIJCOSX Grid4 TightSCF
|  4> %maxcore 5000
|  5> %tddft
|  6>     Mode sTDDFT
|  7>     Ethresh 5.0
|  8>     maxcore 5000
|  9> end
| 10>
| 11> %pal
| 12>   nprocs 6
| 13>   end
| 14> * xyz 0 1
| 15>    C        2.79164        -0.54071         2.31134
| 16>    C        1.45453        -1.11413         2.45604
| 17>    C        1.28237        -2.49743         2.51097
| 18>    C        0.01713        -3.04904         2.56728
| 19>    C       -1.10442        -2.22404         2.57129
| 20>    C       -0.93315        -0.84042         2.58742
| 21>    C        0.33086        -0.29013         2.53645
| 22>    C       -2.49977        -2.76138         2.60465
| 23>    O       -3.41187        -2.14851         3.08739
| 24>    O       -2.69108        -3.96800         2.05372
| 25>    C        3.66501        -0.88678         1.34786
| 26>    C        5.03379        -0.34858         1.32163
| 27>    C        5.77414        -0.24011         2.49888
| 28>    C        7.07505         0.21579         2.46473
| 29>    C        7.65886         0.60185         1.25948
| 30>    C        6.91743         0.50981         0.08392
| 31>    C        5.62281         0.03113         0.11638
| 32>    C        9.07852         1.06680         1.29579
| 33>    O        9.84173         0.73409         2.15874
| 34>    O        9.46559         1.89298         0.31018
| 35>    C        3.28193        -1.79111         0.24942
| 36>    C        1.92865        -1.57510        -0.30388
| 37>    C        0.98507        -2.59602        -0.41998
| 38>    C       -0.31744        -2.34692        -0.82969
| 39>    C       -0.70472        -1.05483        -1.17438
| 40>    C        0.22459        -0.02274        -1.09787
| 41>    C        1.51571        -0.29063        -0.65871
| 42>    F        2.38850         0.72112        -0.59262
| 43>    F       -0.12445         1.21928        -1.43035
| 44>    F       -1.95108        -0.81095        -1.56723
| 45>    F       -1.20999        -3.33643        -0.86191
| 46>    F        1.31891        -3.84841        -0.08941
| 47>    C        4.11180        -2.73648        -0.24765
| 48>    C        5.42891        -3.02656         0.34950
| 49>    C        5.59928        -3.33741         1.69581
| 50>    C        6.84937        -3.63152         2.22528
| 51>    C        7.97251        -3.61637         1.40352
| 52>    C        7.82753        -3.30919         0.05328
| 53>    C        6.56658        -3.02826        -0.45619
| 54>    F        6.44832        -2.70985        -1.74989
| 55>    F        8.89471        -3.27950        -0.74388
| 56>    F        9.17156        -3.89703         1.90257
| 57>    F        6.97289        -3.92370         3.51990
| 58>    F        4.53885        -3.37393         2.50658
| 59>    C        3.73863        -3.59012        -1.37681
| 60>    C        3.14605        -3.12845        -2.52853
| 61>    C        2.66447        -3.99915        -3.51571
| 62>    C        2.70296        -5.36812        -3.37343
| 63>    C        3.36548        -5.88703        -2.23098
| 64>    C        3.92028        -4.99156        -1.24931
| 65>    N        4.53678        -5.59677        -0.24076
| 66>   Se        4.47146        -7.32579        -0.48285
| 67>    N        3.56394        -7.17199        -1.96295
| 68>    C        2.10799        -6.24958        -4.38364
| 69>    C        2.44718        -5.92306        -5.77665
| 70>    C        1.49407        -5.90306        -6.79439
| 71>    C        1.83688        -5.66022        -8.11856
| 72>    C        3.16263        -5.40974        -8.45448
| 73>    C        4.12885        -5.38614        -7.45185
| 74>    C        3.76744        -5.63220        -6.13402
| 75>    F        4.71903        -5.61250        -5.20136
| 76>    F        5.39867        -5.12610        -7.76285
| 77>    F        3.50258        -5.18296        -9.72260
| 78>    F        0.89421        -5.66488        -9.06480
| 79>    F        0.19841        -6.09492        -6.50225
| 80>    C        1.31473        -7.30383        -4.07100
| 81>    C        0.91948        -7.56378        -2.67546
| 82>    C        0.37122        -6.57376        -1.85684
| 83>    C        0.03706        -6.81965        -0.53118
| 84>    C        0.25303        -8.08101         0.01476
| 85>    C        0.77628        -9.09229        -0.78474
| 86>    C        1.09048        -8.83084        -2.11333
| 87>    F        1.58830        -9.82512        -2.84851
| 88>    F        0.97747       -10.30748        -0.27396
| 89>    F       -0.04522        -8.31484         1.29211
| 90>    F       -0.49492        -5.86097         0.23394
| 91>    F        0.12976        -5.35805        -2.36187
| 92>    C        0.91495        -8.32105        -5.05201
| 93>    C       -0.36776        -8.77123        -5.13250
| 94>    O       -0.75479        -9.75563        -5.94753
| 95>    C        0.15672       -10.38733        -6.72863
| 96>    C       -0.28956       -11.44040        -7.52655
| 97>    C        0.60517       -12.09646        -8.34337
| 98>    C        1.94476       -11.71483        -8.37902
| 99>    C        2.38521       -10.67353        -7.59561
|100>    C        1.49667        -9.99503        -6.75594
|101>    C        1.95813        -8.87650        -5.92844
|102>    O        3.09679        -8.44174        -5.97968
|103>    C       -1.52069        -8.19383        -4.37464
|104>    H        3.07283         0.21862         3.02804
|105>    H        2.14790        -3.14010         2.51616
|106>    H       -0.08292        -4.12404         2.62436
|107>    H       -1.81107        -0.21448         2.63580
|108>    H        0.45623         0.78254         2.53236
|109>    H       -1.90414        -4.33177         1.62372
|110>    H        5.33329        -0.54521         3.43585
|111>    H        7.66603         0.28171         3.36536
|112>    H        7.34940         0.77101        -0.87307
|113>    H        5.05794        -0.03778        -0.80067
|114>    H        8.74629         2.12216        -0.29302
|115>    H        3.04634        -2.06518        -2.68519
|116>    H        2.19776        -3.57492        -4.39237
|117>    H       -1.33025       -11.71993        -7.48703
|118>    H        0.26306       -12.91276        -8.96073
|119>    H        2.63434       -12.23792        -9.02297
|120>    H        3.41571       -10.35298        -7.60002
|121>    H       -1.62695        -8.67975        -3.40513
|122>    H       -2.43248        -8.37049        -4.94013
|123>    H       -1.39082        -7.12643        -4.22583
|124> *
|125>
|126>                          ****END OF INPUT****

CARTESIAN COORDINATES (ANGSTROEM)
---------------------------------
  C      2.791640   -0.540710    2.311340
  C      1.454530   -1.114130    2.456040
  C      1.282370   -2.497430    2.510970
  C      0.017130   -3.049040    2.567280
  C     -1.104420   -2.224040    2.571290
  C     -0.933150   -0.840420    2.587420
  C      0.330860   -0.290130    2.536450
  C     -2.499770   -2.761380    2.604650
  O     -3.411870   -2.148510    3.087390
  O     -2.691080   -3.968000    2.053720
  C      3.665010   -0.886780    1.347860
  C      5.033790   -0.348580    1.321630
  C      5.774140   -0.240110    2.498880
  C      7.075050    0.215790    2.464730
  C      7.658860    0.601850    1.259480
  C      6.917430    0.509810    0.083920
  C      5.622810    0.031130    0.116380
  C      9.078520    1.066800    1.295790
  O      9.841730    0.734090    2.158740
  O      9.465590    1.892980    0.310180
  C      3.281930   -1.791110    0.249420
  C      1.928650   -1.575100   -0.303880
  C      0.985070   -2.596020   -0.419980
  C     -0.317440   -2.346920   -0.829690
  C     -0.704720   -1.054830   -1.174380
  C      0.224590   -0.022740   -1.097870
  C      1.515710   -0.290630   -0.658710
  F      2.388500    0.721120   -0.592620
  F     -0.124450    1.219280   -1.430350
  F     -1.951080   -0.810950   -1.567230
  F     -1.209990   -3.336430   -0.861910
  F      1.318910   -3.848410   -0.089410
  C      4.111800   -2.736480   -0.247650
  C      5.428910   -3.026560    0.349500
  C      5.599280   -3.337410    1.695810
  C      6.849370   -3.631520    2.225280
  C      7.972510   -3.616370    1.403520
  C      7.827530   -3.309190    0.053280
  C      6.566580   -3.028260   -0.456190
  F      6.448320   -2.709850   -1.749890
  F      8.894710   -3.279500   -0.743880
  F      9.171560   -3.897030    1.902570
  F      6.972890   -3.923700    3.519900
  F      4.538850   -3.373930    2.506580
  C      3.738630   -3.590120   -1.376810
  C      3.146050   -3.128450   -2.528530
  C      2.664470   -3.999150   -3.515710
  C      2.702960   -5.368120   -3.373430
  C      3.365480   -5.887030   -2.230980
  C      3.920280   -4.991560   -1.249310
  N      4.536780   -5.596770   -0.240760
  Se     4.471460   -7.325790   -0.482850
  N      3.563940   -7.171990   -1.962950
  C      2.107990   -6.249580   -4.383640
  C      2.447180   -5.923060   -5.776650
  C      1.494070   -5.903060   -6.794390
  C      1.836880   -5.660220   -8.118560
  C      3.162630   -5.409740   -8.454480
  C      4.128850   -5.386140   -7.451850
  C      3.767440   -5.632200   -6.134020
  F      4.719030   -5.612500   -5.201360
  F      5.398670   -5.126100   -7.762850
  F      3.502580   -5.182960   -9.722600
  F      0.894210   -5.664880   -9.064800
  F      0.198410   -6.094920   -6.502250
  C      1.314730   -7.303830   -4.071000
  C      0.919480   -7.563780   -2.675460
  C      0.371220   -6.573760   -1.856840
  C      0.037060   -6.819650   -0.531180
  C      0.253030   -8.081010    0.014760
  C      0.776280   -9.092290   -0.784740
  C      1.090480   -8.830840   -2.113330
  F      1.588300   -9.825120   -2.848510
  F      0.977470  -10.307480   -0.273960
  F     -0.045220   -8.314840    1.292110
  F     -0.494920   -5.860970    0.233940
  F      0.129760   -5.358050   -2.361870
  C      0.914950   -8.321050   -5.052010
  C     -0.367760   -8.771230   -5.132500
  O     -0.754790   -9.755630   -5.947530
  C      0.156720  -10.387330   -6.728630
  C     -0.289560  -11.440400   -7.526550
  C      0.605170  -12.096460   -8.343370
  C      1.944760  -11.714830   -8.379020
  C      2.385210  -10.673530   -7.595610
  C      1.496670   -9.995030   -6.755940
  C      1.958130   -8.876500   -5.928440
  O      3.096790   -8.441740   -5.979680
  C     -1.520690   -8.193830   -4.374640
  H      3.072830    0.218620    3.028040
  H      2.147900   -3.140100    2.516160
  H     -0.082920   -4.124040    2.624360
  H     -1.811070   -0.214480    2.635800
  H      0.456230    0.782540    2.532360
  H     -1.904140   -4.331770    1.623720
  H      5.333290   -0.545210    3.435850
  H      7.666030    0.281710    3.365360
  H      7.349400    0.771010   -0.873070
  H      5.057940   -0.037780   -0.800670
  H      8.746290    2.122160   -0.293020
  H      3.046340   -2.065180   -2.685190
  H      2.197760   -3.574920   -4.392370
  H     -1.330250  -11.719930   -7.487030
  H      0.263060  -12.912760   -8.960730
  H      2.634340  -12.237920   -9.022970
  H      3.415710  -10.352980   -7.600020
  H     -1.626950   -8.679750   -3.405130
  H     -2.432480   -8.370490   -4.940130
  H     -1.390820   -7.126430   -4.225830

 Total Charge           Charge          ....    0
 Multiplicity           Mult            ....    1
 Number of Electrons    NEL             ....  656
 Basis Dimension        Dim             .... 1364

ORBITAL ENERGIES
----------------

  NO   OCC          E(Eh)            E(eV)
   0   2.0000    -453.989731    -12353.6886
   1   2.0000     -58.203389     -1583.7947
   2   2.0000     -52.274080     -1422.4500
   3   2.0000     -52.271760     -1422.3869
   4   2.0000     -52.271232     -1422.3725
   5   2.0000     -24.824444      -675.5075
   6   2.0000     -24.822306      -675.4493
   7   2.0000     -24.820084      -675.3888
   8   2.0000     -24.818513      -675.3461
   9   2.0000     -24.818080      -675.3343
  10   2.0000     -24.817952      -675.3308
  11   2.0000     -24.816942      -675.3033
  12   2.0000     -24.814102      -675.2260
  13   2.0000     -24.813893      -675.2203
  14   2.0000     -24.813462      -675.2086
  15   2.0000     -24.813077      -675.1982
  16   2.0000     -24.810719      -675.1340
  17   2.0000     -24.808552      -675.0750
  18   2.0000     -24.808010      -675.0603
  19   2.0000     -24.807967      -675.0591
  20   2.0000     -24.805711      -674.9977
  21   2.0000     -24.804974      -674.9776
  22   2.0000     -24.804301      -674.9593
  23   2.0000     -24.803425      -674.9355
  24   2.0000     -24.801784      -674.8909
  25   2.0000     -19.308699      -525.4164
  26   2.0000     -19.260318      -524.0999
  27   2.0000     -19.254139      -523.9318
  28   2.0000     -19.195684      -522.3411
  29   2.0000     -19.195450      -522.3347
  30   2.0000     -19.191351      -522.2232
  31   2.0000     -14.444665      -393.0593
  32   2.0000     -14.444445      -393.0533
  33   2.0000     -10.401338      -283.0348
  34   2.0000     -10.400470      -283.0112
  35   2.0000     -10.398953      -282.9699
  36   2.0000     -10.397377      -282.9270
  37   2.0000     -10.396342      -282.8989
  38   2.0000     -10.396280      -282.8972
  39   2.0000     -10.396180      -282.8944
  40   2.0000     -10.394580      -282.8509
  41   2.0000     -10.394494      -282.8486
  42   2.0000     -10.393978      -282.8345
  43   2.0000     -10.393644      -282.8254
  44   2.0000     -10.393358      -282.8177
  45   2.0000     -10.391115      -282.7566
  46   2.0000     -10.388908      -282.6966
  47   2.0000     -10.387201      -282.6501
  48   2.0000     -10.386517      -282.6315
  49   2.0000     -10.384832      -282.5856
  50   2.0000     -10.384809      -282.5850
  51   2.0000     -10.384281      -282.5707
  52   2.0000     -10.383372      -282.5459
  53   2.0000     -10.383263      -282.5429
  54   2.0000     -10.381656      -282.4992
  55   2.0000     -10.375726      -282.3379
  56   2.0000     -10.359745      -281.9030
  57   2.0000     -10.359356      -281.8924
  58   2.0000     -10.333578      -281.1909
  59   2.0000     -10.332664      -281.1661
  60   2.0000     -10.327707      -281.0312
  61   2.0000     -10.324893      -280.9546
  62   2.0000     -10.322631      -280.8931
  63   2.0000     -10.321806      -280.8706
  64   2.0000     -10.318390      -280.7777
  65   2.0000     -10.316274      -280.7201
  66   2.0000     -10.314445      -280.6703
  67   2.0000     -10.313677      -280.6494
  68   2.0000     -10.309113      -280.5252
  69   2.0000     -10.308395      -280.5057
  70   2.0000     -10.305410      -280.4245
  71   2.0000     -10.301465      -280.3171
  72   2.0000     -10.301429      -280.3161
  73   2.0000     -10.299428      -280.2617
  74   2.0000     -10.299200      -280.2555
  75   2.0000     -10.299078      -280.2522
  76   2.0000     -10.296438      -280.1803
  77   2.0000     -10.294738      -280.1341
  78   2.0000     -10.293646      -280.1043
  79   2.0000     -10.293191      -280.0920
  80   2.0000     -10.293034      -280.0877
  81   2.0000     -10.290980      -280.0318
  82   2.0000     -10.290750      -280.0255
  83   2.0000     -10.290048      -280.0064
  84   2.0000     -10.289974      -280.0044
  85   2.0000     -10.289464      -279.9905
  86   2.0000     -10.289258      -279.9849
  87   2.0000     -10.288676      -279.9691
  88   2.0000     -10.288445      -279.9628
  89   2.0000     -10.287721      -279.9431
  90   2.0000     -10.287186      -279.9286
  91   2.0000     -10.285579      -279.8848
  92   2.0000     -10.283210      -279.8204
  93   2.0000      -7.979271      -217.1270
  94   2.0000      -5.929419      -161.3477
  95   2.0000      -5.922768      -161.1667
  96   2.0000      -5.919134      -161.0678
  97   2.0000      -2.283530       -62.1380
  98   2.0000      -2.282874       -62.1202
  99   2.0000      -2.278498       -62.0011
 100   2.0000      -2.273389       -61.8621
 101   2.0000      -2.273175       -61.8562
 102   2.0000      -1.349652       -36.7259
 103   2.0000      -1.346634       -36.6438
 104   2.0000      -1.341494       -36.5039
 105   2.0000      -1.339617       -36.4528
 106   2.0000      -1.338154       -36.4130
 107   2.0000      -1.334940       -36.3256
 108   2.0000      -1.334858       -36.3233
 109   2.0000      -1.333506       -36.2865
 110   2.0000      -1.333016       -36.2732
 111   2.0000      -1.328139       -36.1405
 112   2.0000      -1.327221       -36.1155
 113   2.0000      -1.326494       -36.0957
 114   2.0000      -1.325733       -36.0750
 115   2.0000      -1.322681       -35.9920
 116   2.0000      -1.320183       -35.9240
 117   2.0000      -1.320084       -35.9213
 118   2.0000      -1.316794       -35.8318
 119   2.0000      -1.312638       -35.7187
 120   2.0000      -1.311395       -35.6849
 121   2.0000      -1.308179       -35.5974
 122   2.0000      -1.224228       -33.3129
 123   2.0000      -1.181794       -32.1583
 124   2.0000      -1.176328       -32.0095
 125   2.0000      -1.116349       -30.3774
 126   2.0000      -1.101323       -29.9685
 127   2.0000      -1.095775       -29.8176
 128   2.0000      -1.090228       -29.6666
 129   2.0000      -1.013261       -27.5722
 130   2.0000      -1.008590       -27.4451
 131   2.0000      -0.999637       -27.2015
 132   2.0000      -0.995590       -27.0914
 133   2.0000      -0.982038       -26.7226
 134   2.0000      -0.979514       -26.6539
 135   2.0000      -0.976010       -26.5586
 136   2.0000      -0.971525       -26.4365
 137   2.0000      -0.971235       -26.4286
 138   2.0000      -0.953784       -25.9538
 139   2.0000      -0.946697       -25.7609
 140   2.0000      -0.918684       -24.9987
 141   2.0000      -0.907945       -24.7064
 142   2.0000      -0.894645       -24.3445
 143   2.0000      -0.892667       -24.2907
 144   2.0000      -0.879829       -23.9414
 145   2.0000      -0.877698       -23.8834
 146   2.0000      -0.872862       -23.7518
 147   2.0000      -0.871904       -23.7257
 148   2.0000      -0.864408       -23.5217
 149   2.0000      -0.863398       -23.4942
 150   2.0000      -0.860492       -23.4152
 151   2.0000      -0.858094       -23.3499
 152   2.0000      -0.856477       -23.3059
 153   2.0000      -0.855769       -23.2867
 154   2.0000      -0.852418       -23.1955
 155   2.0000      -0.846258       -23.0279
 156   2.0000      -0.836084       -22.7510
 157   2.0000      -0.824353       -22.4318
 158   2.0000      -0.810916       -22.0661
 159   2.0000      -0.786986       -21.4150
 160   2.0000      -0.778312       -21.1789
 161   2.0000      -0.764922       -20.8146
 162   2.0000      -0.760508       -20.6945
 163   2.0000      -0.757468       -20.6118
 164   2.0000      -0.755688       -20.5633
 165   2.0000      -0.751441       -20.4478
 166   2.0000      -0.749231       -20.3876
 167   2.0000      -0.746653       -20.3175
 168   2.0000      -0.745094       -20.2750
 169   2.0000      -0.741663       -20.1817
 170   2.0000      -0.728754       -19.8304
 171   2.0000      -0.725186       -19.7333
 172   2.0000      -0.722766       -19.6675
 173   2.0000      -0.712531       -19.3889
 174   2.0000      -0.710703       -19.3392
 175   2.0000      -0.704833       -19.1795
 176   2.0000      -0.700742       -19.0681
 177   2.0000      -0.698046       -18.9948
 178   2.0000      -0.695536       -18.9265
 179   2.0000      -0.694513       -18.8987
 180   2.0000      -0.691233       -18.8094
 181   2.0000      -0.690480       -18.7889
 182   2.0000      -0.688845       -18.7444
 183   2.0000      -0.685526       -18.6541
 184   2.0000      -0.682531       -18.5726
 185   2.0000      -0.680632       -18.5209
 186   2.0000      -0.679288       -18.4844
 187   2.0000      -0.673954       -18.3392
 188   2.0000      -0.671810       -18.2809
 189   2.0000      -0.665123       -18.0989
 190   2.0000      -0.659342       -17.9416
 191   2.0000      -0.657884       -17.9019
 192   2.0000      -0.655848       -17.8465
 193   2.0000      -0.651053       -17.7161
 194   2.0000      -0.646158       -17.5828
 195   2.0000      -0.642816       -17.4919
 196   2.0000      -0.641623       -17.4594
 197   2.0000      -0.637450       -17.3459
 198   2.0000      -0.635961       -17.3054
 199   2.0000      -0.633183       -17.2298
 200   2.0000      -0.630018       -17.1437
 201   2.0000      -0.628675       -17.1071
 202   2.0000      -0.627449       -17.0738
 203   2.0000      -0.625894       -17.0314
 204   2.0000      -0.625319       -17.0158
 205   2.0000      -0.622757       -16.9461
 206   2.0000      -0.620346       -16.8805
 207   2.0000      -0.618035       -16.8176
 208   2.0000      -0.616346       -16.7716
 209   2.0000      -0.614450       -16.7200
 210   2.0000      -0.613559       -16.6958
 211   2.0000      -0.610554       -16.6140
 212   2.0000      -0.607399       -16.5282
 213   2.0000      -0.603927       -16.4337
 214   2.0000      -0.603197       -16.4138
 215   2.0000      -0.597192       -16.2504
 216   2.0000      -0.596992       -16.2450
 217   2.0000      -0.594508       -16.1774
 218   2.0000      -0.593674       -16.1547
 219   2.0000      -0.588727       -16.0201
 220   2.0000      -0.586362       -15.9557
 221   2.0000      -0.585968       -15.9450
 222   2.0000      -0.584464       -15.9041
 223   2.0000      -0.583188       -15.8693
 224   2.0000      -0.580607       -15.7991
 225   2.0000      -0.579482       -15.7685
 226   2.0000      -0.577025       -15.7016
 227   2.0000      -0.574885       -15.6434
 228   2.0000      -0.569590       -15.4993
 229   2.0000      -0.566942       -15.4273
 230   2.0000      -0.565636       -15.3917
 231   2.0000      -0.562129       -15.2963
 232   2.0000      -0.561464       -15.2782
 233   2.0000      -0.558628       -15.2010
 234   2.0000      -0.555947       -15.1281
 235   2.0000      -0.555102       -15.1051
 236   2.0000      -0.553608       -15.0644
 237   2.0000      -0.551550       -15.0085
 238   2.0000      -0.549772       -14.9601
 239   2.0000      -0.548026       -14.9125
 240   2.0000      -0.545555       -14.8453
 241   2.0000      -0.543282       -14.7835
 242   2.0000      -0.541789       -14.7428
 243   2.0000      -0.539907       -14.6916
 244   2.0000      -0.539255       -14.6739
 245   2.0000      -0.537267       -14.6198
 246   2.0000      -0.536730       -14.6052
 247   2.0000      -0.533953       -14.5296
 248   2.0000      -0.533476       -14.5166
 249   2.0000      -0.531956       -14.4753
 250   2.0000      -0.530392       -14.4327
 251   2.0000      -0.529549       -14.4098
 252   2.0000      -0.528183       -14.3726
 253   2.0000      -0.528064       -14.3694
 254   2.0000      -0.526110       -14.3162
 255   2.0000      -0.524894       -14.2831
 256   2.0000      -0.521103       -14.1799
 257   2.0000      -0.520488       -14.1632
 258   2.0000      -0.519702       -14.1418
 259   2.0000      -0.518339       -14.1047
 260   2.0000      -0.515770       -14.0348
 261   2.0000      -0.515482       -14.0270
 262   2.0000      -0.513070       -13.9614
 263   2.0000      -0.512766       -13.9531
 264   2.0000      -0.510595       -13.8940
 265   2.0000      -0.507707       -13.8154
 266   2.0000      -0.504452       -13.7268
 267   2.0000      -0.503668       -13.7055
 268   2.0000      -0.499256       -13.5854
 269   2.0000      -0.497713       -13.5435
 270   2.0000      -0.496420       -13.5083
 271   2.0000      -0.493931       -13.4406
 272   2.0000      -0.492427       -13.3996
 273   2.0000      -0.490436       -13.3454
 274   2.0000      -0.489082       -13.3086
 275   2.0000      -0.484590       -13.1864
 276   2.0000      -0.479317       -13.0429
 277   2.0000      -0.478114       -13.0101
 278   2.0000      -0.476571       -12.9682
 279   2.0000      -0.474545       -12.9130
 280   2.0000      -0.473099       -12.8737
 281   2.0000      -0.471660       -12.8345
 282   2.0000      -0.470541       -12.8041
 283   2.0000      -0.467898       -12.7321
 284   2.0000      -0.467658       -12.7256
 285   2.0000      -0.465794       -12.6749
 286   2.0000      -0.463162       -12.6033
 287   2.0000      -0.459931       -12.5153
 288   2.0000      -0.456535       -12.4229
 289   2.0000      -0.451602       -12.2887
 290   2.0000      -0.449184       -12.2229
 291   2.0000      -0.446170       -12.1409
 292   2.0000      -0.442784       -12.0488
 293   2.0000      -0.440881       -11.9970
 294   2.0000      -0.437499       -11.9049
 295   2.0000      -0.435760       -11.8576
 296   2.0000      -0.435306       -11.8453
 297   2.0000      -0.432601       -11.7717
 298   2.0000      -0.430859       -11.7243
 299   2.0000      -0.429706       -11.6929
 300   2.0000      -0.420234       -11.4351
 301   2.0000      -0.402530       -10.9534
 302   2.0000      -0.396319       -10.7844
 303   2.0000      -0.392776       -10.6880
 304   2.0000      -0.390668       -10.6306
 305   2.0000      -0.388085       -10.5603
 306   2.0000      -0.378250       -10.2927
 307   2.0000      -0.372227       -10.1288
 308   2.0000      -0.360056        -9.7976
 309   2.0000      -0.353153        -9.6098
 310   2.0000      -0.351171        -9.5558
 311   2.0000      -0.350259        -9.5310
 312   2.0000      -0.347184        -9.4474
 313   2.0000      -0.346473        -9.4280
 314   2.0000      -0.345962        -9.4141
 315   2.0000      -0.340926        -9.2771
 316   2.0000      -0.337771        -9.1912
 317   2.0000      -0.330831        -9.0024
 318   2.0000      -0.328829        -8.9479
 319   2.0000      -0.325997        -8.8708
 320   2.0000      -0.325255        -8.8506
 321   2.0000      -0.322446        -8.7742
 322   2.0000      -0.320239        -8.7141
 323   2.0000      -0.319513        -8.6944
 324   2.0000      -0.312700        -8.5090
 325   2.0000      -0.306247        -8.3334
 326   2.0000      -0.298885        -8.1331
 327   2.0000      -0.278975        -7.5913
 328   0.0000      -0.086713        -2.3596
 329   0.0000      -0.055754        -1.5171
 330   0.0000      -0.044493        -1.2107
 331   0.0000      -0.033317        -0.9066
 332   0.0000      -0.028938        -0.7875

MULLIKEN ATOMIC CHARGES
-----------------------
   0 C :   -0.019868
   1 C :    0.045951
   2 C :    0.012116
   3 C :   -0.024001
   4 C :   -0.040771
   5 C :    0.007933
   6 C :    0.002721
   7 C :    0.167490
   8 O :   -0.177033
   9 O :   -0.160606
  10 C :    0.019239
  11 C :    0.048714
  12 C :    0.007125
  13 C :    0.008761
  14 C :   -0.042096
  15 C :   -0.024432
  16 C :    0.014664
  17 C :    0.170945
  18 O :   -0.173527
  19 O :   -0.155158
  20 C :   -0.015188
  21 C :   -0.149592
  22 C :    0.251307
  23 C :    0.168505
  24 C :    0.138213
  25 C :    0.154694
  26 C :    0.200055
  27 F :   -0.163374
  28 F :   -0.155609
  29 F :   -0.147471
  30 F :   -0.159083
  31 F :   -0.169617
  32 C :    0.035657
  33 C :   -0.107141
  34 C :    0.223506
  35 C :    0.159710
  36 C :    0.135918
  37 C :    0.162029
  38 C :    0.207856
  39 F :   -0.166336
  40 F :   -0.156515
  41 F :   -0.147439
  42 F :   -0.158661
  43 F :   -0.160038
  44 C :   -0.010549
  45 C :    0.000792
  46 C :   -0.022205
  47 C :   -0.014927
  48 C :    0.025456
  49 C :    0.036208
  50 N :   -0.276302
  51 Se:    0.542376
  52 N :   -0.261447
  53 C :    0.084156
  54 C :   -0.135215
  55 C :    0.193188
  56 C :    0.163182
  57 C :    0.134542
  58 C :    0.161548
  59 C :    0.223026
  60 F :   -0.155691
  61 F :   -0.158962
  62 F :   -0.155070
  63 F :   -0.162464
  64 F :   -0.168228
  65 C :    0.065811
  66 C :   -0.173867
  67 C :    0.218889
  68 C :    0.165696
  69 C :    0.128400
  70 C :    0.147971
  71 C :    0.220010
  72 F :   -0.153190
  73 F :   -0.157132
  74 F :   -0.152814
  75 F :   -0.169612
  76 F :   -0.159389
  77 C :   -0.133818
  78 C :   -0.051864
  79 O :   -0.191288
  80 C :    0.181667
  81 C :   -0.030014
  82 C :    0.041017
  83 C :    0.037454
  84 C :   -0.005082
  85 C :   -0.052133
  86 C :    0.181319
  87 O :   -0.193220
  88 C :    0.150588
  89 H :    0.006336
  90 H :   -0.008324
  91 H :   -0.015666
  92 H :    0.007201
  93 H :   -0.012753
  94 H :    0.177898
  95 H :   -0.008326
  96 H :    0.007225
  97 H :   -0.020110
  98 H :   -0.012161
  99 H :    0.180170
 100 H :   -0.016631
 101 H :   -0.016445
 102 H :   -0.012829
 103 H :    0.000194
 104 H :   -0.004983
 105 H :    0.000506
 106 H :    0.038165
 107 H :    0.040097
 108 H :    0.042071
Sum of atomic charges:   -0.0000000

LOEWDIN ATOMIC CHARGES
----------------------
   0 C :    0.002559
   1 C :   -0.023145
   2 C :   -0.011734
   3 C :   -0.022833
   4 C :   -0.080194
   5 C :    0.011554
   6 C :   -0.015164
   7 C :    0.078233
   8 O :   -0.156909
   9 O :   -0.026821
  10 C :   -0.019192
  11 C :   -0.008915
  12 C :   -0.013867
  13 C :    0.014437
  14 C :   -0.080775
  15 C :   -0.025490
  16 C :   -0.009719
  17 C :    0.079276
  18 O :   -0.152923
  19 O :   -0.028895
  20 C :   -0.003155
  21 C :   -0.069776
  22 C :    0.065367
  23 C :    0.025583
  24 C :    0.041011
  25 C :    0.025546
  26 C :    0.061945
  27 F :   -0.037889
  28 F :   -0.035551
  29 F :   -0.026526
  30 F :   -0.033732
  31 F :   -0.028619
  32 C :    0.011820
  33 C :   -0.070061
  34 C :    0.072542
  35 C :    0.026319
  36 C :    0.044155
  37 C :    0.026924
  38 C :    0.068604
  39 F :   -0.039803
  40 F :   -0.036007
  41 F :   -0.025765
  42 F :   -0.037885
  43 F :   -0.031755
  44 C :   -0.030658
  45 C :   -0.001976
  46 C :   -0.001942
  47 C :   -0.023552
  48 C :   -0.038246
  49 C :   -0.033955
  50 N :   -0.255452
  51 Se:    0.582756
  52 N :   -0.239245
  53 C :    0.014536
  54 C :   -0.067420
  55 C :    0.058738
  56 C :    0.025203
  57 C :    0.040994
  58 C :    0.028514
  59 C :    0.078590
  60 F :   -0.028337
  61 F :   -0.037558
  62 F :   -0.032950
  63 F :   -0.041688
  64 F :   -0.044323
  65 C :    0.004012
  66 C :   -0.067669
  67 C :    0.058702
  68 C :    0.023056
  69 C :    0.037433
  70 C :    0.020130
  71 C :    0.070994
  72 F :   -0.027965
  73 F :   -0.037526
  74 F :   -0.032256
  75 F :   -0.043273
  76 F :   -0.034194
  77 C :   -0.128538
  78 C :    0.095950
  79 O :    0.009066
  80 C :    0.064895
  81 C :   -0.036866
  82 C :    0.002880
  83 C :   -0.026716
  84 C :    0.022437
  85 C :   -0.082846
  86 C :    0.072455
  87 O :   -0.181094
  88 C :   -0.050250
  89 H :    0.036414
  90 H :    0.029261
  91 H :    0.026874
  92 H :    0.040205
  93 H :    0.032293
  94 H :    0.082629
  95 H :    0.031945
  96 H :    0.040870
  97 H :    0.025813
  98 H :    0.027600
  99 H :    0.091006
 100 H :    0.034026
 101 H :    0.034461
 102 H :    0.037109
 103 H :    0.034882
 104 H :    0.032623
 105 H :    0.039081
 106 H :    0.045709
 107 H :    0.045265
 108 H :    0.044314

  Mayer bond orders larger than 0.100000
B(  0-C ,  1-C ) :   0.9892 B(  0-C , 10-C ) :   1.8440 B(  0-C , 89-H ) :   0.9571
B(  1-C ,  2-C ) :   1.3967 B(  1-C ,  6-C ) :   1.3484 B(  2-C ,  3-C ) :   1.3648
B(  2-C , 90-H ) :   0.9876 B(  3-C ,  4-C ) :   1.3406 B(  3-C , 91-H ) :   0.9925
B(  4-C ,  5-C ) :   1.3903 B(  4-C ,  7-C ) :   0.8973 B(  5-C ,  6-C ) :   1.3707
B(  5-C , 92-H ) :   0.9995 B(  6-C , 93-H ) :   1.0047 B(  7-C ,  8-O ) :   2.1844
B(  7-C ,  9-O ) :   1.2435 B(  9-O , 94-H ) :   0.9413 B( 10-C , 11-C ) :   0.9736
B( 10-C , 20-C ) :   1.0074 B( 11-C , 12-C ) :   1.3772 B( 11-C , 16-C ) :   1.3859
B( 12-C , 13-C ) :   1.3658 B( 12-C , 95-H ) :   0.9963 B( 13-C , 14-C ) :   1.4001
B( 13-C , 96-H ) :   0.9972 B( 14-C , 15-C ) :   1.3270 B( 14-C , 17-C ) :   0.8981
B( 15-C , 16-C ) :   1.3992 B( 15-C , 97-H ) :   0.9827 B( 16-C , 98-H ) :   0.9846
B( 17-C , 18-O ) :   2.1871 B( 17-C , 19-O ) :   1.2322 B( 19-O , 99-H ) :   0.9542
B( 20-C , 21-C ) :   0.9477 B( 20-C , 32-C ) :   1.8452 B( 21-C , 22-C ) :   1.3313
B( 21-C , 24-C ) :   0.1160 B( 21-C , 26-C ) :   1.3415 B( 22-C , 23-C ) :   1.3023
B( 22-C , 31-F ) :   1.1021 B( 23-C , 24-C ) :   1.2838 B( 23-C , 30-F ) :   1.1538
B( 24-C , 25-C ) :   1.2851 B( 24-C , 29-F ) :   1.1850 B( 25-C , 26-C ) :   1.2825
B( 25-C , 28-F ) :   1.1783 B( 26-C , 27-F ) :   1.1424 B( 32-C , 33-C ) :   0.9728
B( 32-C , 44-C ) :   0.9966 B( 33-C , 34-C ) :   1.3212 B( 33-C , 36-C ) :   0.1142
B( 33-C , 38-C ) :   1.3417 B( 34-C , 35-C ) :   1.2951 B( 34-C , 43-F ) :   1.1342
B( 35-C , 36-C ) :   1.2820 B( 35-C , 42-F ) :   1.1747 B( 36-C , 37-C ) :   1.2759
B( 36-C , 41-F ) :   1.1836 B( 37-C , 38-C ) :   1.2881 B( 37-C , 40-F ) :   1.1753
B( 38-C , 39-F ) :   1.1661 B( 44-C , 45-C ) :   1.5044 B( 44-C , 47-C ) :   0.1182
B( 44-C , 49-C ) :   1.1937 B( 45-C , 46-C ) :   1.1506 B( 45-C ,100-H ) :   1.0029
B( 46-C , 47-C ) :   1.5111 B( 46-C ,101-H ) :   1.0016 B( 47-C , 48-C ) :   1.1694
B( 47-C , 53-C ) :   0.9941 B( 48-C , 49-C ) :   1.1467 B( 48-C , 52-N ) :   1.5921
B( 49-C , 50-N ) :   1.5954 B( 50-N , 51-Se) :   1.2365 B( 50-N , 52-N ) :   0.1281
B( 51-Se, 52-N ) :   1.2450 B( 53-C , 54-C ) :   0.9813 B( 53-C , 65-C ) :   1.8501
B( 54-C , 55-C ) :   1.3303 B( 54-C , 57-C ) :   0.1124 B( 54-C , 59-C ) :   1.3152
B( 55-C , 56-C ) :   1.2767 B( 55-C , 64-F ) :   1.1526 B( 56-C , 57-C ) :   1.2836
B( 56-C , 63-F ) :   1.1708 B( 57-C , 58-C ) :   1.2709 B( 57-C , 62-F ) :   1.1766
B( 58-C , 59-C ) :   1.3008 B( 58-C , 61-F ) :   1.1702 B( 59-C , 60-F ) :   1.1680
B( 65-C , 66-C ) :   0.9858 B( 65-C , 77-C ) :   0.9754 B( 66-C , 67-C ) :   1.3282
B( 66-C , 69-C ) :   0.1137 B( 66-C , 71-C ) :   1.3254 B( 67-C , 68-C ) :   1.2853
B( 67-C , 76-F ) :   1.1493 B( 68-C , 69-C ) :   1.2796 B( 68-C , 75-F ) :   1.1208
B( 69-C , 70-C ) :   1.2727 B( 69-C , 74-F ) :   1.1808 B( 70-C , 71-C ) :   1.2908
B( 70-C , 73-F ) :   1.1751 B( 71-C , 72-F ) :   1.1742 B( 77-C , 78-C ) :   1.5622
B( 77-C , 86-C ) :   1.0112 B( 78-C , 79-O ) :   1.1731 B( 78-C , 88-C ) :   1.1200
B( 79-O , 80-C ) :   1.0785 B( 80-C , 81-C ) :   1.3516 B( 80-C , 85-C ) :   1.3353
B( 81-C , 82-C ) :   1.4131 B( 81-C ,102-H ) :   0.9947 B( 82-C , 83-C ) :   1.3258
B( 82-C ,103-H ) :   0.9910 B( 83-C , 84-C ) :   1.3997 B( 83-C ,104-H ) :   0.9945
B( 84-C , 85-C ) :   1.3352 B( 84-C ,105-H ) :   0.9989 B( 85-C , 86-C ) :   0.9899
B( 86-C , 87-O ) :   2.1489 B( 88-C ,106-H ) :   0.9247 B( 88-C ,107-H ) :   0.9342
B( 88-C ,108-H ) :   0.9359

-----------------------------------------------------------------------------
         ABSORPTION SPECTRUM VIA TRANSITION ELECTRIC DIPOLE MOMENTS
-----------------------------------------------------------------------------
State   Energy  Wavelength   fosc         T2         TX        TY        TZ
        (cm-1)    (nm)                  (au**2)     (au)      (au)      (au)
-----------------------------------------------------------------------------
   0   23431.5    426.8   0.258286920   3.62892   0.35816   1.50311   1.11414
   1   28350.0    352.7   0.046815442   0.54364   0.51131  -0.35519  -0.39503
   2   29160.3    342.9   0.054643516   0.61691  -0.35066   0.36889   0.59822
   3   30857.6    324.1   0.158003455   1.68570  -0.42762   1.14661   0.43374
   4   31271.0    319.8   0.012507956   0.13168  -0.31688   0.14228   0.10500
   5   31852.8    313.9   0.013627848   0.14085  -0.16969  -0.02140  -0.33406
   6   32566.3    307.1   0.097027451   0.98085   0.98258   0.11874  -0.03585
   7   32644.7    306.3   0.246675321   2.48765  -1.39349  -0.55169   0.49139
   8   33151.2    301.6   0.039880290   0.39604   0.44130  -0.31096   0.32342
   9   33463.4    298.8   0.082410304   0.81075  -0.26917  -0.85362  -0.09813
  10   34091.9    293.3   0.005850311   0.05649   0.03278  -0.16000   0.17269
  11   34202.0    292.4   0.031484953   0.30306  -0.04925   0.51370  -0.19168
  12   34930.7    286.3   0.002044258   0.01927  -0.08962   0.07064  -0.07903
  13   35312.2    283.2   0.098979352   0.92277  -0.80573  -0.46163   0.24589
  14   35940.5    278.2   0.052505538   0.48095   0.33533   0.60369   0.06375
  15   35989.2    277.9   0.097352075   0.89053  -0.68745  -0.44151   0.47223
  16   36546.5    273.6   0.054620814   0.49203  -0.67996   0.11032   0.13234
  17   37620.9    265.8   0.048324822   0.42288   0.21019   0.39004  -0.47600
  18   37715.1    265.1   0.050060911   0.43698   0.42883  -0.20017   0.46153
  19   37864.1    264.1   0.146223722   1.27135   1.02137  -0.47562  -0.04415
  20   38279.0    261.2   0.077348465   0.66522  -0.16137   0.73852  -0.30622
  21   38884.9    257.2   0.067486275   0.57136  -0.20218   0.45629  -0.56770
  22   39436.2    253.6   0.023215829   0.19380   0.05981  -0.42902   0.07853
  23   39644.6    252.2   0.232436883   1.93018   0.88880   0.83967  -0.65967
  24   40125.8    249.2   0.021221363   0.17411   0.23956   0.00462   0.34161
  25   40300.2    248.1   0.192852349   1.57541  -1.18528   0.12454   0.39372

FINAL SINGLE POINT ENERGY     -7251.787817164059

DIPOLE MOMENT
-------------
                                X             Y             Z
Electronic contribution:     28.62053     -34.39148       2.77435
Nuclear contribution   :    -29.62699      32.94499      -4.65177
                        -----------------------------------------
Total Dipole Moment    :     -1.00646      -1.44649      -1.87741
                        -----------------------------------------
Magnitude (a.u.)       :      2.57487
Magnitude (Debye)      :      6.54481

Rotational constants in cm-1:     0.000963     0.000515     0.000450
Rotational constants in MHz :    28.857501    15.430476    13.486055

                             ****ORCA TERMINATED NORMALLY****
TOTAL RUN TIME: 0 days 0 hours 16 minutes 50 seconds 405 msec
