                         Program Version 4.2.0 -  RELEASE  -
|  1> # ORCA input file
|  2> # SCF done       -231.100902927567          0.000963588746
|  3> ! CAM-B3LYP def2-SVP def2/J RIJCOSX Grid4 TightSCF
|  4> %maxcore 5000
|  5> %tddft
|  6>     Mode sTDDFT
|  7>     Ethresh 5.0
|  8>     maxcore 5000
|  9> end
| 10>
| 11> %pal
| 12>   nprocs 6
| 13>   end
| 14> * xyz 0 1
| 15>    C        0.50017        -4.96058        -3.95970
| 16>    O        1.24391        -5.65135        -4.62086
| 17>    N       -0.82114        -4.77881        -4.29044
| 18>    C       -1.36179        -5.49381        -5.43543
| 19>    C       -1.72355        -3.98557        -3.59726
| 20>    O       -2.88422        -3.94038        -3.91935
| 21>    N       -1.21603        -3.19841        -2.57999
| 22>    C       -2.14583        -2.27479        -1.95025
| 23>    C        0.08391        -3.21702        -2.13444
| 24>    O        0.50825        -2.38372        -1.36294
| 25>    C        0.91824        -4.29218        -2.70953
| 26>    C        2.05920        -4.71994        -2.13329
| 27>    C        2.57637        -4.33613        -0.85068
| 28>    C        1.94199        -4.19310         0.37051
| 29>    C        0.53401        -4.51078         0.60556
| 30>    O       -0.23726        -4.93154        -0.23395
| 31>    C        0.11978        -4.32096         2.01410
| 32>    C        0.98623        -3.80508         3.01225
| 33>    C        0.37934        -3.75202         4.24282
| 34>    S       -1.24672        -4.31045         4.21048
| 35>    C       -1.12059        -4.62259         2.52590
| 36>    C       -2.30323        -5.17847         1.79553
| 37>    F       -2.73487        -4.37360         0.81974
| 38>    F       -2.06406        -6.37744         1.25826
| 39>    F       -3.34326        -5.34188         2.63321
| 40>    C        0.99452        -3.32835         5.54065
| 41>    F        2.13844        -3.97758         5.79283
| 42>    F        1.24826        -2.02153         5.60622
| 43>    F        0.17320        -3.60652         6.56948
| 44>    C        2.37550        -3.37046         2.72951
| 45>    O        3.00879        -2.70097         3.51670
| 46>    C        2.84021        -3.78918         1.40798
| 47>    C        4.15068        -3.67647         0.97546
| 48>    S        4.27859        -4.04594        -0.71135
| 49>    C        5.33627        -3.35710         1.73935
| 50>    C        5.48914        -3.85366         3.04043
| 51>    C        6.60312        -3.50187         3.75900
| 52>    C        7.59235        -2.67659         3.19492
| 53>    C        7.46558        -2.21717         1.89209
| 54>    C        6.34012        -2.56549         1.17198
| 55>    C        8.63375        -2.47351         4.17985
| 56>    C        8.27868        -3.16298         5.35259
| 57>    C        6.96024        -3.87783         5.17551
| 58>    C        7.12584        -5.40131         5.33143
| 59>    C        8.17307        -5.98486         4.39037
| 60>    C        5.89941        -3.37122         6.17240
| 61>    C        5.57690        -1.89213         6.00064
| 62>    C        9.10188        -3.14715         6.45174
| 63>    C       10.31330        -2.44401         6.39167
| 64>    C       10.65664        -1.76522         5.21727
| 65>    C        9.82648        -1.76846         4.11459
| 66>    C       11.21167        -2.44363         7.52471
| 67>    C       10.95325        -2.78364         8.81772
| 68>    C       12.07668        -2.70415         9.67599
| 69>    C       13.25100        -2.28718         8.99999
| 70>    S       12.88780        -1.99020         7.31092
| 71>    C       14.46231        -2.16941         9.66302
| 72>    O       15.66289        -1.79026         9.17763
| 73>    C       15.81078        -1.43528         7.82375
| 74>    C       14.45809        -2.49533        11.04122
| 75>    C       13.27384        -2.90059        11.72107
| 76>    C       12.06476        -3.00782        11.05334
| 77>    O       10.85132        -3.37673        11.53959
| 78>    C       10.69287        -3.66233        12.90950
| 79>    S       13.64072        -3.21657        13.39987
| 80>    C       15.34843        -2.82692        13.17207
| 81>    C       15.59309        -2.46410        11.87043
| 82>    C       16.15081        -2.95054        14.32413
| 83>    C       17.49038        -2.81989        14.58725
| 84>    C       18.53863        -2.47717        13.63126
| 85>    O       18.35353        -2.20399        12.46089
| 86>    N       19.83208        -2.47705        14.13437
| 87>    C       20.20556        -2.73479        15.43648
| 88>    O       21.36632        -2.70839        15.77439
| 89>    N       19.18478        -3.01537        16.31895
| 90>    C       17.84468        -3.07843        15.99421
| 91>    O       17.02805        -3.34050        16.85475
| 92>    C       19.53274        -3.27573        17.70591
| 93>    C       20.92708        -2.16819        13.22840
| 94>    H       -0.54785        -6.05020        -5.89326
| 95>    H       -1.78474        -4.78393        -6.14518
| 96>    H       -2.14865        -6.17204        -5.10721
| 97>    H       -2.69345        -2.78598        -1.15862
| 98>    H       -2.84832        -1.91422        -2.69854
| 99>    H       -1.57060        -1.45331        -1.52910
|100>    H        2.65462        -5.42847        -2.70158
|101>    H        4.74301        -4.50699         3.46383
|102>    H        8.22561        -1.59280         1.44802
|103>    H        6.21036        -2.20186         0.16279
|104>    H        6.16118        -5.87579         5.14154
|105>    H        7.40579        -5.61755         6.36425
|106>    H        7.90934        -5.79077         3.35294
|107>    H        8.24439        -7.06078         4.53188
|108>    H        9.15037        -5.54772         4.58272
|109>    H        6.26637        -3.55272         7.18500
|110>    H        4.98367        -3.94894         6.03698
|111>    H        6.48037        -1.28755         6.05315
|112>    H        4.89914        -1.56961         6.78699
|113>    H        5.09019        -1.71755         5.04475
|114>    H        8.83729        -3.68838         7.34652
|115>    H       11.59268        -1.22630         5.18261
|116>    H       10.10681        -1.23599         3.21852
|117>    H        9.98792        -3.07505         9.18642
|118>    H       16.86099        -1.16986         7.71195
|119>    H       15.19018        -0.57438         7.56128
|120>    H       15.57598        -2.27013         7.15816
|121>    H       10.95097        -2.80357        13.53403
|122>    H       11.28730        -4.52714        13.21450
|123>    H        9.63524        -3.89160        13.03317
|124>    H       16.56566        -2.18291        11.51319
|125>    H       15.58591        -3.22773        15.21294
|126>    H       20.61243        -3.20222        17.80226
|127>    H       19.19030        -4.27129        17.98609
|128>    H       19.04085        -2.54519        18.34740
|129>    H       20.50224        -1.97036        12.24772
|130>    H       21.61402        -3.01262        13.18267
|131>    H       21.46930        -1.29606        13.59198
|132> *
|133>
|134>                          ****END OF INPUT****

CARTESIAN COORDINATES (ANGSTROEM)
---------------------------------
  C      0.500170   -4.960580   -3.959700
  O      1.243910   -5.651350   -4.620860
  N     -0.821140   -4.778810   -4.290440
  C     -1.361790   -5.493810   -5.435430
  C     -1.723550   -3.985570   -3.597260
  O     -2.884220   -3.940380   -3.919350
  N     -1.216030   -3.198410   -2.579990
  C     -2.145830   -2.274790   -1.950250
  C      0.083910   -3.217020   -2.134440
  O      0.508250   -2.383720   -1.362940
  C      0.918240   -4.292180   -2.709530
  C      2.059200   -4.719940   -2.133290
  C      2.576370   -4.336130   -0.850680
  C      1.941990   -4.193100    0.370510
  C      0.534010   -4.510780    0.605560
  O     -0.237260   -4.931540   -0.233950
  C      0.119780   -4.320960    2.014100
  C      0.986230   -3.805080    3.012250
  C      0.379340   -3.752020    4.242820
  S     -1.246720   -4.310450    4.210480
  C     -1.120590   -4.622590    2.525900
  C     -2.303230   -5.178470    1.795530
  F     -2.734870   -4.373600    0.819740
  F     -2.064060   -6.377440    1.258260
  F     -3.343260   -5.341880    2.633210
  C      0.994520   -3.328350    5.540650
  F      2.138440   -3.977580    5.792830
  F      1.248260   -2.021530    5.606220
  F      0.173200   -3.606520    6.569480
  C      2.375500   -3.370460    2.729510
  O      3.008790   -2.700970    3.516700
  C      2.840210   -3.789180    1.407980
  C      4.150680   -3.676470    0.975460
  S      4.278590   -4.045940   -0.711350
  C      5.336270   -3.357100    1.739350
  C      5.489140   -3.853660    3.040430
  C      6.603120   -3.501870    3.759000
  C      7.592350   -2.676590    3.194920
  C      7.465580   -2.217170    1.892090
  C      6.340120   -2.565490    1.171980
  C      8.633750   -2.473510    4.179850
  C      8.278680   -3.162980    5.352590
  C      6.960240   -3.877830    5.175510
  C      7.125840   -5.401310    5.331430
  C      8.173070   -5.984860    4.390370
  C      5.899410   -3.371220    6.172400
  C      5.576900   -1.892130    6.000640
  C      9.101880   -3.147150    6.451740
  C     10.313300   -2.444010    6.391670
  C     10.656640   -1.765220    5.217270
  C      9.826480   -1.768460    4.114590
  C     11.211670   -2.443630    7.524710
  C     10.953250   -2.783640    8.817720
  C     12.076680   -2.704150    9.675990
  C     13.251000   -2.287180    8.999990
  S     12.887800   -1.990200    7.310920
  C     14.462310   -2.169410    9.663020
  O     15.662890   -1.790260    9.177630
  C     15.810780   -1.435280    7.823750
  C     14.458090   -2.495330   11.041220
  C     13.273840   -2.900590   11.721070
  C     12.064760   -3.007820   11.053340
  O     10.851320   -3.376730   11.539590
  C     10.692870   -3.662330   12.909500
  S     13.640720   -3.216570   13.399870
  C     15.348430   -2.826920   13.172070
  C     15.593090   -2.464100   11.870430
  C     16.150810   -2.950540   14.324130
  C     17.490380   -2.819890   14.587250
  C     18.538630   -2.477170   13.631260
  O     18.353530   -2.203990   12.460890
  N     19.832080   -2.477050   14.134370
  C     20.205560   -2.734790   15.436480
  O     21.366320   -2.708390   15.774390
  N     19.184780   -3.015370   16.318950
  C     17.844680   -3.078430   15.994210
  O     17.028050   -3.340500   16.854750
  C     19.532740   -3.275730   17.705910
  C     20.927080   -2.168190   13.228400
  H     -0.547850   -6.050200   -5.893260
  H     -1.784740   -4.783930   -6.145180
  H     -2.148650   -6.172040   -5.107210
  H     -2.693450   -2.785980   -1.158620
  H     -2.848320   -1.914220   -2.698540
  H     -1.570600   -1.453310   -1.529100
  H      2.654620   -5.428470   -2.701580
  H      4.743010   -4.506990    3.463830
  H      8.225610   -1.592800    1.448020
  H      6.210360   -2.201860    0.162790
  H      6.161180   -5.875790    5.141540
  H      7.405790   -5.617550    6.364250
  H      7.909340   -5.790770    3.352940
  H      8.244390   -7.060780    4.531880
  H      9.150370   -5.547720    4.582720
  H      6.266370   -3.552720    7.185000
  H      4.983670   -3.948940    6.036980
  H      6.480370   -1.287550    6.053150
  H      4.899140   -1.569610    6.786990
  H      5.090190   -1.717550    5.044750
  H      8.837290   -3.688380    7.346520
  H     11.592680   -1.226300    5.182610
  H     10.106810   -1.235990    3.218520
  H      9.987920   -3.075050    9.186420
  H     16.860990   -1.169860    7.711950
  H     15.190180   -0.574380    7.561280
  H     15.575980   -2.270130    7.158160
  H     10.950970   -2.803570   13.534030
  H     11.287300   -4.527140   13.214500
  H      9.635240   -3.891600   13.033170
  H     16.565660   -2.182910   11.513190
  H     15.585910   -3.227730   15.212940
  H     20.612430   -3.202220   17.802260
  H     19.190300   -4.271290   17.986090
  H     19.040850   -2.545190   18.347400
  H     20.502240   -1.970360   12.247720
  H     21.614020   -3.012620   13.182670
  H     21.469300   -1.296060   13.591980

 Total Charge           Charge          ....    0
 Multiplicity           Mult            ....    1
 Number of Electrons    NEL             ....  594
 Basis Dimension        Dim             .... 1312

ORBITAL ENERGIES
----------------

  NO   OCC          E(Eh)            E(eV)
   0   2.0000     -89.015988     -2422.2482
   1   2.0000     -88.989684     -2421.5324
   2   2.0000     -88.952278     -2420.5145
   3   2.0000     -88.948341     -2420.4074
   4   2.0000     -24.814232      -675.2296
   5   2.0000     -24.813889      -675.2202
   6   2.0000     -24.809345      -675.0966
   7   2.0000     -24.809306      -675.0955
   8   2.0000     -24.806165      -675.0101
   9   2.0000     -24.805348      -674.9878
  10   2.0000     -19.253456      -523.9132
  11   2.0000     -19.248200      -523.7701
  12   2.0000     -19.230306      -523.2832
  13   2.0000     -19.226903      -523.1906
  14   2.0000     -19.205666      -522.6127
  15   2.0000     -19.203645      -522.5577
  16   2.0000     -19.203397      -522.5510
  17   2.0000     -19.195096      -522.3251
  18   2.0000     -19.190062      -522.1881
  19   2.0000     -19.187957      -522.1309
  20   2.0000     -14.467851      -393.6902
  21   2.0000     -14.466333      -393.6489
  22   2.0000     -14.455305      -393.3488
  23   2.0000     -14.455018      -393.3410
  24   2.0000     -10.539725      -286.8005
  25   2.0000     -10.539206      -286.7864
  26   2.0000     -10.420729      -283.5625
  27   2.0000     -10.408944      -283.2418
  28   2.0000     -10.397272      -282.9241
  29   2.0000     -10.397136      -282.9204
  30   2.0000     -10.390641      -282.7437
  31   2.0000     -10.387410      -282.6558
  32   2.0000     -10.387151      -282.6487
  33   2.0000     -10.379746      -282.4473
  34   2.0000     -10.352453      -281.7046
  35   2.0000     -10.351171      -281.6697
  36   2.0000     -10.345356      -281.5114
  37   2.0000     -10.337715      -281.3035
  38   2.0000     -10.337486      -281.2973
  39   2.0000     -10.337297      -281.2922
  40   2.0000     -10.326195      -280.9901
  41   2.0000     -10.324643      -280.9478
  42   2.0000     -10.323978      -280.9297
  43   2.0000     -10.323643      -280.9206
  44   2.0000     -10.323010      -280.9034
  45   2.0000     -10.310694      -280.5682
  46   2.0000     -10.309397      -280.5330
  47   2.0000     -10.307456      -280.4801
  48   2.0000     -10.306719      -280.4601
  49   2.0000     -10.305758      -280.4339
  50   2.0000     -10.304614      -280.4028
  51   2.0000     -10.304499      -280.3997
  52   2.0000     -10.302270      -280.3390
  53   2.0000     -10.298825      -280.2453
  54   2.0000     -10.295416      -280.1525
  55   2.0000     -10.294815      -280.1362
  56   2.0000     -10.290011      -280.0054
  57   2.0000     -10.289285      -279.9857
  58   2.0000     -10.289226      -279.9841
  59   2.0000     -10.285804      -279.8910
  60   2.0000     -10.284999      -279.8690
  61   2.0000     -10.283399      -279.8255
  62   2.0000     -10.280679      -279.7515
  63   2.0000     -10.279902      -279.7303
  64   2.0000     -10.279839      -279.7286
  65   2.0000     -10.279272      -279.7132
  66   2.0000     -10.278912      -279.7034
  67   2.0000     -10.278071      -279.6805
  68   2.0000     -10.277991      -279.6784
  69   2.0000     -10.276461      -279.6367
  70   2.0000     -10.275893      -279.6213
  71   2.0000     -10.275552      -279.6120
  72   2.0000     -10.273246      -279.5492
  73   2.0000     -10.273182      -279.5475
  74   2.0000     -10.272162      -279.5197
  75   2.0000     -10.265235      -279.3313
  76   2.0000     -10.259080      -279.1638
  77   2.0000     -10.248905      -278.8869
  78   2.0000     -10.237848      -278.5860
  79   2.0000      -8.110959      -220.7104
  80   2.0000      -8.085454      -220.0164
  81   2.0000      -8.047160      -218.9744
  82   2.0000      -8.043519      -218.8753
  83   2.0000      -6.080063      -165.4469
  84   2.0000      -6.075630      -165.3263
  85   2.0000      -6.073623      -165.2717
  86   2.0000      -6.054486      -164.7509
  87   2.0000      -6.050221      -164.6349
  88   2.0000      -6.048068      -164.5763
  89   2.0000      -6.017008      -163.7311
  90   2.0000      -6.013345      -163.6314
  91   2.0000      -6.012683      -163.6134
  92   2.0000      -6.009111      -163.5162
  93   2.0000      -6.008383      -163.4964
  94   2.0000      -6.004621      -163.3940
  95   2.0000      -1.402547       -38.1652
  96   2.0000      -1.402066       -38.1522
  97   2.0000      -1.304541       -35.4984
  98   2.0000      -1.304051       -35.4850
  99   2.0000      -1.302117       -35.4324
 100   2.0000      -1.301662       -35.4200
 101   2.0000      -1.176723       -32.0203
 102   2.0000      -1.164271       -31.6814
 103   2.0000      -1.159910       -31.5627
 104   2.0000      -1.152681       -31.3660
 105   2.0000      -1.152623       -31.3645
 106   2.0000      -1.147200       -31.2169
 107   2.0000      -1.142068       -31.0772
 108   2.0000      -1.137584       -30.9552
 109   2.0000      -1.131041       -30.7772
 110   2.0000      -1.124913       -30.6104
 111   2.0000      -1.049153       -28.5489
 112   2.0000      -1.038773       -28.2664
 113   2.0000      -1.035856       -28.1871
 114   2.0000      -1.026014       -27.9192
 115   2.0000      -1.019036       -27.7294
 116   2.0000      -1.012101       -27.5407
 117   2.0000      -0.997332       -27.1388
 118   2.0000      -0.992288       -27.0015
 119   2.0000      -0.978133       -26.6164
 120   2.0000      -0.952917       -25.9302
 121   2.0000      -0.934030       -25.4162
 122   2.0000      -0.929573       -25.2950
 123   2.0000      -0.918590       -24.9961
 124   2.0000      -0.913038       -24.8450
 125   2.0000      -0.910053       -24.7638
 126   2.0000      -0.894654       -24.3448
 127   2.0000      -0.885488       -24.0953
 128   2.0000      -0.875027       -23.8107
 129   2.0000      -0.867853       -23.6155
 130   2.0000      -0.863643       -23.5009
 131   2.0000      -0.843707       -22.9584
 132   2.0000      -0.839615       -22.8471
 133   2.0000      -0.839001       -22.8304
 134   2.0000      -0.834770       -22.7152
 135   2.0000      -0.832709       -22.6592
 136   2.0000      -0.827471       -22.5166
 137   2.0000      -0.825320       -22.4581
 138   2.0000      -0.817272       -22.2391
 139   2.0000      -0.807881       -21.9836
 140   2.0000      -0.802534       -21.8380
 141   2.0000      -0.800683       -21.7877
 142   2.0000      -0.795574       -21.6487
 143   2.0000      -0.793897       -21.6030
 144   2.0000      -0.782002       -21.2793
 145   2.0000      -0.779469       -21.2104
 146   2.0000      -0.769626       -20.9426
 147   2.0000      -0.763234       -20.7687
 148   2.0000      -0.755861       -20.5680
 149   2.0000      -0.752073       -20.4649
 150   2.0000      -0.744664       -20.2633
 151   2.0000      -0.738814       -20.1042
 152   2.0000      -0.727358       -19.7924
 153   2.0000      -0.725427       -19.7399
 154   2.0000      -0.720150       -19.5963
 155   2.0000      -0.719910       -19.5898
 156   2.0000      -0.711785       -19.3687
 157   2.0000      -0.709720       -19.3124
 158   2.0000      -0.694820       -18.9070
 159   2.0000      -0.686610       -18.6836
 160   2.0000      -0.685315       -18.6484
 161   2.0000      -0.684054       -18.6141
 162   2.0000      -0.683158       -18.5897
 163   2.0000      -0.680617       -18.5205
 164   2.0000      -0.673731       -18.3332
 165   2.0000      -0.672451       -18.2983
 166   2.0000      -0.671170       -18.2635
 167   2.0000      -0.667627       -18.1671
 168   2.0000      -0.663828       -18.0637
 169   2.0000      -0.653123       -17.7724
 170   2.0000      -0.648213       -17.6388
 171   2.0000      -0.640386       -17.4258
 172   2.0000      -0.636138       -17.3102
 173   2.0000      -0.634280       -17.2596
 174   2.0000      -0.632618       -17.2144
 175   2.0000      -0.619987       -16.8707
 176   2.0000      -0.612087       -16.6557
 177   2.0000      -0.607201       -16.5228
 178   2.0000      -0.603083       -16.4107
 179   2.0000      -0.600790       -16.3483
 180   2.0000      -0.599766       -16.3205
 181   2.0000      -0.594417       -16.1749
 182   2.0000      -0.586640       -15.9633
 183   2.0000      -0.586230       -15.9521
 184   2.0000      -0.585871       -15.9424
 185   2.0000      -0.573563       -15.6074
 186   2.0000      -0.572297       -15.5730
 187   2.0000      -0.567258       -15.4359
 188   2.0000      -0.564139       -15.3510
 189   2.0000      -0.562163       -15.2972
 190   2.0000      -0.560656       -15.2562
 191   2.0000      -0.559515       -15.2252
 192   2.0000      -0.555833       -15.1250
 193   2.0000      -0.555400       -15.1132
 194   2.0000      -0.554882       -15.0991
 195   2.0000      -0.552031       -15.0215
 196   2.0000      -0.549449       -14.9513
 197   2.0000      -0.546861       -14.8808
 198   2.0000      -0.543660       -14.7937
 199   2.0000      -0.542616       -14.7653
 200   2.0000      -0.540684       -14.7128
 201   2.0000      -0.537411       -14.6237
 202   2.0000      -0.534636       -14.5482
 203   2.0000      -0.533969       -14.5300
 204   2.0000      -0.532971       -14.5029
 205   2.0000      -0.531851       -14.4724
 206   2.0000      -0.531156       -14.4535
 207   2.0000      -0.529018       -14.3953
 208   2.0000      -0.528520       -14.3818
 209   2.0000      -0.525501       -14.2996
 210   2.0000      -0.524474       -14.2717
 211   2.0000      -0.522819       -14.2266
 212   2.0000      -0.521158       -14.1814
 213   2.0000      -0.520262       -14.1570
 214   2.0000      -0.518902       -14.1200
 215   2.0000      -0.518481       -14.1086
 216   2.0000      -0.516448       -14.0533
 217   2.0000      -0.515681       -14.0324
 218   2.0000      -0.514408       -13.9978
 219   2.0000      -0.514049       -13.9880
 220   2.0000      -0.511116       -13.9082
 221   2.0000      -0.508113       -13.8265
 222   2.0000      -0.504382       -13.7249
 223   2.0000      -0.503636       -13.7046
 224   2.0000      -0.501761       -13.6536
 225   2.0000      -0.497928       -13.5493
 226   2.0000      -0.495172       -13.4743
 227   2.0000      -0.494161       -13.4468
 228   2.0000      -0.493255       -13.4222
 229   2.0000      -0.492143       -13.3919
 230   2.0000      -0.491699       -13.3798
 231   2.0000      -0.489924       -13.3315
 232   2.0000      -0.489697       -13.3253
 233   2.0000      -0.485817       -13.2198
 234   2.0000      -0.484835       -13.1930
 235   2.0000      -0.481513       -13.1026
 236   2.0000      -0.480054       -13.0629
 237   2.0000      -0.475518       -12.9395
 238   2.0000      -0.473521       -12.8852
 239   2.0000      -0.472993       -12.8708
 240   2.0000      -0.471262       -12.8237
 241   2.0000      -0.470343       -12.7987
 242   2.0000      -0.468930       -12.7602
 243   2.0000      -0.467900       -12.7322
 244   2.0000      -0.467425       -12.7193
 245   2.0000      -0.465539       -12.6680
 246   2.0000      -0.464108       -12.6290
 247   2.0000      -0.462863       -12.5951
 248   2.0000      -0.460728       -12.5370
 249   2.0000      -0.459209       -12.4957
 250   2.0000      -0.458749       -12.4832
 251   2.0000      -0.458478       -12.4758
 252   2.0000      -0.455827       -12.4037
 253   2.0000      -0.451650       -12.2900
 254   2.0000      -0.445707       -12.1283
 255   2.0000      -0.443284       -12.0624
 256   2.0000      -0.441789       -12.0217
 257   2.0000      -0.437214       -11.8972
 258   2.0000      -0.434849       -11.8328
 259   2.0000      -0.429864       -11.6972
 260   2.0000      -0.424868       -11.5612
 261   2.0000      -0.424578       -11.5534
 262   2.0000      -0.421884       -11.4801
 263   2.0000      -0.411628       -11.2010
 264   2.0000      -0.406438       -11.0597
 265   2.0000      -0.403863       -10.9897
 266   2.0000      -0.399612       -10.8740
 267   2.0000      -0.397003       -10.8030
 268   2.0000      -0.391799       -10.6614
 269   2.0000      -0.389187       -10.5903
 270   2.0000      -0.383908       -10.4467
 271   2.0000      -0.380533       -10.3548
 272   2.0000      -0.379252       -10.3200
 273   2.0000      -0.374806       -10.1990
 274   2.0000      -0.370367       -10.0782
 275   2.0000      -0.368648       -10.0314
 276   2.0000      -0.368332       -10.0228
 277   2.0000      -0.357960        -9.7406
 278   2.0000      -0.357039        -9.7155
 279   2.0000      -0.355494        -9.6735
 280   2.0000      -0.355188        -9.6652
 281   2.0000      -0.352837        -9.6012
 282   2.0000      -0.349920        -9.5218
 283   2.0000      -0.344782        -9.3820
 284   2.0000      -0.341274        -9.2865
 285   2.0000      -0.338273        -9.2049
 286   2.0000      -0.336770        -9.1640
 287   2.0000      -0.333213        -9.0672
 288   2.0000      -0.332364        -9.0441
 289   2.0000      -0.326651        -8.8886
 290   2.0000      -0.323936        -8.8147
 291   2.0000      -0.321752        -8.7553
 292   2.0000      -0.318217        -8.6591
 293   2.0000      -0.307807        -8.3759
 294   2.0000      -0.290333        -7.9004
 295   2.0000      -0.266162        -7.2426
 296   2.0000      -0.231207        -6.2915
 297   0.0000      -0.091540        -2.4909
 298   0.0000      -0.076207        -2.0737
 299   0.0000      -0.068283        -1.8581
 300   0.0000      -0.049383        -1.3438
 301   0.0000      -0.027386        -0.7452

MULLIKEN ATOMIC CHARGES
-----------------------
   0 C :    0.186394
   1 O :   -0.199278
   2 N :   -0.282295
   3 C :    0.139535
   4 C :    0.234842
   5 O :   -0.211766
   6 N :   -0.273877
   7 C :    0.132415
   8 C :    0.194330
   9 O :   -0.204649
  10 C :   -0.075263
  11 C :    0.008609
  12 C :   -0.150819
  13 C :    0.098976
  14 C :    0.146960
  15 O :   -0.167582
  16 C :    0.062542
  17 C :    0.066383
  18 C :   -0.336368
  19 S :    0.283646
  20 C :   -0.345836
  21 C :    0.573638
  22 F :   -0.142775
  23 F :   -0.143582
  24 F :   -0.164687
  25 C :    0.568200
  26 F :   -0.150396
  27 F :   -0.137684
  28 F :   -0.165686
  29 C :    0.103486
  30 O :   -0.134951
  31 C :    0.000132
  32 C :   -0.130300
  33 S :    0.204132
  34 C :    0.080577
  35 C :   -0.021690
  36 C :   -0.014737
  37 C :    0.118488
  38 C :   -0.056173
  39 C :   -0.007320
  40 C :    0.105596
  41 C :    0.022171
  42 C :   -0.143238
  43 C :    0.068053
  44 C :    0.025006
  45 C :    0.069703
  46 C :    0.025944
  47 C :   -0.103810
  48 C :    0.143501
  49 C :   -0.037721
  50 C :   -0.044814
  51 C :   -0.018922
  52 C :   -0.055051
  53 C :    0.063084
  54 C :   -0.110918
  55 S :    0.065079
  56 C :    0.117555
  57 O :   -0.295402
  58 C :    0.168111
  59 C :    0.028604
  60 C :   -0.091818
  61 C :    0.099035
  62 O :   -0.314875
  63 C :    0.167424
  64 S :    0.075963
  65 C :   -0.056682
  66 C :   -0.010817
  67 C :    0.087807
  68 C :   -0.163297
  69 C :    0.208335
  70 O :   -0.209512
  71 N :   -0.295491
  72 C :    0.228856
  73 O :   -0.228149
  74 N :   -0.280275
  75 C :    0.183945
  76 O :   -0.222076
  77 C :    0.145547
  78 C :    0.145089
  79 H :    0.056293
  80 H :    0.038343
  81 H :    0.044398
  82 H :    0.039915
  83 H :    0.045708
  84 H :    0.049604
  85 H :    0.043971
  86 H :   -0.033021
  87 H :   -0.031771
  88 H :   -0.020467
  89 H :   -0.002236
  90 H :   -0.000869
  91 H :    0.017599
  92 H :    0.010799
  93 H :    0.022068
  94 H :   -0.006339
  95 H :   -0.001980
  96 H :    0.012155
  97 H :    0.008616
  98 H :    0.035717
  99 H :   -0.035975
 100 H :   -0.017023
 101 H :   -0.034211
 102 H :   -0.016152
 103 H :    0.044363
 104 H :    0.034486
 105 H :    0.037482
 106 H :    0.036969
 107 H :    0.036585
 108 H :    0.038036
 109 H :    0.019940
 110 H :    0.030595
 111 H :    0.054661
 112 H :    0.034682
 113 H :    0.035793
 114 H :    0.052561
 115 H :    0.036257
 116 H :    0.035337
Sum of atomic charges:   -0.0000000

LOEWDIN ATOMIC CHARGES
----------------------
   0 C :    0.084698
   1 O :   -0.180480
   2 N :   -0.037219
   3 C :    0.042767
   4 C :    0.104014
   5 O :   -0.180166
   6 N :   -0.026370
   7 C :    0.041095
   8 C :    0.083124
   9 O :   -0.182859
  10 C :   -0.086255
  11 C :    0.047425
  12 C :   -0.137123
  13 C :   -0.072655
  14 C :    0.089511
  15 O :   -0.135592
  16 C :   -0.062982
  17 C :   -0.062199
  18 C :   -0.209383
  19 S :    0.560078
  20 C :   -0.206172
  21 C :    0.146785
  22 F :   -0.043319
  23 F :   -0.043222
  24 F :   -0.065608
  25 C :    0.146696
  26 F :   -0.049920
  27 F :   -0.038697
  28 F :   -0.066223
  29 C :    0.078889
  30 O :   -0.122051
  31 C :   -0.100734
  32 C :   -0.105452
  33 S :    0.507459
  34 C :   -0.052852
  35 C :    0.009359
  36 C :    0.005916
  37 C :   -0.004269
  38 C :   -0.019640
  39 C :   -0.017242
  40 C :   -0.018596
  41 C :    0.009476
  42 C :   -0.035819
  43 C :   -0.010982
  44 C :   -0.058136
  45 C :   -0.010591
  46 C :   -0.057754
  47 C :   -0.011622
  48 C :   -0.033359
  49 C :   -0.026105
  50 C :   -0.013304
  51 C :   -0.139324
  52 C :   -0.048108
  53 C :   -0.045668
  54 C :   -0.191281
  55 S :    0.400989
  56 C :    0.040787
  57 O :   -0.087561
  58 C :    0.067242
  59 C :   -0.073734
  60 C :   -0.176306
  61 C :    0.017856
  62 O :   -0.105490
  63 C :    0.066189
  64 S :    0.394378
  65 C :   -0.181381
  66 C :    0.023648
  67 C :    0.073511
  68 C :   -0.147332
  69 C :    0.092339
  70 O :   -0.182893
  71 N :   -0.041841
  72 C :    0.095154
  73 O :   -0.198802
  74 N :   -0.038312
  75 C :    0.083822
  76 O :   -0.197080
  77 C :    0.041595
  78 C :    0.040492
  79 H :    0.034846
  80 H :    0.031678
  81 H :    0.033615
  82 H :    0.028700
  83 H :    0.033343
  84 H :    0.033022
  85 H :    0.050041
  86 H :    0.025738
  87 H :    0.028596
  88 H :    0.023561
  89 H :    0.020025
  90 H :    0.020740
  91 H :    0.023823
  92 H :    0.024642
  93 H :    0.025545
  94 H :    0.018321
  95 H :    0.020041
  96 H :    0.021817
  97 H :    0.025232
  98 H :    0.028981
  99 H :    0.026485
 100 H :    0.020259
 101 H :    0.027994
 102 H :    0.031451
 103 H :    0.033152
 104 H :    0.013224
 105 H :    0.013807
 106 H :    0.013940
 107 H :    0.012713
 108 H :    0.030451
 109 H :    0.037574
 110 H :    0.044726
 111 H :    0.033886
 112 H :    0.030220
 113 H :    0.030587
 114 H :    0.031874
 115 H :    0.030140
 116 H :    0.029985

  Mayer bond orders larger than 0.100000
B(  0-C ,  1-O ) :   2.1394 B(  0-C ,  2-N ) :   1.0882 B(  0-C , 10-C ) :   0.9256
B(  2-N ,  3-C ) :   0.9331 B(  2-N ,  4-C ) :   1.0459 B(  3-C , 79-H ) :   0.9560
B(  3-C , 80-H ) :   0.9765 B(  3-C , 81-H ) :   0.9757 B(  4-C ,  5-O ) :   2.1002
B(  4-C ,  6-N ) :   1.0590 B(  6-N ,  7-C ) :   0.9303 B(  6-N ,  8-C ) :   1.0912
B(  7-C , 82-H ) :   0.9784 B(  7-C , 83-H ) :   0.9651 B(  7-C , 84-H ) :   0.9585
B(  8-C ,  9-O ) :   2.1258 B(  8-C , 10-C ) :   0.9045 B( 10-C , 11-C ) :   1.8591
B( 11-C , 12-C ) :   1.0045 B( 11-C , 85-H ) :   0.9403 B( 12-C , 13-C ) :   1.5293
B( 12-C , 33-S ) :   1.1482 B( 13-C , 14-C ) :   0.9819 B( 13-C , 31-C ) :   1.1926
B( 14-C , 15-O ) :   2.1391 B( 14-C , 16-C ) :   0.9482 B( 16-C , 17-C ) :   1.2361
B( 16-C , 20-C ) :   1.5697 B( 17-C , 18-C ) :   1.5806 B( 17-C , 29-C ) :   0.9209
B( 18-C , 19-S ) :   1.1838 B( 18-C , 25-C ) :   0.9307 B( 19-S , 20-C ) :   1.1918
B( 20-C , 21-C ) :   0.9309 B( 21-C , 22-F ) :   1.1615 B( 21-C , 23-F ) :   1.1869
B( 21-C , 24-F ) :   1.1504 B( 25-C , 26-F ) :   1.1603 B( 25-C , 27-F ) :   1.1941
B( 25-C , 28-F ) :   1.1515 B( 29-C , 30-O ) :   2.1898 B( 29-C , 31-C ) :   0.9722
B( 31-C , 32-C ) :   1.5142 B( 32-C , 33-S ) :   1.1822 B( 32-C , 34-C ) :   1.0131
B( 34-C , 35-C ) :   1.3159 B( 34-C , 39-C ) :   1.3535 B( 35-C , 36-C ) :   1.4399
B( 35-C , 86-H ) :   0.9888 B( 36-C , 37-C ) :   1.3566 B( 36-C , 42-C ) :   0.9116
B( 37-C , 38-C ) :   1.3505 B( 37-C , 40-C ) :   0.9918 B( 38-C , 39-C ) :   1.3771
B( 38-C , 87-H ) :   0.9923 B( 39-C , 88-H ) :   0.9862 B( 40-C , 41-C ) :   1.3619
B( 40-C , 50-C ) :   1.3436 B( 41-C , 42-C ) :   0.9133 B( 41-C , 47-C ) :   1.3963
B( 42-C , 43-C ) :   1.0381 B( 42-C , 45-C ) :   1.0378 B( 43-C , 44-C ) :   1.0998
B( 43-C , 89-H ) :   0.9392 B( 43-C , 90-H ) :   0.9400 B( 44-C , 91-H ) :   0.9648
B( 44-C , 92-H ) :   0.9641 B( 44-C , 93-H ) :   0.9639 B( 45-C , 46-C ) :   1.1047
B( 45-C , 94-H ) :   0.9401 B( 45-C , 95-H ) :   0.9342 B( 46-C , 96-H ) :   0.9664
B( 46-C , 97-H ) :   0.9619 B( 46-C , 98-H ) :   0.9570 B( 47-C , 48-C ) :   1.3216
B( 47-C , 99-H ) :   1.0038 B( 48-C , 49-C ) :   1.3442 B( 48-C , 51-C ) :   1.0391
B( 49-C , 50-C ) :   1.3896 B( 49-C ,100-H ) :   0.9798 B( 50-C ,101-H ) :   0.9910
B( 51-C , 52-C ) :   1.5703 B( 51-C , 55-S ) :   1.0619 B( 52-C , 53-C ) :   1.1692
B( 52-C ,102-H ) :   1.0030 B( 53-C , 54-C ) :   1.3136 B( 53-C , 61-C ) :   1.2998
B( 54-C , 55-S ) :   1.0017 B( 54-C , 56-C ) :   1.3767 B( 56-C , 57-O ) :   1.2330
B( 56-C , 59-C ) :   1.2681 B( 57-O , 58-C ) :   0.9434 B( 58-C ,103-H ) :   0.9763
B( 58-C ,104-H ) :   0.9674 B( 58-C ,105-H ) :   0.9670 B( 59-C , 60-C ) :   1.2909
B( 59-C , 66-C ) :   1.1886 B( 60-C , 61-C ) :   1.3668 B( 60-C , 64-S ) :   1.0260
B( 61-C , 62-O ) :   1.2101 B( 62-O , 63-C ) :   0.9464 B( 63-C ,106-H ) :   0.9681
B( 63-C ,107-H ) :   0.9678 B( 63-C ,108-H ) :   0.9765 B( 64-S , 65-C ) :   1.0325
B( 65-C , 66-C ) :   1.4798 B( 65-C , 67-C ) :   1.1514 B( 66-C ,109-H ) :   0.9914
B( 67-C , 68-C ) :   1.6916 B( 67-C ,110-H ) :   0.9169 B( 68-C , 69-C ) :   0.9669
B( 68-C , 75-C ) :   0.9501 B( 69-C , 70-O ) :   2.0506 B( 69-C , 71-N ) :   1.0763
B( 71-N , 72-C ) :   1.0614 B( 71-N , 78-C ) :   0.9370 B( 72-C , 73-O ) :   2.0771
B( 72-C , 74-N ) :   1.0653 B( 74-N , 75-C ) :   1.0763 B( 74-N , 77-C ) :   0.9383
B( 75-C , 76-O ) :   2.0989 B( 77-C ,111-H ) :   0.9558 B( 77-C ,112-H ) :   0.9758
B( 77-C ,113-H ) :   0.9756 B( 78-C ,114-H ) :   0.9541 B( 78-C ,115-H ) :   0.9765
B( 78-C ,116-H ) :   0.9761

-----------------------------------------------------------------------------
         ABSORPTION SPECTRUM VIA TRANSITION ELECTRIC DIPOLE MOMENTS
-----------------------------------------------------------------------------
State   Energy  Wavelength   fosc         T2         TX        TY        TZ
        (cm-1)    (nm)                  (au**2)     (au)      (au)      (au)
-----------------------------------------------------------------------------
   0   18513.3    540.2   0.749807460  13.33341  -1.88936   0.28232  -3.11192
   1   22109.0    452.3   0.058332552   0.86860   0.11926   0.05620   0.92261
   2   23349.8    428.3   0.448540160   6.32402  -2.16052  -0.31117  -1.24874
   3   24531.5    407.6   0.077342377   1.03793  -0.26853  -0.03320  -0.98220
   4   26356.3    379.4   0.321516198   4.01600  -1.83451  -0.20499  -0.78010
   5   27033.5    369.9   0.029323964   0.35710  -0.51599  -0.11997  -0.27653
   6   28155.0    355.2   1.091910297  12.76755   2.66068   0.11507   2.38225
   7   28390.6    352.2   0.000281817   0.00327  -0.05382  -0.01516   0.01191
   8   29559.3    338.3   0.106970193   1.19136   0.28104  -0.04776   1.05361
   9   30115.7    332.1   0.016689887   0.18245  -0.34770  -0.16965   0.18102
  10   31290.5    319.6   0.000101520   0.00107   0.00192   0.02324   0.02290
  11   31328.9    319.2   0.055479070   0.58299  -0.09999  -0.00021  -0.75696
  12   31789.7    314.6   0.024722114   0.25602   0.39600   0.26163  -0.17538
  13   32701.3    305.8   0.080184676   0.80724   0.36775   0.32568   0.75229
  14   33232.7    300.9   0.001844458   0.01827  -0.09579   0.07329   0.06102
  15   33526.4    298.3   0.011060579   0.10861  -0.06667   0.09763   0.30762
  16   33841.7    295.5   0.001509242   0.01468   0.00830   0.08442   0.08652
  17   34220.5    292.2   0.087895090   0.84558   0.67030   0.04544   0.62786
  18   34771.9    287.6   0.167694480   1.58769   0.99381  -0.10352   0.76766
  19   35005.2    285.7   0.060339833   0.56748  -0.73948  -0.13296   0.05452
  20   35901.2    278.5   0.077885169   0.71420  -0.67295  -0.16191   0.48490
  21   36035.0    277.5   0.106538095   0.97332   0.77558   0.15455   0.58984
  22   36258.1    275.8   0.018659012   0.16942   0.07622  -0.09829   0.39236
  23   37207.0    268.8   0.088315054   0.78142  -0.69639  -0.24201  -0.48775
  24   37691.0    265.3   0.097041712   0.84761   0.69408  -0.22944   0.55966
  25   37808.4    264.5   0.205445199   1.78889  -0.68021   0.05846  -1.15013
  26   37986.2    263.3   0.013297579   0.11525  -0.27887  -0.14168  -0.13191
  27   38139.4    262.2   0.136694292   1.17992   0.96973   0.17144   0.45842
  28   38266.0    261.3   0.013262042   0.11410  -0.30260  -0.14555  -0.03666
  29   38472.4    259.9   0.006920812   0.05922   0.05755  -0.04606  -0.23192
  30   38687.2    258.5   0.049681822   0.42277  -0.50419  -0.12810   0.39007
  31   39484.6    253.3   0.109547795   0.91338   0.75153   0.10266   0.58141
  32   39767.7    251.5   0.005305826   0.04392  -0.20775  -0.02706   0.00550
  33   39959.4    250.3   0.001430905   0.01179  -0.10641  -0.02068   0.00610
  34   40100.5    249.4   0.109507142   0.89902   0.85216   0.13273  -0.39398

FINAL SINGLE POINT ENERGY     -5277.121143895318

DIPOLE MOMENT
-------------
                                X             Y             Z
Electronic contribution:   -119.53238      -9.42001     -40.84770
Nuclear contribution   :    119.14608       9.29234      39.71153
                        -----------------------------------------
Total Dipole Moment    :     -0.38630      -0.12767      -1.13617
                        -----------------------------------------
Magnitude (a.u.)       :      1.20682
Magnitude (Debye)      :      3.06748

Rotational constants in cm-1:     0.002332     0.000172     0.000163
Rotational constants in MHz :    69.905716     5.157185     4.888541

                             ****ORCA TERMINATED NORMALLY****
TOTAL RUN TIME: 0 days 0 hours 11 minutes 29 seconds 727 msec
