                         Program Version 4.2.0 -  RELEASE  -
|  1> # ORCA input file
|  2> # SCF done       -186.481940382297          0.000595193599
|  3> ! CAM-B3LYP def2-SVP def2/J RIJCOSX Grid4 TightSCF
|  4> %maxcore 5000
|  5> %tddft
|  6>     Mode sTDDFT
|  7>     Ethresh 5.0
|  8>     maxcore 5000
|  9> end
| 10>
| 11> %pal
| 12>   nprocs 6
| 13>   end
| 14> * xyz 0 1
| 15>    C       -0.58842        -1.57799         3.65784
| 16>    O       -0.38969        -2.04531         4.76243
| 17>    N       -1.70023        -0.79864         3.41183
| 18>    C       -2.62621        -0.53790         4.50208
| 19>    C       -2.02547        -0.22031         2.20150
| 20>    O       -3.01356         0.46466         2.07945
| 21>    N       -1.16643        -0.47619         1.15379
| 22>    C       -1.49602         0.08725        -0.14580
| 23>    C       -0.01665        -1.24557         1.21018
| 24>    O        0.61990        -1.42146         0.18987
| 25>    C        0.32500        -1.79037         2.52066
| 26>    C        1.44367        -2.51914         2.83595
| 27>    C        2.58544        -2.92991         2.12573
| 28>    C        3.02834        -2.74127         0.82198
| 29>    C        4.26465        -3.32788         0.59221
| 30>    C        4.78693        -3.98959         1.73110
| 31>    S        3.75297        -3.87679         3.07252
| 32>    C        6.03870        -4.54803         1.39317
| 33>    C        6.31656        -4.24313         0.04841
| 34>    C        5.20564        -3.47939        -0.50371
| 35>    C        5.08984        -3.03158        -1.78687
| 36>    C        6.06417        -3.32444        -2.76639
| 37>    N        6.84119        -3.59542        -3.56535
| 38>    C        3.99062        -2.27578        -2.25041
| 39>    N        3.11840        -1.65793        -2.66343
| 40>    C        7.54974        -4.72297        -0.37591
| 41>    C        8.22146        -5.40144         0.63131
| 42>    S        7.29710        -5.45022         2.12359
| 43>    C        9.51258        -5.99914         0.54905
| 44>    C       10.36624        -5.74169        -0.49880
| 45>    C       11.63562        -6.28923        -0.64296
| 46>    C       12.17638        -7.23755         0.33242
| 47>    C       11.52006        -7.62270         1.44925
| 48>    S        9.95180        -7.06876         1.87310
| 49>    C       13.46320        -7.58542        -0.16345
| 50>    C       13.72168        -6.90169        -1.35619
| 51>    C       14.99948        -7.21816        -1.86991
| 52>    C       15.65457        -8.10786        -1.07884
| 53>    S       14.76174        -8.59945         0.31830
| 54>    C       12.58423        -6.07421        -1.66799
| 55>    C       12.38036        -5.17590        -2.73372
| 56>    C       13.20487        -4.92507        -3.78766
| 57>    C       12.90104        -3.96599        -4.78196
| 58>    C       11.82805        -3.08226        -4.83459
| 59>    C       11.86248        -2.28122        -5.96709
| 60>    C       12.96411        -2.54594        -6.80489
| 61>    S       13.96242        -3.78222        -6.17252
| 62>    C       12.90176        -1.69659        -7.93115
| 63>    C       11.74219        -0.88677        -7.80295
| 64>    C       11.06588        -1.21849        -6.56062
| 65>    C        9.94650        -0.64361        -6.03278
| 66>    C        9.24862         0.38721        -6.69674
| 67>    N        8.67872         1.22480        -7.23352
| 68>    C        9.43816        -1.01286        -4.76925
| 69>    N        9.04358        -1.28788        -3.72781
| 70>    C       11.59613        -0.01755        -8.86459
| 71>    C       12.62514        -0.13888        -9.80878
| 72>    S       13.79700        -1.37427        -9.34349
| 73>    C       12.66944         0.64984       -10.96158
| 74>    C       13.56372         0.73296       -12.00516
| 75>    C       14.76130        -0.06853       -12.11274
| 76>    O       15.09038        -0.91512       -11.28892
| 77>    N       15.55622         0.16022       -13.21500
| 78>    C       15.29683         1.07809       -14.21827
| 79>    O       16.05420         1.20991       -15.15069
| 80>    N       14.14142         1.81504       -14.08856
| 81>    C       13.23986         1.71614       -13.04232
| 82>    O       12.25069         2.41965       -13.02185
| 83>    C       13.83121         2.78622       -15.12483
| 84>    C       16.77964        -0.60930       -13.37213
| 85>    H       -2.23247        -1.02002         5.39325
| 86>    H       -3.60838        -0.93960         4.25488
| 87>    H       -2.71629         0.53671         4.65608
| 88>    H       -2.39163         0.69208        -0.03461
| 89>    H       -1.66511        -0.71736        -0.86115
| 90>    H       -0.66347         0.69467        -0.49904
| 91>    H        1.44597        -2.83303         3.87858
| 92>    H        2.44808        -2.19738         0.09840
| 93>    H        7.93207        -4.59881        -1.37134
| 94>    H       10.01774        -5.05072        -1.25119
| 95>    H       11.93971        -8.31209         2.16461
| 96>    H       15.42836        -6.82003        -2.77057
| 97>    H       16.63348        -8.51963        -1.22853
| 98>    H       11.45236        -4.62397        -2.69266
| 99>    H       14.12921        -5.46876        -3.90416
|100>    H       11.06624        -3.02590        -4.08021
|101>    H       10.79260         0.68764        -8.98301
|102>    H       11.83558         1.34131       -11.05808
|103>    H       14.58644         2.70601       -15.90194
|104>    H       13.83021         3.78904       -14.69805
|105>    H       12.84063         2.57866       -15.52787
|106>    H       16.85623        -1.29070       -12.52878
|107>    H       17.63547         0.06448       -13.39668
|108>    H       16.74558        -1.16416       -14.30902
|109> *
|110>
|111>                          ****END OF INPUT****

CARTESIAN COORDINATES (ANGSTROEM)
---------------------------------
  C     -0.588420   -1.577990    3.657840
  O     -0.389690   -2.045310    4.762430
  N     -1.700230   -0.798640    3.411830
  C     -2.626210   -0.537900    4.502080
  C     -2.025470   -0.220310    2.201500
  O     -3.013560    0.464660    2.079450
  N     -1.166430   -0.476190    1.153790
  C     -1.496020    0.087250   -0.145800
  C     -0.016650   -1.245570    1.210180
  O      0.619900   -1.421460    0.189870
  C      0.325000   -1.790370    2.520660
  C      1.443670   -2.519140    2.835950
  C      2.585440   -2.929910    2.125730
  C      3.028340   -2.741270    0.821980
  C      4.264650   -3.327880    0.592210
  C      4.786930   -3.989590    1.731100
  S      3.752970   -3.876790    3.072520
  C      6.038700   -4.548030    1.393170
  C      6.316560   -4.243130    0.048410
  C      5.205640   -3.479390   -0.503710
  C      5.089840   -3.031580   -1.786870
  C      6.064170   -3.324440   -2.766390
  N      6.841190   -3.595420   -3.565350
  C      3.990620   -2.275780   -2.250410
  N      3.118400   -1.657930   -2.663430
  C      7.549740   -4.722970   -0.375910
  C      8.221460   -5.401440    0.631310
  S      7.297100   -5.450220    2.123590
  C      9.512580   -5.999140    0.549050
  C     10.366240   -5.741690   -0.498800
  C     11.635620   -6.289230   -0.642960
  C     12.176380   -7.237550    0.332420
  C     11.520060   -7.622700    1.449250
  S      9.951800   -7.068760    1.873100
  C     13.463200   -7.585420   -0.163450
  C     13.721680   -6.901690   -1.356190
  C     14.999480   -7.218160   -1.869910
  C     15.654570   -8.107860   -1.078840
  S     14.761740   -8.599450    0.318300
  C     12.584230   -6.074210   -1.667990
  C     12.380360   -5.175900   -2.733720
  C     13.204870   -4.925070   -3.787660
  C     12.901040   -3.965990   -4.781960
  C     11.828050   -3.082260   -4.834590
  C     11.862480   -2.281220   -5.967090
  C     12.964110   -2.545940   -6.804890
  S     13.962420   -3.782220   -6.172520
  C     12.901760   -1.696590   -7.931150
  C     11.742190   -0.886770   -7.802950
  C     11.065880   -1.218490   -6.560620
  C      9.946500   -0.643610   -6.032780
  C      9.248620    0.387210   -6.696740
  N      8.678720    1.224800   -7.233520
  C      9.438160   -1.012860   -4.769250
  N      9.043580   -1.287880   -3.727810
  C     11.596130   -0.017550   -8.864590
  C     12.625140   -0.138880   -9.808780
  S     13.797000   -1.374270   -9.343490
  C     12.669440    0.649840  -10.961580
  C     13.563720    0.732960  -12.005160
  C     14.761300   -0.068530  -12.112740
  O     15.090380   -0.915120  -11.288920
  N     15.556220    0.160220  -13.215000
  C     15.296830    1.078090  -14.218270
  O     16.054200    1.209910  -15.150690
  N     14.141420    1.815040  -14.088560
  C     13.239860    1.716140  -13.042320
  O     12.250690    2.419650  -13.021850
  C     13.831210    2.786220  -15.124830
  C     16.779640   -0.609300  -13.372130
  H     -2.232470   -1.020020    5.393250
  H     -3.608380   -0.939600    4.254880
  H     -2.716290    0.536710    4.656080
  H     -2.391630    0.692080   -0.034610
  H     -1.665110   -0.717360   -0.861150
  H     -0.663470    0.694670   -0.499040
  H      1.445970   -2.833030    3.878580
  H      2.448080   -2.197380    0.098400
  H      7.932070   -4.598810   -1.371340
  H     10.017740   -5.050720   -1.251190
  H     11.939710   -8.312090    2.164610
  H     15.428360   -6.820030   -2.770570
  H     16.633480   -8.519630   -1.228530
  H     11.452360   -4.623970   -2.692660
  H     14.129210   -5.468760   -3.904160
  H     11.066240   -3.025900   -4.080210
  H     10.792600    0.687640   -8.983010
  H     11.835580    1.341310  -11.058080
  H     14.586440    2.706010  -15.901940
  H     13.830210    3.789040  -14.698050
  H     12.840630    2.578660  -15.527870
  H     16.856230   -1.290700  -12.528780
  H     17.635470    0.064480  -13.396680
  H     16.745580   -1.164160  -14.309020

 Total Charge           Charge          ....    0
 Multiplicity           Mult            ....    1
 Number of Electrons    NEL             ....  524
 Basis Dimension        Dim             .... 1124

ORBITAL ENERGIES
----------------

  NO   OCC          E(Eh)            E(eV)
   0   2.0000     -88.999351     -2421.7955
   1   2.0000     -88.993572     -2421.6382
   2   2.0000     -88.990559     -2421.5562
   3   2.0000     -88.984796     -2421.3994
   4   2.0000     -88.980597     -2421.2851
   5   2.0000     -88.967854     -2420.9384
   6   2.0000     -19.203708      -522.5595
   7   2.0000     -19.199683      -522.4499
   8   2.0000     -19.194274      -522.3027
   9   2.0000     -19.194165      -522.2998
  10   2.0000     -19.193678      -522.2865
  11   2.0000     -19.189660      -522.1772
  12   2.0000     -14.461941      -393.5294
  13   2.0000     -14.460274      -393.4840
  14   2.0000     -14.458937      -393.4477
  15   2.0000     -14.457551      -393.4100
  16   2.0000     -14.431081      -392.6897
  17   2.0000     -14.427011      -392.5789
  18   2.0000     -14.426377      -392.5617
  19   2.0000     -14.425098      -392.5269
  20   2.0000     -10.413126      -283.3556
  21   2.0000     -10.412957      -283.3510
  22   2.0000     -10.392524      -282.7950
  23   2.0000     -10.390055      -282.7278
  24   2.0000     -10.387790      -282.6661
  25   2.0000     -10.381456      -282.4938
  26   2.0000     -10.367763      -282.1212
  27   2.0000     -10.359403      -281.8937
  28   2.0000     -10.353240      -281.7260
  29   2.0000     -10.347840      -281.5790
  30   2.0000     -10.345552      -281.5168
  31   2.0000     -10.342015      -281.4205
  32   2.0000     -10.341657      -281.4108
  33   2.0000     -10.341114      -281.3960
  34   2.0000     -10.336624      -281.2739
  35   2.0000     -10.330594      -281.1098
  36   2.0000     -10.326826      -281.0072
  37   2.0000     -10.326742      -281.0049
  38   2.0000     -10.325732      -280.9774
  39   2.0000     -10.325370      -280.9676
  40   2.0000     -10.324703      -280.9495
  41   2.0000     -10.324558      -280.9455
  42   2.0000     -10.322612      -280.8925
  43   2.0000     -10.321114      -280.8518
  44   2.0000     -10.316594      -280.7288
  45   2.0000     -10.315073      -280.6874
  46   2.0000     -10.313873      -280.6547
  47   2.0000     -10.311359      -280.5863
  48   2.0000     -10.310759      -280.5700
  49   2.0000     -10.308926      -280.5201
  50   2.0000     -10.307108      -280.4707
  51   2.0000     -10.306291      -280.4484
  52   2.0000     -10.306181      -280.4454
  53   2.0000     -10.304030      -280.3869
  54   2.0000     -10.302654      -280.3495
  55   2.0000     -10.299719      -280.2696
  56   2.0000     -10.299080      -280.2522
  57   2.0000     -10.296530      -280.1828
  58   2.0000     -10.294829      -280.1365
  59   2.0000     -10.294394      -280.1247
  60   2.0000     -10.293192      -280.0920
  61   2.0000     -10.292775      -280.0806
  62   2.0000     -10.292605      -280.0760
  63   2.0000     -10.291115      -280.0355
  64   2.0000     -10.291038      -280.0334
  65   2.0000     -10.290297      -280.0132
  66   2.0000     -10.289173      -279.9826
  67   2.0000     -10.287350      -279.9330
  68   2.0000     -10.286109      -279.8993
  69   2.0000     -10.284784      -279.8632
  70   2.0000      -8.093885      -220.2458
  71   2.0000      -8.088381      -220.0960
  72   2.0000      -8.086091      -220.0337
  73   2.0000      -8.079481      -219.8538
  74   2.0000      -8.072624      -219.6673
  75   2.0000      -8.063402      -219.4163
  76   2.0000      -6.063222      -164.9887
  77   2.0000      -6.058978      -164.8732
  78   2.0000      -6.057451      -164.8316
  79   2.0000      -6.056143      -164.7960
  80   2.0000      -6.055701      -164.7840
  81   2.0000      -6.053364      -164.7204
  82   2.0000      -6.051146      -164.6601
  83   2.0000      -6.050965      -164.6551
  84   2.0000      -6.048650      -164.5921
  85   2.0000      -6.047880      -164.5712
  86   2.0000      -6.044566      -164.4810
  87   2.0000      -6.042051      -164.4126
  88   2.0000      -6.041924      -164.4091
  89   2.0000      -6.037281      -164.2828
  90   2.0000      -6.035240      -164.2272
  91   2.0000      -6.032805      -164.1610
  92   2.0000      -6.028559      -164.0454
  93   2.0000      -6.025457      -163.9610
  94   2.0000      -1.168724       -31.8026
  95   2.0000      -1.168415       -31.7942
  96   2.0000      -1.136968       -30.9385
  97   2.0000      -1.136456       -30.9245
  98   2.0000      -1.130105       -30.7517
  99   2.0000      -1.127196       -30.6726
 100   2.0000      -1.050461       -28.5845
 101   2.0000      -1.041192       -28.3323
 102   2.0000      -1.040622       -28.3168
 103   2.0000      -1.038812       -28.2675
 104   2.0000      -1.022455       -27.8224
 105   2.0000      -1.019486       -27.7416
 106   2.0000      -1.017201       -27.6795
 107   2.0000      -1.016510       -27.6606
 108   2.0000      -1.016490       -27.6601
 109   2.0000      -1.007408       -27.4130
 110   2.0000      -1.004728       -27.3400
 111   2.0000      -1.003114       -27.2961
 112   2.0000      -0.991622       -26.9834
 113   2.0000      -0.983253       -26.7557
 114   2.0000      -0.961665       -26.1682
 115   2.0000      -0.955878       -26.0108
 116   2.0000      -0.940247       -25.5854
 117   2.0000      -0.927015       -25.2254
 118   2.0000      -0.921824       -25.0841
 119   2.0000      -0.912037       -24.8178
 120   2.0000      -0.903740       -24.5920
 121   2.0000      -0.894343       -24.3363
 122   2.0000      -0.884593       -24.0710
 123   2.0000      -0.871342       -23.7104
 124   2.0000      -0.864330       -23.5196
 125   2.0000      -0.861614       -23.4457
 126   2.0000      -0.851401       -23.1678
 127   2.0000      -0.850469       -23.1424
 128   2.0000      -0.840953       -22.8835
 129   2.0000      -0.831644       -22.6302
 130   2.0000      -0.824729       -22.4420
 131   2.0000      -0.812340       -22.1049
 132   2.0000      -0.802588       -21.8395
 133   2.0000      -0.794346       -21.6152
 134   2.0000      -0.786517       -21.4022
 135   2.0000      -0.785155       -21.3651
 136   2.0000      -0.782600       -21.2956
 137   2.0000      -0.777231       -21.1495
 138   2.0000      -0.769804       -20.9474
 139   2.0000      -0.757127       -20.6025
 140   2.0000      -0.741781       -20.1849
 141   2.0000      -0.740283       -20.1441
 142   2.0000      -0.720818       -19.6145
 143   2.0000      -0.714350       -19.4385
 144   2.0000      -0.713792       -19.4233
 145   2.0000      -0.709150       -19.2969
 146   2.0000      -0.700792       -19.0695
 147   2.0000      -0.694023       -18.8853
 148   2.0000      -0.689426       -18.7602
 149   2.0000      -0.684896       -18.6370
 150   2.0000      -0.674262       -18.3476
 151   2.0000      -0.671565       -18.2742
 152   2.0000      -0.667374       -18.1602
 153   2.0000      -0.661871       -18.0104
 154   2.0000      -0.655495       -17.8369
 155   2.0000      -0.642313       -17.4782
 156   2.0000      -0.636441       -17.3184
 157   2.0000      -0.631653       -17.1882
 158   2.0000      -0.629605       -17.1324
 159   2.0000      -0.627713       -17.0809
 160   2.0000      -0.619808       -16.8658
 161   2.0000      -0.614208       -16.7134
 162   2.0000      -0.613452       -16.6929
 163   2.0000      -0.597852       -16.2684
 164   2.0000      -0.593803       -16.1582
 165   2.0000      -0.590487       -16.0680
 166   2.0000      -0.590342       -16.0640
 167   2.0000      -0.587986       -15.9999
 168   2.0000      -0.581633       -15.8271
 169   2.0000      -0.575799       -15.6683
 170   2.0000      -0.564614       -15.3639
 171   2.0000      -0.561355       -15.2753
 172   2.0000      -0.552456       -15.0331
 173   2.0000      -0.548731       -14.9317
 174   2.0000      -0.544678       -14.8215
 175   2.0000      -0.543534       -14.7903
 176   2.0000      -0.542533       -14.7631
 177   2.0000      -0.542168       -14.7531
 178   2.0000      -0.537661       -14.6305
 179   2.0000      -0.537487       -14.6258
 180   2.0000      -0.535013       -14.5585
 181   2.0000      -0.529829       -14.4174
 182   2.0000      -0.526598       -14.3295
 183   2.0000      -0.525904       -14.3106
 184   2.0000      -0.525531       -14.3004
 185   2.0000      -0.522643       -14.2218
 186   2.0000      -0.522227       -14.2105
 187   2.0000      -0.519169       -14.1273
 188   2.0000      -0.517863       -14.0918
 189   2.0000      -0.515535       -14.0284
 190   2.0000      -0.508685       -13.8420
 191   2.0000      -0.506848       -13.7920
 192   2.0000      -0.504071       -13.7165
 193   2.0000      -0.503777       -13.7085
 194   2.0000      -0.501341       -13.6422
 195   2.0000      -0.499751       -13.5989
 196   2.0000      -0.497371       -13.5342
 197   2.0000      -0.495223       -13.4757
 198   2.0000      -0.494722       -13.4621
 199   2.0000      -0.490324       -13.3424
 200   2.0000      -0.483236       -13.1495
 201   2.0000      -0.482156       -13.1201
 202   2.0000      -0.479851       -13.0574
 203   2.0000      -0.477770       -13.0008
 204   2.0000      -0.473993       -12.8980
 205   2.0000      -0.470073       -12.7913
 206   2.0000      -0.468825       -12.7574
 207   2.0000      -0.467793       -12.7293
 208   2.0000      -0.467272       -12.7151
 209   2.0000      -0.465646       -12.6709
 210   2.0000      -0.464664       -12.6441
 211   2.0000      -0.464255       -12.6330
 212   2.0000      -0.462855       -12.5949
 213   2.0000      -0.462389       -12.5823
 214   2.0000      -0.462052       -12.5731
 215   2.0000      -0.461454       -12.5568
 216   2.0000      -0.459920       -12.5151
 217   2.0000      -0.458456       -12.4752
 218   2.0000      -0.456526       -12.4227
 219   2.0000      -0.453785       -12.3481
 220   2.0000      -0.451314       -12.2809
 221   2.0000      -0.449681       -12.2365
 222   2.0000      -0.445004       -12.1092
 223   2.0000      -0.441300       -12.0084
 224   2.0000      -0.440063       -11.9747
 225   2.0000      -0.438797       -11.9403
 226   2.0000      -0.437628       -11.9085
 227   2.0000      -0.436823       -11.8866
 228   2.0000      -0.434656       -11.8276
 229   2.0000      -0.432512       -11.7693
 230   2.0000      -0.431495       -11.7416
 231   2.0000      -0.428387       -11.6570
 232   2.0000      -0.426151       -11.5962
 233   2.0000      -0.423814       -11.5326
 234   2.0000      -0.422787       -11.5046
 235   2.0000      -0.416072       -11.3219
 236   2.0000      -0.413955       -11.2643
 237   2.0000      -0.403722       -10.9858
 238   2.0000      -0.392991       -10.6938
 239   2.0000      -0.390451       -10.6247
 240   2.0000      -0.378694       -10.3048
 241   2.0000      -0.372708       -10.1419
 242   2.0000      -0.371704       -10.1146
 243   2.0000      -0.363345        -9.8871
 244   2.0000      -0.358797        -9.7634
 245   2.0000      -0.356502        -9.7009
 246   2.0000      -0.352873        -9.6022
 247   2.0000      -0.350224        -9.5301
 248   2.0000      -0.348128        -9.4730
 249   2.0000      -0.342463        -9.3189
 250   2.0000      -0.342245        -9.3130
 251   2.0000      -0.336320        -9.1517
 252   2.0000      -0.336180        -9.1479
 253   2.0000      -0.329441        -8.9646
 254   2.0000      -0.327796        -8.9198
 255   2.0000      -0.325255        -8.8506
 256   2.0000      -0.324555        -8.8316
 257   2.0000      -0.315053        -8.5730
 258   2.0000      -0.297407        -8.0929
 259   2.0000      -0.284633        -7.7453
 260   2.0000      -0.265948        -7.2368
 261   2.0000      -0.228653        -6.2220
 262   0.0000      -0.114675        -3.1205
 263   0.0000      -0.100608        -2.7377
 264   0.0000      -0.078627        -2.1396
 265   0.0000      -0.067240        -1.8297
 266   0.0000      -0.056007        -1.5240

MULLIKEN ATOMIC CHARGES
-----------------------
   0 C :    0.195454
   1 O :   -0.221519
   2 N :   -0.285638
   3 C :    0.143520
   4 C :    0.229295
   5 O :   -0.222816
   6 N :   -0.291438
   7 C :    0.147033
   8 C :    0.205965
   9 O :   -0.212524
  10 C :   -0.166526
  11 C :    0.077166
  12 C :   -0.100427
  13 C :   -0.005218
  14 C :   -0.004370
  15 C :   -0.082943
  16 S :    0.192490
  17 C :   -0.105081
  18 C :    0.020830
  19 C :    0.313788
  20 C :   -0.290939
  21 C :   -0.173112
  22 N :    0.161779
  23 C :   -0.191056
  24 N :    0.196934
  25 C :   -0.042448
  26 C :   -0.058397
  27 S :    0.193264
  28 C :   -0.039810
  29 C :   -0.063283
  30 C :    0.055542
  31 C :    0.071445
  32 C :   -0.127623
  33 S :    0.134188
  34 C :   -0.113522
  35 C :    0.052515
  36 C :   -0.003149
  37 C :   -0.066101
  38 S :    0.135662
  39 C :    0.105559
  40 C :   -0.012829
  41 C :    0.036820
  42 C :   -0.068381
  43 C :   -0.050509
  44 C :    0.017377
  45 C :   -0.114941
  46 S :    0.189582
  47 C :   -0.065008
  48 C :    0.033389
  49 C :    0.309565
  50 C :   -0.297645
  51 C :   -0.195512
  52 N :    0.174980
  53 C :   -0.169300
  54 N :    0.161240
  55 C :   -0.049627
  56 C :   -0.036015
  57 S :    0.241279
  58 C :    0.007805
  59 C :   -0.173299
  60 C :    0.228952
  61 O :   -0.263750
  62 N :   -0.285828
  63 C :    0.222605
  64 O :   -0.222427
  65 N :   -0.281306
  66 C :    0.184237
  67 O :   -0.214602
  68 C :    0.145043
  69 C :    0.142881
  70 H :    0.054663
  71 H :    0.036152
  72 H :    0.038966
  73 H :    0.056183
  74 H :    0.037593
  75 H :    0.039312
  76 H :    0.029301
  77 H :    0.042789
  78 H :    0.015288
  79 H :   -0.012665
  80 H :    0.040806
  81 H :   -0.012781
  82 H :    0.028824
  83 H :   -0.033579
  84 H :   -0.043838
  85 H :    0.008565
  86 H :    0.018728
  87 H :    0.036811
  88 H :    0.054837
  89 H :    0.036629
  90 H :    0.037296
  91 H :    0.053626
  92 H :    0.038369
  93 H :    0.038856
Sum of atomic charges:   -0.0000000

LOEWDIN ATOMIC CHARGES
----------------------
   0 C :    0.086315
   1 O :   -0.199611
   2 N :   -0.038267
   3 C :    0.041964
   4 C :    0.096120
   5 O :   -0.194214
   6 N :   -0.039132
   7 C :    0.041740
   8 C :    0.089793
   9 O :   -0.179127
  10 C :   -0.146669
  11 C :    0.061462
  12 C :   -0.180016
  13 C :    0.020528
  14 C :   -0.078055
  15 C :   -0.159101
  16 S :    0.486073
  17 C :   -0.195212
  18 C :   -0.048282
  19 C :    0.073499
  20 C :   -0.087724
  21 C :   -0.011456
  22 N :   -0.028964
  23 C :   -0.022919
  24 N :   -0.011609
  25 C :   -0.027595
  26 C :   -0.172775
  27 S :    0.469270
  28 C :   -0.186573
  29 C :   -0.010619
  30 C :   -0.015612
  31 C :   -0.047531
  32 C :   -0.137846
  33 S :    0.443268
  34 C :   -0.199525
  35 C :   -0.036073
  36 C :   -0.064682
  37 C :   -0.161889
  38 S :    0.430307
  39 C :   -0.046221
  40 C :    0.001033
  41 C :   -0.062586
  42 C :   -0.143842
  43 C :   -0.039139
  44 C :   -0.048228
  45 C :   -0.203028
  46 S :    0.472966
  47 C :   -0.161558
  48 C :   -0.085880
  49 C :    0.080856
  50 C :   -0.103842
  51 C :   -0.017805
  52 N :   -0.031768
  53 C :   -0.011414
  54 N :   -0.038587
  55 C :    0.014435
  56 C :   -0.193395
  57 S :    0.546333
  58 C :    0.077904
  59 C :   -0.167831
  60 C :    0.092101
  61 O :   -0.227154
  62 N :   -0.035806
  63 C :    0.095988
  64 O :   -0.196138
  65 N :   -0.039012
  66 C :    0.082532
  67 O :   -0.195476
  68 C :    0.042088
  69 C :    0.041071
  70 H :    0.033661
  71 H :    0.030594
  72 H :    0.031348
  73 H :    0.034505
  74 H :    0.031688
  75 H :    0.032365
  76 H :    0.044686
  77 H :    0.044656
  78 H :    0.040945
  79 H :    0.040014
  80 H :    0.038535
  81 H :    0.029205
  82 H :    0.025238
  83 H :    0.029515
  84 H :    0.024658
  85 H :    0.037073
  86 H :    0.045090
  87 H :    0.056470
  88 H :    0.034170
  89 H :    0.030931
  90 H :    0.031487
  91 H :    0.032656
  92 H :    0.031250
  93 H :    0.031404

  Mayer bond orders larger than 0.100000
B(  0-C ,  1-O ) :   2.0924 B(  0-C ,  2-N ) :   1.0813 B(  0-C , 10-C ) :   0.9476
B(  2-N ,  3-C ) :   0.9353 B(  2-N ,  4-C ) :   1.0571 B(  3-C , 70-H ) :   0.9553
B(  3-C , 71-H ) :   0.9773 B(  3-C , 72-H ) :   0.9748 B(  4-C ,  5-O ) :   2.0833
B(  4-C ,  6-N ) :   1.0641 B(  6-N ,  7-C ) :   0.9353 B(  6-N ,  8-C ) :   1.0830
B(  7-C , 73-H ) :   0.9552 B(  7-C , 74-H ) :   0.9759 B(  7-C , 75-H ) :   0.9745
B(  8-C ,  9-O ) :   2.0395 B(  8-C , 10-C ) :   0.9606 B( 10-C , 11-C ) :   1.6975
B( 11-C , 12-C ) :   1.1608 B( 11-C , 76-H ) :   0.9140 B( 12-C , 13-C ) :   1.4060
B( 12-C , 16-S ) :   1.0698 B( 13-C , 14-C ) :   1.2967 B( 13-C , 77-H ) :   0.9724
B( 14-C , 15-C ) :   1.3767 B( 14-C , 19-C ) :   0.9979 B( 15-C , 16-S ) :   1.1671
B( 15-C , 17-C ) :   1.2128 B( 17-C , 18-C ) :   1.4311 B( 17-C , 27-S ) :   1.1022
B( 18-C , 19-C ) :   0.9962 B( 18-C , 25-C ) :   1.3127 B( 19-C , 20-C ) :   1.7140
B( 20-C , 21-C ) :   1.1368 B( 20-C , 23-C ) :   1.1376 B( 21-C , 22-N ) :   2.9492
B( 23-C , 24-N ) :   2.9975 B( 25-C , 26-C ) :   1.4645 B( 25-C , 78-H ) :   0.9832
B( 26-C , 27-S ) :   1.1148 B( 26-C , 28-C ) :   1.1138 B( 28-C , 29-C ) :   1.5489
B( 28-C , 33-S ) :   1.0438 B( 29-C , 30-C ) :   1.2447 B( 29-C , 79-H ) :   0.9679
B( 30-C , 31-C ) :   1.0487 B( 30-C , 39-C ) :   1.3590 B( 31-C , 32-C ) :   1.6104
B( 31-C , 34-C ) :   1.1772 B( 32-C , 33-S ) :   1.1375 B( 32-C , 80-H ) :   0.9397
B( 34-C , 35-C ) :   1.4493 B( 34-C , 38-S ) :   1.0813 B( 35-C , 36-C ) :   1.2156
B( 35-C , 39-C ) :   1.0715 B( 36-C , 37-C ) :   1.5851 B( 36-C , 81-H ) :   1.0018
B( 37-C , 38-S ) :   1.1593 B( 37-C , 82-H ) :   0.9648 B( 39-C , 40-C ) :   1.1998
B( 40-C , 41-C ) :   1.6166 B( 40-C , 83-H ) :   0.9535 B( 41-C , 42-C ) :   1.1344
B( 41-C , 84-H ) :   0.9699 B( 42-C , 43-C ) :   1.4240 B( 42-C , 46-S ) :   1.1194
B( 43-C , 44-C ) :   1.3195 B( 43-C , 85-H ) :   0.9848 B( 44-C , 45-C ) :   1.4140
B( 44-C , 49-C ) :   1.0025 B( 45-C , 46-S ) :   1.0975 B( 45-C , 47-C ) :   1.2253
B( 47-C , 48-C ) :   1.3379 B( 47-C , 57-S ) :   1.1307 B( 48-C , 49-C ) :   0.9872
B( 48-C , 55-C ) :   1.3475 B( 49-C , 50-C ) :   1.7100 B( 50-C , 51-C ) :   1.1373
B( 50-C , 53-C ) :   1.1346 B( 51-C , 52-N ) :   2.9956 B( 53-C , 54-N ) :   2.9600
B( 55-C , 56-C ) :   1.3208 B( 55-C , 86-H ) :   1.0078 B( 56-C , 57-S ) :   1.0577
B( 56-C , 58-C ) :   1.2332 B( 57-S , 61-O ) :   0.1016 B( 58-C , 59-C ) :   1.5785
B( 58-C , 87-H ) :   0.9486 B( 59-C , 60-C ) :   1.0131 B( 59-C , 66-C ) :   0.9565
B( 60-C , 61-O ) :   1.9525 B( 60-C , 62-N ) :   1.1083 B( 62-N , 63-C ) :   1.0490
B( 62-N , 69-C ) :   0.9355 B( 63-C , 64-O ) :   2.0847 B( 63-C , 65-N ) :   1.0767
B( 65-N , 66-C ) :   1.0667 B( 65-N , 68-C ) :   0.9353 B( 66-C , 67-O ) :   2.1192
B( 68-C , 88-H ) :   0.9565 B( 68-C , 89-H ) :   0.9775 B( 68-C , 90-H ) :   0.9742
B( 69-C , 91-H ) :   0.9551 B( 69-C , 92-H ) :   0.9759 B( 69-C , 93-H ) :   0.9758

-----------------------------------------------------------------------------
         ABSORPTION SPECTRUM VIA TRANSITION ELECTRIC DIPOLE MOMENTS
-----------------------------------------------------------------------------
State   Energy  Wavelength   fosc         T2         TX        TY        TZ
        (cm-1)    (nm)                  (au**2)     (au)      (au)      (au)
-----------------------------------------------------------------------------
   0   10485.5    953.7   0.484596427  15.21478   2.69913   0.53370  -2.76490
   1   12091.4    827.0   0.133266095   3.62843  -1.13082   1.26240  -0.86951
   2   17327.2    577.1   0.305893389   5.81188   0.93963   0.99156  -1.98640
   3   18028.4    554.7   0.708903265  12.94508   2.48701   0.46013  -2.55893
   4   20768.6    481.5   0.031356997   0.49705  -0.45103  -0.10249   0.53209
   5   21127.5    473.3   0.171529228   2.67279   1.34355  -0.18369  -0.91320
   6   22615.6    442.2   1.089404897  15.85831   1.66325  -2.66593   2.44637
   7   24468.7    408.7   0.052448117   0.70566  -0.60136   0.53316  -0.24445
   8   25417.3    393.4   0.089557082   1.15997  -0.84886   0.64475  -0.15393
   9   26197.2    381.7   0.304108571   3.82164  -1.56891   0.67081   0.95403
  10   26842.8    372.5   0.191348108   2.34677   1.06195  -0.97225   0.52322
  11   27715.2    360.8   0.026358034   0.31309   0.43712  -0.29155   0.19240
  12   28984.5    345.0   0.413858821   4.70070   1.67440  -0.05053  -1.37642
  13   29840.0    335.1   0.554466996   6.11720   1.10255   0.04755  -2.21344
  14   30108.2    332.1   0.056637534   0.61929  -0.48992   0.10870   0.60618
  15   30267.3    330.4   0.280718537   3.05332   0.42110   0.52862  -1.61138
  16   30879.7    323.8   0.579515675   6.17828  -1.95617   1.43713  -0.53510
  17   31193.9    320.6   0.001544051   0.01630   0.09778   0.08112  -0.01239
  18   31213.8    320.4   0.009266651   0.09774   0.16268  -0.26434  -0.03735
  19   32000.9    312.5   0.065940874   0.67837   0.24169   0.32044  -0.71922
  20   32371.8    308.9   0.132023107   1.34264  -0.88403   0.74878  -0.02159
  21   32680.4    306.0   0.148696981   1.49793   1.08136  -0.56355   0.10490
  22   32698.2    305.8   0.127002559   1.27869   0.31261  -0.51669   0.95603
  23   33178.5    301.4   0.292658350   2.90389  -0.19052  -0.94020   1.40841
  24   33502.3    298.5   0.160254799   1.57475  -1.05732   0.53089   0.41831
  25   33607.3    297.6   0.012800501   0.12539  -0.19826  -0.05265   0.28864
  26   34113.7    293.1   0.015979228   0.15421  -0.23528   0.28986  -0.12177
  27   34289.7    291.6   0.056422364   0.54171  -0.65966   0.32590  -0.01864
  28   34949.2    286.1   0.164371435   1.54834  -1.17488   0.39315   0.11584
  29   35073.2    285.1   0.020344886   0.19097   0.40844  -0.15515   0.00840
  30   35257.4    283.6   0.078799351   0.73578  -0.63163   0.12172   0.56746
  31   36042.2    277.5   0.095342541   0.87086   0.41264   0.11598  -0.82894
  32   36353.8    275.1   0.109233542   0.98919  -0.40159   0.43739  -0.79788
  33   36518.3    273.8   0.135903063   1.22516  -0.86755   0.21755   0.65207
  34   36640.7    272.9   0.088175416   0.79224  -0.79749   0.37597   0.12208
  35   36700.0    272.5   0.033739642   0.30266   0.46629  -0.27526  -0.09726
  36   36780.7    271.9   0.103199622   0.92371   0.82762  -0.27497  -0.40392
  37   37113.8    269.4   0.020897525   0.18537  -0.24070   0.24916  -0.25564
  38   37468.5    266.9   0.004275821   0.03757  -0.18811   0.04595  -0.00850
  39   37607.0    265.9   0.004049689   0.03545  -0.18006   0.03935  -0.03850
  40   37634.7    265.7   0.023305117   0.20386  -0.19674   0.27372  -0.30039
  41   38256.3    261.4   0.055424272   0.47695   0.59798  -0.09339  -0.33264
  42   38749.4    258.1   0.089925127   0.76400  -0.62501  -0.01062   0.61094
  43   39335.1    254.2   0.037914832   0.31733   0.18458  -0.37046   0.38212
  44   39515.7    253.1   0.035220054   0.29342   0.25562   0.02413  -0.47697
  45   39693.7    251.9   0.002482542   0.02059   0.11646   0.07605  -0.03526
  46   39855.3    250.9   0.028830619   0.23815  -0.21049  -0.08716   0.43156
  47   40183.3    248.9   0.000257575   0.00211   0.02734  -0.03491  -0.01201
  48   40215.1    248.7   0.017738708   0.14521   0.15874   0.10542  -0.33000

FINAL SINGLE POINT ENERGY     -5194.049473111854

DIPOLE MOMENT
-------------
                                X             Y             Z
Electronic contribution:     10.05102     -24.27337      25.80189
Nuclear contribution   :     -7.25853      20.97804     -23.08124
                        -----------------------------------------
Total Dipole Moment    :      2.79249      -3.29532       2.72065
                        -----------------------------------------
Magnitude (a.u.)       :      5.10481
Magnitude (Debye)      :     12.97541

Rotational constants in cm-1:     0.000951     0.000301     0.000230
Rotational constants in MHz :    28.520084     9.030700     6.901749

                             ****ORCA TERMINATED NORMALLY****
TOTAL RUN TIME: 0 days 0 hours 8 minutes 28 seconds 360 msec
