                         Program Version 4.2.0 -  RELEASE  -
|  1> # ORCA input file
|  2> # SCF done       -182.198731691770          0.000850578280
|  3> ! CAM-B3LYP def2-SVP def2/J RIJCOSX Grid4 TightSCF
|  4> %maxcore 5000
|  5> %tddft
|  6>     Mode sTDDFT
|  7>     Ethresh 5.0
|  8>     maxcore 5000
|  9> end
| 10>
| 11> %pal
| 12>   nprocs 6
| 13>   end
| 14> * xyz 0 1
| 15>    C       -0.43914       -11.10495         0.18046
| 16>    O       -0.06020       -12.03907        -0.49966
| 17>    N       -1.76943       -10.97718         0.52395
| 18>    C       -2.71229       -11.98535         0.06886
| 19>    C       -2.30333        -9.95816         1.28653
| 20>    O       -3.47813        -9.92738         1.56703
| 21>    N       -1.43136        -8.97348         1.69796
| 22>    C       -2.02502        -7.88690         2.46119
| 23>    C       -0.07477        -8.91994         1.42065
| 24>    O        0.57146        -7.94956         1.76454
| 25>    C        0.46832       -10.06605         0.69682
| 26>    C        1.79033       -10.28134         0.39343
| 27>    C        2.98896        -9.62674         0.72197
| 28>    C        3.29898        -8.56085         1.55814
| 29>    C        4.65747        -8.28700         1.59009
| 30>    C        5.42161        -9.14596         0.75550
| 31>    S        4.45177       -10.29363        -0.03987
| 32>    C        6.77152        -8.76295         0.83379
| 33>    C        6.88016        -7.66998         1.72422
| 34>    C        5.54974        -7.33790         2.22326
| 35>    C        5.21512        -6.33302         3.08366
| 36>    C        6.14500        -5.42483         3.62659
| 37>    N        6.85281        -4.64613         4.08573
| 38>    C        3.88729        -6.08350         3.50175
| 39>    N        2.82835        -5.83626         3.86269
| 40>    C        8.17386        -7.20701         1.87178
| 41>    C        9.09017        -7.92063         1.08981
| 42>    S        8.28866        -9.20003         0.17227
| 43>    C       10.46992        -7.75020         0.92327
| 44>    C       11.28196        -6.84085         1.56856
| 45>    C       12.66529        -6.63778         1.34313
| 46>    C       13.22742        -5.65580         2.11123
| 47>    C       12.31831        -5.04418         2.99318
| 48>    S       10.72920        -5.74611         2.81122
| 49>    C       12.46359        -4.02783         3.92709
| 50>    C       13.54723        -3.19436         4.26443
| 51>    C       13.24861        -2.27519         5.23214
| 52>    C       11.91961        -2.34387         5.71743
| 53>    S       11.06977        -3.63375         4.89582
| 54>    C       11.29983        -1.50059         6.61493
| 55>    C        9.97147        -1.64376         7.04738
| 56>    C        9.15423        -2.77215         6.96755
| 57>    C        7.85745        -2.51429         7.36767
| 58>    C        7.64812        -1.18234         7.78657
| 59>    S        9.09055        -0.26150         7.71009
| 60>    C        6.28552        -1.01853         8.11277
| 61>    C        5.62830        -2.25926         7.88436
| 62>    C        6.59766        -3.23648         7.42608
| 63>    C        6.39633        -4.54672         7.10783
| 64>    C        5.12526        -5.15657         7.15799
| 65>    N        4.10476        -5.67834         7.18794
| 66>    C        7.44677        -5.41163         6.73045
| 67>    N        8.28848        -6.14542         6.46784
| 68>    C        4.27789        -2.19214         8.15560
| 69>    C        3.87579        -0.92116         8.58920
| 70>    S        5.23124         0.20629         8.65910
| 71>    C        2.54375        -0.64009         8.90691
| 72>    C        1.90178         0.50114         9.33164
| 73>    C        2.56674         1.76472         9.55825
| 74>    O        3.77113         1.93685         9.40642
| 75>    N        1.77015         2.81166         9.96686
| 76>    C        0.40347         2.74181        10.17623
| 77>    O       -0.22659         3.70772        10.53537
| 78>    N       -0.19520         1.52242         9.95480
| 79>    C        0.45718         0.37036         9.54867
| 80>    O       -0.15183        -0.66760         9.38830
| 81>    C       -1.63039         1.46980        10.18009
| 82>    C        2.37837         4.10922        10.20946
| 83>    H       -2.15942       -12.71367        -0.51888
| 84>    H       -3.48769       -11.51613        -0.53560
| 85>    H       -3.18055       -12.46447         0.92801
| 86>    H       -2.58331        -8.29958         3.29994
| 87>    H       -2.70843        -7.31874         1.83030
| 88>    H       -1.22015        -7.24598         2.81243
| 89>    H        1.93102       -11.16653        -0.22435
| 90>    H        2.54238        -8.02081         2.09726
| 91>    H        8.44319        -6.38520         2.50680
| 92>    H       10.95036        -8.39880         0.20216
| 93>    H       13.20412        -7.21841         0.61520
| 94>    H       14.26280        -5.36845         2.06718
| 95>    H       14.50400        -3.27557         3.77998
| 96>    H       13.94491        -1.54675         5.60876
| 97>    H       11.85000        -0.63315         6.95263
| 98>    H        9.50152        -3.74403         6.67594
| 99>    H        3.58369        -3.00676         8.04827
|100>    H        1.87403        -1.48919         8.79204
|101>    H       -2.12436         2.22297         9.56743
|102>    H       -1.84845         1.67255        11.22836
|103>    H       -1.97001         0.47303         9.90924
|104>    H        3.42731         4.04352         9.93233
|105>    H        2.28090         4.37132        11.26264
|106>    H        1.87016         4.86552         9.61297
|107> *
|108>
|109>                          ****END OF INPUT****

CARTESIAN COORDINATES (ANGSTROEM)
---------------------------------
  C     -0.439140  -11.104950    0.180460
  O     -0.060200  -12.039070   -0.499660
  N     -1.769430  -10.977180    0.523950
  C     -2.712290  -11.985350    0.068860
  C     -2.303330   -9.958160    1.286530
  O     -3.478130   -9.927380    1.567030
  N     -1.431360   -8.973480    1.697960
  C     -2.025020   -7.886900    2.461190
  C     -0.074770   -8.919940    1.420650
  O      0.571460   -7.949560    1.764540
  C      0.468320  -10.066050    0.696820
  C      1.790330  -10.281340    0.393430
  C      2.988960   -9.626740    0.721970
  C      3.298980   -8.560850    1.558140
  C      4.657470   -8.287000    1.590090
  C      5.421610   -9.145960    0.755500
  S      4.451770  -10.293630   -0.039870
  C      6.771520   -8.762950    0.833790
  C      6.880160   -7.669980    1.724220
  C      5.549740   -7.337900    2.223260
  C      5.215120   -6.333020    3.083660
  C      6.145000   -5.424830    3.626590
  N      6.852810   -4.646130    4.085730
  C      3.887290   -6.083500    3.501750
  N      2.828350   -5.836260    3.862690
  C      8.173860   -7.207010    1.871780
  C      9.090170   -7.920630    1.089810
  S      8.288660   -9.200030    0.172270
  C     10.469920   -7.750200    0.923270
  C     11.281960   -6.840850    1.568560
  C     12.665290   -6.637780    1.343130
  C     13.227420   -5.655800    2.111230
  C     12.318310   -5.044180    2.993180
  S     10.729200   -5.746110    2.811220
  C     12.463590   -4.027830    3.927090
  C     13.547230   -3.194360    4.264430
  C     13.248610   -2.275190    5.232140
  C     11.919610   -2.343870    5.717430
  S     11.069770   -3.633750    4.895820
  C     11.299830   -1.500590    6.614930
  C      9.971470   -1.643760    7.047380
  C      9.154230   -2.772150    6.967550
  C      7.857450   -2.514290    7.367670
  C      7.648120   -1.182340    7.786570
  S      9.090550   -0.261500    7.710090
  C      6.285520   -1.018530    8.112770
  C      5.628300   -2.259260    7.884360
  C      6.597660   -3.236480    7.426080
  C      6.396330   -4.546720    7.107830
  C      5.125260   -5.156570    7.157990
  N      4.104760   -5.678340    7.187940
  C      7.446770   -5.411630    6.730450
  N      8.288480   -6.145420    6.467840
  C      4.277890   -2.192140    8.155600
  C      3.875790   -0.921160    8.589200
  S      5.231240    0.206290    8.659100
  C      2.543750   -0.640090    8.906910
  C      1.901780    0.501140    9.331640
  C      2.566740    1.764720    9.558250
  O      3.771130    1.936850    9.406420
  N      1.770150    2.811660    9.966860
  C      0.403470    2.741810   10.176230
  O     -0.226590    3.707720   10.535370
  N     -0.195200    1.522420    9.954800
  C      0.457180    0.370360    9.548670
  O     -0.151830   -0.667600    9.388300
  C     -1.630390    1.469800   10.180090
  C      2.378370    4.109220   10.209460
  H     -2.159420  -12.713670   -0.518880
  H     -3.487690  -11.516130   -0.535600
  H     -3.180550  -12.464470    0.928010
  H     -2.583310   -8.299580    3.299940
  H     -2.708430   -7.318740    1.830300
  H     -1.220150   -7.245980    2.812430
  H      1.931020  -11.166530   -0.224350
  H      2.542380   -8.020810    2.097260
  H      8.443190   -6.385200    2.506800
  H     10.950360   -8.398800    0.202160
  H     13.204120   -7.218410    0.615200
  H     14.262800   -5.368450    2.067180
  H     14.504000   -3.275570    3.779980
  H     13.944910   -1.546750    5.608760
  H     11.850000   -0.633150    6.952630
  H      9.501520   -3.744030    6.675940
  H      3.583690   -3.006760    8.048270
  H      1.874030   -1.489190    8.792040
  H     -2.124360    2.222970    9.567430
  H     -1.848450    1.672550   11.228360
  H     -1.970010    0.473030    9.909240
  H      3.427310    4.043520    9.932330
  H      2.280900    4.371320   11.262640
  H      1.870160    4.865520    9.612970

 Total Charge           Charge          ....    0
 Multiplicity           Mult            ....    1
 Number of Electrons    NEL             ....  512
 Basis Dimension        Dim             .... 1096

ORBITAL ENERGIES
----------------

  NO   OCC          E(Eh)            E(eV)
   0   2.0000     -88.986941     -2421.4578
   1   2.0000     -88.986657     -2421.4500
   2   2.0000     -88.984563     -2421.3931
   3   2.0000     -88.979912     -2421.2665
   4   2.0000     -88.958059     -2420.6718
   5   2.0000     -88.955893     -2420.6129
   6   2.0000     -19.203231      -522.5465
   7   2.0000     -19.192740      -522.2610
   8   2.0000     -19.192676      -522.2593
   9   2.0000     -19.189271      -522.1666
  10   2.0000     -19.187992      -522.1318
  11   2.0000     -19.187608      -522.1214
  12   2.0000     -14.460781      -393.4978
  13   2.0000     -14.456837      -393.3905
  14   2.0000     -14.453833      -393.3088
  15   2.0000     -14.452810      -393.2810
  16   2.0000     -14.432468      -392.7274
  17   2.0000     -14.423193      -392.4750
  18   2.0000     -14.420697      -392.4071
  19   2.0000     -14.419648      -392.3786
  20   2.0000     -10.410357      -283.2802
  21   2.0000     -10.405362      -283.1443
  22   2.0000     -10.391825      -282.7759
  23   2.0000     -10.385167      -282.5948
  24   2.0000     -10.382791      -282.5301
  25   2.0000     -10.381240      -282.4879
  26   2.0000     -10.362273      -281.9718
  27   2.0000     -10.356065      -281.8028
  28   2.0000     -10.348953      -281.6093
  29   2.0000     -10.342811      -281.4422
  30   2.0000     -10.339681      -281.3570
  31   2.0000     -10.333265      -281.1824
  32   2.0000     -10.329511      -281.0803
  33   2.0000     -10.327557      -281.0271
  34   2.0000     -10.325888      -280.9817
  35   2.0000     -10.325703      -280.9767
  36   2.0000     -10.325456      -280.9699
  37   2.0000     -10.323782      -280.9244
  38   2.0000     -10.323671      -280.9214
  39   2.0000     -10.323074      -280.9051
  40   2.0000     -10.322970      -280.9023
  41   2.0000     -10.322609      -280.8925
  42   2.0000     -10.321353      -280.8583
  43   2.0000     -10.319313      -280.8028
  44   2.0000     -10.317244      -280.7465
  45   2.0000     -10.315860      -280.7088
  46   2.0000     -10.315085      -280.6877
  47   2.0000     -10.314285      -280.6660
  48   2.0000     -10.307769      -280.4886
  49   2.0000     -10.304504      -280.3998
  50   2.0000     -10.302564      -280.3470
  51   2.0000     -10.301951      -280.3303
  52   2.0000     -10.301899      -280.3289
  53   2.0000     -10.301306      -280.3128
  54   2.0000     -10.300897      -280.3016
  55   2.0000     -10.300341      -280.2865
  56   2.0000     -10.299015      -280.2504
  57   2.0000     -10.298961      -280.2490
  58   2.0000     -10.298605      -280.2393
  59   2.0000     -10.296522      -280.1826
  60   2.0000     -10.296054      -280.1699
  61   2.0000     -10.294340      -280.1232
  62   2.0000     -10.294162      -280.1184
  63   2.0000     -10.289863      -280.0014
  64   2.0000     -10.287907      -279.9482
  65   2.0000     -10.285867      -279.8927
  66   2.0000     -10.285092      -279.8716
  67   2.0000     -10.284664      -279.8599
  68   2.0000      -8.081585      -219.9111
  69   2.0000      -8.081453      -219.9075
  70   2.0000      -8.079219      -219.8467
  71   2.0000      -8.071896      -219.6474
  72   2.0000      -8.054076      -219.1626
  73   2.0000      -8.052236      -219.1125
  74   2.0000      -6.050871      -164.6526
  75   2.0000      -6.050571      -164.6444
  76   2.0000      -6.048442      -164.5865
  77   2.0000      -6.046793      -164.5416
  78   2.0000      -6.046478      -164.5330
  79   2.0000      -6.044404      -164.4766
  80   2.0000      -6.043969      -164.4648
  81   2.0000      -6.043773      -164.4594
  82   2.0000      -6.041483      -164.3971
  83   2.0000      -6.041340      -164.3932
  84   2.0000      -6.036555      -164.2630
  85   2.0000      -6.034499      -164.2071
  86   2.0000      -6.023825      -163.9166
  87   2.0000      -6.021984      -163.8665
  88   2.0000      -6.019572      -163.8009
  89   2.0000      -6.017690      -163.7497
  90   2.0000      -6.015124      -163.6798
  91   2.0000      -6.013186      -163.6271
  92   2.0000      -1.167523       -31.7699
  93   2.0000      -1.162318       -31.6283
  94   2.0000      -1.136333       -30.9212
  95   2.0000      -1.129591       -30.7377
  96   2.0000      -1.126558       -30.6552
  97   2.0000      -1.123611       -30.5750
  98   2.0000      -1.042454       -28.3666
  99   2.0000      -1.040162       -28.3043
 100   2.0000      -1.037410       -28.2294
 101   2.0000      -1.034140       -28.1404
 102   2.0000      -1.021437       -27.7947
 103   2.0000      -1.016741       -27.6669
 104   2.0000      -1.013376       -27.5754
 105   2.0000      -1.011570       -27.5262
 106   2.0000      -1.011040       -27.5118
 107   2.0000      -1.002032       -27.2667
 108   2.0000      -0.998511       -27.1709
 109   2.0000      -0.996218       -27.1085
 110   2.0000      -0.991539       -26.9811
 111   2.0000      -0.983952       -26.7747
 112   2.0000      -0.956895       -26.0384
 113   2.0000      -0.952690       -25.9240
 114   2.0000      -0.922823       -25.1113
 115   2.0000      -0.920574       -25.0501
 116   2.0000      -0.908861       -24.7314
 117   2.0000      -0.901149       -24.5215
 118   2.0000      -0.889336       -24.2001
 119   2.0000      -0.877199       -23.8698
 120   2.0000      -0.868299       -23.6276
 121   2.0000      -0.861026       -23.4297
 122   2.0000      -0.859004       -23.3747
 123   2.0000      -0.853923       -23.2364
 124   2.0000      -0.850311       -23.1381
 125   2.0000      -0.834908       -22.7190
 126   2.0000      -0.832443       -22.6519
 127   2.0000      -0.828606       -22.5475
 128   2.0000      -0.817074       -22.2337
 129   2.0000      -0.799537       -21.7565
 130   2.0000      -0.792388       -21.5620
 131   2.0000      -0.786855       -21.4114
 132   2.0000      -0.782335       -21.2884
 133   2.0000      -0.780531       -21.2393
 134   2.0000      -0.772775       -21.0283
 135   2.0000      -0.768188       -20.9035
 136   2.0000      -0.754020       -20.5179
 137   2.0000      -0.742972       -20.2173
 138   2.0000      -0.723624       -19.6908
 139   2.0000      -0.712799       -19.3963
 140   2.0000      -0.711289       -19.3552
 141   2.0000      -0.706835       -19.2340
 142   2.0000      -0.699667       -19.0389
 143   2.0000      -0.692241       -18.8368
 144   2.0000      -0.690193       -18.7811
 145   2.0000      -0.683075       -18.5874
 146   2.0000      -0.679976       -18.5031
 147   2.0000      -0.673019       -18.3138
 148   2.0000      -0.666001       -18.1228
 149   2.0000      -0.660438       -17.9714
 150   2.0000      -0.650782       -17.7087
 151   2.0000      -0.639169       -17.3927
 152   2.0000      -0.637618       -17.3505
 153   2.0000      -0.630979       -17.1698
 154   2.0000      -0.628435       -17.1006
 155   2.0000      -0.626863       -17.0578
 156   2.0000      -0.623973       -16.9792
 157   2.0000      -0.612380       -16.6637
 158   2.0000      -0.611581       -16.6420
 159   2.0000      -0.605041       -16.4640
 160   2.0000      -0.597685       -16.2638
 161   2.0000      -0.589946       -16.0532
 162   2.0000      -0.589006       -16.0277
 163   2.0000      -0.584647       -15.9090
 164   2.0000      -0.579326       -15.7643
 165   2.0000      -0.572157       -15.5692
 166   2.0000      -0.559186       -15.2162
 167   2.0000      -0.553470       -15.0607
 168   2.0000      -0.549300       -14.9472
 169   2.0000      -0.545682       -14.8488
 170   2.0000      -0.544014       -14.8034
 171   2.0000      -0.541757       -14.7420
 172   2.0000      -0.538205       -14.6453
 173   2.0000      -0.535517       -14.5722
 174   2.0000      -0.533024       -14.5043
 175   2.0000      -0.531077       -14.4513
 176   2.0000      -0.529825       -14.4173
 177   2.0000      -0.526279       -14.3208
 178   2.0000      -0.524486       -14.2720
 179   2.0000      -0.521334       -14.1862
 180   2.0000      -0.519780       -14.1439
 181   2.0000      -0.516488       -14.0543
 182   2.0000      -0.512519       -13.9463
 183   2.0000      -0.511912       -13.9298
 184   2.0000      -0.510135       -13.8815
 185   2.0000      -0.509092       -13.8531
 186   2.0000      -0.507531       -13.8106
 187   2.0000      -0.502407       -13.6712
 188   2.0000      -0.501214       -13.6387
 189   2.0000      -0.500088       -13.6081
 190   2.0000      -0.498226       -13.5574
 191   2.0000      -0.496768       -13.5177
 192   2.0000      -0.495451       -13.4819
 193   2.0000      -0.493496       -13.4287
 194   2.0000      -0.491593       -13.3769
 195   2.0000      -0.486642       -13.2422
 196   2.0000      -0.485858       -13.2209
 197   2.0000      -0.480793       -13.0831
 198   2.0000      -0.476961       -12.9788
 199   2.0000      -0.472948       -12.8696
 200   2.0000      -0.470971       -12.8158
 201   2.0000      -0.467623       -12.7247
 202   2.0000      -0.466721       -12.7001
 203   2.0000      -0.465448       -12.6655
 204   2.0000      -0.462882       -12.5956
 205   2.0000      -0.462394       -12.5824
 206   2.0000      -0.461227       -12.5506
 207   2.0000      -0.461016       -12.5449
 208   2.0000      -0.460089       -12.5197
 209   2.0000      -0.459610       -12.5066
 210   2.0000      -0.457082       -12.4378
 211   2.0000      -0.455533       -12.3957
 212   2.0000      -0.454616       -12.3707
 213   2.0000      -0.453365       -12.3367
 214   2.0000      -0.450905       -12.2698
 215   2.0000      -0.448266       -12.1979
 216   2.0000      -0.443722       -12.0743
 217   2.0000      -0.442089       -12.0299
 218   2.0000      -0.440989       -11.9999
 219   2.0000      -0.439959       -11.9719
 220   2.0000      -0.437770       -11.9123
 221   2.0000      -0.436878       -11.8881
 222   2.0000      -0.434734       -11.8297
 223   2.0000      -0.430573       -11.7165
 224   2.0000      -0.428219       -11.6524
 225   2.0000      -0.422099       -11.4859
 226   2.0000      -0.420242       -11.4354
 227   2.0000      -0.418407       -11.3854
 228   2.0000      -0.417065       -11.3489
 229   2.0000      -0.412584       -11.2270
 230   2.0000      -0.402349       -10.9485
 231   2.0000      -0.398212       -10.8359
 232   2.0000      -0.392434       -10.6787
 233   2.0000      -0.385778       -10.4976
 234   2.0000      -0.371167       -10.1000
 235   2.0000      -0.367586       -10.0025
 236   2.0000      -0.366738        -9.9795
 237   2.0000      -0.358512        -9.7556
 238   2.0000      -0.356937        -9.7128
 239   2.0000      -0.353451        -9.6179
 240   2.0000      -0.350725        -9.5437
 241   2.0000      -0.347433        -9.4541
 242   2.0000      -0.342877        -9.3302
 243   2.0000      -0.341462        -9.2916
 244   2.0000      -0.339101        -9.2274
 245   2.0000      -0.334693        -9.1074
 246   2.0000      -0.332712        -9.0535
 247   2.0000      -0.329954        -8.9785
 248   2.0000      -0.327182        -8.9031
 249   2.0000      -0.323273        -8.7967
 250   2.0000      -0.320775        -8.7287
 251   2.0000      -0.315437        -8.5835
 252   2.0000      -0.310423        -8.4470
 253   2.0000      -0.283625        -7.7178
 254   2.0000      -0.260189        -7.0801
 255   2.0000      -0.218047        -5.9333
 256   0.0000      -0.115767        -3.1502
 257   0.0000      -0.102107        -2.7785
 258   0.0000      -0.083949        -2.2844
 259   0.0000      -0.064451        -1.7538
 260   0.0000      -0.055806        -1.5186

MULLIKEN ATOMIC CHARGES
-----------------------
   0 C :    0.191722
   1 O :   -0.223274
   2 N :   -0.281463
   3 C :    0.143239
   4 C :    0.222528
   5 O :   -0.226346
   6 N :   -0.287713
   7 C :    0.139312
   8 C :    0.206421
   9 O :   -0.212221
  10 C :   -0.170647
  11 C :    0.075158
  12 C :   -0.102335
  13 C :    0.010743
  14 C :   -0.020879
  15 C :   -0.077026
  16 S :    0.188734
  17 C :   -0.105865
  18 C :    0.004629
  19 C :    0.334026
  20 C :   -0.315267
  21 C :   -0.152142
  22 N :    0.144528
  23 C :   -0.202830
  24 N :    0.207299
  25 C :   -0.044731
  26 C :   -0.088825
  27 S :    0.181795
  28 C :    0.033100
  29 C :   -0.023953
  30 C :    0.031576
  31 C :    0.034832
  32 C :   -0.023618
  33 S :    0.057708
  34 C :   -0.035289
  35 C :    0.038281
  36 C :    0.036715
  37 C :   -0.035282
  38 S :    0.074415
  39 C :    0.038176
  40 C :   -0.093960
  41 C :   -0.038465
  42 C :    0.002472
  43 C :   -0.106173
  44 S :    0.189299
  45 C :   -0.069935
  46 C :    0.031342
  47 C :    0.327310
  48 C :   -0.302197
  49 C :   -0.205667
  50 N :    0.189655
  51 C :   -0.192203
  52 N :    0.172546
  53 C :   -0.047921
  54 C :   -0.034607
  55 S :    0.243466
  56 C :    0.007826
  57 C :   -0.178296
  58 C :    0.231708
  59 O :   -0.263547
  60 N :   -0.286046
  61 C :    0.221243
  62 O :   -0.225446
  63 N :   -0.283878
  64 C :    0.195678
  65 O :   -0.211465
  66 C :    0.143865
  67 C :    0.143696
  68 H :    0.054145
  69 H :    0.036128
  70 H :    0.036823
  71 H :    0.039780
  72 H :    0.034843
  73 H :    0.063213
  74 H :    0.028483
  75 H :    0.041103
  76 H :    0.035801
  77 H :   -0.013921
  78 H :   -0.007439
  79 H :   -0.008386
  80 H :   -0.009165
  81 H :   -0.006420
  82 H :   -0.008961
  83 H :    0.037949
  84 H :    0.021334
  85 H :    0.039749
  86 H :    0.037492
  87 H :    0.035518
  88 H :    0.056079
  89 H :    0.053230
  90 H :    0.037340
  91 H :    0.039748
Sum of atomic charges:   -0.0000000

LOEWDIN ATOMIC CHARGES
----------------------
   0 C :    0.085321
   1 O :   -0.202443
   2 N :   -0.038886
   3 C :    0.041551
   4 C :    0.093756
   5 O :   -0.194862
   6 N :   -0.039618
   7 C :    0.041615
   8 C :    0.090483
   9 O :   -0.181765
  10 C :   -0.149968
  11 C :    0.061754
  12 C :   -0.182273
  13 C :    0.023235
  14 C :   -0.081261
  15 C :   -0.154760
  16 S :    0.480638
  17 C :   -0.201317
  18 C :   -0.045945
  19 C :    0.078516
  20 C :   -0.094990
  21 C :   -0.004441
  22 N :   -0.037291
  23 C :   -0.024737
  24 N :   -0.009233
  25 C :   -0.044783
  26 C :   -0.148443
  27 S :    0.466785
  28 C :   -0.083216
  29 C :   -0.139607
  30 C :   -0.030578
  31 C :   -0.030700
  32 C :   -0.176201
  33 S :    0.413891
  34 C :   -0.172786
  35 C :   -0.031579
  36 C :   -0.026850
  37 C :   -0.140498
  38 S :    0.420790
  39 C :   -0.072563
  40 C :   -0.156991
  41 C :   -0.044395
  42 C :   -0.045908
  43 C :   -0.191639
  44 S :    0.467496
  45 C :   -0.165538
  46 C :   -0.079124
  47 C :    0.078851
  48 C :   -0.096442
  49 C :   -0.022204
  50 N :   -0.026934
  51 C :   -0.017264
  52 N :   -0.040529
  53 C :    0.014229
  54 C :   -0.190470
  55 S :    0.546021
  56 C :    0.079055
  57 C :   -0.165295
  58 C :    0.091989
  59 O :   -0.226416
  60 N :   -0.036137
  61 C :    0.094726
  62 O :   -0.194498
  63 N :   -0.039152
  64 C :    0.085017
  65 O :   -0.195297
  66 C :    0.042247
  67 C :    0.041380
  68 H :    0.033451
  69 H :    0.030286
  70 H :    0.030570
  71 H :    0.031664
  72 H :    0.029671
  73 H :    0.036477
  74 H :    0.044361
  75 H :    0.044471
  76 H :    0.024894
  77 H :    0.034534
  78 H :    0.034823
  79 H :    0.034862
  80 H :    0.034353
  81 H :    0.035402
  82 H :    0.035512
  83 H :    0.026558
  84 H :    0.046271
  85 H :    0.057246
  86 H :    0.030826
  87 H :    0.030097
  88 H :    0.034703
  89 H :    0.032833
  90 H :    0.030793
  91 H :    0.031822

  Mayer bond orders larger than 0.100000
B(  0-C ,  1-O ) :   2.0904 B(  0-C ,  2-N ) :   1.0816 B(  0-C , 10-C ) :   0.9518
B(  2-N ,  3-C ) :   0.9351 B(  2-N ,  4-C ) :   1.0590 B(  3-C , 68-H ) :   0.9554
B(  3-C , 69-H ) :   0.9762 B(  3-C , 70-H ) :   0.9761 B(  4-C ,  5-O ) :   2.0872
B(  4-C ,  6-N ) :   1.0650 B(  6-N ,  7-C ) :   0.9344 B(  6-N ,  8-C ) :   1.0787
B(  7-C , 71-H ) :   0.9725 B(  7-C , 72-H ) :   0.9792 B(  7-C , 73-H ) :   0.9551
B(  8-C ,  9-O ) :   2.0428 B(  8-C , 10-C ) :   0.9641 B( 10-C , 11-C ) :   1.6785
B( 11-C , 12-C ) :   1.1725 B( 11-C , 74-H ) :   0.9168 B( 12-C , 13-C ) :   1.3968
B( 12-C , 16-S ) :   1.0622 B( 13-C , 14-C ) :   1.3118 B( 13-C , 75-H ) :   0.9712
B( 14-C , 15-C ) :   1.3578 B( 14-C , 19-C ) :   1.0065 B( 15-C , 16-S ) :   1.1649
B( 15-C , 17-C ) :   1.2339 B( 17-C , 18-C ) :   1.4053 B( 17-C , 27-S ) :   1.0953
B( 18-C , 19-C ) :   0.9891 B( 18-C , 25-C ) :   1.3719 B( 19-C , 20-C ) :   1.6971
B( 20-C , 21-C ) :   1.1635 B( 20-C , 23-C ) :   1.1419 B( 21-C , 22-N ) :   2.8791
B( 23-C , 24-N ) :   2.9851 B( 25-C , 26-C ) :   1.3719 B( 25-C , 76-H ) :   0.9645
B( 26-C , 27-S ) :   1.1032 B( 26-C , 28-C ) :   1.2009 B( 28-C , 29-C ) :   1.5561
B( 28-C , 77-H ) :   0.9533 B( 29-C , 30-C ) :   1.1633 B( 29-C , 33-S ) :   1.0596
B( 30-C , 31-C ) :   1.5676 B( 30-C , 78-H ) :   0.9991 B( 31-C , 32-C ) :   1.2091
B( 31-C , 79-H ) :   0.9948 B( 32-C , 33-S ) :   1.0524 B( 32-C , 34-C ) :   1.4659
B( 34-C , 35-C ) :   1.2027 B( 34-C , 38-S ) :   1.0594 B( 35-C , 36-C ) :   1.5738
B( 35-C , 80-H ) :   0.9950 B( 36-C , 37-C ) :   1.1609 B( 36-C , 81-H ) :   0.9970
B( 37-C , 38-S ) :   1.0506 B( 37-C , 39-C ) :   1.5680 B( 39-C , 40-C ) :   1.1771
B( 39-C , 82-H ) :   0.9604 B( 40-C , 41-C ) :   1.3900 B( 40-C , 44-S ) :   1.0973
B( 41-C , 42-C ) :   1.3619 B( 41-C , 83-H ) :   0.9540 B( 42-C , 43-C ) :   1.4048
B( 42-C , 47-C ) :   1.0020 B( 43-C , 44-S ) :   1.1048 B( 43-C , 45-C ) :   1.2299
B( 45-C , 46-C ) :   1.3386 B( 45-C , 55-S ) :   1.1224 B( 46-C , 47-C ) :   0.9877
B( 46-C , 53-C ) :   1.3464 B( 47-C , 48-C ) :   1.7176 B( 48-C , 49-C ) :   1.1452
B( 48-C , 51-C ) :   1.1297 B( 49-C , 50-N ) :   2.9815 B( 51-C , 52-N ) :   2.9782
B( 53-C , 54-C ) :   1.3201 B( 53-C , 84-H ) :   1.0080 B( 54-C , 55-S ) :   1.0649
B( 54-C , 56-C ) :   1.2281 B( 55-S , 59-O ) :   0.1006 B( 56-C , 57-C ) :   1.5841
B( 56-C , 85-H ) :   0.9484 B( 57-C , 58-C ) :   1.0100 B( 57-C , 64-C ) :   0.9525
B( 58-C , 59-O ) :   1.9534 B( 58-C , 60-N ) :   1.1061 B( 60-N , 61-C ) :   1.0508
B( 60-N , 67-C ) :   0.9358 B( 61-C , 62-O ) :   2.0885 B( 61-C , 63-N ) :   1.0744
B( 63-N , 64-C ) :   1.0658 B( 63-N , 66-C ) :   0.9358 B( 64-C , 65-O ) :   2.1143
B( 66-C , 86-H ) :   0.9742 B( 66-C , 87-H ) :   0.9776 B( 66-C , 88-H ) :   0.9553
B( 67-C , 89-H ) :   0.9553 B( 67-C , 90-H ) :   0.9778 B( 67-C , 91-H ) :   0.9735

-----------------------------------------------------------------------------
         ABSORPTION SPECTRUM VIA TRANSITION ELECTRIC DIPOLE MOMENTS
-----------------------------------------------------------------------------
State   Energy  Wavelength   fosc         T2         TX        TY        TZ
        (cm-1)    (nm)                  (au**2)     (au)      (au)      (au)
-----------------------------------------------------------------------------
   0    7907.2   1264.7   0.333425374  13.88204  -1.15607  -2.67375  -2.32305
   1    9911.3   1009.0   0.167362543   5.55911   1.70358  -1.03386  -1.26019
   2   14078.0    710.3   0.475698164  11.12411   0.50823   2.39531   2.26457
   3   16850.2    593.5   0.171823143   3.35701  -1.81209  -0.06967   0.26169
   4   18564.2    538.7   0.008174255   0.14496  -0.37768  -0.04114  -0.02499
   5   20793.7    480.9   1.371438642  21.71304  -4.61868  -0.00024   0.61715
   6   22347.9    447.5   0.465949669   6.86401  -2.57991  -0.35562   0.28567
   7   22774.1    439.1   0.386897586   5.59280   2.29581  -0.36472  -0.43480
   8   23696.9    422.0   0.046715540   0.64900   0.67024   0.39131  -0.21600
   9   25665.1    389.6   0.062885565   0.80665   0.87587  -0.17122  -0.10090
  10   27718.4    360.8   0.061615640   0.73181  -0.83647  -0.10767   0.14332
  11   28001.2    357.1   0.051676943   0.60757   0.61708   0.47307  -0.05460
  12   28534.9    350.4   0.366334111   4.22646  -0.28918   1.81132   0.92842
  13   29049.0    344.2   0.181838490   2.06077   0.37494   1.28648   0.51495
  14   29291.5    341.4   0.068555393   0.77051   0.51972  -0.31053  -0.63558
  15   29745.9    336.2   0.108713954   1.20319   0.61838  -0.64692  -0.63426
  16   30129.3    331.9   0.025320605   0.27667  -0.25200  -0.46169   0.00202
  17   30417.4    328.8   0.305768083   3.30937  -0.72306  -1.49444  -0.74378
  18   30573.6    327.1   0.001080048   0.01163   0.01261  -0.09211   0.05464
  19   30944.7    323.2   0.264050559   2.80916   1.00422  -1.33682  -0.11662
  20   31366.5    318.8   0.043536399   0.45694   0.37908  -0.43695  -0.34973
  21   31657.1    315.9   0.120903236   1.25731   0.55706  -0.66175  -0.71350
  22   32367.2    309.0   0.276474526   2.81207  -1.19778  -1.05481  -0.51456
  23   32636.7    306.4   0.032089926   0.32370   0.44218   0.30609   0.18569
  24   32908.9    303.9   0.464900837   4.65074   1.89673  -0.76932  -0.67920
  25   33353.1    299.8   0.034935460   0.34483  -0.07436   0.35442   0.46227
  26   33568.2    297.9   0.050214614   0.49247   0.47618  -0.32302  -0.40172
  27   33890.0    295.1   0.011257327   0.10936   0.08452   0.31066   0.07551
  28   34282.8    291.7   0.002171689   0.02085  -0.03078   0.13655   0.03551
  29   34412.5    290.6   0.297148016   2.84271  -0.48527  -1.58620  -0.30197
  30   34880.2    286.7   0.117889008   1.11268   0.22795   0.84004   0.59586
  31   35159.4    284.4   0.063054642   0.59041   0.68968  -0.17426  -0.29048
  32   35367.0    282.7   0.077214455   0.71875   0.12492  -0.66527  -0.51045
  33   35586.3    281.0   0.144138883   1.33344  -0.90501   0.58355   0.41698
  34   35795.6    279.4   0.022483879   0.20678  -0.15851   0.35912   0.22954
  35   36104.8    277.0   0.014469298   0.13193   0.02443  -0.22974  -0.28028
  36   36583.5    273.3   0.015453713   0.13907   0.25249  -0.26997  -0.04931
  37   36636.3    273.0   0.075083170   0.67469   0.07911   0.72578   0.37641
  38   37022.4    270.1   0.012707958   0.11300  -0.05229  -0.25195  -0.21631
  39   37082.4    269.7   0.001754243   0.01557   0.03339   0.11570   0.03273
  40   37177.9    269.0   0.034682429   0.30711   0.43458  -0.22030  -0.26405
  41   37361.1    267.7   0.055827809   0.49193  -0.69528  -0.04359   0.08138
  42   37931.2    263.6   0.001557954   0.01352  -0.03843  -0.06856  -0.08570
  43   38222.2    261.6   0.004025643   0.03467  -0.11962   0.14227   0.01104
  44   38450.4    260.1   0.002126316   0.01821  -0.13276  -0.02292   0.00744
  45   38558.1    259.3   0.019527735   0.16673  -0.33548  -0.21982  -0.07656
  46   38603.4    259.0   0.006367086   0.05430  -0.15670   0.15926   0.06619
  47   38648.1    258.7   0.000009307   0.00008  -0.00029  -0.00178   0.00872
  48   38983.7    256.5   0.018746569   0.15831  -0.33527   0.19395   0.09107
  49   39245.4    254.8   0.030209879   0.25342  -0.36042  -0.30387  -0.17658
  50   39341.4    254.2   0.001093632   0.00915  -0.04641  -0.07012   0.04562
  51   39474.9    253.3   0.010616400   0.08854   0.27804  -0.09557  -0.04580
  52   39529.9    253.0   0.010896289   0.09075  -0.26766  -0.11624   0.07479
  53   39576.9    252.7   0.005332061   0.04435  -0.20440  -0.05012   0.00777
  54   39984.3    250.1   0.011738130   0.09665  -0.29355  -0.10113   0.01577
  55   39992.6    250.0   0.006463451   0.05321   0.22155   0.03016  -0.05666

FINAL SINGLE POINT ENERGY     -5117.916899123485

DIPOLE MOMENT
-------------
                                X             Y             Z
Electronic contribution:     37.03208      -9.84252      -5.27446
Nuclear contribution   :    -31.91620      10.54735       4.03022
                        -----------------------------------------
Total Dipole Moment    :      5.11588       0.70483      -1.24424
                        -----------------------------------------
Magnitude (a.u.)       :      5.31198
Magnitude (Debye)      :     13.50197

Rotational constants in cm-1:     0.000781     0.000548     0.000329
Rotational constants in MHz :    23.399382    16.422502     9.871174

                             ****ORCA TERMINATED NORMALLY****
TOTAL RUN TIME: 0 days 0 hours 9 minutes 55 seconds 909 msec
