                         Program Version 4.2.0 -  RELEASE  -
|  1> # ORCA input file
|  2> # SCF done       -155.753890945858          0.000477051567
|  3> ! CAM-B3LYP def2-SVP def2/J RIJCOSX Grid4 TightSCF
|  4> %maxcore 5000
|  5> %tddft
|  6>     Mode sTDDFT
|  7>     Ethresh 5.0
|  8>     maxcore 5000
|  9> end
| 10>
| 11> %pal
| 12>   nprocs 6
| 13>   end
| 14> * xyz 0 1
| 15>    C        4.38297         3.86397         2.18332
| 16>    O        4.09952         3.85260         3.36605
| 17>    N        4.04974         4.94191         1.38407
| 18>    C        3.35792         6.07143         1.98249
| 19>    C        4.31612         5.04669         0.03590
| 20>    O        3.99056         6.01865        -0.60321
| 21>    N        4.97457         3.98344        -0.55205
| 22>    C        5.24423         4.11905        -1.97411
| 23>    C        5.38559         2.83856         0.10043
| 24>    O        5.96858         1.95970        -0.52009
| 25>    C        5.08577         2.76511         1.51394
| 26>    C        5.41803         1.70449         2.32627
| 27>    C        6.08026         0.49439         2.10200
| 28>    C        6.30076        -0.46579         3.10999
| 29>    C        5.79071        -0.35626         4.51183
| 30>    C        4.31110        -0.74502         4.58322
| 31>    C        6.99876        -1.57170         2.65454
| 32>    C        7.33162        -1.50070         1.30724
| 33>    S        6.76023        -0.03621         0.58519
| 34>    C        8.04116        -2.43223         0.49998
| 35>    C        8.58757        -3.58129         0.96493
| 36>    C        9.30917        -4.57297         0.24697
| 37>    S        9.72687        -6.01074         1.13457
| 38>    C       10.50568        -6.73325        -0.24339
| 39>    C       10.42327        -5.87634        -1.33712
| 40>    C        9.77087        -4.66186        -1.05816
| 41>    C        9.61507        -3.57252        -2.07428
| 42>    C       10.47925        -3.82207        -3.31811
| 43>    C       10.07110        -2.91694        -4.36956
| 44>    N        9.71099        -2.20318        -5.18496
| 45>    C       10.31612        -5.28695        -3.76502
| 46>    C       10.96305        -5.50768        -5.03972
| 47>    N       11.49167        -5.67819        -6.03727
| 48>    C       10.93692        -6.20456        -2.70431
| 49>    C       11.15217        -8.00011        -0.14612
| 50>    C       11.05221        -8.97587         0.84588
| 51>    C       10.12898        -8.95559         2.02435
| 52>    C        8.68617        -9.24437         1.60631
| 53>    C       11.88576       -10.06800         0.60122
| 54>    C       12.64921        -9.97189        -0.54663
| 55>    S       12.31166        -8.47664        -1.36208
| 56>    C       13.57855       -10.90932        -1.05070
| 57>    C       14.29504       -10.73744        -2.19373
| 58>    C       15.20751       -11.70520        -2.65981
| 59>    C       15.98643       -11.64222        -3.78548
| 60>    C       15.99519       -10.49897        -4.69812
| 61>    O       15.34650        -9.48316        -4.53675
| 62>    N       16.81671       -10.63130        -5.80688
| 63>    C       17.62263       -11.71260        -6.09993
| 64>    O       18.30960       -11.73109        -7.09455
| 65>    N       17.60117       -12.75949        -5.20031
| 66>    C       16.84000       -12.80661        -4.04873
| 67>    O       16.89619       -13.77687        -3.31949
| 68>    C       18.44288       -13.91214        -5.47426
| 69>    C       16.86521        -9.54084        -6.76816
| 70>    H        3.18098         5.83281         3.02829
| 71>    H        2.41534         6.24106         1.46351
| 72>    H        3.97156         6.96764         1.89564
| 73>    H        4.30703         4.25344        -2.51296
| 74>    H        5.74825         3.21485        -2.30565
| 75>    H        5.87427         4.99099        -2.14684
| 76>    H        5.09471         1.85793         3.35221
| 77>    H        5.91962         0.65793         4.89256
| 78>    H        6.36813        -1.02981         5.14764
| 79>    H        3.70729        -0.07338         3.97830
| 80>    H        3.96096        -0.69460         5.61095
| 81>    H        4.16893        -1.75929         4.21677
| 82>    H        7.25157        -2.40367         3.28788
| 83>    H        8.11332        -2.15773        -0.53968
| 84>    H        8.46309        -3.81232         2.01499
| 85>    H        9.89727        -2.61428        -1.63099
| 86>    H        8.56370        -3.50361        -2.37659
| 87>    H       11.53594        -3.63424        -3.09113
| 88>    H        9.24778        -5.51050        -3.87973
| 89>    H       12.02734        -6.09953        -2.72949
| 90>    H       10.70964        -7.24473        -2.95176
| 91>    H       10.18121        -7.99374         2.53641
| 92>    H       10.45567        -9.72300         2.72831
| 93>    H        8.32494        -8.49048         0.91160
| 94>    H        8.03814        -9.24775         2.47862
| 95>    H        8.62260       -10.21635         1.12234
| 96>    H       11.93727       -10.92256         1.25315
| 97>    H       13.70801       -11.81098        -0.46417
| 98>    H       14.17070        -9.83453        -2.77460
| 99>    H       15.31389       -12.61432        -2.07597
|100>    H       18.93243       -13.75406        -6.43140
|101>    H       17.82710       -14.81057        -5.50141
|102>    H       19.18314       -14.02109        -4.68177
|103>    H       16.17086        -8.77343        -6.43548
|104>    H       16.58301        -9.90909        -7.75370
|105>    H       17.87734        -9.14075        -6.82109
|106> *
|107>
|108>                          ****END OF INPUT****

CARTESIAN COORDINATES (ANGSTROEM)
---------------------------------
  C      4.382970    3.863970    2.183320
  O      4.099520    3.852600    3.366050
  N      4.049740    4.941910    1.384070
  C      3.357920    6.071430    1.982490
  C      4.316120    5.046690    0.035900
  O      3.990560    6.018650   -0.603210
  N      4.974570    3.983440   -0.552050
  C      5.244230    4.119050   -1.974110
  C      5.385590    2.838560    0.100430
  O      5.968580    1.959700   -0.520090
  C      5.085770    2.765110    1.513940
  C      5.418030    1.704490    2.326270
  C      6.080260    0.494390    2.102000
  C      6.300760   -0.465790    3.109990
  C      5.790710   -0.356260    4.511830
  C      4.311100   -0.745020    4.583220
  C      6.998760   -1.571700    2.654540
  C      7.331620   -1.500700    1.307240
  S      6.760230   -0.036210    0.585190
  C      8.041160   -2.432230    0.499980
  C      8.587570   -3.581290    0.964930
  C      9.309170   -4.572970    0.246970
  S      9.726870   -6.010740    1.134570
  C     10.505680   -6.733250   -0.243390
  C     10.423270   -5.876340   -1.337120
  C      9.770870   -4.661860   -1.058160
  C      9.615070   -3.572520   -2.074280
  C     10.479250   -3.822070   -3.318110
  C     10.071100   -2.916940   -4.369560
  N      9.710990   -2.203180   -5.184960
  C     10.316120   -5.286950   -3.765020
  C     10.963050   -5.507680   -5.039720
  N     11.491670   -5.678190   -6.037270
  C     10.936920   -6.204560   -2.704310
  C     11.152170   -8.000110   -0.146120
  C     11.052210   -8.975870    0.845880
  C     10.128980   -8.955590    2.024350
  C      8.686170   -9.244370    1.606310
  C     11.885760  -10.068000    0.601220
  C     12.649210   -9.971890   -0.546630
  S     12.311660   -8.476640   -1.362080
  C     13.578550  -10.909320   -1.050700
  C     14.295040  -10.737440   -2.193730
  C     15.207510  -11.705200   -2.659810
  C     15.986430  -11.642220   -3.785480
  C     15.995190  -10.498970   -4.698120
  O     15.346500   -9.483160   -4.536750
  N     16.816710  -10.631300   -5.806880
  C     17.622630  -11.712600   -6.099930
  O     18.309600  -11.731090   -7.094550
  N     17.601170  -12.759490   -5.200310
  C     16.840000  -12.806610   -4.048730
  O     16.896190  -13.776870   -3.319490
  C     18.442880  -13.912140   -5.474260
  C     16.865210   -9.540840   -6.768160
  H      3.180980    5.832810    3.028290
  H      2.415340    6.241060    1.463510
  H      3.971560    6.967640    1.895640
  H      4.307030    4.253440   -2.512960
  H      5.748250    3.214850   -2.305650
  H      5.874270    4.990990   -2.146840
  H      5.094710    1.857930    3.352210
  H      5.919620    0.657930    4.892560
  H      6.368130   -1.029810    5.147640
  H      3.707290   -0.073380    3.978300
  H      3.960960   -0.694600    5.610950
  H      4.168930   -1.759290    4.216770
  H      7.251570   -2.403670    3.287880
  H      8.113320   -2.157730   -0.539680
  H      8.463090   -3.812320    2.014990
  H      9.897270   -2.614280   -1.630990
  H      8.563700   -3.503610   -2.376590
  H     11.535940   -3.634240   -3.091130
  H      9.247780   -5.510500   -3.879730
  H     12.027340   -6.099530   -2.729490
  H     10.709640   -7.244730   -2.951760
  H     10.181210   -7.993740    2.536410
  H     10.455670   -9.723000    2.728310
  H      8.324940   -8.490480    0.911600
  H      8.038140   -9.247750    2.478620
  H      8.622600  -10.216350    1.122340
  H     11.937270  -10.922560    1.253150
  H     13.708010  -11.810980   -0.464170
  H     14.170700   -9.834530   -2.774600
  H     15.313890  -12.614320   -2.075970
  H     18.932430  -13.754060   -6.431400
  H     17.827100  -14.810570   -5.501410
  H     19.183140  -14.021090   -4.681770
  H     16.170860   -8.773430   -6.435480
  H     16.583010   -9.909090   -7.753700
  H     17.877340   -9.140750   -6.821090

 Total Charge           Charge          ....    0
 Multiplicity           Mult            ....    1
 Number of Electrons    NEL             ....  414
 Basis Dimension        Dim             ....  962

ORBITAL ENERGIES
----------------

  NO   OCC          E(Eh)            E(eV)
   0   2.0000     -88.976596     -2421.1763
   1   2.0000     -88.973661     -2421.0964
   2   2.0000     -88.961325     -2420.7607
   3   2.0000     -19.201231      -522.4921
   4   2.0000     -19.195325      -522.3313
   5   2.0000     -19.193179      -522.2730
   6   2.0000     -19.191679      -522.2321
   7   2.0000     -19.191524      -522.2279
   8   2.0000     -19.190517      -522.2005
   9   2.0000     -14.459930      -393.4747
  10   2.0000     -14.458498      -393.4357
  11   2.0000     -14.456809      -393.3898
  12   2.0000     -14.456472      -393.3806
  13   2.0000     -14.412208      -392.1761
  14   2.0000     -14.410793      -392.1376
  15   2.0000     -10.410747      -283.2908
  16   2.0000     -10.410689      -283.2892
  17   2.0000     -10.390521      -282.7405
  18   2.0000     -10.387708      -282.6639
  19   2.0000     -10.384782      -282.5843
  20   2.0000     -10.381551      -282.4964
  21   2.0000     -10.343457      -281.4598
  22   2.0000     -10.343080      -281.4495
  23   2.0000     -10.330016      -281.0940
  24   2.0000     -10.329040      -281.0675
  25   2.0000     -10.321953      -280.8746
  26   2.0000     -10.316274      -280.7201
  27   2.0000     -10.314851      -280.6814
  28   2.0000     -10.312346      -280.6132
  29   2.0000     -10.311185      -280.5816
  30   2.0000     -10.310717      -280.5689
  31   2.0000     -10.310175      -280.5541
  32   2.0000     -10.309235      -280.5285
  33   2.0000     -10.308668      -280.5131
  34   2.0000     -10.307694      -280.4866
  35   2.0000     -10.307377      -280.4780
  36   2.0000     -10.306451      -280.4528
  37   2.0000     -10.306339      -280.4497
  38   2.0000     -10.305319      -280.4220
  39   2.0000     -10.300433      -280.2890
  40   2.0000     -10.298052      -280.2243
  41   2.0000     -10.297519      -280.2097
  42   2.0000     -10.293912      -280.1116
  43   2.0000     -10.292699      -280.0786
  44   2.0000     -10.292174      -280.0643
  45   2.0000     -10.290750      -280.0255
  46   2.0000     -10.288498      -279.9643
  47   2.0000     -10.286599      -279.9126
  48   2.0000     -10.286536      -279.9109
  49   2.0000     -10.285681      -279.8876
  50   2.0000     -10.282121      -279.7907
  51   2.0000     -10.281675      -279.7786
  52   2.0000     -10.279969      -279.7322
  53   2.0000     -10.269571      -279.4492
  54   2.0000     -10.266494      -279.3655
  55   2.0000      -8.071638      -219.6404
  56   2.0000      -8.068440      -219.5534
  57   2.0000      -8.054533      -219.1750
  58   2.0000      -6.040945      -164.3825
  59   2.0000      -6.037734      -164.2951
  60   2.0000      -6.036809      -164.2699
  61   2.0000      -6.033730      -164.1861
  62   2.0000      -6.033535      -164.1808
  63   2.0000      -6.030645      -164.1022
  64   2.0000      -6.023817      -163.9164
  65   2.0000      -6.019324      -163.7941
  66   2.0000      -6.017066      -163.7327
  67   2.0000      -1.167778       -31.7769
  68   2.0000      -1.165268       -31.7085
  69   2.0000      -1.135506       -30.8987
  70   2.0000      -1.131374       -30.7863
  71   2.0000      -1.127758       -30.6879
  72   2.0000      -1.126104       -30.6429
  73   2.0000      -1.040066       -28.3016
  74   2.0000      -1.037078       -28.2203
  75   2.0000      -1.024658       -27.8823
  76   2.0000      -1.017176       -27.6788
  77   2.0000      -1.013556       -27.5803
  78   2.0000      -1.009946       -27.4820
  79   2.0000      -0.997607       -27.1463
  80   2.0000      -0.994479       -27.0612
  81   2.0000      -0.994125       -27.0515
  82   2.0000      -0.960799       -26.1447
  83   2.0000      -0.934727       -25.4352
  84   2.0000      -0.926730       -25.2176
  85   2.0000      -0.912014       -24.8172
  86   2.0000      -0.903014       -24.5723
  87   2.0000      -0.897287       -24.4164
  88   2.0000      -0.882089       -24.0029
  89   2.0000      -0.880205       -23.9516
  90   2.0000      -0.870979       -23.7005
  91   2.0000      -0.859182       -23.3795
  92   2.0000      -0.844538       -22.9810
  93   2.0000      -0.825080       -22.4516
  94   2.0000      -0.824454       -22.4345
  95   2.0000      -0.818645       -22.2765
  96   2.0000      -0.806506       -21.9461
  97   2.0000      -0.797266       -21.6947
  98   2.0000      -0.786981       -21.4148
  99   2.0000      -0.782846       -21.3023
 100   2.0000      -0.773356       -21.0441
 101   2.0000      -0.771522       -20.9942
 102   2.0000      -0.765676       -20.8351
 103   2.0000      -0.752896       -20.4873
 104   2.0000      -0.739535       -20.1238
 105   2.0000      -0.722479       -19.6597
 106   2.0000      -0.722105       -19.6495
 107   2.0000      -0.712665       -19.3926
 108   2.0000      -0.710866       -19.3437
 109   2.0000      -0.706710       -19.2306
 110   2.0000      -0.688959       -18.7475
 111   2.0000      -0.681362       -18.5408
 112   2.0000      -0.675455       -18.3801
 113   2.0000      -0.665157       -18.0999
 114   2.0000      -0.659263       -17.9394
 115   2.0000      -0.649425       -17.6718
 116   2.0000      -0.644436       -17.5360
 117   2.0000      -0.635355       -17.2889
 118   2.0000      -0.629933       -17.1413
 119   2.0000      -0.621027       -16.8990
 120   2.0000      -0.608260       -16.5516
 121   2.0000      -0.603852       -16.4316
 122   2.0000      -0.597039       -16.2463
 123   2.0000      -0.590332       -16.0637
 124   2.0000      -0.587141       -15.9769
 125   2.0000      -0.583306       -15.8726
 126   2.0000      -0.582464       -15.8497
 127   2.0000      -0.573498       -15.6057
 128   2.0000      -0.571080       -15.5399
 129   2.0000      -0.561115       -15.2687
 130   2.0000      -0.552525       -15.0350
 131   2.0000      -0.549979       -14.9657
 132   2.0000      -0.545540       -14.8449
 133   2.0000      -0.540237       -14.7006
 134   2.0000      -0.539490       -14.6803
 135   2.0000      -0.536182       -14.5902
 136   2.0000      -0.535995       -14.5852
 137   2.0000      -0.534688       -14.5496
 138   2.0000      -0.531655       -14.4671
 139   2.0000      -0.530023       -14.4227
 140   2.0000      -0.529101       -14.3976
 141   2.0000      -0.525947       -14.3118
 142   2.0000      -0.520304       -14.1582
 143   2.0000      -0.519127       -14.1262
 144   2.0000      -0.518124       -14.0989
 145   2.0000      -0.516692       -14.0599
 146   2.0000      -0.514974       -14.0131
 147   2.0000      -0.510012       -13.8781
 148   2.0000      -0.507719       -13.8157
 149   2.0000      -0.506821       -13.7913
 150   2.0000      -0.501198       -13.6383
 151   2.0000      -0.496926       -13.5221
 152   2.0000      -0.493523       -13.4295
 153   2.0000      -0.491721       -13.3804
 154   2.0000      -0.490345       -13.3430
 155   2.0000      -0.485329       -13.2065
 156   2.0000      -0.484324       -13.1791
 157   2.0000      -0.480898       -13.0859
 158   2.0000      -0.478761       -13.0278
 159   2.0000      -0.473513       -12.8849
 160   2.0000      -0.470009       -12.7896
 161   2.0000      -0.466898       -12.7049
 162   2.0000      -0.466431       -12.6922
 163   2.0000      -0.464918       -12.6511
 164   2.0000      -0.463927       -12.6241
 165   2.0000      -0.462937       -12.5972
 166   2.0000      -0.462412       -12.5829
 167   2.0000      -0.462088       -12.5741
 168   2.0000      -0.460177       -12.5221
 169   2.0000      -0.459470       -12.5028
 170   2.0000      -0.457532       -12.4501
 171   2.0000      -0.456702       -12.4275
 172   2.0000      -0.456121       -12.4117
 173   2.0000      -0.453380       -12.3371
 174   2.0000      -0.444899       -12.1063
 175   2.0000      -0.441837       -12.0230
 176   2.0000      -0.437440       -11.9034
 177   2.0000      -0.436952       -11.8901
 178   2.0000      -0.434220       -11.8157
 179   2.0000      -0.428117       -11.6497
 180   2.0000      -0.425237       -11.5713
 181   2.0000      -0.422606       -11.4997
 182   2.0000      -0.419570       -11.4171
 183   2.0000      -0.417962       -11.3733
 184   2.0000      -0.409950       -11.1553
 185   2.0000      -0.407318       -11.0837
 186   2.0000      -0.405445       -11.0327
 187   2.0000      -0.403345       -10.9756
 188   2.0000      -0.399362       -10.8672
 189   2.0000      -0.381723       -10.3872
 190   2.0000      -0.371270       -10.1028
 191   2.0000      -0.369400       -10.0519
 192   2.0000      -0.356464        -9.6999
 193   2.0000      -0.356181        -9.6922
 194   2.0000      -0.355133        -9.6637
 195   2.0000      -0.349690        -9.5156
 196   2.0000      -0.345221        -9.3939
 197   2.0000      -0.337305        -9.1785
 198   2.0000      -0.335439        -9.1278
 199   2.0000      -0.334056        -9.0901
 200   2.0000      -0.333641        -9.0788
 201   2.0000      -0.326639        -8.8883
 202   2.0000      -0.325572        -8.8593
 203   2.0000      -0.321734        -8.7548
 204   2.0000      -0.317970        -8.6524
 205   2.0000      -0.280980        -7.6458
 206   2.0000      -0.248801        -6.7702
 207   0.0000      -0.093437        -2.5426
 208   0.0000      -0.072017        -1.9597
 209   0.0000      -0.032645        -0.8883
 210   0.0000      -0.000254        -0.0069
 211   0.0000       0.030675         0.8347

MULLIKEN ATOMIC CHARGES
-----------------------
   0 C :    0.193786
   1 O :   -0.221745
   2 N :   -0.282977
   3 C :    0.142765
   4 C :    0.220481
   5 O :   -0.225772
   6 N :   -0.285540
   7 C :    0.143791
   8 C :    0.221721
   9 O :   -0.246019
  10 C :   -0.179756
  11 C :   -0.003758
  12 C :   -0.081100
  13 C :    0.003980
  14 C :    0.068007
  15 C :    0.020608
  16 C :   -0.042751
  17 C :   -0.045944
  18 S :    0.204170
  19 C :    0.030336
  20 C :    0.053486
  21 C :   -0.111117
  22 S :    0.112382
  23 C :   -0.097964
  24 C :   -0.080149
  25 C :   -0.078859
  26 C :    0.167640
  27 C :   -0.077564
  28 C :   -0.260119
  29 N :    0.162536
  30 C :   -0.079614
  31 C :   -0.257549
  32 N :    0.169378
  33 C :    0.162485
  34 C :   -0.116771
  35 C :   -0.031905
  36 C :    0.058771
  37 C :    0.024109
  38 C :   -0.019657
  39 C :   -0.021884
  40 S :    0.099173
  41 C :    0.054239
  42 C :    0.002335
  43 C :    0.004018
  44 C :   -0.130830
  45 C :    0.207427
  46 O :   -0.213911
  47 N :   -0.292533
  48 C :    0.227443
  49 O :   -0.224879
  50 N :   -0.283353
  51 C :    0.185423
  52 O :   -0.214829
  53 C :    0.145238
  54 C :    0.141430
  55 H :    0.054495
  56 H :    0.037182
  57 H :    0.036253
  58 H :    0.038309
  59 H :    0.055702
  60 H :    0.037601
  61 H :    0.024865
  62 H :    0.027587
  63 H :    0.003510
  64 H :    0.021706
  65 H :    0.023181
  66 H :    0.011990
  67 H :   -0.027290
  68 H :   -0.017343
  69 H :   -0.016830
  70 H :    0.051598
  71 H :    0.044310
  72 H :    0.049411
  73 H :    0.048871
  74 H :    0.045308
  75 H :    0.050601
  76 H :    0.027370
  77 H :    0.002053
  78 H :    0.019600
  79 H :    0.020162
  80 H :    0.013855
  81 H :   -0.017549
  82 H :   -0.001038
  83 H :    0.037527
  84 H :    0.020543
  85 H :    0.055269
  86 H :    0.035654
  87 H :    0.034792
  88 H :    0.058153
  89 H :    0.037968
  90 H :    0.036317
Sum of atomic charges:   -0.0000000

LOEWDIN ATOMIC CHARGES
----------------------
   0 C :    0.085277
   1 O :   -0.204199
   2 N :   -0.038856
   3 C :    0.041540
   4 C :    0.094232
   5 O :   -0.194632
   6 N :   -0.037238
   7 C :    0.041823
   8 C :    0.089604
   9 O :   -0.216029
  10 C :   -0.163447
  11 C :    0.077304
  12 C :   -0.203117
  13 C :   -0.004354
  14 C :   -0.029458
  15 C :   -0.045296
  16 C :   -0.070771
  17 C :   -0.157174
  18 S :    0.518865
  19 C :   -0.043836
  20 C :   -0.029957
  21 C :   -0.170056
  22 S :    0.471625
  23 C :   -0.183913
  24 C :   -0.062732
  25 C :   -0.058440
  26 C :   -0.008018
  27 C :   -0.031642
  28 C :   -0.038401
  29 N :   -0.042394
  30 C :   -0.031076
  31 C :   -0.038554
  32 N :   -0.039718
  33 C :   -0.023505
  34 C :   -0.176756
  35 C :   -0.053357
  36 C :   -0.038676
  37 C :   -0.050793
  38 C :   -0.034508
  39 C :   -0.178896
  40 S :    0.476355
  41 C :    0.015151
  42 C :   -0.045195
  43 C :    0.088155
  44 C :   -0.143067
  45 C :    0.090079
  46 O :   -0.189783
  47 N :   -0.040459
  48 C :    0.096526
  49 O :   -0.195923
  50 N :   -0.039874
  51 C :    0.081292
  52 O :   -0.195765
  53 C :    0.041423
  54 C :    0.041142
  55 H :    0.033710
  56 H :    0.030697
  57 H :    0.030325
  58 H :    0.031218
  59 H :    0.033796
  60 H :    0.031078
  61 H :    0.048446
  62 H :    0.034231
  63 H :    0.031269
  64 H :    0.026187
  65 H :    0.027829
  66 H :    0.025103
  67 H :    0.023559
  68 H :    0.027319
  69 H :    0.028713
  70 H :    0.046019
  71 H :    0.044406
  72 H :    0.059338
  73 H :    0.058908
  74 H :    0.039474
  75 H :    0.036940
  76 H :    0.016195
  77 H :    0.032168
  78 H :    0.017688
  79 H :    0.026438
  80 H :    0.025805
  81 H :    0.032051
  82 H :    0.038970
  83 H :    0.027270
  84 H :    0.043406
  85 H :    0.034334
  86 H :    0.030593
  87 H :    0.030163
  88 H :    0.034331
  89 H :    0.031167
  90 H :    0.030325

  Mayer bond orders larger than 0.100000
B(  0-C ,  1-O ) :   2.0892 B(  0-C ,  2-N ) :   1.0739 B(  0-C , 10-C ) :   0.9544
B(  2-N ,  3-C ) :   0.9365 B(  2-N ,  4-C ) :   1.0670 B(  3-C , 55-H ) :   0.9548
B(  3-C , 56-H ) :   0.9750 B(  3-C , 57-H ) :   0.9771 B(  4-C ,  5-O ) :   2.0878
B(  4-C ,  6-N ) :   1.0574 B(  6-N ,  7-C ) :   0.9341 B(  6-N ,  8-C ) :   1.0980
B(  7-C , 58-H ) :   0.9754 B(  7-C , 59-H ) :   0.9551 B(  7-C , 60-H ) :   0.9763
B(  8-C ,  9-O ) :   1.9869 B(  8-C , 10-C ) :   0.9993 B( 10-C , 11-C ) :   1.6099
B( 11-C , 12-C ) :   1.2340 B( 11-C , 61-H ) :   0.9301 B( 12-C , 13-C ) :   1.3489
B( 12-C , 18-S ) :   1.0862 B( 13-C , 14-C ) :   1.0689 B( 13-C , 16-C ) :   1.3809
B( 14-C , 15-C ) :   1.0998 B( 14-C , 62-H ) :   0.9176 B( 14-C , 63-H ) :   0.9250
B( 15-C , 64-H ) :   0.9719 B( 15-C , 65-H ) :   0.9673 B( 15-C , 66-H ) :   0.9673
B( 16-C , 17-C ) :   1.3843 B( 16-C , 67-H ) :   0.9924 B( 17-C , 18-S ) :   1.1483
B( 17-C , 19-C ) :   1.1280 B( 19-C , 20-C ) :   1.6774 B( 19-C , 68-H ) :   0.9561
B( 20-C , 21-C ) :   1.1451 B( 20-C , 69-H ) :   0.9434 B( 21-C , 22-S ) :   1.1136
B( 21-C , 23-C ) :   0.1018 B( 21-C , 25-C ) :   1.4909 B( 22-S , 23-C ) :   1.1313
B( 23-C , 24-C ) :   1.4861 B( 23-C , 34-C ) :   1.1356 B( 24-C , 25-C ) :   1.3348
B( 24-C , 33-C ) :   1.0527 B( 25-C , 26-C ) :   1.0559 B( 26-C , 27-C ) :   1.0809
B( 26-C , 70-H ) :   0.9095 B( 26-C , 71-H ) :   0.8884 B( 27-C , 28-C ) :   1.0860
B( 27-C , 30-C ) :   1.0682 B( 27-C , 72-H ) :   0.8496 B( 28-C , 29-N ) :   3.1235
B( 30-C , 31-C ) :   1.0949 B( 30-C , 33-C ) :   1.0832 B( 30-C , 73-H ) :   0.8537
B( 31-C , 32-N ) :   3.1234 B( 33-C , 74-H ) :   0.8830 B( 33-C , 75-H ) :   0.9096
B( 34-C , 35-C ) :   1.4617 B( 34-C , 40-S ) :   1.1299 B( 35-C , 36-C ) :   1.0714
B( 35-C , 38-C ) :   1.2995 B( 36-C , 37-C ) :   1.0977 B( 36-C , 76-H ) :   0.9146
B( 36-C , 77-H ) :   0.9160 B( 37-C , 78-H ) :   0.9704 B( 37-C , 79-H ) :   0.9675
B( 37-C , 80-H ) :   0.9665 B( 38-C , 39-C ) :   1.4241 B( 38-C , 81-H ) :   1.0031
B( 39-C , 40-S ) :   1.1029 B( 39-C , 41-C ) :   1.1588 B( 41-C , 42-C ) :   1.5671
B( 41-C , 82-H ) :   0.9850 B( 42-C , 43-C ) :   1.1579 B( 42-C , 83-H ) :   0.9558
B( 43-C , 44-C ) :   1.6383 B( 43-C , 84-H ) :   0.9694 B( 44-C , 45-C ) :   0.9599
B( 44-C , 51-C ) :   0.9466 B( 45-C , 46-O ) :   2.0657 B( 45-C , 47-N ) :   1.0786
B( 47-N , 48-C ) :   1.0604 B( 47-N , 54-C ) :   0.9355 B( 48-C , 49-O ) :   2.0803
B( 48-C , 50-N ) :   1.0638 B( 50-N , 51-C ) :   1.0756 B( 50-N , 53-C ) :   0.9376
B( 51-C , 52-O ) :   2.1249 B( 53-C , 85-H ) :   0.9562 B( 53-C , 86-H ) :   0.9744
B( 53-C , 87-H ) :   0.9770 B( 54-C , 88-H ) :   0.9542 B( 54-C , 89-H ) :   0.9755
B( 54-C , 90-H ) :   0.9768

-----------------------------------------------------------------------------
         ABSORPTION SPECTRUM VIA TRANSITION ELECTRIC DIPOLE MOMENTS
-----------------------------------------------------------------------------
State   Energy  Wavelength   fosc         T2         TX        TY        TZ
        (cm-1)    (nm)                  (au**2)     (au)      (au)      (au)
-----------------------------------------------------------------------------
   0   19201.6    520.8   2.417300865  41.44477   3.71766  -4.98379  -1.66901
   1   24601.2    406.5   0.191885287   2.56780  -0.17160  -1.30626   0.91215
   2   27599.0    362.3   0.086920255   1.03682  -0.32616  -0.56576   0.78125
   3   29603.3    337.8   0.000070331   0.00078   0.01589  -0.02277  -0.00337
   4   31186.4    320.7   0.001179963   0.01246   0.02405   0.08319   0.07040
   5   31520.0    317.3   0.025740324   0.26885  -0.43017   0.04370   0.28616
   6   32965.0    303.4   0.221011688   2.20718  -1.03351   0.92176   0.53796
   7   34365.9    291.0   0.067874291   0.65021  -0.24798   0.08031   0.76306
   8   35076.0    285.1   0.019274831   0.18091  -0.26648   0.30155   0.13769
   9   35873.5    278.8   0.112576951   1.03312   0.49191   0.36620  -0.81058
  10   36311.8    275.4   0.014391654   0.13048  -0.01807   0.24175   0.26779
  11   36652.3    272.8   0.028765018   0.25837   0.24941  -0.44081   0.04303
  12   37390.9    267.4   0.000090661   0.00080   0.02383  -0.00175   0.01507
  13   38248.2    261.5   0.002915309   0.02509  -0.05858   0.12802   0.07261
  14   39108.6    255.7   0.325919091   2.74355   0.39987   0.57638  -1.50048

FINAL SINGLE POINT ENERGY     -3517.209844872827

DIPOLE MOMENT
-------------
                                X             Y             Z
Electronic contribution:     13.76875       1.65925     -16.99321
Nuclear contribution   :    -14.72114      -3.13149      20.70157
                        -----------------------------------------
Total Dipole Moment    :     -0.95238      -1.47223       3.70836
                        -----------------------------------------
Magnitude (a.u.)       :      4.10200
Magnitude (Debye)      :     10.42646

Rotational constants in cm-1:     0.003397     0.000375     0.000342
Rotational constants in MHz :   101.842558    11.246057    10.257465

                             ****ORCA TERMINATED NORMALLY****
TOTAL RUN TIME: 0 days 0 hours 6 minutes 52 seconds 84 msec
