                         Program Version 4.2.0 -  RELEASE  -
|  1> # ORCA input file
|  2> # SCF done       -177.445182864169          0.000489253941
|  3> ! CAM-B3LYP def2-SVP def2/J RIJCOSX Grid4 TightSCF
|  4> %maxcore 5000
|  5> %tddft
|  6>     Mode sTDDFT
|  7>     Ethresh 5.0
|  8>     maxcore 5000
|  9> end
| 10>
| 11> %pal
| 12>   nprocs 6
| 13>   end
| 14> * xyz 0 1
| 15>    C       -5.38976       -13.95121         3.92719
| 16>    O       -5.83770       -14.21429         2.83091
| 17>    C       -4.91171       -14.92579         4.93018
| 18>    C       -4.48175       -14.24387         6.08166
| 19>    C       -3.98714       -14.96872         7.15737
| 20>    C       -3.93161       -16.35075         7.06369
| 21>    C       -4.36319       -17.00204         5.91512
| 22>    C       -4.86183       -16.30026         4.82619
| 23>   Br       -4.26560       -18.89658         5.83432
| 24>    C       -4.66396       -12.80851         5.87677
| 25>    C       -4.37213       -11.83916         6.79989
| 26>    C       -3.84020       -12.10163         8.08117
| 27>    N       -3.40566       -12.24396         9.13385
| 28>    C       -4.55419       -10.44957         6.63316
| 29>    N       -4.67122        -9.30782         6.58737
| 30>    C       -5.20675       -12.62390         4.54044
| 31>    C       -5.47265       -11.41887         3.95251
| 32>    C       -5.96898       -11.10394         2.67048
| 33>    C       -6.11967        -9.78974         2.26147
| 34>    C       -6.59905        -9.65152         0.95070
| 35>    C       -6.83273       -10.91926         0.34578
| 36>    S       -6.44509       -12.23456         1.41493
| 37>    C       -7.29598       -11.03385        -0.94870
| 38>    C       -7.52204        -9.86620        -1.67359
| 39>    C       -7.28042        -8.60018        -1.06441
| 40>    C       -6.83428        -8.47488         0.22635
| 41>    S       -7.60039        -7.29333        -2.17432
| 42>    C       -8.03720        -8.43402        -3.43507
| 43>    C       -7.95694        -9.72993        -3.01405
| 44>    C       -8.37487        -7.95649        -4.73527
| 45>    C       -8.32615        -6.67001        -5.18757
| 46>    C       -8.65183        -6.53927        -6.55972
| 47>    C       -8.97360        -7.79061        -7.15045
| 48>    S       -8.86345        -9.08480        -5.98876
| 49>    C       -9.29694        -7.91896        -8.48242
| 50>    C       -9.28133        -6.76844        -9.27077
| 51>    C       -8.95373        -5.51823        -8.68091
| 52>    C       -8.65189        -5.38631        -7.34443
| 53>    S       -8.95557        -4.24019        -9.86498
| 54>    C       -9.37322        -5.37875       -11.13467
| 55>    C       -9.52157        -6.64994       -10.66194
| 56>    C       -9.47170        -4.93225       -12.48542
| 57>    C       -9.20000        -3.68666       -12.97366
| 58>    C       -9.33152        -3.58865       -14.37945
| 59>    C       -9.73289        -4.82215       -14.96227
| 60>    S       -9.93438        -6.05708       -13.74976
| 61>    C       -9.90793        -4.97829       -16.31729
| 62>    C       -9.66298        -3.87502       -17.13766
| 63>    C       -9.25038        -2.64573       -16.55534
| 64>    C       -9.09303        -2.48441       -15.19807
| 65>    S       -8.96720        -1.43451       -17.77158
| 66>    C       -9.38582        -2.57089       -19.04940
| 67>    C       -9.75921        -3.78781       -18.54427
| 68>    C       -9.39114        -2.19555       -20.42070
| 69>    C       -8.67381        -1.21941       -21.03191
| 70>    C       -9.11493        -0.67611       -22.34597
| 71>    O       -9.92926        -1.15565       -23.09708
| 72>    C       -8.38242         0.60294       -22.49015
| 73>    C       -7.47189         0.75002       -21.42650
| 74>    C       -7.52627        -0.44777       -20.59457
| 75>    C       -6.52982        -0.89110       -19.76838
| 76>    C       -5.39020        -0.13062       -19.43596
| 77>    N       -4.45651         0.45980       -19.12571
| 78>    C       -6.48717        -2.20333       -19.24893
| 79>    N       -6.38565        -3.28109       -18.86824
| 80>    C       -6.68857         1.89135       -21.34118
| 81>    C       -6.82067         2.86369       -22.32018
| 82>    C       -7.71511         2.69374       -23.36991
| 83>    C       -8.51329         1.56230       -23.47327
| 84>   Br       -7.84936         4.04733       -24.69512
| 85>    H       -3.64596       -14.48707         8.05850
| 86>    H       -3.54896       -16.92793         7.89121
| 87>    H       -5.19850       -16.79869         3.93047
| 88>    H       -5.26283       -10.53479         4.54277
| 89>    H       -5.87908        -8.95558         2.89758
| 90>    H       -7.46938       -11.99961        -1.39567
| 91>    H       -6.65651        -7.50995         0.67331
| 92>    H       -8.18692       -10.56503        -3.65201
| 93>    H       -8.04595        -5.84130        -4.56134
| 94>    H       -9.53834        -8.87730        -8.91354
| 95>    H       -8.40504        -4.42883        -6.91453
| 96>    H       -9.77640        -7.48200       -11.29454
| 97>    H       -8.89798        -2.86710       -12.34572
| 98>    H      -10.21061        -5.92189       -16.74202
| 99>    H       -8.77926        -1.54392       -14.77433
|100>    H      -10.05020        -4.61287       -19.16996
|101>    H      -10.11343        -2.71025       -21.04728
|102>    H       -5.99433         2.03901       -20.52981
|103>    H       -6.22340         3.76105       -22.26985
|104>    H       -9.20894         1.42873       -24.28708
|105> *
|106>
|107>                          ****END OF INPUT****

CARTESIAN COORDINATES (ANGSTROEM)
---------------------------------
  C     -5.389760  -13.951210    3.927190
  O     -5.837700  -14.214290    2.830910
  C     -4.911710  -14.925790    4.930180
  C     -4.481750  -14.243870    6.081660
  C     -3.987140  -14.968720    7.157370
  C     -3.931610  -16.350750    7.063690
  C     -4.363190  -17.002040    5.915120
  C     -4.861830  -16.300260    4.826190
  Br    -4.265600  -18.896580    5.834320
  C     -4.663960  -12.808510    5.876770
  C     -4.372130  -11.839160    6.799890
  C     -3.840200  -12.101630    8.081170
  N     -3.405660  -12.243960    9.133850
  C     -4.554190  -10.449570    6.633160
  N     -4.671220   -9.307820    6.587370
  C     -5.206750  -12.623900    4.540440
  C     -5.472650  -11.418870    3.952510
  C     -5.968980  -11.103940    2.670480
  C     -6.119670   -9.789740    2.261470
  C     -6.599050   -9.651520    0.950700
  C     -6.832730  -10.919260    0.345780
  S     -6.445090  -12.234560    1.414930
  C     -7.295980  -11.033850   -0.948700
  C     -7.522040   -9.866200   -1.673590
  C     -7.280420   -8.600180   -1.064410
  C     -6.834280   -8.474880    0.226350
  S     -7.600390   -7.293330   -2.174320
  C     -8.037200   -8.434020   -3.435070
  C     -7.956940   -9.729930   -3.014050
  C     -8.374870   -7.956490   -4.735270
  C     -8.326150   -6.670010   -5.187570
  C     -8.651830   -6.539270   -6.559720
  C     -8.973600   -7.790610   -7.150450
  S     -8.863450   -9.084800   -5.988760
  C     -9.296940   -7.918960   -8.482420
  C     -9.281330   -6.768440   -9.270770
  C     -8.953730   -5.518230   -8.680910
  C     -8.651890   -5.386310   -7.344430
  S     -8.955570   -4.240190   -9.864980
  C     -9.373220   -5.378750  -11.134670
  C     -9.521570   -6.649940  -10.661940
  C     -9.471700   -4.932250  -12.485420
  C     -9.200000   -3.686660  -12.973660
  C     -9.331520   -3.588650  -14.379450
  C     -9.732890   -4.822150  -14.962270
  S     -9.934380   -6.057080  -13.749760
  C     -9.907930   -4.978290  -16.317290
  C     -9.662980   -3.875020  -17.137660
  C     -9.250380   -2.645730  -16.555340
  C     -9.093030   -2.484410  -15.198070
  S     -8.967200   -1.434510  -17.771580
  C     -9.385820   -2.570890  -19.049400
  C     -9.759210   -3.787810  -18.544270
  C     -9.391140   -2.195550  -20.420700
  C     -8.673810   -1.219410  -21.031910
  C     -9.114930   -0.676110  -22.345970
  O     -9.929260   -1.155650  -23.097080
  C     -8.382420    0.602940  -22.490150
  C     -7.471890    0.750020  -21.426500
  C     -7.526270   -0.447770  -20.594570
  C     -6.529820   -0.891100  -19.768380
  C     -5.390200   -0.130620  -19.435960
  N     -4.456510    0.459800  -19.125710
  C     -6.487170   -2.203330  -19.248930
  N     -6.385650   -3.281090  -18.868240
  C     -6.688570    1.891350  -21.341180
  C     -6.820670    2.863690  -22.320180
  C     -7.715110    2.693740  -23.369910
  C     -8.513290    1.562300  -23.473270
  Br    -7.849360    4.047330  -24.695120
  H     -3.645960  -14.487070    8.058500
  H     -3.548960  -16.927930    7.891210
  H     -5.198500  -16.798690    3.930470
  H     -5.262830  -10.534790    4.542770
  H     -5.879080   -8.955580    2.897580
  H     -7.469380  -11.999610   -1.395670
  H     -6.656510   -7.509950    0.673310
  H     -8.186920  -10.565030   -3.652010
  H     -8.045950   -5.841300   -4.561340
  H     -9.538340   -8.877300   -8.913540
  H     -8.405040   -4.428830   -6.914530
  H     -9.776400   -7.482000  -11.294540
  H     -8.897980   -2.867100  -12.345720
  H    -10.210610   -5.921890  -16.742020
  H     -8.779260   -1.543920  -14.774330
  H    -10.050200   -4.612870  -19.169960
  H    -10.113430   -2.710250  -21.047280
  H     -5.994330    2.039010  -20.529810
  H     -6.223400    3.761050  -22.269850
  H     -9.208940    1.428730  -24.287080

 Total Charge           Charge          ....    0
 Multiplicity           Mult            ....    1
 Number of Electrons    NEL             ....  566
 Basis Dimension        Dim             .... 1140

ORBITAL ENERGIES
----------------

  NO   OCC          E(Eh)            E(eV)
   0   2.0000    -482.874526    -13139.6839
   1   2.0000    -482.874132    -13139.6731
   2   2.0000     -88.959421     -2420.7089
   3   2.0000     -88.958278     -2420.6778
   4   2.0000     -88.957499     -2420.6566
   5   2.0000     -88.956516     -2420.6299
   6   2.0000     -88.956296     -2420.6239
   7   2.0000     -88.952614     -2420.5237
   8   2.0000     -62.552219     -1702.1324
   9   2.0000     -62.551835     -1702.1220
  10   2.0000     -56.386058     -1534.3426
  11   2.0000     -56.385674     -1534.3322
  12   2.0000     -56.383534     -1534.2740
  13   2.0000     -56.383516     -1534.2735
  14   2.0000     -56.383144     -1534.2634
  15   2.0000     -56.383140     -1534.2632
  16   2.0000     -19.227358      -523.2030
  17   2.0000     -19.223114      -523.0875
  18   2.0000     -14.422586      -392.4585
  19   2.0000     -14.420263      -392.3953
  20   2.0000     -14.418492      -392.3471
  21   2.0000     -14.414373      -392.2350
  22   2.0000     -10.376239      -282.3518
  23   2.0000     -10.374113      -282.2940
  24   2.0000     -10.349493      -281.6240
  25   2.0000     -10.348148      -281.5874
  26   2.0000     -10.347759      -281.5768
  27   2.0000     -10.347288      -281.5640
  28   2.0000     -10.347192      -281.5614
  29   2.0000     -10.345520      -281.5159
  30   2.0000     -10.327276      -281.0195
  31   2.0000     -10.325242      -280.9641
  32   2.0000     -10.325214      -280.9634
  33   2.0000     -10.322308      -280.8843
  34   2.0000     -10.322082      -280.8781
  35   2.0000     -10.321416      -280.8600
  36   2.0000     -10.321390      -280.8593
  37   2.0000     -10.320527      -280.8358
  38   2.0000     -10.318827      -280.7896
  39   2.0000     -10.318634      -280.7843
  40   2.0000     -10.318561      -280.7823
  41   2.0000     -10.316768      -280.7335
  42   2.0000     -10.314713      -280.6776
  43   2.0000     -10.313681      -280.6495
  44   2.0000     -10.313009      -280.6313
  45   2.0000     -10.311070      -280.5785
  46   2.0000     -10.310951      -280.5752
  47   2.0000     -10.308660      -280.5129
  48   2.0000     -10.308457      -280.5074
  49   2.0000     -10.307654      -280.4855
  50   2.0000     -10.307319      -280.4764
  51   2.0000     -10.307165      -280.4722
  52   2.0000     -10.306358      -280.4503
  53   2.0000     -10.305871      -280.4370
  54   2.0000     -10.305265      -280.4205
  55   2.0000     -10.304412      -280.3973
  56   2.0000     -10.303617      -280.3757
  57   2.0000     -10.303527      -280.3732
  58   2.0000     -10.303140      -280.3627
  59   2.0000     -10.302269      -280.3390
  60   2.0000     -10.299285      -280.2578
  61   2.0000     -10.299070      -280.2520
  62   2.0000     -10.296324      -280.1772
  63   2.0000     -10.295803      -280.1630
  64   2.0000     -10.294693      -280.1328
  65   2.0000     -10.294259      -280.1210
  66   2.0000     -10.294230      -280.1202
  67   2.0000     -10.291456      -280.0447
  68   2.0000     -10.291273      -280.0398
  69   2.0000     -10.291181      -280.0373
  70   2.0000     -10.290633      -280.0224
  71   2.0000     -10.288969      -279.9771
  72   2.0000     -10.288831      -279.9733
  73   2.0000     -10.287551      -279.9385
  74   2.0000     -10.286227      -279.9025
  75   2.0000     -10.285662      -279.8871
  76   2.0000     -10.285633      -279.8863
  77   2.0000     -10.285498      -279.8826
  78   2.0000      -8.781501      -238.9568
  79   2.0000      -8.781123      -238.9465
  80   2.0000      -8.054888      -219.1846
  81   2.0000      -8.054147      -219.1645
  82   2.0000      -8.053460      -219.1458
  83   2.0000      -8.052306      -219.1144
  84   2.0000      -8.052084      -219.1084
  85   2.0000      -8.046933      -218.9682
  86   2.0000      -6.617355      -180.0674
  87   2.0000      -6.616959      -180.0566
  88   2.0000      -6.603615      -179.6935
  89   2.0000      -6.603224      -179.6829
  90   2.0000      -6.603171      -179.6814
  91   2.0000      -6.602808      -179.6715
  92   2.0000      -6.024626      -163.9384
  93   2.0000      -6.023843      -163.9171
  94   2.0000      -6.023177      -163.8990
  95   2.0000      -6.022009      -163.8672
  96   2.0000      -6.021788      -163.8612
  97   2.0000      -6.020548      -163.8274
  98   2.0000      -6.019808      -163.8073
  99   2.0000      -6.019155      -163.7895
 100   2.0000      -6.017976      -163.7575
 101   2.0000      -6.017749      -163.7513
 102   2.0000      -6.016671      -163.7219
 103   2.0000      -6.015957      -163.7025
 104   2.0000      -6.015233      -163.6828
 105   2.0000      -6.014457      -163.6617
 106   2.0000      -6.013403      -163.6330
 107   2.0000      -6.013192      -163.6273
 108   2.0000      -6.012283      -163.6025
 109   2.0000      -6.008167      -163.4905
 110   2.0000      -2.733274       -74.3762
 111   2.0000      -2.732944       -74.3672
 112   2.0000      -2.729537       -74.2745
 113   2.0000      -2.729190       -74.2650
 114   2.0000      -2.729112       -74.2629
 115   2.0000      -2.728797       -74.2543
 116   2.0000      -2.718282       -73.9682
 117   2.0000      -2.718253       -73.9674
 118   2.0000      -2.717884       -73.9574
 119   2.0000      -2.717881       -73.9573
 120   2.0000      -1.143664       -31.1207
 121   2.0000      -1.138681       -30.9851
 122   2.0000      -1.024821       -27.8868
 123   2.0000      -1.024442       -27.8765
 124   2.0000      -1.013486       -27.5784
 125   2.0000      -1.010960       -27.5096
 126   2.0000      -1.006481       -27.3878
 127   2.0000      -1.005383       -27.3579
 128   2.0000      -1.004208       -27.3259
 129   2.0000      -0.998695       -27.1759
 130   2.0000      -0.996681       -27.1211
 131   2.0000      -0.992725       -27.0134
 132   2.0000      -0.985564       -26.8186
 133   2.0000      -0.975783       -26.5524
 134   2.0000      -0.967552       -26.3284
 135   2.0000      -0.966961       -26.3124
 136   2.0000      -0.933459       -25.4007
 137   2.0000      -0.925671       -25.1888
 138   2.0000      -0.914630       -24.8884
 139   2.0000      -0.913495       -24.8575
 140   2.0000      -0.910538       -24.7770
 141   2.0000      -0.899713       -24.4824
 142   2.0000      -0.894788       -24.3484
 143   2.0000      -0.886092       -24.1118
 144   2.0000      -0.884226       -24.0610
 145   2.0000      -0.882313       -24.0090
 146   2.0000      -0.877086       -23.8667
 147   2.0000      -0.874629       -23.7999
 148   2.0000      -0.858244       -23.3540
 149   2.0000      -0.856572       -23.3085
 150   2.0000      -0.846851       -23.0440
 151   2.0000      -0.844952       -22.9923
 152   2.0000      -0.838463       -22.8157
 153   2.0000      -0.836259       -22.7558
 154   2.0000      -0.819573       -22.3017
 155   2.0000      -0.803020       -21.8513
 156   2.0000      -0.798550       -21.7296
 157   2.0000      -0.791764       -21.5450
 158   2.0000      -0.785106       -21.3638
 159   2.0000      -0.781716       -21.2716
 160   2.0000      -0.773950       -21.0602
 161   2.0000      -0.770623       -20.9697
 162   2.0000      -0.768577       -20.9141
 163   2.0000      -0.746313       -20.3082
 164   2.0000      -0.726895       -19.7798
 165   2.0000      -0.710680       -19.3386
 166   2.0000      -0.704844       -19.1798
 167   2.0000      -0.701508       -19.0890
 168   2.0000      -0.697044       -18.9675
 169   2.0000      -0.694288       -18.8925
 170   2.0000      -0.689866       -18.7722
 171   2.0000      -0.688411       -18.7326
 172   2.0000      -0.686670       -18.6852
 173   2.0000      -0.680066       -18.5055
 174   2.0000      -0.675954       -18.3936
 175   2.0000      -0.665190       -18.1007
 176   2.0000      -0.654057       -17.7978
 177   2.0000      -0.651111       -17.7176
 178   2.0000      -0.649599       -17.6765
 179   2.0000      -0.631677       -17.1888
 180   2.0000      -0.630205       -17.1487
 181   2.0000      -0.626981       -17.0610
 182   2.0000      -0.622709       -16.9448
 183   2.0000      -0.620494       -16.8845
 184   2.0000      -0.618472       -16.8295
 185   2.0000      -0.610403       -16.6099
 186   2.0000      -0.594925       -16.1887
 187   2.0000      -0.590880       -16.0787
 188   2.0000      -0.588407       -16.0114
 189   2.0000      -0.580924       -15.8077
 190   2.0000      -0.580405       -15.7936
 191   2.0000      -0.572082       -15.5672
 192   2.0000      -0.569185       -15.4883
 193   2.0000      -0.568489       -15.4694
 194   2.0000      -0.561881       -15.2896
 195   2.0000      -0.556506       -15.1433
 196   2.0000      -0.550882       -14.9903
 197   2.0000      -0.549256       -14.9460
 198   2.0000      -0.546235       -14.8638
 199   2.0000      -0.544867       -14.8266
 200   2.0000      -0.544514       -14.8170
 201   2.0000      -0.542762       -14.7693
 202   2.0000      -0.540932       -14.7195
 203   2.0000      -0.537880       -14.6365
 204   2.0000      -0.534607       -14.5474
 205   2.0000      -0.533548       -14.5186
 206   2.0000      -0.531513       -14.4632
 207   2.0000      -0.527543       -14.3552
 208   2.0000      -0.524342       -14.2681
 209   2.0000      -0.519983       -14.1495
 210   2.0000      -0.516897       -14.0655
 211   2.0000      -0.515610       -14.0305
 212   2.0000      -0.511277       -13.9126
 213   2.0000      -0.510290       -13.8857
 214   2.0000      -0.506733       -13.7889
 215   2.0000      -0.505664       -13.7598
 216   2.0000      -0.502920       -13.6851
 217   2.0000      -0.502321       -13.6689
 218   2.0000      -0.497945       -13.5498
 219   2.0000      -0.496251       -13.5037
 220   2.0000      -0.490486       -13.3468
 221   2.0000      -0.485964       -13.2237
 222   2.0000      -0.484950       -13.1962
 223   2.0000      -0.482207       -13.1215
 224   2.0000      -0.479565       -13.0496
 225   2.0000      -0.475902       -12.9500
 226   2.0000      -0.472138       -12.8475
 227   2.0000      -0.469488       -12.7754
 228   2.0000      -0.467523       -12.7219
 229   2.0000      -0.465445       -12.6654
 230   2.0000      -0.463033       -12.5998
 231   2.0000      -0.459048       -12.4913
 232   2.0000      -0.457241       -12.4422
 233   2.0000      -0.455948       -12.4070
 234   2.0000      -0.455224       -12.3873
 235   2.0000      -0.453840       -12.3496
 236   2.0000      -0.451529       -12.2867
 237   2.0000      -0.451090       -12.2748
 238   2.0000      -0.449685       -12.2366
 239   2.0000      -0.447291       -12.1714
 240   2.0000      -0.444524       -12.0961
 241   2.0000      -0.441506       -12.0140
 242   2.0000      -0.435848       -11.8600
 243   2.0000      -0.434337       -11.8189
 244   2.0000      -0.432348       -11.7648
 245   2.0000      -0.430713       -11.7203
 246   2.0000      -0.430346       -11.7103
 247   2.0000      -0.429188       -11.6788
 248   2.0000      -0.426315       -11.6006
 249   2.0000      -0.422668       -11.5014
 250   2.0000      -0.420411       -11.4400
 251   2.0000      -0.417231       -11.3534
 252   2.0000      -0.417000       -11.3471
 253   2.0000      -0.413457       -11.2507
 254   2.0000      -0.412593       -11.2272
 255   2.0000      -0.410706       -11.1759
 256   2.0000      -0.404655       -11.0112
 257   2.0000      -0.404232       -10.9997
 258   2.0000      -0.396119       -10.7789
 259   2.0000      -0.388455       -10.5704
 260   2.0000      -0.385300       -10.4846
 261   2.0000      -0.384406       -10.4602
 262   2.0000      -0.379023       -10.3138
 263   2.0000      -0.370378       -10.0785
 264   2.0000      -0.368845       -10.0368
 265   2.0000      -0.368659       -10.0317
 266   2.0000      -0.354897        -9.6572
 267   2.0000      -0.354473        -9.6457
 268   2.0000      -0.353117        -9.6088
 269   2.0000      -0.348572        -9.4851
 270   2.0000      -0.340622        -9.2688
 271   2.0000      -0.339767        -9.2455
 272   2.0000      -0.337625        -9.1872
 273   2.0000      -0.334328        -9.0975
 274   2.0000      -0.322027        -8.7628
 275   2.0000      -0.313966        -8.5435
 276   2.0000      -0.310745        -8.4558
 277   2.0000      -0.301257        -8.1976
 278   2.0000      -0.288565        -7.8523
 279   2.0000      -0.286631        -7.7996
 280   2.0000      -0.272748        -7.4218
 281   2.0000      -0.265957        -7.2371
 282   2.0000      -0.248712        -6.7678
 283   0.0000      -0.098957        -2.6927
 284   0.0000      -0.094879        -2.5818
 285   0.0000      -0.070754        -1.9253
 286   0.0000      -0.066921        -1.8210
 287   0.0000      -0.051539        -1.4024

MULLIKEN ATOMIC CHARGES
-----------------------
   0 C :    0.162060
   1 O :   -0.152807
   2 C :   -0.022511
   3 C :    0.028299
   4 C :   -0.023831
   5 C :    0.051262
   6 C :   -0.005151
   7 C :   -0.011673
   8 Br:   -0.017473
   9 C :    0.324339
  10 C :   -0.349432
  11 C :   -0.189628
  12 N :    0.158173
  13 C :   -0.185672
  14 N :    0.144431
  15 C :   -0.086860
  16 C :   -0.021576
  17 C :   -0.042093
  18 C :   -0.031090
  19 C :    0.125215
  20 C :   -0.032198
  21 S :    0.169718
  22 C :   -0.064191
  23 C :    0.129898
  24 C :   -0.038280
  25 C :   -0.044525
  26 S :    0.111254
  27 C :   -0.014493
  28 C :   -0.058630
  29 C :   -0.022495
  30 C :   -0.054830
  31 C :    0.117419
  32 C :   -0.042113
  33 S :    0.112234
  34 C :   -0.054738
  35 C :    0.118230
  36 C :   -0.042291
  37 C :   -0.054092
  38 S :    0.111320
  39 C :   -0.021603
  40 C :   -0.055111
  41 C :   -0.015830
  42 C :   -0.058024
  43 C :    0.122275
  44 C :   -0.042738
  45 S :    0.115250
  46 C :   -0.042397
  47 C :    0.111702
  48 C :   -0.033708
  49 C :   -0.051252
  50 S :    0.124004
  51 C :   -0.099107
  52 C :    0.038346
  53 C :    0.058555
  54 C :   -0.127862
  55 C :    0.141885
  56 O :   -0.134284
  57 C :   -0.010324
  58 C :    0.025947
  59 C :    0.239852
  60 C :   -0.309510
  61 C :   -0.179921
  62 N :    0.158130
  63 C :   -0.198746
  64 N :    0.177975
  65 C :   -0.024734
  66 C :    0.050202
  67 C :   -0.005847
  68 C :   -0.012099
  69 Br:   -0.018441
  70 H :    0.008118
  71 H :    0.006413
  72 H :    0.003537
  73 H :    0.009435
  74 H :    0.002165
  75 H :   -0.026573
  76 H :   -0.024284
  77 H :   -0.010667
  78 H :   -0.011088
  79 H :   -0.028128
  80 H :   -0.028031
  81 H :   -0.012027
  82 H :   -0.010540
  83 H :   -0.024510
  84 H :   -0.025751
  85 H :   -0.008542
  86 H :    0.031026
  87 H :    0.011798
  88 H :    0.007519
  89 H :    0.006361
Sum of atomic charges:   -0.0000000

LOEWDIN ATOMIC CHARGES
----------------------
   0 C :    0.084049
   1 O :   -0.145601
   2 C :   -0.037187
   3 C :   -0.015946
   4 C :    0.008980
   5 C :   -0.012385
   6 C :   -0.097823
   7 C :    0.000577
   8 Br:    0.117476
   9 C :    0.076938
  10 C :   -0.137567
  11 C :   -0.018684
  12 N :   -0.049512
  13 C :   -0.020758
  14 N :   -0.050374
  15 C :   -0.106156
  16 C :    0.062506
  17 C :   -0.174104
  18 C :   -0.002219
  19 C :   -0.056347
  20 C :   -0.151987
  21 S :    0.453689
  22 C :   -0.038145
  23 C :   -0.029256
  24 C :   -0.151344
  25 C :   -0.022912
  26 S :    0.395560
  27 C :   -0.153321
  28 C :   -0.058130
  29 C :   -0.166003
  30 C :   -0.050332
  31 C :   -0.043065
  32 C :   -0.149535
  33 S :    0.396717
  34 C :   -0.034436
  35 C :   -0.042274
  36 C :   -0.149812
  37 C :   -0.033904
  38 S :    0.397089
  39 C :   -0.164498
  40 C :   -0.051638
  41 C :   -0.156141
  42 C :   -0.057026
  43 C :   -0.031867
  44 C :   -0.150809
  45 S :    0.400222
  46 C :   -0.021774
  47 C :   -0.047395
  48 C :   -0.139717
  49 C :   -0.034780
  50 S :    0.416498
  51 C :   -0.168769
  52 C :    0.001534
  53 C :    0.055360
  54 C :   -0.092202
  55 C :    0.085342
  56 O :   -0.132838
  57 C :   -0.040869
  58 C :   -0.011444
  59 C :    0.057636
  60 C :   -0.130175
  61 C :   -0.019103
  62 N :   -0.045670
  63 C :   -0.034140
  64 N :   -0.043410
  65 C :    0.005495
  66 C :   -0.010842
  67 C :   -0.099496
  68 C :    0.001358
  69 Br:    0.116567
  70 H :    0.043135
  71 H :    0.040810
  72 H :    0.044325
  73 H :    0.050827
  74 H :    0.038558
  75 H :    0.032612
  76 H :    0.033667
  77 H :    0.029296
  78 H :    0.028614
  79 H :    0.032057
  80 H :    0.032117
  81 H :    0.028554
  82 H :    0.029082
  83 H :    0.033845
  84 H :    0.033379
  85 H :    0.037573
  86 H :    0.052846
  87 H :    0.043130
  88 H :    0.040813
  89 H :    0.044891

  Mayer bond orders larger than 0.100000
B(  0-C ,  1-O ) :   2.1804 B(  0-C ,  2-C ) :   0.9522 B(  0-C , 15-C ) :   0.9571
B(  2-C ,  3-C ) :   1.3322 B(  2-C ,  7-C ) :   1.3785 B(  3-C ,  4-C ) :   1.3644
B(  3-C ,  9-C ) :   0.9910 B(  4-C ,  5-C ) :   1.3860 B(  4-C , 70-H ) :   0.9819
B(  5-C ,  6-C ) :   1.3871 B(  5-C , 71-H ) :   0.9837 B(  6-C ,  7-C ) :   1.3373
B(  6-C ,  8-Br) :   0.9936 B(  7-C , 72-H ) :   1.0070 B(  9-C , 10-C ) :   1.6307
B(  9-C , 15-C ) :   1.0749 B( 10-C , 11-C ) :   1.1434 B( 10-C , 13-C ) :   1.1405
B( 11-C , 12-N ) :   2.9741 B( 13-C , 14-N ) :   2.9583 B( 15-C , 16-C ) :   1.5301
B( 16-C , 17-C ) :   1.2275 B( 16-C , 73-H ) :   0.9392 B( 17-C , 18-C ) :   1.4336
B( 17-C , 21-S ) :   1.0673 B( 18-C , 19-C ) :   1.1845 B( 18-C , 74-H ) :   1.0103
B( 19-C , 20-C ) :   1.2577 B( 19-C , 25-C ) :   1.2756 B( 20-C , 21-S ) :   1.0255
B( 20-C , 22-C ) :   1.3651 B( 22-C , 23-C ) :   1.3320 B( 22-C , 25-C ) :   0.1005
B( 22-C , 75-H ) :   1.0035 B( 23-C , 24-C ) :   1.2563 B( 23-C , 28-C ) :   1.1507
B( 24-C , 25-C ) :   1.4247 B( 24-C , 26-S ) :   1.0330 B( 25-C , 76-H ) :   1.0028
B( 26-S , 27-C ) :   1.0773 B( 27-C , 28-C ) :   1.5716 B( 27-C , 29-C ) :   1.1454
B( 28-C , 77-H ) :   0.9972 B( 29-C , 30-C ) :   1.5738 B( 29-C , 33-S ) :   1.0746
B( 30-C , 31-C ) :   1.1520 B( 30-C , 78-H ) :   0.9954 B( 31-C , 32-C ) :   1.2849
B( 31-C , 37-C ) :   1.3184 B( 32-C , 33-S ) :   1.0413 B( 32-C , 34-C ) :   1.3868
B( 34-C , 35-C ) :   1.3190 B( 34-C , 79-H ) :   1.0015 B( 35-C , 36-C ) :   1.2843
B( 35-C , 40-C ) :   1.1519 B( 36-C , 37-C ) :   1.3872 B( 36-C , 38-S ) :   1.0415
B( 37-C , 80-H ) :   1.0015 B( 38-S , 39-C ) :   1.0751 B( 39-C , 40-C ) :   1.5754
B( 39-C , 41-C ) :   1.1444 B( 40-C , 81-H ) :   0.9955 B( 41-C , 42-C ) :   1.5707
B( 41-C , 45-S ) :   1.0798 B( 42-C , 43-C ) :   1.1561 B( 42-C , 82-H ) :   0.9957
B( 43-C , 44-C ) :   1.2756 B( 43-C , 49-C ) :   1.3210 B( 44-C , 45-S ) :   1.0397
B( 44-C , 46-C ) :   1.4010 B( 46-C , 47-C ) :   1.3059 B( 46-C , 83-H ) :   1.0004
B( 47-C , 48-C ) :   1.2742 B( 47-C , 52-C ) :   1.1648 B( 48-C , 49-C ) :   1.3904
B( 48-C , 50-S ) :   1.0456 B( 49-C , 84-H ) :   1.0010 B( 50-S , 51-C ) :   1.0723
B( 51-C , 52-C ) :   1.5178 B( 51-C , 53-C ) :   1.0972 B( 52-C , 85-H ) :   1.0027
B( 53-C , 54-C ) :   1.6791 B( 53-C , 86-H ) :   0.9511 B( 54-C , 55-C ) :   0.9374
B( 54-C , 59-C ) :   1.0265 B( 55-C , 56-O ) :   2.2784 B( 55-C , 57-C ) :   0.9200
B( 57-C , 58-C ) :   1.3325 B( 57-C , 68-C ) :   1.3825 B( 58-C , 59-C ) :   1.0114
B( 58-C , 65-C ) :   1.3684 B( 59-C , 60-C ) :   1.6738 B( 60-C , 61-C ) :   1.1334
B( 60-C , 63-C ) :   1.1488 B( 61-C , 62-N ) :   2.9956 B( 63-C , 64-N ) :   3.0245
B( 65-C , 66-C ) :   1.3835 B( 65-C , 87-H ) :   0.9865 B( 66-C , 67-C ) :   1.3873
B( 66-C , 88-H ) :   0.9847 B( 67-C , 68-C ) :   1.3446 B( 67-C , 69-Br) :   0.9938
B( 68-C , 89-H ) :   1.0065

-----------------------------------------------------------------------------
         ABSORPTION SPECTRUM VIA TRANSITION ELECTRIC DIPOLE MOMENTS
-----------------------------------------------------------------------------
State   Energy  Wavelength   fosc         T2         TX        TY        TZ
        (cm-1)    (nm)                  (au**2)     (au)      (au)      (au)
-----------------------------------------------------------------------------
   0   19423.9    514.8   2.717006277  46.05012  -0.71262   3.43034  -5.81163
   1   20467.1    488.6   0.168610402   2.71209   1.43472   0.54816  -0.59430
   2   23238.0    430.3   0.345105338   4.88910  -0.21612   0.39468  -2.16486
   3   23719.4    421.6   0.224921368   3.12178  -0.87786   0.42831  -1.47231
   4   25627.3    390.2   0.096777068   1.24321  -0.12151   1.01192  -0.45217
   5   26706.6    374.4   0.072235837   0.89045  -0.20893   0.47114  -0.79046
   6   27178.6    367.9   0.321366595   3.89268  -0.77357   0.43730  -1.76154
   7   27472.9    364.0   0.102026209   1.22260  -0.51847  -0.33664   0.91677
   8   28715.7    348.2   0.082995518   0.95151   0.47826  -0.07444   0.84689
   9   29406.1    340.1   0.002037866   0.02281  -0.05788  -0.04079   0.13342
  10   29467.2    339.4   0.016327269   0.18241   0.03504  -0.42371  -0.04064
  11   29622.6    337.6   0.875181321   9.72637  -0.24895   1.53769  -2.70184
  12   30312.8    329.9   0.024147927   0.26226   0.01671   0.51181  -0.00528
  13   30380.2    329.2   0.198983660   2.15626   0.05032  -1.40521   0.42321
  14   31168.1    320.8   0.015131065   0.15982  -0.27226   0.26025  -0.13404
  15   31257.1    319.9   0.127726230   1.34526   0.15858  -1.10717   0.30705
  16   31499.9    317.5   0.087134324   0.91066  -0.21551  -0.23308  -0.89994
  17   31831.8    314.2   0.000735029   0.00760   0.01937   0.05920   0.06101
  18   32247.0    310.1   0.110132858   1.12436  -0.56226  -0.35425  -0.82627
  19   32491.1    307.8   0.033503169   0.33947   0.20745   0.54406  -0.02059
  20   32867.0    304.3   0.037264997   0.37326  -0.23930   0.54799  -0.12533
  21   33410.7    299.3   0.062577100   0.61660   0.39419  -0.52150   0.43504
  22   33804.6    295.8   0.093462622   0.91020   0.22495   0.88385  -0.28002
  23   33925.9    294.8   0.062075205   0.60237   0.14340  -0.46881  -0.60168
  24   34161.7    292.7   0.002558031   0.02465   0.00926   0.15404  -0.02891
  25   34723.0    288.0   0.448520168   4.25246   0.33357  -1.81053   0.92907
  26   35289.4    283.4   0.400885357   3.73983  -0.27813  -1.56379  -1.10318
  27   35367.7    282.7   0.034696767   0.32297   0.04636  -0.39087  -0.40993
  28   35748.1    279.7   0.364724414   3.35883  -0.80637   0.91734  -1.36641
  29   35826.4    279.1   0.032969883   0.30296   0.07855   0.46652   0.28134
  30   36421.3    274.6   0.054777827   0.49514   0.23360   0.56406   0.34986
  31   36916.4    270.9   0.015721137   0.14020  -0.36168  -0.06852  -0.06847
  32   37424.8    267.2   0.010723212   0.09433   0.07315   0.07180  -0.28952
  33   37698.9    265.3   0.001106412   0.00966  -0.03631   0.07516  -0.05192
  34   38197.2    261.8   0.011704396   0.10088   0.17242   0.24078  -0.11478
  35   38328.9    260.9   0.007804405   0.06703   0.15619   0.04744   0.20096
  36   39231.8    254.9   0.031153009   0.26142   0.26753   0.36098  -0.24400
  37   39477.1    253.3   0.068154365   0.56836  -0.17484  -0.44096  -0.58596
  38   39570.6    252.7   0.025158473   0.20931  -0.26323  -0.34753  -0.13871
  39   39824.8    251.1   0.047582881   0.39334  -0.21299   0.49181  -0.32574
  40   39890.8    250.7   0.051309563   0.42345   0.04288   0.64435   0.08018

FINAL SINGLE POINT ENERGY    -10048.591285223669

DIPOLE MOMENT
-------------
                                X             Y             Z
Electronic contribution:     26.00401     -12.88985     -27.79541
Nuclear contribution   :    -27.61234      12.67059      26.65295
                        -----------------------------------------
Total Dipole Moment    :     -1.60833      -0.21926      -1.14247
                        -----------------------------------------
Magnitude (a.u.)       :      1.98495
Magnitude (Debye)      :      5.04535

Rotational constants in cm-1:     0.002653     0.000092     0.000091
Rotational constants in MHz :    79.531746     2.752649     2.723876

                             ****ORCA TERMINATED NORMALLY****
TOTAL RUN TIME: 0 days 0 hours 8 minutes 35 seconds 546 msec
