                         Program Version 4.2.0 -  RELEASE  -
|  1> # ORCA input file
|  2> # SCF done       -155.479613186161          0.000898465617
|  3> ! CAM-B3LYP def2-SVP def2/J RIJCOSX Grid4 TightSCF
|  4> %maxcore 5000
|  5> %tddft
|  6>     Mode sTDDFT
|  7>     Ethresh 5.0
|  8>     maxcore 5000
|  9> end
| 10>
| 11> %pal
| 12>   nprocs 6
| 13>   end
| 14> * xyz 0 1
| 15>    C       -4.56417        -1.28787        -1.61994
| 16>    O       -4.68563        -2.49216        -1.55872
| 17>    C       -5.26647        -0.35915        -2.52606
| 18>    C       -4.81448         0.95539        -2.29996
| 19>    C       -5.34048         1.99724        -3.05320
| 20>    C       -6.29849         1.71272        -4.01372
| 21>    C       -6.72808         0.40768        -4.22174
| 22>    C       -6.21995        -0.65074        -3.48060
| 23>   Br       -8.03654         0.06428        -5.55344
| 24>    C       -3.80888         0.94534        -1.24273
| 25>    C       -3.15800         2.03522        -0.73705
| 26>    C       -3.36548         3.36000        -1.17972
| 27>    N       -3.49394         4.45442        -1.49893
| 28>    C       -2.19113         1.98501         0.29165
| 29>    N       -1.39584         2.01829         1.11795
| 30>    C       -3.63993        -0.43913        -0.82169
| 31>    C       -2.79039        -0.96938         0.08025
| 32>    C       -2.84631        -2.39328         0.39125
| 33>    N       -2.00541        -3.23818        -0.20314
| 34>    C       -2.24633        -4.52128        -0.08029
| 35>    C       -3.39662        -4.93869         0.64806
| 36>    N       -3.98628        -4.04126         1.41288
| 37>    N       -3.70894        -2.78704         1.33278
| 38>    C       -3.92730        -6.26682         0.55461
| 39>    S       -4.77528        -6.99574         1.86915
| 40>    C       -5.09304        -8.41954         0.91487
| 41>    C       -4.56052        -8.29975        -0.36280
| 42>    C       -3.89845        -7.07794        -0.56338
| 43>    C       -3.35450        -6.69226        -1.91005
| 44>    N       -3.26068        -5.25173        -2.05100
| 45>    C       -4.23897        -7.38009        -2.96365
| 46>    C       -4.15603        -8.88979        -2.78512
| 47>    C       -4.67450        -9.36890        -1.41689
| 48>    N       -3.85976       -10.51560        -1.02229
| 49>    C       -5.82641        -9.51305         1.44301
| 50>    C       -6.23820        -9.63669         2.72440
| 51>    C       -6.96122       -10.78579         3.17478
| 52>    N       -7.20172       -11.79940         2.31677
| 53>    C       -7.89509       -12.80451         2.76964
| 54>    C       -8.27930       -12.87138         4.12879
| 55>    N       -7.93233       -11.85304         4.93165
| 56>    N       -7.34356       -10.82357         4.45657
| 57>    C       -8.95173       -14.00630         4.68903
| 58>    C       -9.84557       -14.00194         5.70452
| 59>    C      -10.17357       -15.27480         6.40822
| 60>    O       -9.94838       -16.39614         6.02226
| 61>    C      -10.77402       -14.85019         7.69098
| 62>    C      -10.93144       -13.45060         7.69975
| 63>    C      -10.50478       -12.91674         6.40968
| 64>    C      -10.87191       -11.70862         5.88635
| 65>    C      -11.59769       -10.73180         6.59992
| 66>    N      -12.18600        -9.90998         7.14287
| 67>    C      -10.65498       -11.34680         4.54045
| 68>    N      -10.55259       -11.04944         3.43665
| 69>    C      -11.44909       -12.82400         8.82433
| 70>    C      -11.81055       -13.60158         9.91348
| 71>    C      -11.66134       -14.98296         9.87872
| 72>    C      -11.13745       -15.63203         8.76878
| 73>   Br      -12.18265       -16.00606        11.39051
| 74>    H       -5.02106         3.01625        -2.90960
| 75>    H       -6.71576         2.51158        -4.60742
| 76>    H       -6.55313        -1.66490        -3.63771
| 77>    H       -2.07409        -0.37278         0.62638
| 78>    H       -1.46303        -5.20346        -0.36928
| 79>    H       -2.33414        -7.08996        -2.00659
| 80>    H       -4.16142        -4.79029        -1.98277
| 81>    H       -2.81996        -4.98812        -2.92318
| 82>    H       -3.89705        -7.10922        -3.96493
| 83>    H       -5.27071        -7.03808        -2.84905
| 84>    H       -3.11148        -9.19811        -2.86330
| 85>    H       -4.71524        -9.38948        -3.57755
| 86>    H       -5.74876        -9.62385        -1.50881
| 87>    H       -4.11209       -10.85009        -0.09964
| 88>    H       -3.98705       -11.27598        -1.68105
| 89>    H       -6.08167       -10.31241         0.75944
| 90>    H       -6.03763        -8.87695         3.46439
| 91>    H       -8.16653       -13.57927         2.06488
| 92>    H       -8.66879       -14.97881         4.30087
| 93>    H      -11.56392       -11.75323         8.87027
| 94>    H      -12.21250       -13.13227        10.79832
| 95>    H      -11.01603       -16.70380         8.74023
| 96> *
| 97>
| 98>                          ****END OF INPUT****

CARTESIAN COORDINATES (ANGSTROEM)
---------------------------------
  C     -4.564170   -1.287870   -1.619940
  O     -4.685630   -2.492160   -1.558720
  C     -5.266470   -0.359150   -2.526060
  C     -4.814480    0.955390   -2.299960
  C     -5.340480    1.997240   -3.053200
  C     -6.298490    1.712720   -4.013720
  C     -6.728080    0.407680   -4.221740
  C     -6.219950   -0.650740   -3.480600
  Br    -8.036540    0.064280   -5.553440
  C     -3.808880    0.945340   -1.242730
  C     -3.158000    2.035220   -0.737050
  C     -3.365480    3.360000   -1.179720
  N     -3.493940    4.454420   -1.498930
  C     -2.191130    1.985010    0.291650
  N     -1.395840    2.018290    1.117950
  C     -3.639930   -0.439130   -0.821690
  C     -2.790390   -0.969380    0.080250
  C     -2.846310   -2.393280    0.391250
  N     -2.005410   -3.238180   -0.203140
  C     -2.246330   -4.521280   -0.080290
  C     -3.396620   -4.938690    0.648060
  N     -3.986280   -4.041260    1.412880
  N     -3.708940   -2.787040    1.332780
  C     -3.927300   -6.266820    0.554610
  S     -4.775280   -6.995740    1.869150
  C     -5.093040   -8.419540    0.914870
  C     -4.560520   -8.299750   -0.362800
  C     -3.898450   -7.077940   -0.563380
  C     -3.354500   -6.692260   -1.910050
  N     -3.260680   -5.251730   -2.051000
  C     -4.238970   -7.380090   -2.963650
  C     -4.156030   -8.889790   -2.785120
  C     -4.674500   -9.368900   -1.416890
  N     -3.859760  -10.515600   -1.022290
  C     -5.826410   -9.513050    1.443010
  C     -6.238200   -9.636690    2.724400
  C     -6.961220  -10.785790    3.174780
  N     -7.201720  -11.799400    2.316770
  C     -7.895090  -12.804510    2.769640
  C     -8.279300  -12.871380    4.128790
  N     -7.932330  -11.853040    4.931650
  N     -7.343560  -10.823570    4.456570
  C     -8.951730  -14.006300    4.689030
  C     -9.845570  -14.001940    5.704520
  C    -10.173570  -15.274800    6.408220
  O     -9.948380  -16.396140    6.022260
  C    -10.774020  -14.850190    7.690980
  C    -10.931440  -13.450600    7.699750
  C    -10.504780  -12.916740    6.409680
  C    -10.871910  -11.708620    5.886350
  C    -11.597690  -10.731800    6.599920
  N    -12.186000   -9.909980    7.142870
  C    -10.654980  -11.346800    4.540450
  N    -10.552590  -11.049440    3.436650
  C    -11.449090  -12.824000    8.824330
  C    -11.810550  -13.601580    9.913480
  C    -11.661340  -14.982960    9.878720
  C    -11.137450  -15.632030    8.768780
  Br   -12.182650  -16.006060   11.390510
  H     -5.021060    3.016250   -2.909600
  H     -6.715760    2.511580   -4.607420
  H     -6.553130   -1.664900   -3.637710
  H     -2.074090   -0.372780    0.626380
  H     -1.463030   -5.203460   -0.369280
  H     -2.334140   -7.089960   -2.006590
  H     -4.161420   -4.790290   -1.982770
  H     -2.819960   -4.988120   -2.923180
  H     -3.897050   -7.109220   -3.964930
  H     -5.270710   -7.038080   -2.849050
  H     -3.111480   -9.198110   -2.863300
  H     -4.715240   -9.389480   -3.577550
  H     -5.748760   -9.623850   -1.508810
  H     -4.112090  -10.850090   -0.099640
  H     -3.987050  -11.275980   -1.681050
  H     -6.081670  -10.312410    0.759440
  H     -6.037630   -8.876950    3.464390
  H     -8.166530  -13.579270    2.064880
  H     -8.668790  -14.978810    4.300870
  H    -11.563920  -11.753230    8.870270
  H    -12.212500  -13.132270   10.798320
  H    -11.016030  -16.703800    8.740230

 Total Charge           Charge          ....    0
 Multiplicity           Mult            ....    1
 Number of Electrons    NEL             ....  460
 Basis Dimension        Dim             ....  976

ORBITAL ENERGIES
----------------

  NO   OCC          E(Eh)            E(eV)
   0   2.0000    -482.883639    -13139.9318
   1   2.0000    -482.876044    -13139.7252
   2   2.0000     -88.957466     -2420.6557
   3   2.0000     -62.561332     -1702.3804
   4   2.0000     -62.553766     -1702.1745
   5   2.0000     -56.395182     -1534.5909
   6   2.0000     -56.392642     -1534.5218
   7   2.0000     -56.392622     -1534.5213
   8   2.0000     -56.387612     -1534.3849
   9   2.0000     -56.385073     -1534.3158
  10   2.0000     -56.385066     -1534.3157
  11   2.0000     -19.241694      -523.5931
  12   2.0000     -19.229423      -523.2592
  13   2.0000     -14.464189      -393.5906
  14   2.0000     -14.447344      -393.1322
  15   2.0000     -14.439644      -392.9227
  16   2.0000     -14.436606      -392.8400
  17   2.0000     -14.430381      -392.6706
  18   2.0000     -14.429679      -392.6515
  19   2.0000     -14.424763      -392.5178
  20   2.0000     -14.421855      -392.4386
  21   2.0000     -14.421155      -392.4196
  22   2.0000     -14.411218      -392.1492
  23   2.0000     -14.404448      -391.9650
  24   2.0000     -14.389957      -391.5706
  25   2.0000     -10.389853      -282.7223
  26   2.0000     -10.379496      -282.4405
  27   2.0000     -10.362600      -281.9807
  28   2.0000     -10.358536      -281.8701
  29   2.0000     -10.357569      -281.8438
  30   2.0000     -10.356531      -281.8155
  31   2.0000     -10.352209      -281.6979
  32   2.0000     -10.350114      -281.6409
  33   2.0000     -10.349001      -281.6106
  34   2.0000     -10.345910      -281.5265
  35   2.0000     -10.344146      -281.4785
  36   2.0000     -10.333761      -281.1959
  37   2.0000     -10.331766      -281.1416
  38   2.0000     -10.331266      -281.1280
  39   2.0000     -10.330497      -281.1071
  40   2.0000     -10.328413      -281.0504
  41   2.0000     -10.326252      -280.9916
  42   2.0000     -10.325154      -280.9617
  43   2.0000     -10.323950      -280.9290
  44   2.0000     -10.322677      -280.8943
  45   2.0000     -10.319185      -280.7993
  46   2.0000     -10.318037      -280.7681
  47   2.0000     -10.318030      -280.7679
  48   2.0000     -10.317664      -280.7579
  49   2.0000     -10.316307      -280.7210
  50   2.0000     -10.315767      -280.7063
  51   2.0000     -10.314938      -280.6837
  52   2.0000     -10.313529      -280.6454
  53   2.0000     -10.313197      -280.6364
  54   2.0000     -10.310710      -280.5687
  55   2.0000     -10.309872      -280.5459
  56   2.0000     -10.308238      -280.5014
  57   2.0000     -10.307213      -280.4735
  58   2.0000     -10.306847      -280.4636
  59   2.0000     -10.306424      -280.4521
  60   2.0000     -10.303522      -280.3731
  61   2.0000     -10.298760      -280.2435
  62   2.0000     -10.284753      -279.8624
  63   2.0000     -10.284148      -279.8459
  64   2.0000     -10.279935      -279.7313
  65   2.0000     -10.273316      -279.5511
  66   2.0000     -10.268776      -279.4276
  67   2.0000      -8.790611      -239.2047
  68   2.0000      -8.783059      -238.9992
  69   2.0000      -8.052594      -219.1222
  70   2.0000      -6.626527      -180.3170
  71   2.0000      -6.618960      -180.1111
  72   2.0000      -6.612708      -179.9409
  73   2.0000      -6.612219      -179.9276
  74   2.0000      -6.605147      -179.7352
  75   2.0000      -6.604694      -179.7228
  76   2.0000      -6.021764      -163.8605
  77   2.0000      -6.017716      -163.7504
  78   2.0000      -6.014834      -163.6720
  79   2.0000      -2.742453       -74.6259
  80   2.0000      -2.738654       -74.5226
  81   2.0000      -2.738317       -74.5134
  82   2.0000      -2.734860       -74.4193
  83   2.0000      -2.731106       -74.3172
  84   2.0000      -2.730784       -74.3084
  85   2.0000      -2.727324       -74.2143
  86   2.0000      -2.727322       -74.2142
  87   2.0000      -2.719804       -74.0096
  88   2.0000      -2.719789       -74.0092
  89   2.0000      -1.155370       -31.4392
  90   2.0000      -1.153364       -31.3846
  91   2.0000      -1.144543       -31.1446
  92   2.0000      -1.132735       -30.8233
  93   2.0000      -1.037473       -28.2311
  94   2.0000      -1.034628       -28.1537
  95   2.0000      -1.026544       -27.9337
  96   2.0000      -1.016667       -27.6649
  97   2.0000      -1.015559       -27.6348
  98   2.0000      -1.013048       -27.5664
  99   2.0000      -1.007821       -27.4242
 100   2.0000      -1.007787       -27.4233
 101   2.0000      -0.999902       -27.2087
 102   2.0000      -0.984683       -26.7946
 103   2.0000      -0.978726       -26.6325
 104   2.0000      -0.974540       -26.5186
 105   2.0000      -0.971049       -26.4236
 106   2.0000      -0.956223       -26.0202
 107   2.0000      -0.940722       -25.5984
 108   2.0000      -0.925248       -25.1773
 109   2.0000      -0.916455       -24.9380
 110   2.0000      -0.912630       -24.8339
 111   2.0000      -0.907376       -24.6909
 112   2.0000      -0.896469       -24.3942
 113   2.0000      -0.888598       -24.1800
 114   2.0000      -0.881472       -23.9861
 115   2.0000      -0.872048       -23.7296
 116   2.0000      -0.863638       -23.5008
 117   2.0000      -0.854879       -23.2624
 118   2.0000      -0.832851       -22.6630
 119   2.0000      -0.829928       -22.5835
 120   2.0000      -0.808275       -21.9943
 121   2.0000      -0.802384       -21.8340
 122   2.0000      -0.785315       -21.3695
 123   2.0000      -0.784573       -21.3493
 124   2.0000      -0.776735       -21.1360
 125   2.0000      -0.774528       -21.0760
 126   2.0000      -0.768577       -20.9140
 127   2.0000      -0.760207       -20.6863
 128   2.0000      -0.742777       -20.2120
 129   2.0000      -0.714343       -19.4383
 130   2.0000      -0.711976       -19.3739
 131   2.0000      -0.710073       -19.3221
 132   2.0000      -0.707278       -19.2460
 133   2.0000      -0.700841       -19.0709
 134   2.0000      -0.693375       -18.8677
 135   2.0000      -0.692729       -18.8501
 136   2.0000      -0.688503       -18.7351
 137   2.0000      -0.678245       -18.4560
 138   2.0000      -0.661332       -17.9958
 139   2.0000      -0.645930       -17.5766
 140   2.0000      -0.640425       -17.4269
 141   2.0000      -0.636508       -17.3203
 142   2.0000      -0.632925       -17.2228
 143   2.0000      -0.630747       -17.1635
 144   2.0000      -0.623324       -16.9615
 145   2.0000      -0.611875       -16.6500
 146   2.0000      -0.608266       -16.5517
 147   2.0000      -0.607261       -16.5244
 148   2.0000      -0.599310       -16.3081
 149   2.0000      -0.595976       -16.2173
 150   2.0000      -0.593245       -16.1430
 151   2.0000      -0.586265       -15.9531
 152   2.0000      -0.570988       -15.5374
 153   2.0000      -0.568581       -15.4719
 154   2.0000      -0.563420       -15.3314
 155   2.0000      -0.562305       -15.3011
 156   2.0000      -0.561832       -15.2882
 157   2.0000      -0.560654       -15.2562
 158   2.0000      -0.554766       -15.0959
 159   2.0000      -0.552074       -15.0227
 160   2.0000      -0.551650       -15.0112
 161   2.0000      -0.545110       -14.8332
 162   2.0000      -0.543430       -14.7875
 163   2.0000      -0.541926       -14.7466
 164   2.0000      -0.536112       -14.5884
 165   2.0000      -0.535264       -14.5653
 166   2.0000      -0.530452       -14.4343
 167   2.0000      -0.525068       -14.2878
 168   2.0000      -0.520182       -14.1549
 169   2.0000      -0.517355       -14.0779
 170   2.0000      -0.511960       -13.9311
 171   2.0000      -0.508876       -13.8472
 172   2.0000      -0.506880       -13.7929
 173   2.0000      -0.502592       -13.6762
 174   2.0000      -0.502221       -13.6661
 175   2.0000      -0.498029       -13.5521
 176   2.0000      -0.493004       -13.4153
 177   2.0000      -0.491178       -13.3656
 178   2.0000      -0.489872       -13.3301
 179   2.0000      -0.482756       -13.1365
 180   2.0000      -0.479654       -13.0520
 181   2.0000      -0.476471       -12.9654
 182   2.0000      -0.471074       -12.8186
 183   2.0000      -0.466773       -12.7015
 184   2.0000      -0.463815       -12.6210
 185   2.0000      -0.461153       -12.5486
 186   2.0000      -0.460748       -12.5376
 187   2.0000      -0.458599       -12.4791
 188   2.0000      -0.456083       -12.4107
 189   2.0000      -0.455769       -12.4021
 190   2.0000      -0.449536       -12.2325
 191   2.0000      -0.446202       -12.1418
 192   2.0000      -0.440471       -11.9858
 193   2.0000      -0.439627       -11.9629
 194   2.0000      -0.438446       -11.9307
 195   2.0000      -0.436653       -11.8819
 196   2.0000      -0.435780       -11.8582
 197   2.0000      -0.431513       -11.7421
 198   2.0000      -0.426514       -11.6060
 199   2.0000      -0.425420       -11.5763
 200   2.0000      -0.423667       -11.5286
 201   2.0000      -0.422444       -11.4953
 202   2.0000      -0.421458       -11.4685
 203   2.0000      -0.414688       -11.2842
 204   2.0000      -0.411074       -11.1859
 205   2.0000      -0.410476       -11.1696
 206   2.0000      -0.406463       -11.0604
 207   2.0000      -0.403454       -10.9786
 208   2.0000      -0.398040       -10.8312
 209   2.0000      -0.397449       -10.8151
 210   2.0000      -0.393998       -10.7212
 211   2.0000      -0.382679       -10.4132
 212   2.0000      -0.378016       -10.2863
 213   2.0000      -0.374434       -10.1889
 214   2.0000      -0.370892       -10.0925
 215   2.0000      -0.365625        -9.9492
 216   2.0000      -0.363521        -9.8919
 217   2.0000      -0.357127        -9.7179
 218   2.0000      -0.352745        -9.5987
 219   2.0000      -0.349940        -9.5223
 220   2.0000      -0.345432        -9.3997
 221   2.0000      -0.329907        -8.9772
 222   2.0000      -0.320797        -8.7293
 223   2.0000      -0.320554        -8.7227
 224   2.0000      -0.314408        -8.5555
 225   2.0000      -0.312931        -8.5153
 226   2.0000      -0.302046        -8.2191
 227   2.0000      -0.297516        -8.0958
 228   2.0000      -0.279770        -7.6129
 229   2.0000      -0.264030        -7.1846
 230   0.0000      -0.099623        -2.7109
 231   0.0000      -0.096649        -2.6300
 232   0.0000      -0.073566        -2.0018
 233   0.0000      -0.071483        -1.9452
 234   0.0000      -0.052185        -1.4200

MULLIKEN ATOMIC CHARGES
-----------------------
   0 C :    0.173280
   1 O :   -0.148287
   2 C :   -0.021576
   3 C :    0.028845
   4 C :   -0.021207
   5 C :    0.054107
   6 C :   -0.006818
   7 C :   -0.002588
   8 Br:   -0.008477
   9 C :    0.322117
  10 C :   -0.329743
  11 C :   -0.190577
  12 N :    0.169801
  13 C :   -0.191820
  14 N :    0.178319
  15 C :   -0.065291
  16 C :    0.024542
  17 C :   -0.042969
  18 N :   -0.063966
  19 C :    0.121454
  20 C :   -0.091611
  21 N :   -0.038722
  22 N :   -0.088058
  23 C :   -0.095713
  24 S :    0.188847
  25 C :   -0.099684
  26 C :   -0.013251
  27 C :   -0.042053
  28 C :    0.070871
  29 N :   -0.171231
  30 C :    0.062427
  31 C :    0.065317
  32 C :    0.063818
  33 N :   -0.178402
  34 C :    0.009080
  35 C :    0.018744
  36 C :   -0.034642
  37 N :   -0.040657
  38 C :    0.069015
  39 C :   -0.050662
  40 N :   -0.046018
  41 N :   -0.051793
  42 C :    0.066365
  43 C :   -0.102403
  44 C :    0.136960
  45 O :   -0.129758
  46 C :   -0.012643
  47 C :    0.022680
  48 C :    0.281845
  49 C :   -0.300274
  50 C :   -0.185655
  51 N :    0.163346
  52 C :   -0.181185
  53 N :    0.165190
  54 C :   -0.021580
  55 C :    0.053683
  56 C :   -0.006210
  57 C :   -0.012362
  58 Br:   -0.014400
  59 H :    0.012141
  60 H :    0.011019
  61 H :    0.000965
  62 H :    0.059528
  63 H :    0.008628
  64 H :    0.012296
  65 H :    0.120129
  66 H :    0.102953
  67 H :   -0.006559
  68 H :    0.001539
  69 H :   -0.001247
  70 H :    0.000825
  71 H :   -0.000457
  72 H :    0.085519
  73 H :    0.093133
  74 H :    0.014680
  75 H :    0.003435
  76 H :    0.011088
  77 H :    0.029478
  78 H :    0.016675
  79 H :    0.009151
  80 H :    0.006709
Sum of atomic charges:   -0.0000000

LOEWDIN ATOMIC CHARGES
----------------------
   0 C :    0.100354
   1 O :   -0.130197
   2 C :   -0.040071
   3 C :   -0.013047
   4 C :    0.011777
   5 C :   -0.006718
   6 C :   -0.096177
   7 C :    0.003341
   8 Br:    0.124173
   9 C :    0.072150
  10 C :   -0.115986
  11 C :   -0.017961
  12 N :   -0.036537
  13 C :   -0.019507
  14 N :   -0.030048
  15 C :   -0.066585
  16 C :    0.097660
  17 C :   -0.001339
  18 N :   -0.087789
  19 C :    0.078790
  20 C :   -0.067700
  21 N :   -0.022776
  22 N :   -0.086170
  23 C :   -0.173809
  24 S :    0.483012
  25 C :   -0.179198
  26 C :   -0.037367
  27 C :   -0.057136
  28 C :    0.019536
  29 N :   -0.034243
  30 C :   -0.035366
  31 C :   -0.031927
  32 C :    0.021653
  33 N :   -0.104755
  34 C :    0.008197
  35 C :   -0.052153
  36 C :    0.023529
  37 N :   -0.055269
  38 C :    0.057998
  39 C :   -0.062791
  40 N :   -0.009735
  41 N :   -0.052320
  42 C :    0.055404
  43 C :   -0.057158
  44 C :    0.086733
  45 O :   -0.127973
  46 C :   -0.041673
  47 C :   -0.009249
  48 C :    0.074402
  49 C :   -0.113511
  50 C :   -0.018148
  51 N :   -0.040191
  52 C :   -0.013166
  53 N :   -0.050180
  54 C :    0.009677
  55 C :   -0.007643
  56 C :   -0.098302
  57 C :    0.002544
  58 Br:    0.119755
  59 H :    0.044501
  60 H :    0.042858
  61 H :    0.043670
  62 H :    0.055583
  63 H :    0.023689
  64 H :    0.030229
  65 H :    0.059439
  66 H :    0.062412
  67 H :    0.020594
  68 H :    0.022475
  69 H :    0.024513
  70 H :    0.024854
  71 H :    0.010756
  72 H :    0.050544
  73 H :    0.055303
  74 H :    0.033508
  75 H :    0.033773
  76 H :    0.030849
  77 H :    0.049653
  78 H :    0.044918
  79 H :    0.041782
  80 H :    0.045283

  Mayer bond orders larger than 0.100000
B(  0-C ,  1-O ) :   2.1682 B(  0-C ,  2-C ) :   0.9518 B(  0-C , 15-C ) :   0.9323
B(  2-C ,  3-C ) :   1.3290 B(  2-C ,  7-C ) :   1.3755 B(  3-C ,  4-C ) :   1.3558
B(  3-C ,  9-C ) :   1.0098 B(  4-C ,  5-C ) :   1.3923 B(  4-C , 59-H ) :   0.9837
B(  5-C ,  6-C ) :   1.3804 B(  5-C , 60-H ) :   0.9841 B(  6-C ,  7-C ) :   1.3443
B(  6-C ,  8-Br) :   0.9988 B(  7-C , 61-H ) :   1.0070 B(  9-C , 10-C ) :   1.6866
B(  9-C , 15-C ) :   1.0057 B( 10-C , 11-C ) :   1.1354 B( 10-C , 13-C ) :   1.1474
B( 11-C , 12-N ) :   2.9806 B( 13-C , 14-N ) :   2.9802 B( 15-C , 16-C ) :   1.8617
B( 16-C , 17-C ) :   0.9314 B( 16-C , 62-H ) :   0.9328 B( 17-C , 18-N ) :   1.4650
B( 17-C , 22-N ) :   1.5078 B( 18-N , 19-C ) :   1.5892 B( 19-C , 20-C ) :   1.2020
B( 19-C , 29-N ) :   0.1440 B( 19-C , 63-H ) :   0.9616 B( 20-C , 21-N ) :   1.6324
B( 20-C , 23-C ) :   1.0245 B( 21-N , 22-N ) :   1.3056 B( 23-C , 24-S ) :   1.1491
B( 23-C , 25-C ) :   0.1057 B( 23-C , 27-C ) :   1.5535 B( 24-S , 25-C ) :   1.1066
B( 25-C , 26-C ) :   1.4928 B( 25-C , 34-C ) :   1.1328 B( 26-C , 27-C ) :   1.3458
B( 26-C , 32-C ) :   1.0098 B( 27-C , 28-C ) :   0.9749 B( 28-C , 29-N ) :   1.0912
B( 28-C , 30-C ) :   1.0545 B( 28-C , 64-H ) :   0.8846 B( 29-N , 65-H ) :   0.9408
B( 29-N , 66-H ) :   0.9568 B( 30-C , 31-C ) :   1.1045 B( 30-C , 67-H ) :   0.9324
B( 30-C , 68-H ) :   0.9259 B( 31-C , 32-C ) :   1.0558 B( 31-C , 69-H ) :   0.9087
B( 31-C , 70-H ) :   0.9236 B( 32-C , 33-N ) :   1.1105 B( 32-C , 71-H ) :   0.8820
B( 33-N , 72-H ) :   0.9673 B( 33-N , 73-H ) :   0.9624 B( 34-C , 35-C ) :   1.6307
B( 34-C , 74-H ) :   0.9530 B( 35-C , 36-C ) :   1.1059 B( 35-C , 75-H ) :   0.9792
B( 36-C , 37-N ) :   1.4452 B( 36-C , 41-N ) :   1.4881 B( 37-N , 38-C ) :   1.6334
B( 38-C , 39-C ) :   1.2324 B( 38-C , 76-H ) :   0.9834 B( 39-C , 40-N ) :   1.4723
B( 39-C , 42-C ) :   1.0106 B( 40-N , 41-N ) :   1.3665 B( 42-C , 43-C ) :   1.7722
B( 42-C , 77-H ) :   0.9436 B( 43-C , 44-C ) :   0.9285 B( 43-C , 48-C ) :   1.0027
B( 44-C , 45-O ) :   2.2830 B( 44-C , 46-C ) :   0.9219 B( 46-C , 47-C ) :   1.3265
B( 46-C , 57-C ) :   1.3760 B( 47-C , 48-C ) :   1.0126 B( 47-C , 54-C ) :   1.3645
B( 48-C , 49-C ) :   1.6995 B( 49-C , 50-C ) :   1.1290 B( 49-C , 52-C ) :   1.1583
B( 50-C , 51-N ) :   2.9951 B( 52-C , 53-N ) :   3.0103 B( 54-C , 55-C ) :   1.3862
B( 54-C , 78-H ) :   0.9863 B( 55-C , 56-C ) :   1.3831 B( 55-C , 79-H ) :   0.9847
B( 56-C , 57-C ) :   1.3471 B( 56-C , 58-Br) :   0.9963 B( 57-C , 80-H ) :   1.0080

-----------------------------------------------------------------------------
         ABSORPTION SPECTRUM VIA TRANSITION ELECTRIC DIPOLE MOMENTS
-----------------------------------------------------------------------------
State   Energy  Wavelength   fosc         T2         TX        TY        TZ
        (cm-1)    (nm)                  (au**2)     (au)      (au)      (au)
-----------------------------------------------------------------------------
   0   18755.7    533.2   0.000304475   0.00534   0.03635  -0.04252  -0.04707
   1   20351.0    491.4   0.014384884   0.23270  -0.25910  -0.32847   0.24016
   2   20993.2    476.3   0.932400457  14.62174   2.18297   2.44373  -1.97094
   3   22582.1    442.8   0.001529159   0.02229  -0.13048   0.01102   0.07173
   4   24224.6    412.8   0.000169337   0.00230  -0.01838  -0.03932   0.02043
   5   24548.7    407.4   0.005293203   0.07098  -0.09470   0.10892  -0.22395
   6   25421.7    393.4   0.000151912   0.00197  -0.01219  -0.03305   0.02695
   7   26762.7    373.7   0.019163772   0.23574   0.48189  -0.05730   0.01548
   8   27918.2    358.2   0.485860540   5.72928  -0.72843  -2.14404   0.77574
   9   28395.4    352.2   0.101495025   1.17672  -0.14103  -0.79457   0.72490
  10   28749.4    347.8   0.071880619   0.82311  -0.17374   0.75499  -0.47214
  11   29728.4    336.4   0.046687193   0.51701   0.10714   0.64101  -0.30763
  12   29905.2    334.4   0.069838464   0.76882  -0.26018  -0.65126   0.52630
  13   30756.1    325.1   0.110738251   1.18534  -0.12759  -0.81291   0.71291
  14   31279.4    319.7   0.047196154   0.49673  -0.54702  -0.21543   0.38870
  15   31397.7    318.5   0.026878657   0.28183  -0.19289   0.36097   0.33812
  16   31640.2    316.1   0.076245506   0.79332   0.57993   0.66283  -0.13291
  17   31836.5    314.1   0.208712242   2.15823   0.95129   0.56514   0.96638
  18   32193.8    310.6   0.112080357   1.14613   0.38684   0.68902  -0.72231
  19   32225.0    310.3   0.068047746   0.69518  -0.71335  -0.40432  -0.15108
  20   32884.0    304.1   0.000646870   0.00648  -0.04198  -0.02972   0.06189
  21   32976.7    303.2   0.186747284   1.86433   0.26433   1.06245  -0.81588
  22   33042.5    302.6   0.064516060   0.64279  -0.38944   0.61025   0.34457
  23   33709.8    296.6   0.013678434   0.13358  -0.02868   0.17789   0.31799
  24   33824.8    295.6   0.089281631   0.86897   0.51654   0.06000  -0.77366
  25   33993.9    294.2   0.535780943   5.18875  -1.44414  -1.25179  -1.23944
  26   34117.7    293.1   0.107690814   1.03914   0.20922   0.09836  -0.99282
  27   34713.7    288.1   0.288568363   2.73668  -0.03193   1.23102  -1.10465
  28   34912.9    286.4   0.003824603   0.03606   0.07302   0.17425  -0.01922
  29   35911.9    278.5   0.013091291   0.12001   0.17957  -0.28858   0.06698
  30   36327.5    275.3   0.000435962   0.00395  -0.03689   0.04414   0.02533
  31   36525.4    273.8   0.029255578   0.26369   0.34012   0.17570  -0.34225
  32   36857.5    271.3   0.091362846   0.81605  -0.07133   0.89931   0.04698
  33   37215.3    268.7   0.181334442   1.60411   0.09673   1.01402  -0.75267
  34   37551.5    266.3   0.063227699   0.55431  -0.22864   0.65897  -0.26038
  35   38165.1    262.0   0.001447238   0.01248   0.00144   0.03215   0.10700
  36   38245.9    261.5   0.044274354   0.38110  -0.29306  -0.38950   0.37883
  37   38623.0    258.9   0.126175061   1.07548  -0.57883  -0.79972  -0.31762
  38   38982.1    256.5   0.019407904   0.16390   0.03013   0.39795   0.06808
  39   39176.7    255.3   0.003678237   0.03091  -0.14119  -0.01201   0.10406
  40   39649.0    252.2   0.096454716   0.80088  -0.31428   0.51325   0.66233
  41   39739.0    251.6   0.008969327   0.07431  -0.07693   0.11017  -0.23717
  42   40216.0    248.7   0.016641797   0.13623   0.04052   0.31773  -0.18341

FINAL SINGLE POINT ENERGY     -7963.940022221887

DIPOLE MOMENT
-------------
                                X             Y             Z
Electronic contribution:    -84.19265      -3.36015      51.05086
Nuclear contribution   :     84.17788       1.06977     -53.89959
                        -----------------------------------------
Total Dipole Moment    :     -0.01477      -2.29038      -2.84874
                        -----------------------------------------
Magnitude (a.u.)       :      3.65532
Magnitude (Debye)      :      9.29108

Rotational constants in cm-1:     0.001997     0.000264     0.000261
Rotational constants in MHz :    59.860538     7.918571     7.813011

                             ****ORCA TERMINATED NORMALLY****
TOTAL RUN TIME: 0 days 0 hours 7 minutes 3 seconds 831 msec
