                         Program Version 4.2.0 -  RELEASE  -
|  1> # ORCA input file
|  2> # SCF done       -183.033581618741          0.000871201247
|  3> ! CAM-B3LYP def2-SVP def2/J RIJCOSX Grid4 TightSCF
|  4> %maxcore 5000
|  5> %tddft
|  6>     Mode sTDDFT
|  7>     Ethresh 5.0
|  8>     maxcore 5000
|  9> end
| 10>
| 11> %pal
| 12>   nprocs 6
| 13>   end
| 14> * xyz 0 1
| 15>    C       12.38951        -4.54819         0.98482
| 16>    S       10.75822        -5.00625         1.20828
| 17>    C       10.26880        -3.35450         1.45452
| 18>    C       11.35760        -2.50856         1.35894
| 19>    C       12.57466        -3.19479         1.08968
| 20>    C       13.84578        -2.60109         0.94035
| 21>    N       14.89410        -2.15904         0.81284
| 22>    C       11.23093        -1.03220         1.53060
| 23>    F       10.38103        -0.48743         0.63085
| 24>    F       10.71965        -0.70418         2.73886
| 25>    F       12.37994        -0.37199         1.41412
| 26>    C        8.91670        -2.98929         1.71813
| 27>    C        7.90422        -3.87371         1.82353
| 28>    N        6.62370        -3.49479         2.08324
| 29>    C        5.55332        -4.31700         2.21923
| 30>    S        5.71079        -6.02866         2.02224
| 31>    C        4.01080        -6.20192         2.34034
| 32>    N        3.52275        -7.51829         2.34387
| 33>    O        2.35366        -7.69659         2.60513
| 34>    O        4.34366        -8.38538         2.09020
| 35>    C        3.36730        -5.02250         2.57180
| 36>    C        4.23922        -3.90780         2.51394
| 37>    C        3.86984        -2.55198         2.75433
| 38>    C        2.60235        -2.10772         2.98262
| 39>    C        2.30556        -0.76331         3.25745
| 40>    C        1.03186        -0.29609         3.48175
| 41>    C        0.63850         1.02790         3.79103
| 42>    C       -0.70674         1.17955         3.96014
| 43>    C       -1.43569        -0.01580         3.78507
| 44>    S       -0.37493        -1.34148         3.41150
| 45>    C       -2.80645        -0.22751         3.86556
| 46>    C       -3.83102         0.68381         4.16756
| 47>    C       -5.06864         0.10488         4.15279
| 48>    C       -5.07297        -1.27463         3.83478
| 49>    S       -3.44747        -1.82894         3.55616
| 50>    C       -6.24346        -2.01278         3.77305
| 51>    C       -6.49637        -3.35184         3.47072
| 52>    C       -5.54025        -4.35243         3.12294
| 53>    C       -5.92823        -5.71123         2.82253
| 54>    N       -5.02485        -6.54772         2.28742
| 55>    C       -3.77484        -6.17459         2.18463
| 56>    C       -3.34986        -4.90304         2.67652
| 57>    N       -4.25454        -4.02682         3.07836
| 58>    C       -1.98306        -4.55237         2.68612
| 59>    N       -0.86266        -4.30152         2.67346
| 60>    C       -2.85043        -7.02095         1.51941
| 61>    N       -2.08445        -7.65129         0.94825
| 62>    C       -7.25087        -6.16412         2.99229
| 63>    C       -8.21468        -5.17418         3.27583
| 64>    C       -7.85004        -3.80170         3.50314
| 65>    N       -8.91144        -3.04513         3.75831
| 66>    S      -10.23739        -3.95950         3.71522
| 67>    N       -9.52812        -5.36668         3.37527
| 68>    C       -7.62137        -7.53523         2.85643
| 69>    S       -9.23067        -7.97563         2.40307
| 70>    C       -8.85943        -9.67286         2.46592
| 71>    C       -7.54419        -9.87225         2.82420
| 72>    C       -6.83848        -8.66343         3.07026
| 73>    C       -5.56258        -8.60708         3.66173
| 74>    N       -4.58294        -8.57046         4.25868
| 75>    C       -6.87655       -11.20792         2.90222
| 76>    F       -7.28325       -12.04471         1.92985
| 77>    F       -5.54825       -11.13571         2.78991
| 78>    F       -7.12264       -11.84597         4.06773
| 79>    C       -9.93167       -10.59889         2.18160
| 80>    C      -10.07546       -11.81897         2.68844
| 81>    H       13.13919        -5.28828         0.78721
| 82>    H        8.71556        -1.93468         1.84150
| 83>    H        8.06533        -4.93624         1.70821
| 84>    H        6.45585        -2.50128         2.19146
| 85>    H        2.31343        -4.97342         2.77878
| 86>    H        4.66535        -1.81650         2.77000
| 87>    H        1.77212        -2.79906         2.95657
| 88>    H        3.11784        -0.04906         3.30597
| 89>    H        1.35718         1.82329         3.88111
| 90>    H       -1.18851         2.11038         4.19991
| 91>    H       -3.64935         1.72100         4.38723
| 92>    H       -5.98436         0.63076         4.35940
| 93>    H       -7.14310        -1.45058         3.99873
| 94>    H      -10.69757       -10.19346         1.53262
| 95>    H       -9.37781       -12.25522         3.38023
| 96>    H      -10.92298       -12.42599         2.42270
| 97> *
| 98>
| 99>                          ****END OF INPUT****

CARTESIAN COORDINATES (ANGSTROEM)
---------------------------------
  C     12.389510   -4.548190    0.984820
  S     10.758220   -5.006250    1.208280
  C     10.268800   -3.354500    1.454520
  C     11.357600   -2.508560    1.358940
  C     12.574660   -3.194790    1.089680
  C     13.845780   -2.601090    0.940350
  N     14.894100   -2.159040    0.812840
  C     11.230930   -1.032200    1.530600
  F     10.381030   -0.487430    0.630850
  F     10.719650   -0.704180    2.738860
  F     12.379940   -0.371990    1.414120
  C      8.916700   -2.989290    1.718130
  C      7.904220   -3.873710    1.823530
  N      6.623700   -3.494790    2.083240
  C      5.553320   -4.317000    2.219230
  S      5.710790   -6.028660    2.022240
  C      4.010800   -6.201920    2.340340
  N      3.522750   -7.518290    2.343870
  O      2.353660   -7.696590    2.605130
  O      4.343660   -8.385380    2.090200
  C      3.367300   -5.022500    2.571800
  C      4.239220   -3.907800    2.513940
  C      3.869840   -2.551980    2.754330
  C      2.602350   -2.107720    2.982620
  C      2.305560   -0.763310    3.257450
  C      1.031860   -0.296090    3.481750
  C      0.638500    1.027900    3.791030
  C     -0.706740    1.179550    3.960140
  C     -1.435690   -0.015800    3.785070
  S     -0.374930   -1.341480    3.411500
  C     -2.806450   -0.227510    3.865560
  C     -3.831020    0.683810    4.167560
  C     -5.068640    0.104880    4.152790
  C     -5.072970   -1.274630    3.834780
  S     -3.447470   -1.828940    3.556160
  C     -6.243460   -2.012780    3.773050
  C     -6.496370   -3.351840    3.470720
  C     -5.540250   -4.352430    3.122940
  C     -5.928230   -5.711230    2.822530
  N     -5.024850   -6.547720    2.287420
  C     -3.774840   -6.174590    2.184630
  C     -3.349860   -4.903040    2.676520
  N     -4.254540   -4.026820    3.078360
  C     -1.983060   -4.552370    2.686120
  N     -0.862660   -4.301520    2.673460
  C     -2.850430   -7.020950    1.519410
  N     -2.084450   -7.651290    0.948250
  C     -7.250870   -6.164120    2.992290
  C     -8.214680   -5.174180    3.275830
  C     -7.850040   -3.801700    3.503140
  N     -8.911440   -3.045130    3.758310
  S    -10.237390   -3.959500    3.715220
  N     -9.528120   -5.366680    3.375270
  C     -7.621370   -7.535230    2.856430
  S     -9.230670   -7.975630    2.403070
  C     -8.859430   -9.672860    2.465920
  C     -7.544190   -9.872250    2.824200
  C     -6.838480   -8.663430    3.070260
  C     -5.562580   -8.607080    3.661730
  N     -4.582940   -8.570460    4.258680
  C     -6.876550  -11.207920    2.902220
  F     -7.283250  -12.044710    1.929850
  F     -5.548250  -11.135710    2.789910
  F     -7.122640  -11.845970    4.067730
  C     -9.931670  -10.598890    2.181600
  C    -10.075460  -11.818970    2.688440
  H     13.139190   -5.288280    0.787210
  H      8.715560   -1.934680    1.841500
  H      8.065330   -4.936240    1.708210
  H      6.455850   -2.501280    2.191460
  H      2.313430   -4.973420    2.778780
  H      4.665350   -1.816500    2.770000
  H      1.772120   -2.799060    2.956570
  H      3.117840   -0.049060    3.305970
  H      1.357180    1.823290    3.881110
  H     -1.188510    2.110380    4.199910
  H     -3.649350    1.721000    4.387230
  H     -5.984360    0.630760    4.359400
  H     -7.143100   -1.450580    3.998730
  H    -10.697570  -10.193460    1.532620
  H     -9.377810  -12.255220    3.380230
  H    -10.922980  -12.425990    2.422700

 Total Charge           Charge          ....    0
 Multiplicity           Mult            ....    1
 Number of Electrons    NEL             ....  504
 Basis Dimension        Dim             .... 1028

ORBITAL ENERGIES
----------------

  NO   OCC          E(Eh)            E(eV)
   0   2.0000     -89.026284     -2422.5284
   1   2.0000     -88.996894     -2421.7286
   2   2.0000     -88.996586     -2421.7202
   3   2.0000     -88.967377     -2420.9254
   4   2.0000     -88.966969     -2420.9143
   5   2.0000     -88.960479     -2420.7377
   6   2.0000     -24.814904      -675.2479
   7   2.0000     -24.807863      -675.0563
   8   2.0000     -24.807663      -675.0508
   9   2.0000     -24.783356      -674.3894
  10   2.0000     -24.780549      -674.3130
  11   2.0000     -24.779681      -674.2894
  12   2.0000     -19.239798      -523.5415
  13   2.0000     -19.238551      -523.5076
  14   2.0000     -14.650961      -398.6729
  15   2.0000     -14.507738      -394.7756
  16   2.0000     -14.454857      -393.3366
  17   2.0000     -14.445816      -393.0906
  18   2.0000     -14.437129      -392.8543
  19   2.0000     -14.436676      -392.8419
  20   2.0000     -14.422976      -392.4691
  21   2.0000     -14.412833      -392.1931
  22   2.0000     -14.411152      -392.1474
  23   2.0000     -14.383053      -391.3828
  24   2.0000     -10.533961      -286.6437
  25   2.0000     -10.504760      -285.8490
  26   2.0000     -10.386777      -282.6386
  27   2.0000     -10.365620      -282.0629
  28   2.0000     -10.362546      -281.9792
  29   2.0000     -10.357479      -281.8413
  30   2.0000     -10.350085      -281.6401
  31   2.0000     -10.348448      -281.5956
  32   2.0000     -10.341169      -281.3975
  33   2.0000     -10.339304      -281.3468
  34   2.0000     -10.338610      -281.3279
  35   2.0000     -10.336439      -281.2688
  36   2.0000     -10.336423      -281.2684
  37   2.0000     -10.331190      -281.1260
  38   2.0000     -10.330564      -281.1089
  39   2.0000     -10.330387      -281.1041
  40   2.0000     -10.328110      -281.0422
  41   2.0000     -10.322113      -280.8790
  42   2.0000     -10.321244      -280.8553
  43   2.0000     -10.319828      -280.8168
  44   2.0000     -10.317671      -280.7581
  45   2.0000     -10.317543      -280.7546
  46   2.0000     -10.316735      -280.7326
  47   2.0000     -10.314777      -280.6793
  48   2.0000     -10.314594      -280.6744
  49   2.0000     -10.314503      -280.6719
  50   2.0000     -10.313997      -280.6581
  51   2.0000     -10.312353      -280.6134
  52   2.0000     -10.311225      -280.5827
  53   2.0000     -10.309295      -280.5302
  54   2.0000     -10.308668      -280.5131
  55   2.0000     -10.304401      -280.3970
  56   2.0000     -10.304030      -280.3869
  57   2.0000     -10.303487      -280.3721
  58   2.0000     -10.302204      -280.3372
  59   2.0000     -10.294583      -280.1298
  60   2.0000     -10.293699      -280.1058
  61   2.0000     -10.293107      -280.0897
  62   2.0000     -10.291910      -280.0571
  63   2.0000     -10.288845      -279.9737
  64   2.0000     -10.279684      -279.7244
  65   2.0000     -10.266873      -279.3758
  66   2.0000      -8.117982      -220.9015
  67   2.0000      -8.092858      -220.2179
  68   2.0000      -8.092055      -220.1960
  69   2.0000      -8.063360      -219.4152
  70   2.0000      -8.059726      -219.3163
  71   2.0000      -8.055599      -219.2040
  72   2.0000      -6.089314      -165.6986
  73   2.0000      -6.081577      -165.4881
  74   2.0000      -6.080132      -165.4488
  75   2.0000      -6.062062      -164.9571
  76   2.0000      -6.061848      -164.9513
  77   2.0000      -6.057746      -164.8396
  78   2.0000      -6.057296      -164.8274
  79   2.0000      -6.055208      -164.7706
  80   2.0000      -6.053370      -164.7206
  81   2.0000      -6.032902      -164.1636
  82   2.0000      -6.029549      -164.0724
  83   2.0000      -6.028741      -164.0504
  84   2.0000      -6.024907      -163.9461
  85   2.0000      -6.024863      -163.9449
  86   2.0000      -6.024600      -163.9377
  87   2.0000      -6.021392      -163.8504
  88   2.0000      -6.020470      -163.8253
  89   2.0000      -6.017895      -163.7552
  90   2.0000      -1.400791       -38.1175
  91   2.0000      -1.372207       -37.3396
  92   2.0000      -1.321577       -35.9619
  93   2.0000      -1.306264       -35.5453
  94   2.0000      -1.296778       -35.2871
  95   2.0000      -1.275131       -34.6981
  96   2.0000      -1.270695       -34.5774
  97   2.0000      -1.141651       -31.0659
  98   2.0000      -1.128211       -30.7002
  99   2.0000      -1.113796       -30.3079
 100   2.0000      -1.106935       -30.1212
 101   2.0000      -1.034484       -28.1497
 102   2.0000      -1.031578       -28.0707
 103   2.0000      -1.016705       -27.6659
 104   2.0000      -1.015620       -27.6364
 105   2.0000      -1.004864       -27.3437
 106   2.0000      -1.002271       -27.2732
 107   2.0000      -0.994364       -27.0580
 108   2.0000      -0.992094       -26.9962
 109   2.0000      -0.987965       -26.8839
 110   2.0000      -0.983361       -26.7586
 111   2.0000      -0.966729       -26.3060
 112   2.0000      -0.962098       -26.1800
 113   2.0000      -0.944453       -25.6999
 114   2.0000      -0.929995       -25.3064
 115   2.0000      -0.911555       -24.8047
 116   2.0000      -0.902560       -24.5599
 117   2.0000      -0.899829       -24.4856
 118   2.0000      -0.895996       -24.3813
 119   2.0000      -0.889728       -24.2107
 120   2.0000      -0.882353       -24.0100
 121   2.0000      -0.873553       -23.7706
 122   2.0000      -0.867097       -23.5949
 123   2.0000      -0.858488       -23.3606
 124   2.0000      -0.856688       -23.3117
 125   2.0000      -0.846654       -23.0386
 126   2.0000      -0.837702       -22.7950
 127   2.0000      -0.824721       -22.4418
 128   2.0000      -0.814617       -22.1668
 129   2.0000      -0.808518       -22.0009
 130   2.0000      -0.800570       -21.7846
 131   2.0000      -0.788937       -21.4681
 132   2.0000      -0.779877       -21.2215
 133   2.0000      -0.767969       -20.8975
 134   2.0000      -0.750722       -20.4282
 135   2.0000      -0.747299       -20.3350
 136   2.0000      -0.736973       -20.0541
 137   2.0000      -0.724593       -19.7172
 138   2.0000      -0.723337       -19.6830
 139   2.0000      -0.713324       -19.4105
 140   2.0000      -0.713079       -19.4039
 141   2.0000      -0.707722       -19.2581
 142   2.0000      -0.698581       -19.0094
 143   2.0000      -0.689590       -18.7647
 144   2.0000      -0.686135       -18.6707
 145   2.0000      -0.683547       -18.6003
 146   2.0000      -0.682252       -18.5650
 147   2.0000      -0.678128       -18.4528
 148   2.0000      -0.673474       -18.3262
 149   2.0000      -0.669367       -18.2144
 150   2.0000      -0.658781       -17.9263
 151   2.0000      -0.655860       -17.8469
 152   2.0000      -0.653516       -17.7831
 153   2.0000      -0.649265       -17.6674
 154   2.0000      -0.645675       -17.5697
 155   2.0000      -0.641105       -17.4453
 156   2.0000      -0.637088       -17.3360
 157   2.0000      -0.632831       -17.2202
 158   2.0000      -0.630881       -17.1671
 159   2.0000      -0.628069       -17.0906
 160   2.0000      -0.620199       -16.8765
 161   2.0000      -0.617665       -16.8075
 162   2.0000      -0.610311       -16.6074
 163   2.0000      -0.602185       -16.3863
 164   2.0000      -0.595291       -16.1987
 165   2.0000      -0.590078       -16.0569
 166   2.0000      -0.587996       -16.0002
 167   2.0000      -0.578808       -15.7502
 168   2.0000      -0.573287       -15.5999
 169   2.0000      -0.569225       -15.4894
 170   2.0000      -0.566577       -15.4173
 171   2.0000      -0.562403       -15.3038
 172   2.0000      -0.560725       -15.2581
 173   2.0000      -0.556019       -15.1300
 174   2.0000      -0.555621       -15.1192
 175   2.0000      -0.548506       -14.9256
 176   2.0000      -0.547353       -14.8942
 177   2.0000      -0.545688       -14.8489
 178   2.0000      -0.544344       -14.8124
 179   2.0000      -0.539457       -14.6794
 180   2.0000      -0.536506       -14.5991
 181   2.0000      -0.532619       -14.4933
 182   2.0000      -0.530571       -14.4376
 183   2.0000      -0.529721       -14.4144
 184   2.0000      -0.522167       -14.2089
 185   2.0000      -0.517598       -14.0845
 186   2.0000      -0.516728       -14.0609
 187   2.0000      -0.516488       -14.0544
 188   2.0000      -0.515505       -14.0276
 189   2.0000      -0.510777       -13.8989
 190   2.0000      -0.507826       -13.8187
 191   2.0000      -0.502881       -13.6841
 192   2.0000      -0.500597       -13.6219
 193   2.0000      -0.498012       -13.5516
 194   2.0000      -0.496853       -13.5201
 195   2.0000      -0.495618       -13.4864
 196   2.0000      -0.494363       -13.4523
 197   2.0000      -0.493936       -13.4407
 198   2.0000      -0.490856       -13.3569
 199   2.0000      -0.486570       -13.2402
 200   2.0000      -0.485102       -13.2003
 201   2.0000      -0.484296       -13.1784
 202   2.0000      -0.481914       -13.1136
 203   2.0000      -0.476536       -12.9672
 204   2.0000      -0.473476       -12.8839
 205   2.0000      -0.470297       -12.7974
 206   2.0000      -0.467567       -12.7232
 207   2.0000      -0.466674       -12.6989
 208   2.0000      -0.465173       -12.6580
 209   2.0000      -0.462202       -12.5771
 210   2.0000      -0.459289       -12.4979
 211   2.0000      -0.457171       -12.4402
 212   2.0000      -0.451824       -12.2947
 213   2.0000      -0.451062       -12.2740
 214   2.0000      -0.449126       -12.2213
 215   2.0000      -0.440683       -11.9916
 216   2.0000      -0.440411       -11.9842
 217   2.0000      -0.437173       -11.8961
 218   2.0000      -0.436547       -11.8791
 219   2.0000      -0.435624       -11.8539
 220   2.0000      -0.431866       -11.7517
 221   2.0000      -0.429129       -11.6772
 222   2.0000      -0.422465       -11.4959
 223   2.0000      -0.418228       -11.3806
 224   2.0000      -0.415543       -11.3075
 225   2.0000      -0.415473       -11.3056
 226   2.0000      -0.413283       -11.2460
 227   2.0000      -0.410317       -11.1653
 228   2.0000      -0.407680       -11.0935
 229   2.0000      -0.402469       -10.9517
 230   2.0000      -0.398018       -10.8306
 231   2.0000      -0.394425       -10.7328
 232   2.0000      -0.385877       -10.5002
 233   2.0000      -0.385709       -10.4957
 234   2.0000      -0.378522       -10.3001
 235   2.0000      -0.368517       -10.0279
 236   2.0000      -0.367691       -10.0054
 237   2.0000      -0.367620       -10.0034
 238   2.0000      -0.362959        -9.8766
 239   2.0000      -0.361376        -9.8336
 240   2.0000      -0.356830        -9.7098
 241   2.0000      -0.353614        -9.6223
 242   2.0000      -0.341433        -9.2909
 243   2.0000      -0.337551        -9.1852
 244   2.0000      -0.336379        -9.1533
 245   2.0000      -0.331407        -9.0180
 246   2.0000      -0.326209        -8.8766
 247   2.0000      -0.319341        -8.6897
 248   2.0000      -0.303140        -8.2489
 249   2.0000      -0.283593        -7.7169
 250   2.0000      -0.263304        -7.1649
 251   2.0000      -0.219696        -5.9782
 252   0.0000      -0.126358        -3.4384
 253   0.0000      -0.078030        -2.1233
 254   0.0000      -0.067368        -1.8332
 255   0.0000      -0.042460        -1.1554
 256   0.0000      -0.040322        -1.0972

MULLIKEN ATOMIC CHARGES
-----------------------
   0 C :   -0.054581
   1 S :    0.151010
   2 C :   -0.139638
   3 C :   -0.017412
   4 C :   -0.085900
   5 C :   -0.189874
   6 N :    0.145018
   7 C :    0.513954
   8 F :   -0.172445
   9 F :   -0.172750
  10 F :   -0.127854
  11 C :    0.009624
  12 C :    0.053104
  13 N :   -0.019208
  14 C :   -0.101736
  15 S :    0.156192
  16 C :    0.004817
  17 N :    0.277533
  18 O :   -0.221458
  19 O :   -0.267905
  20 C :    0.016341
  21 C :    0.120394
  22 C :   -0.030141
  23 C :   -0.011170
  24 C :    0.017075
  25 C :   -0.033317
  26 C :    0.054731
  27 C :    0.019361
  28 C :   -0.026978
  29 S :    0.131758
  30 C :   -0.036449
  31 C :    0.044724
  32 C :    0.014548
  33 C :    0.037895
  34 S :    0.130099
  35 C :   -0.132371
  36 C :    0.120790
  37 C :   -0.013503
  38 C :   -0.045840
  39 N :    0.009373
  40 C :   -0.095074
  41 C :   -0.092631
  42 N :   -0.035618
  43 C :   -0.212320
  44 N :    0.187204
  45 C :   -0.212786
  46 N :    0.235671
  47 C :    0.096578
  48 C :   -0.005509
  49 C :   -0.006019
  50 N :   -0.275295
  51 S :    0.508747
  52 N :   -0.302154
  53 C :   -0.181973
  54 S :    0.198676
  55 C :   -0.126971
  56 C :   -0.066145
  57 C :    0.014225
  58 C :   -0.253695
  59 N :    0.141371
  60 C :    0.512120
  61 F :   -0.164129
  62 F :   -0.140196
  63 F :   -0.167519
  64 C :    0.012343
  65 C :   -0.004125
  66 H :    0.046144
  67 H :    0.008867
  68 H :    0.041515
  69 H :    0.140507
  70 H :    0.032519
  71 H :   -0.033433
  72 H :    0.034913
  73 H :   -0.007245
  74 H :   -0.001738
  75 H :   -0.005962
  76 H :   -0.012349
  77 H :   -0.006152
  78 H :    0.000389
  79 H :    0.002293
  80 H :    0.038202
  81 H :    0.028945
Sum of atomic charges:   -0.0000000

LOEWDIN ATOMIC CHARGES
----------------------
   0 C :   -0.143620
   1 S :    0.477425
   2 C :   -0.136056
   3 C :   -0.116220
   4 C :   -0.090553
   5 C :   -0.041293
   6 N :   -0.039167
   7 C :    0.172149
   8 F :   -0.071804
   9 F :   -0.072060
  10 F :   -0.027357
  11 C :   -0.093864
  12 C :    0.035113
  13 N :    0.049715
  14 C :   -0.094018
  15 S :    0.460655
  16 C :   -0.199321
  17 N :    0.272047
  18 O :   -0.189300
  19 O :   -0.233958
  20 C :    0.016357
  21 C :   -0.110745
  22 C :    0.001358
  23 C :   -0.034852
  24 C :   -0.009613
  25 C :   -0.161895
  26 C :   -0.006770
  27 C :   -0.039586
  28 C :   -0.138844
  29 S :    0.442991
  30 C :   -0.213996
  31 C :   -0.017050
  32 C :   -0.041415
  33 C :   -0.120845
  34 S :    0.480535
  35 C :   -0.045149
  36 C :   -0.017799
  37 C :   -0.009429
  38 C :    0.012501
  39 N :   -0.005572
  40 C :   -0.003117
  41 C :   -0.061673
  42 N :   -0.029840
  43 C :   -0.028888
  44 N :   -0.059606
  45 C :   -0.029284
  46 N :   -0.005156
  47 C :   -0.098955
  48 C :   -0.040976
  49 C :   -0.048336
  50 N :   -0.276143
  51 S :    0.637311
  52 N :   -0.311452
  53 C :   -0.130364
  54 S :    0.503377
  55 C :   -0.152763
  56 C :   -0.106346
  57 C :   -0.091671
  58 C :   -0.036060
  59 N :   -0.073576
  60 C :    0.172833
  61 F :   -0.059612
  62 F :   -0.035312
  63 F :   -0.069291
  64 C :   -0.055713
  65 C :   -0.012189
  66 H :    0.039347
  67 H :    0.033126
  68 H :    0.023325
  69 H :    0.098146
  70 H :    0.054485
  71 H :    0.022345
  72 H :    0.033257
  73 H :    0.035979
  74 H :    0.037592
  75 H :    0.035033
  76 H :    0.031609
  77 H :    0.035056
  78 H :    0.043099
  79 H :    0.030117
  80 H :    0.022611
  81 H :    0.028979

  Mayer bond orders larger than 0.100000
B(  0-C ,  1-S ) :   1.1633 B(  0-C ,  4-C ) :   1.5817 B(  0-C , 66-H ) :   0.9726
B(  1-S ,  2-C ) :   1.1508 B(  2-C ,  3-C ) :   1.5089 B(  2-C , 11-C ) :   1.1767
B(  3-C ,  4-C ) :   1.2785 B(  3-C ,  7-C ) :   0.9406 B(  4-C ,  5-C ) :   1.1000
B(  5-C ,  6-N ) :   3.0463 B(  7-C ,  8-F ) :   1.1499 B(  7-C ,  9-F ) :   1.1503
B(  7-C , 10-F ) :   1.1900 B( 11-C , 12-C ) :   1.6588 B( 11-C , 67-H ) :   0.9456
B( 12-C , 13-N ) :   1.1389 B( 12-C , 68-H ) :   0.9634 B( 13-N , 14-C ) :   1.2318
B( 13-N , 69-H ) :   0.9130 B( 14-C , 15-S ) :   1.1397 B( 14-C , 21-C ) :   1.3337
B( 15-S , 16-C ) :   1.0596 B( 16-C , 17-N ) :   0.9586 B( 16-C , 20-C ) :   1.5385
B( 17-N , 18-O ) :   1.5541 B( 17-N , 19-O ) :   1.5009 B( 18-O , 19-O ) :   0.2645
B( 20-C , 21-C ) :   1.2001 B( 20-C , 70-H ) :   0.9968 B( 21-C , 22-C ) :   1.0881
B( 22-C , 23-C ) :   1.6411 B( 22-C , 71-H ) :   0.9767 B( 23-C , 24-C ) :   1.1673
B( 23-C , 72-H ) :   0.9702 B( 24-C , 25-C ) :   1.5238 B( 24-C , 73-H ) :   0.9861
B( 25-C , 26-C ) :   1.1598 B( 25-C , 29-S ) :   1.0378 B( 26-C , 27-C ) :   1.5532
B( 26-C , 74-H ) :   0.9999 B( 27-C , 28-C ) :   1.2179 B( 27-C , 75-H ) :   0.9960
B( 28-C , 29-S ) :   1.1095 B( 28-C , 30-C ) :   1.4010 B( 30-C , 31-C ) :   1.2511
B( 30-C , 34-S ) :   1.0070 B( 31-C , 32-C ) :   1.5011 B( 31-C , 76-H ) :   0.9933
B( 32-C , 33-C ) :   1.2178 B( 32-C , 77-H ) :   1.0029 B( 33-C , 34-S ) :   1.1127
B( 33-C , 35-C ) :   1.3431 B( 34-S , 42-N ) :   0.1061 B( 35-C , 36-C ) :   1.3854
B( 35-C , 78-H ) :   0.9561 B( 36-C , 37-C ) :   1.1302 B( 36-C , 49-C ) :   1.1252
B( 37-C , 38-C ) :   1.0952 B( 37-C , 42-N ) :   1.4725 B( 38-C , 39-N ) :   1.4052
B( 38-C , 47-C ) :   1.3207 B( 39-N , 40-C ) :   1.6844 B( 40-C , 41-C ) :   1.2417
B( 40-C , 45-C ) :   1.1592 B( 41-C , 42-N ) :   1.5495 B( 41-C , 43-C ) :   1.1548
B( 43-C , 44-N ) :   2.9756 B( 45-C , 46-N ) :   3.0526 B( 47-C , 48-C ) :   1.1900
B( 47-C , 53-C ) :   1.1199 B( 48-C , 49-C ) :   1.1244 B( 48-C , 52-N ) :   1.5352
B( 49-C , 50-N ) :   1.5761 B( 50-N , 51-S ) :   1.2594 B( 50-N , 52-N ) :   0.1362
B( 51-S , 52-N ) :   1.2273 B( 53-C , 54-S ) :   1.1710 B( 53-C , 57-C ) :   1.4915
B( 54-S , 55-C ) :   1.1206 B( 55-C , 56-C ) :   1.5554 B( 55-C , 64-C ) :   1.0665
B( 56-C , 57-C ) :   1.2795 B( 56-C , 60-C ) :   0.9360 B( 57-C , 58-C ) :   1.1269
B( 58-C , 59-N ) :   2.9755 B( 60-C , 61-F ) :   1.1619 B( 60-C , 62-F ) :   1.1761
B( 60-C , 63-F ) :   1.1404 B( 64-C , 65-C ) :   1.9605 B( 64-C , 79-H ) :   0.9490
B( 65-C , 80-H ) :   0.9532 B( 65-C , 81-H ) :   0.9483

-----------------------------------------------------------------------------
         ABSORPTION SPECTRUM VIA TRANSITION ELECTRIC DIPOLE MOMENTS
-----------------------------------------------------------------------------
State   Energy  Wavelength   fosc         T2         TX        TY        TZ
        (cm-1)    (nm)                  (au**2)     (au)      (au)      (au)
-----------------------------------------------------------------------------
   0    6728.8   1486.2   0.554672792  27.13794   4.66117   2.32547   0.05993
   1   16068.5    622.3   0.192402671   3.94196   1.56353  -1.17845  -0.32956
   2   16703.8    598.7   0.682908060  13.45933  -3.26426   1.54885   0.63641
   3   21298.3    469.5   0.051835740   0.80123  -0.07398   0.84426   0.28808
   4   21541.1    464.2   0.249962624   3.82018  -1.90164  -0.10963   0.43810
   5   22128.1    451.9   0.190171947   2.82930  -1.52177  -0.70091   0.14911
   6   23136.8    432.2   0.144269648   2.05280  -0.01532  -1.42508  -0.14740
   7   24238.4    412.6   0.003554764   0.04828  -0.04815  -0.05439   0.20738
   8   24983.6    400.3   0.037838940   0.49861   0.67236  -0.16917  -0.13388
   9   26425.9    378.4   0.392712659   4.89239  -1.30223   1.68717   0.59164
  10   26889.0    371.9   0.035663148   0.43664  -0.57316  -0.29809   0.13880
  11   27664.1    361.5   0.032488197   0.38662  -0.61682   0.05191   0.05878
  12   28173.0    354.9   0.696884992   8.14335   2.27610   1.70983  -0.19795
  13   28656.8    349.0   0.130714759   1.50166  -0.22496   1.19534   0.14907
  14   29150.1    343.1   0.082796270   0.93507  -0.95182  -0.01085   0.17030
  15   29790.1    335.7   0.117973176   1.30373  -0.60364  -0.96839  -0.03960
  16   30332.4    329.7   0.473008630   5.13378  -1.24399   1.83714   0.45954
  17   31566.8    316.8   0.003025082   0.03155  -0.11407   0.03863   0.13056
  18   31993.2    312.6   0.082361301   0.84750  -0.44258  -0.79821  -0.12039
  19   32066.4    311.9   0.023589177   0.24218  -0.47996  -0.01385   0.10782
  20   32201.5    310.5   0.029422625   0.30080   0.28324   0.46911   0.02254
  21   33215.1    301.1   0.221806568   2.19844  -1.36273  -0.52231   0.26188
  22   33651.6    297.2   0.000518540   0.00507   0.02365   0.04068   0.05347
  23   34174.4    292.6   0.088663268   0.85412  -0.65020  -0.65503   0.04785
  24   34416.5    290.6   0.083104036   0.79493   0.85020   0.21027  -0.16697
  25   34931.0    286.3   0.004529653   0.04269  -0.20389  -0.03315   0.00450
  26   35050.5    285.3   0.016771261   0.15752   0.38368   0.03503  -0.09532
  27   35223.9    283.9   0.003346936   0.03128  -0.15127   0.03677  -0.08395
  28   35438.2    282.2   0.005685538   0.05282  -0.10762   0.04269  -0.19853
  29   35751.9    279.7   0.022703469   0.20906  -0.42735  -0.14822  -0.06681
  30   36689.1    272.6   0.063143317   0.56659   0.74574   0.08807  -0.05191
  31   36809.7    271.7   0.206190191   1.84409  -1.24075   0.50187   0.22965
  32   37598.4    266.0   0.001982268   0.01736   0.01501   0.10264  -0.08122
  33   38445.6    260.1   0.009521964   0.08154  -0.23443  -0.16165   0.02122
  34   38612.4    259.0   0.038748781   0.33037   0.09769  -0.56495  -0.04076
  35   38813.7    257.6   0.039666414   0.33644   0.57767  -0.05156  -0.00922
  36   39042.5    256.1   0.016176953   0.13641  -0.02822   0.36810  -0.01053
  37   39321.5    254.3   0.008484912   0.07104   0.21104  -0.14830   0.06715
  38   39699.3    251.9   0.000214739   0.00178   0.02267   0.02261   0.02749
  39   39932.4    250.4   0.064040166   0.52796   0.64916   0.32588  -0.01905
  40   40039.2    249.8   0.012277310   0.10095  -0.26479  -0.16026   0.07177
  41   40297.4    248.2   0.042784967   0.34953   0.37803  -0.41234  -0.19134

FINAL SINGLE POINT ENERGY     -5291.801087325018

DIPOLE MOMENT
-------------
                                X             Y             Z
Electronic contribution:      8.10856     -22.53084      -5.53055
Nuclear contribution   :     -8.84022      27.50894       5.99135
                        -----------------------------------------
Total Dipole Moment    :     -0.73166       4.97811       0.46080
                        -----------------------------------------
Magnitude (a.u.)       :      5.05265
Magnitude (Debye)      :     12.84281

Rotational constants in cm-1:     0.001697     0.000293     0.000252
Rotational constants in MHz :    50.867078     8.776038     7.552263

                             ****ORCA TERMINATED NORMALLY****
TOTAL RUN TIME: 0 days 0 hours 16 minutes 13 seconds 21 msec
