                         Program Version 4.2.0 -  RELEASE  -
|  1> # ORCA input file
|  2> # SCF done       -188.814817870694          0.000582491384
|  3> ! CAM-B3LYP def2-SVP def2/J RIJCOSX Grid4 TightSCF
|  4> %maxcore 5000
|  5> %tddft
|  6>     Mode sTDDFT
|  7>     Ethresh 5.0
|  8>     maxcore 5000
|  9> end
| 10>
| 11> %pal
| 12>   nprocs 6
| 13>   end
| 14> * xyz 0 1
| 15>    C        0.50841        -1.24590        -1.06348
| 16>    O        1.04846        -2.02937        -0.31309
| 17>    C        1.09587         0.02494        -1.54082
| 18>    C        0.21453         0.65319        -2.43583
| 19>    C        0.56568         1.87432        -2.99526
| 20>    C        1.78514         2.43908        -2.65479
| 21>    C        2.64349         1.79534        -1.77226
| 22>    C        2.31361         0.57532        -1.19825
| 23>   Br        4.30414         2.60803        -1.33859
| 24>    C       -0.96921        -0.18742        -2.59204
| 25>    C       -1.97590         0.03754        -3.49330
| 26>    C       -2.02447         1.15290        -4.35797
| 27>    N       -2.12707         2.03544        -5.08439
| 28>    C       -3.08315        -0.80484        -3.73487
| 29>    N       -4.00241        -1.43390        -4.01436
| 30>    C       -0.83467        -1.31788        -1.68383
| 31>    C       -1.84939        -2.19698        -1.41684
| 32>    C       -1.90214        -3.34289        -0.59945
| 33>    C       -0.94870        -4.04194         0.12052
| 34>    C       -1.46869        -5.15507         0.76857
| 35>   Cl       -0.50375        -6.19796         1.72568
| 36>    C       -2.83751        -5.35714         0.57607
| 37>    S       -3.46904        -4.11421        -0.44931
| 38>    C       -3.64768        -6.39283         1.09897
| 39>    C       -5.01338        -6.58858         0.92473
| 40>   Cl       -5.99770        -5.54104        -0.00466
| 41>    C       -5.51958        -7.71726         1.57225
| 42>    C       -4.55256        -8.41822         2.25769
| 43>    S       -2.99610        -7.66158         2.10130
| 44>    C       -4.70874        -9.61129         3.00942
| 45>    C       -3.73271       -10.32692         3.66425
| 46>    C       -4.23070       -11.46774         4.29776
| 47>   Cl       -3.22844       -12.54031         5.18070
| 48>    C       -5.59817       -11.65493         4.14931
| 49>    S       -6.26685       -10.36367         3.19103
| 50>    C       -6.40087       -12.70671         4.65865
| 51>    C       -7.77203       -12.88331         4.53409
| 52>   Cl       -8.78374       -11.78577         3.69347
| 53>    C       -8.26404       -14.03580         5.15184
| 54>    C       -7.27757       -14.77525         5.76288
| 55>    S       -5.72040       -14.02325         5.57293
| 56>    C       -7.41238       -15.99835         6.46915
| 57>    C       -6.41165       -16.75781         7.03328
| 58>    C       -6.89145       -17.91674         7.64582
| 59>   Cl       -5.86076       -19.04093         8.42485
| 60>    C       -8.27077       -18.07194         7.57546
| 61>    S       -8.97040       -16.72763         6.71523
| 62>    C       -9.06059       -19.11963         8.10467
| 63>    C      -10.44773       -19.23800         8.11848
| 64>   Cl      -11.48841       -18.05892         7.44019
| 65>    C      -10.91558       -20.39998         8.72553
| 66>    C       -9.90402       -21.20248         9.21996
| 67>    S       -8.34622       -20.49987         8.87331
| 68>    C      -10.07460       -22.47320         9.81506
| 69>    C       -9.17108       -23.25714        10.46347
| 70>    C       -9.41610       -24.72245        10.55836
| 71>    O      -10.45984       -25.30102        10.37537
| 72>    C       -8.08828       -25.30779        10.85474
| 73>    C       -7.15426       -24.27648        11.06881
| 74>    C       -7.85016       -22.99440        10.99787
| 75>    C       -7.43619       -21.83466        11.59573
| 76>    C       -6.15860       -21.65852        12.16437
| 77>    N       -5.12051       -21.46505        12.61376
| 78>    C       -8.28701       -20.72575        11.79238
| 79>    N       -8.97259       -19.83478        12.02235
| 80>    C       -5.82872       -24.58886        11.32983
| 81>    C       -5.45707       -25.92366        11.37936
| 82>    C       -6.39689       -26.92752        11.18047
| 83>    C       -7.72870       -26.63854        10.91310
| 84>   Br       -5.84204       -28.74132        11.27047
| 85>    H       -0.08436         2.39423        -3.67918
| 86>    H        2.07190         3.38912        -3.07885
| 87>    H        2.97364         0.07004        -0.51028
| 88>    H       -2.79863        -1.98485        -1.89543
| 89>    H        0.08372        -3.74881         0.17312
| 90>    H       -6.55260        -8.01105         1.53780
| 91>    H       -2.69760       -10.03895         3.68269
| 92>    H       -9.30097       -14.31777         5.14812
| 93>    H       -5.37232       -16.48681         7.00169
| 94>    H      -11.95907       -20.63709         8.82348
| 95>    H      -11.04393       -22.93359         9.64756
| 96>    H       -5.08751       -23.82074        11.48071
| 97>    H       -4.42922       -26.18802        11.57500
| 98>    H       -8.45984       -27.41637        10.75657
| 99> *
|100>
|101>                          ****END OF INPUT****

CARTESIAN COORDINATES (ANGSTROEM)
---------------------------------
  C      0.508410   -1.245900   -1.063480
  O      1.048460   -2.029370   -0.313090
  C      1.095870    0.024940   -1.540820
  C      0.214530    0.653190   -2.435830
  C      0.565680    1.874320   -2.995260
  C      1.785140    2.439080   -2.654790
  C      2.643490    1.795340   -1.772260
  C      2.313610    0.575320   -1.198250
  Br     4.304140    2.608030   -1.338590
  C     -0.969210   -0.187420   -2.592040
  C     -1.975900    0.037540   -3.493300
  C     -2.024470    1.152900   -4.357970
  N     -2.127070    2.035440   -5.084390
  C     -3.083150   -0.804840   -3.734870
  N     -4.002410   -1.433900   -4.014360
  C     -0.834670   -1.317880   -1.683830
  C     -1.849390   -2.196980   -1.416840
  C     -1.902140   -3.342890   -0.599450
  C     -0.948700   -4.041940    0.120520
  C     -1.468690   -5.155070    0.768570
  Cl    -0.503750   -6.197960    1.725680
  C     -2.837510   -5.357140    0.576070
  S     -3.469040   -4.114210   -0.449310
  C     -3.647680   -6.392830    1.098970
  C     -5.013380   -6.588580    0.924730
  Cl    -5.997700   -5.541040   -0.004660
  C     -5.519580   -7.717260    1.572250
  C     -4.552560   -8.418220    2.257690
  S     -2.996100   -7.661580    2.101300
  C     -4.708740   -9.611290    3.009420
  C     -3.732710  -10.326920    3.664250
  C     -4.230700  -11.467740    4.297760
  Cl    -3.228440  -12.540310    5.180700
  C     -5.598170  -11.654930    4.149310
  S     -6.266850  -10.363670    3.191030
  C     -6.400870  -12.706710    4.658650
  C     -7.772030  -12.883310    4.534090
  Cl    -8.783740  -11.785770    3.693470
  C     -8.264040  -14.035800    5.151840
  C     -7.277570  -14.775250    5.762880
  S     -5.720400  -14.023250    5.572930
  C     -7.412380  -15.998350    6.469150
  C     -6.411650  -16.757810    7.033280
  C     -6.891450  -17.916740    7.645820
  Cl    -5.860760  -19.040930    8.424850
  C     -8.270770  -18.071940    7.575460
  S     -8.970400  -16.727630    6.715230
  C     -9.060590  -19.119630    8.104670
  C    -10.447730  -19.238000    8.118480
  Cl   -11.488410  -18.058920    7.440190
  C    -10.915580  -20.399980    8.725530
  C     -9.904020  -21.202480    9.219960
  S     -8.346220  -20.499870    8.873310
  C    -10.074600  -22.473200    9.815060
  C     -9.171080  -23.257140   10.463470
  C     -9.416100  -24.722450   10.558360
  O    -10.459840  -25.301020   10.375370
  C     -8.088280  -25.307790   10.854740
  C     -7.154260  -24.276480   11.068810
  C     -7.850160  -22.994400   10.997870
  C     -7.436190  -21.834660   11.595730
  C     -6.158600  -21.658520   12.164370
  N     -5.120510  -21.465050   12.613760
  C     -8.287010  -20.725750   11.792380
  N     -8.972590  -19.834780   12.022350
  C     -5.828720  -24.588860   11.329830
  C     -5.457070  -25.923660   11.379360
  C     -6.396890  -26.927520   11.180470
  C     -7.728700  -26.638540   10.913100
  Br    -5.842040  -28.741320   11.270470
  H     -0.084360    2.394230   -3.679180
  H      2.071900    3.389120   -3.078850
  H      2.973640    0.070040   -0.510280
  H     -2.798630   -1.984850   -1.895430
  H      0.083720   -3.748810    0.173120
  H     -6.552600   -8.011050    1.537800
  H     -2.697600  -10.038950    3.682690
  H     -9.300970  -14.317770    5.148120
  H     -5.372320  -16.486810    7.001690
  H    -11.959070  -20.637090    8.823480
  H    -11.043930  -22.933590    9.647560
  H     -5.087510  -23.820740   11.480710
  H     -4.429220  -26.188020   11.575000
  H     -8.459840  -27.416370   10.756570

 Total Charge           Charge          ....    0
 Multiplicity           Mult            ....    1
 Number of Electrons    NEL             ....  626
 Basis Dimension        Dim             .... 1134

ORBITAL ENERGIES
----------------

  NO   OCC          E(Eh)            E(eV)
   0   2.0000    -482.874255    -13139.6765
   1   2.0000    -482.874076    -13139.6716
   2   2.0000    -101.611632     -2764.9931
   3   2.0000    -101.611320     -2764.9846
   4   2.0000    -101.609417     -2764.9328
   5   2.0000    -101.609348     -2764.9309
   6   2.0000    -101.609329     -2764.9304
   7   2.0000    -101.607860     -2764.8904
   8   2.0000     -88.980206     -2421.2745
   9   2.0000     -88.979895     -2421.2660
  10   2.0000     -88.979676     -2421.2601
  11   2.0000     -88.979532     -2421.2561
  12   2.0000     -88.978686     -2421.2331
  13   2.0000     -88.978155     -2421.2187
  14   2.0000     -62.551956     -1702.1253
  15   2.0000     -62.551824     -1702.1217
  16   2.0000     -56.385794     -1534.3355
  17   2.0000     -56.385664     -1534.3319
  18   2.0000     -56.383273     -1534.2669
  19   2.0000     -56.383257     -1534.2664
  20   2.0000     -56.383132     -1534.2630
  21   2.0000     -56.383127     -1534.2629
  22   2.0000     -19.227233      -523.1996
  23   2.0000     -19.221937      -523.0555
  24   2.0000     -14.420805      -392.4101
  25   2.0000     -14.420574      -392.4038
  26   2.0000     -14.417761      -392.3272
  27   2.0000     -14.416476      -392.2923
  28   2.0000     -10.377782      -282.3938
  29   2.0000     -10.373412      -282.2749
  30   2.0000     -10.350096      -281.6404
  31   2.0000     -10.349543      -281.6254
  32   2.0000     -10.349203      -281.6161
  33   2.0000     -10.347458      -281.5686
  34   2.0000     -10.347316      -281.5648
  35   2.0000     -10.347287      -281.5640
  36   2.0000     -10.347239      -281.5627
  37   2.0000     -10.346340      -281.5382
  38   2.0000     -10.345290      -281.5097
  39   2.0000     -10.344814      -281.4967
  40   2.0000     -10.344745      -281.4948
  41   2.0000     -10.344264      -281.4817
  42   2.0000     -10.343854      -281.4706
  43   2.0000     -10.342245      -281.4268
  44   2.0000     -10.334326      -281.2113
  45   2.0000     -10.334209      -281.2081
  46   2.0000     -10.333953      -281.2012
  47   2.0000     -10.333757      -281.1958
  48   2.0000     -10.330731      -281.1135
  49   2.0000     -10.330227      -281.0998
  50   2.0000     -10.329969      -281.0927
  51   2.0000     -10.327238      -281.0184
  52   2.0000     -10.326610      -281.0013
  53   2.0000     -10.326375      -280.9949
  54   2.0000     -10.323324      -280.9119
  55   2.0000     -10.322758      -280.8965
  56   2.0000     -10.322707      -280.8951
  57   2.0000     -10.321482      -280.8618
  58   2.0000     -10.320698      -280.8405
  59   2.0000     -10.318368      -280.7771
  60   2.0000     -10.314842      -280.6811
  61   2.0000     -10.313009      -280.6312
  62   2.0000     -10.307842      -280.4906
  63   2.0000     -10.307647      -280.4853
  64   2.0000     -10.307257      -280.4747
  65   2.0000     -10.306789      -280.4620
  66   2.0000     -10.306179      -280.4454
  67   2.0000     -10.305944      -280.4390
  68   2.0000     -10.305479      -280.4263
  69   2.0000     -10.304892      -280.4104
  70   2.0000     -10.303299      -280.3670
  71   2.0000     -10.302410      -280.3428
  72   2.0000     -10.301784      -280.3258
  73   2.0000     -10.299755      -280.2706
  74   2.0000     -10.299516      -280.2641
  75   2.0000     -10.299242      -280.2566
  76   2.0000     -10.299161      -280.2544
  77   2.0000     -10.297785      -280.2170
  78   2.0000      -9.566324      -260.3129
  79   2.0000      -9.566009      -260.3043
  80   2.0000      -9.564140      -260.2535
  81   2.0000      -9.564080      -260.2519
  82   2.0000      -9.564055      -260.2512
  83   2.0000      -9.562618      -260.2121
  84   2.0000      -8.781235      -238.9495
  85   2.0000      -8.781132      -238.9468
  86   2.0000      -8.074958      -219.7308
  87   2.0000      -8.074667      -219.7229
  88   2.0000      -8.074515      -219.7187
  89   2.0000      -8.074081      -219.7069
  90   2.0000      -8.073451      -219.6898
  91   2.0000      -8.072936      -219.6758
  92   2.0000      -7.336385      -199.6332
  93   2.0000      -7.336090      -199.6251
  94   2.0000      -7.334282      -199.5760
  95   2.0000      -7.334137      -199.5720
  96   2.0000      -7.334115      -199.5714
  97   2.0000      -7.332694      -199.5328
  98   2.0000      -7.326469      -199.3634
  99   2.0000      -7.326312      -199.3591
 100   2.0000      -7.326119      -199.3538
 101   2.0000      -7.326003      -199.3507
 102   2.0000      -7.324203      -199.3017
 103   2.0000      -7.324168      -199.3007
 104   2.0000      -7.324141      -199.3000
 105   2.0000      -7.324138      -199.2999
 106   2.0000      -7.324135      -199.2998
 107   2.0000      -7.324112      -199.2992
 108   2.0000      -7.322679      -199.2602
 109   2.0000      -7.322668      -199.2599
 110   2.0000      -6.617082      -180.0600
 111   2.0000      -6.617008      -180.0579
 112   2.0000      -6.603356      -179.6865
 113   2.0000      -6.603213      -179.6825
 114   2.0000      -6.602899      -179.6740
 115   2.0000      -6.602805      -179.6715
 116   2.0000      -6.044534      -164.4801
 117   2.0000      -6.044252      -164.4725
 118   2.0000      -6.043882      -164.4624
 119   2.0000      -6.043606      -164.4549
 120   2.0000      -6.043038      -164.4394
 121   2.0000      -6.042528      -164.4256
 122   2.0000      -6.040192      -164.3620
 123   2.0000      -6.039901      -164.3541
 124   2.0000      -6.039609      -164.3461
 125   2.0000      -6.039220      -164.3355
 126   2.0000      -6.038693      -164.3212
 127   2.0000      -6.038176      -164.3071
 128   2.0000      -6.036572      -164.2635
 129   2.0000      -6.036434      -164.2597
 130   2.0000      -6.036283      -164.2556
 131   2.0000      -6.035844      -164.2437
 132   2.0000      -6.035065      -164.2225
 133   2.0000      -6.034540      -164.2082
 134   2.0000      -2.733017       -74.3692
 135   2.0000      -2.732907       -74.3662
 136   2.0000      -2.729244       -74.2665
 137   2.0000      -2.729190       -74.2650
 138   2.0000      -2.728937       -74.2581
 139   2.0000      -2.728837       -74.2554
 140   2.0000      -2.718003       -73.9606
 141   2.0000      -2.718000       -73.9605
 142   2.0000      -2.717896       -73.9577
 143   2.0000      -2.717884       -73.9574
 144   2.0000      -1.142421       -31.0868
 145   2.0000      -1.137824       -30.9618
 146   2.0000      -1.040836       -28.3226
 147   2.0000      -1.039112       -28.2757
 148   2.0000      -1.034598       -28.1528
 149   2.0000      -1.024568       -27.8799
 150   2.0000      -1.024093       -27.8670
 151   2.0000      -1.018068       -27.7030
 152   2.0000      -1.013745       -27.5854
 153   2.0000      -1.008924       -27.4542
 154   2.0000      -1.005430       -27.3592
 155   2.0000      -1.004661       -27.3382
 156   2.0000      -0.997608       -27.1463
 157   2.0000      -0.996854       -27.1258
 158   2.0000      -0.977899       -26.6100
 159   2.0000      -0.975778       -26.5523
 160   2.0000      -0.971813       -26.4444
 161   2.0000      -0.970098       -26.3977
 162   2.0000      -0.963702       -26.2237
 163   2.0000      -0.962317       -26.1860
 164   2.0000      -0.957142       -26.0452
 165   2.0000      -0.954316       -25.9683
 166   2.0000      -0.915787       -24.9198
 167   2.0000      -0.915031       -24.8993
 168   2.0000      -0.913050       -24.8453
 169   2.0000      -0.911506       -24.8033
 170   2.0000      -0.900213       -24.4960
 171   2.0000      -0.892645       -24.2901
 172   2.0000      -0.885771       -24.1031
 173   2.0000      -0.874601       -23.7991
 174   2.0000      -0.869947       -23.6725
 175   2.0000      -0.856881       -23.3169
 176   2.0000      -0.856170       -23.2976
 177   2.0000      -0.848368       -23.0853
 178   2.0000      -0.843738       -22.9593
 179   2.0000      -0.840721       -22.8772
 180   2.0000      -0.831285       -22.6204
 181   2.0000      -0.829209       -22.5639
 182   2.0000      -0.828272       -22.5384
 183   2.0000      -0.821710       -22.3599
 184   2.0000      -0.807903       -21.9842
 185   2.0000      -0.791791       -21.5457
 186   2.0000      -0.775466       -21.1015
 187   2.0000      -0.772548       -21.0221
 188   2.0000      -0.770525       -20.9671
 189   2.0000      -0.766309       -20.8523
 190   2.0000      -0.736375       -20.0378
 191   2.0000      -0.726488       -19.7687
 192   2.0000      -0.719207       -19.5706
 193   2.0000      -0.714580       -19.4447
 194   2.0000      -0.703543       -19.1444
 195   2.0000      -0.700179       -19.0528
 196   2.0000      -0.693800       -18.8793
 197   2.0000      -0.689121       -18.7519
 198   2.0000      -0.685872       -18.6635
 199   2.0000      -0.676733       -18.4148
 200   2.0000      -0.668119       -18.1804
 201   2.0000      -0.664403       -18.0793
 202   2.0000      -0.654715       -17.8157
 203   2.0000      -0.645871       -17.5751
 204   2.0000      -0.638586       -17.3768
 205   2.0000      -0.634023       -17.2526
 206   2.0000      -0.630504       -17.1569
 207   2.0000      -0.623908       -16.9774
 208   2.0000      -0.621977       -16.9249
 209   2.0000      -0.618841       -16.8395
 210   2.0000      -0.617181       -16.7943
 211   2.0000      -0.615337       -16.7442
 212   2.0000      -0.611641       -16.6436
 213   2.0000      -0.603462       -16.4210
 214   2.0000      -0.597561       -16.2605
 215   2.0000      -0.588203       -16.0058
 216   2.0000      -0.583091       -15.8667
 217   2.0000      -0.575787       -15.6679
 218   2.0000      -0.562496       -15.3063
 219   2.0000      -0.561022       -15.2662
 220   2.0000      -0.559024       -15.2118
 221   2.0000      -0.558014       -15.1843
 222   2.0000      -0.548254       -14.9188
 223   2.0000      -0.547607       -14.9011
 224   2.0000      -0.545604       -14.8466
 225   2.0000      -0.544746       -14.8233
 226   2.0000      -0.542035       -14.7495
 227   2.0000      -0.540548       -14.7091
 228   2.0000      -0.539710       -14.6863
 229   2.0000      -0.536809       -14.6073
 230   2.0000      -0.536283       -14.5930
 231   2.0000      -0.535821       -14.5804
 232   2.0000      -0.532461       -14.4890
 233   2.0000      -0.530160       -14.4264
 234   2.0000      -0.529416       -14.4061
 235   2.0000      -0.525760       -14.3067
 236   2.0000      -0.522756       -14.2249
 237   2.0000      -0.518632       -14.1127
 238   2.0000      -0.515403       -14.0248
 239   2.0000      -0.511417       -13.9164
 240   2.0000      -0.509982       -13.8773
 241   2.0000      -0.508231       -13.8297
 242   2.0000      -0.504415       -13.7258
 243   2.0000      -0.504080       -13.7167
 244   2.0000      -0.501008       -13.6331
 245   2.0000      -0.499418       -13.5898
 246   2.0000      -0.499046       -13.5797
 247   2.0000      -0.495825       -13.4921
 248   2.0000      -0.493764       -13.4360
 249   2.0000      -0.489783       -13.3277
 250   2.0000      -0.485467       -13.2102
 251   2.0000      -0.480484       -13.0746
 252   2.0000      -0.478535       -13.0216
 253   2.0000      -0.474836       -12.9209
 254   2.0000      -0.468749       -12.7553
 255   2.0000      -0.468239       -12.7414
 256   2.0000      -0.465972       -12.6797
 257   2.0000      -0.463803       -12.6207
 258   2.0000      -0.463115       -12.6020
 259   2.0000      -0.459883       -12.5140
 260   2.0000      -0.458048       -12.4641
 261   2.0000      -0.455554       -12.3963
 262   2.0000      -0.452972       -12.3260
 263   2.0000      -0.452083       -12.3018
 264   2.0000      -0.451293       -12.2803
 265   2.0000      -0.450575       -12.2608
 266   2.0000      -0.449997       -12.2450
 267   2.0000      -0.448827       -12.2132
 268   2.0000      -0.447332       -12.1725
 269   2.0000      -0.446342       -12.1456
 270   2.0000      -0.445097       -12.1117
 271   2.0000      -0.444323       -12.0906
 272   2.0000      -0.443499       -12.0682
 273   2.0000      -0.431112       -11.7311
 274   2.0000      -0.430533       -11.7154
 275   2.0000      -0.427564       -11.6346
 276   2.0000      -0.427311       -11.6277
 277   2.0000      -0.426391       -11.6027
 278   2.0000      -0.423272       -11.5178
 279   2.0000      -0.421410       -11.4671
 280   2.0000      -0.420138       -11.4325
 281   2.0000      -0.413395       -11.2490
 282   2.0000      -0.411692       -11.2027
 283   2.0000      -0.406630       -11.0650
 284   2.0000      -0.401178       -10.9166
 285   2.0000      -0.397398       -10.8137
 286   2.0000      -0.394293       -10.7293
 287   2.0000      -0.390627       -10.6295
 288   2.0000      -0.387487       -10.5441
 289   2.0000      -0.383815       -10.4441
 290   2.0000      -0.380069       -10.3422
 291   2.0000      -0.376757       -10.2521
 292   2.0000      -0.375687       -10.2230
 293   2.0000      -0.369155       -10.0452
 294   2.0000      -0.368898       -10.0382
 295   2.0000      -0.366138        -9.9631
 296   2.0000      -0.354391        -9.6435
 297   2.0000      -0.354120        -9.6361
 298   2.0000      -0.349960        -9.5229
 299   2.0000      -0.347077        -9.4444
 300   2.0000      -0.342689        -9.3250
 301   2.0000      -0.340394        -9.2626
 302   2.0000      -0.338168        -9.2020
 303   2.0000      -0.334274        -9.0960
 304   2.0000      -0.329944        -8.9782
 305   2.0000      -0.327492        -8.9115
 306   2.0000      -0.325498        -8.8573
 307   2.0000      -0.324915        -8.8414
 308   2.0000      -0.312260        -8.4970
 309   2.0000      -0.310479        -8.4486
 310   2.0000      -0.293795        -7.9946
 311   2.0000      -0.269336        -7.3290
 312   2.0000      -0.246056        -6.6955
 313   0.0000      -0.103057        -2.8043
 314   0.0000      -0.098522        -2.6809
 315   0.0000      -0.073530        -2.0009
 316   0.0000      -0.068517        -1.8645
 317   0.0000      -0.059626        -1.6225

MULLIKEN ATOMIC CHARGES
-----------------------
   0 C :    0.160255
   1 O :   -0.151775
   2 C :   -0.020069
   3 C :    0.035459
   4 C :   -0.029308
   5 C :    0.051962
   6 C :   -0.003026
   7 C :   -0.015233
   8 Br:   -0.017975
   9 C :    0.300903
  10 C :   -0.348091
  11 C :   -0.187241
  12 N :    0.156217
  13 C :   -0.194805
  14 N :    0.157213
  15 C :   -0.091455
  16 C :    0.059085
  17 C :   -0.100010
  18 C :    0.029537
  19 C :    0.050033
  20 Cl:   -0.054953
  21 C :   -0.072284
  22 S :    0.170766
  23 C :   -0.096563
  24 C :    0.076874
  25 Cl:   -0.046174
  26 C :   -0.026241
  27 C :   -0.011598
  28 S :    0.155581
  29 C :   -0.021318
  30 C :   -0.021983
  31 C :    0.068524
  32 Cl:   -0.059503
  33 C :   -0.090159
  34 S :    0.153061
  35 C :   -0.089668
  36 C :    0.068677
  37 Cl:   -0.060581
  38 C :   -0.022738
  39 C :   -0.019560
  40 S :    0.151366
  41 C :   -0.013063
  42 C :   -0.027643
  43 C :    0.079000
  44 Cl:   -0.049243
  45 C :   -0.095507
  46 S :    0.158116
  47 C :   -0.071658
  48 C :    0.070023
  49 Cl:   -0.059570
  50 C :    0.042208
  51 C :   -0.070264
  52 S :    0.164230
  53 C :    0.062637
  54 C :   -0.134735
  55 C :    0.142040
  56 O :   -0.136005
  57 C :   -0.012582
  58 C :    0.023701
  59 C :    0.237953
  60 C :   -0.315735
  61 C :   -0.175153
  62 N :    0.159695
  63 C :   -0.209384
  64 N :    0.178118
  65 C :   -0.023768
  66 C :    0.049679
  67 C :   -0.007335
  68 C :   -0.009508
  69 Br:   -0.018670
  70 H :    0.010704
  71 H :    0.005614
  72 H :    0.003784
  73 H :    0.010336
  74 H :    0.013949
  75 H :   -0.005499
  76 H :   -0.005712
  77 H :   -0.006594
  78 H :   -0.004499
  79 H :   -0.002311
  80 H :    0.024864
  81 H :    0.011540
  82 H :    0.006961
  83 H :    0.006087
Sum of atomic charges:   -0.0000000

LOEWDIN ATOMIC CHARGES
----------------------
   0 C :    0.089237
   1 O :   -0.135687
   2 C :   -0.037197
   3 C :   -0.016291
   4 C :    0.008322
   5 C :   -0.012407
   6 C :   -0.098000
   7 C :   -0.000373
   8 Br:    0.116862
   9 C :    0.075665
  10 C :   -0.138009
  11 C :   -0.018565
  12 N :   -0.049954
  13 C :   -0.025195
  14 N :   -0.047259
  15 C :   -0.099214
  16 C :    0.049685
  17 C :   -0.187480
  18 C :   -0.021233
  19 C :   -0.178871
  20 Cl:    0.164439
  21 C :   -0.183755
  22 S :    0.472527
  23 C :   -0.217692
  24 C :   -0.156637
  25 Cl:    0.173936
  26 C :   -0.075776
  27 C :   -0.173717
  28 S :    0.458898
  29 C :   -0.186987
  30 C :   -0.068872
  31 C :   -0.169644
  32 Cl:    0.162935
  33 C :   -0.205515
  34 S :    0.456045
  35 C :   -0.206216
  36 C :   -0.169255
  37 Cl:    0.162045
  38 C :   -0.069373
  39 C :   -0.185613
  40 S :    0.456422
  41 C :   -0.174566
  42 C :   -0.074856
  43 C :   -0.156580
  44 Cl:    0.172338
  45 C :   -0.215073
  46 S :    0.459270
  47 C :   -0.179737
  48 C :   -0.177950
  49 Cl:    0.162606
  50 C :   -0.024704
  51 C :   -0.187651
  52 S :    0.488754
  53 C :    0.054067
  54 C :   -0.099942
  55 C :    0.084820
  56 O :   -0.135684
  57 C :   -0.039699
  58 C :   -0.011851
  59 C :    0.059406
  60 C :   -0.138863
  61 C :   -0.020546
  62 N :   -0.047298
  63 C :   -0.039958
  64 N :   -0.042187
  65 C :    0.005164
  66 C :   -0.011439
  67 C :   -0.099608
  68 C :    0.001107
  69 Br:    0.116415
  70 H :    0.043290
  71 H :    0.040552
  72 H :    0.043986
  73 H :    0.043444
  74 H :    0.038284
  75 H :    0.032822
  76 H :    0.032373
  77 H :    0.032481
  78 H :    0.032863
  79 H :    0.040797
  80 H :    0.052738
  81 H :    0.042901
  82 H :    0.040570
  83 H :    0.044907

  Mayer bond orders larger than 0.100000
B(  0-C ,  1-O ) :   2.1720 B(  0-C ,  2-C ) :   0.9510 B(  0-C , 15-C ) :   0.9458
B(  2-C ,  3-C ) :   1.3339 B(  2-C ,  7-C ) :   1.3781 B(  3-C ,  4-C ) :   1.3625
B(  3-C ,  9-C ) :   0.9892 B(  4-C ,  5-C ) :   1.3847 B(  4-C , 70-H ) :   0.9834
B(  5-C ,  6-C ) :   1.3867 B(  5-C , 71-H ) :   0.9848 B(  6-C ,  7-C ) :   1.3365
B(  6-C ,  8-Br) :   0.9940 B(  7-C , 72-H ) :   1.0074 B(  9-C , 10-C ) :   1.6318
B(  9-C , 15-C ) :   1.0793 B( 10-C , 11-C ) :   1.1434 B( 10-C , 13-C ) :   1.1369
B( 11-C , 12-N ) :   2.9771 B( 13-C , 14-N ) :   2.9803 B( 15-C , 16-C ) :   1.5880
B( 16-C , 17-C ) :   1.2238 B( 16-C , 73-H ) :   0.9121 B( 17-C , 18-C ) :   1.4068
B( 17-C , 22-S ) :   1.0774 B( 18-C , 19-C ) :   1.2977 B( 18-C , 74-H ) :   0.9869
B( 19-C , 20-Cl) :   1.0425 B( 19-C , 21-C ) :   1.4067 B( 21-C , 22-S ) :   1.1704
B( 21-C , 23-C ) :   1.1902 B( 23-C , 24-C ) :   1.4600 B( 23-C , 28-S ) :   1.1146
B( 24-C , 25-Cl) :   1.0450 B( 24-C , 26-C ) :   1.2787 B( 26-C , 27-C ) :   1.4613
B( 26-C , 75-H ) :   1.0040 B( 27-C , 28-S ) :   1.1184 B( 27-C , 29-C ) :   1.1635
B( 29-C , 30-C ) :   1.4713 B( 29-C , 34-S ) :   1.1056 B( 30-C , 31-C ) :   1.2721
B( 30-C , 76-H ) :   1.0029 B( 31-C , 32-Cl) :   1.0324 B( 31-C , 33-C ) :   1.4740
B( 33-C , 34-S ) :   1.1253 B( 33-C , 35-C ) :   1.1789 B( 35-C , 36-C ) :   1.4752
B( 35-C , 40-S ) :   1.1249 B( 36-C , 37-Cl) :   1.0315 B( 36-C , 38-C ) :   1.2706
B( 38-C , 39-C ) :   1.4717 B( 38-C , 77-H ) :   1.0037 B( 39-C , 40-S ) :   1.1069
B( 39-C , 41-C ) :   1.1625 B( 41-C , 42-C ) :   1.4624 B( 41-C , 46-S ) :   1.1177
B( 42-C , 43-C ) :   1.2776 B( 42-C , 78-H ) :   1.0039 B( 43-C , 44-Cl) :   1.0414
B( 43-C , 45-C ) :   1.4616 B( 45-C , 46-S ) :   1.1151 B( 45-C , 47-C ) :   1.1961
B( 47-C , 48-C ) :   1.4236 B( 47-C , 52-S ) :   1.1626 B( 48-C , 49-Cl) :   1.0302
B( 48-C , 50-C ) :   1.2985 B( 50-C , 51-C ) :   1.4096 B( 50-C , 79-H ) :   1.0101
B( 51-C , 52-S ) :   1.0837 B( 51-C , 53-C ) :   1.1553 B( 53-C , 54-C ) :   1.6407
B( 53-C , 80-H ) :   0.9462 B( 54-C , 55-C ) :   0.9457 B( 54-C , 59-C ) :   1.0277
B( 55-C , 56-O ) :   2.2708 B( 55-C , 57-C ) :   0.9203 B( 57-C , 58-C ) :   1.3338
B( 57-C , 68-C ) :   1.3869 B( 58-C , 59-C ) :   1.0120 B( 58-C , 65-C ) :   1.3696
B( 59-C , 60-C ) :   1.6648 B( 60-C , 61-C ) :   1.1338 B( 60-C , 63-C ) :   1.1449
B( 61-C , 62-N ) :   2.9967 B( 63-C , 64-N ) :   3.0334 B( 65-C , 66-C ) :   1.3807
B( 65-C , 81-H ) :   0.9867 B( 66-C , 67-C ) :   1.3904 B( 66-C , 82-H ) :   0.9851
B( 67-C , 68-C ) :   1.3422 B( 67-C , 69-Br) :   0.9930 B( 68-C , 83-H ) :   1.0061

-----------------------------------------------------------------------------
         ABSORPTION SPECTRUM VIA TRANSITION ELECTRIC DIPOLE MOMENTS
-----------------------------------------------------------------------------
State   Energy  Wavelength   fosc         T2         TX        TY        TZ
        (cm-1)    (nm)                  (au**2)     (au)      (au)      (au)
-----------------------------------------------------------------------------
   0   17157.4    582.8   2.624810786  50.36419   1.89862   5.84632  -3.54682
   1   19123.9    522.9   0.351192427   6.04568  -1.55412  -1.75208   0.74873
   2   24073.5    415.4   0.257743218   3.52471   1.39919   1.25063  -0.05386
   3   25012.3    399.8   0.002194684   0.02889  -0.13435  -0.10241  -0.01867
   4   25873.6    386.5   0.016727455   0.21284  -0.31858   0.22644  -0.24510
   5   26400.0    378.8   0.241197082   3.00776  -0.54423  -1.34177   0.95458
   6   27425.4    364.6   0.117844181   1.41459   0.32282   0.94247  -0.64971
   7   28996.0    344.9   0.181050439   2.05559  -0.00633   1.43078   0.09180
   8   29804.6    335.5   0.160730839   1.77538   1.10028   0.66073   0.35804
   9   30522.5    327.6   0.074558981   0.80419   0.55975   0.66985  -0.20534
  10   31143.0    321.1   0.033084475   0.34974  -0.57853   0.01420  -0.12182
  11   31248.4    320.0   0.026599934   0.28024   0.31518   0.40510   0.12959
  12   31448.7    318.0   0.022493567   0.23547  -0.47217   0.11112  -0.01329
  13   31630.0    316.2   0.110577747   1.15092   0.48970  -0.95400   0.03136
  14   32169.9    310.8   0.029550953   0.30241  -0.28363   0.41533  -0.22240
  15   32783.5    305.0   0.225798777   2.26747   1.32445   0.21570   0.68321
  16   33086.8    302.2   0.030370003   0.30218   0.32748   0.41508   0.15048
  17   33183.7    301.4   0.141439653   1.40321   0.40777  -1.06315   0.32656
  18   33426.7    299.2   0.033084263   0.32584  -0.55262   0.00749   0.14280
  19   33617.6    297.5   0.013344323   0.13068  -0.05045  -0.33678   0.12130
  20   34203.1    292.4   0.104213164   1.00307   0.39396   0.91544  -0.09924
  21   34682.2    288.3   0.054665900   0.51890   0.63300  -0.28242   0.19609
  22   35240.1    283.8   0.042410274   0.39620  -0.00063  -0.56698   0.27337
  23   35583.5    281.0   0.735626211   6.80588  -2.27298  -0.29445  -1.24609
  24   36122.7    276.8   0.152223880   1.38733  -0.16388  -1.16282  -0.09119
  25   36477.5    274.1   0.488331562   4.40723   0.13112  -2.07021  -0.32289
  26   37053.3    269.9   0.076798833   0.68234   0.65777  -0.22980   0.44371
  27   37188.3    268.9   0.039979220   0.35392  -0.58600  -0.10257   0.00237
  28   37413.2    267.3   0.065984216   0.58062  -0.29720   0.49750  -0.49476
  29   38266.4    261.3   0.005902248   0.05078   0.21206  -0.02631   0.07154
  30   38382.6    260.5   0.019847377   0.17023   0.37712  -0.06605   0.15378
  31   38921.9    256.9   0.003379440   0.02858  -0.15131  -0.07423   0.01340
  32   39168.8    255.3   0.004505932   0.03787  -0.15647   0.10790   0.04179
  33   39474.0    253.3   0.016534196   0.13789   0.37125   0.00460   0.00666
  34   39839.4    251.0   0.053667458   0.44348   0.26463  -0.56805   0.22533
  35   39914.7    250.5   0.018101847   0.14930  -0.36607   0.12349   0.00642
  36   40221.9    248.6   0.008857115   0.07249   0.21926  -0.15023  -0.04301

FINAL SINGLE POINT ENERGY    -12576.944000356185

DIPOLE MOMENT
-------------
                                X             Y             Z
Electronic contribution:     60.13439     -18.32426      10.95106
Nuclear contribution   :    -59.65497      17.31318     -10.95246
                        -----------------------------------------
Total Dipole Moment    :      0.47942      -1.01109      -0.00140
                        -----------------------------------------
Magnitude (a.u.)       :      1.11899
Magnitude (Debye)      :      2.84425

Rotational constants in cm-1:     0.001889     0.000103     0.000099
Rotational constants in MHz :    56.629416     3.088880     2.969364

                             ****ORCA TERMINATED NORMALLY****
TOTAL RUN TIME: 0 days 0 hours 8 minutes 29 seconds 830 msec
