                         Program Version 4.2.0 -  RELEASE  -
|  1> # ORCA input file
|  2> # SCF done       -171.103056002369          0.000345325601
|  3> ! CAM-B3LYP def2-SVP def2/J RIJCOSX Grid4 TightSCF
|  4> %maxcore 5000
|  5> %tddft
|  6>     Mode sTDDFT
|  7>     Ethresh 5.0
|  8>     maxcore 5000
|  9> end
| 10>
| 11> %pal
| 12>   nprocs 6
| 13>   end
| 14> * xyz 0 1
| 15>    C       -7.22930        -1.52024        -0.01250
| 16>    O       -7.66091        -2.64164        -0.15617
| 17>    C       -8.02681        -0.28560         0.14768
| 18>    C       -7.18530         0.83758         0.06458
| 19>    C       -7.73133         2.10978         0.16917
| 20>    C       -9.09903         2.23695         0.35642
| 21>    C       -9.91073         1.11235         0.43404
| 22>    C       -9.38965        -0.16978         0.32586
| 23>   Br      -11.77831         1.33739         0.69203
| 24>    C       -5.80932         0.38672        -0.12655
| 25>    C       -4.71249         1.20030        -0.23439
| 26>    C       -4.76567         2.61039        -0.21149
| 27>    N       -4.74268         3.75789        -0.20916
| 28>    C       -3.38199         0.75584        -0.38721
| 29>    N       -2.27577         0.47293        -0.50856
| 30>    C       -5.81874        -1.06464        -0.12465
| 31>    C       -4.76068        -1.89491        -0.33851
| 32>    C       -4.77168        -3.30679        -0.12974
| 33>    C       -4.01279        -4.17527        -0.90507
| 34>    C       -4.06925        -5.55719        -0.77229
| 35>    C       -4.84933        -6.22490         0.17501
| 36>    C       -5.53949        -5.36239         1.08052
| 37>    C       -5.50153        -3.92741         0.91853
| 38>    N       -6.15148        -3.40028         1.93457
| 39>    O       -6.57886        -4.41644         2.67311
| 40>    N       -6.22480        -5.60028         2.17914
| 41>    C       -4.90716        -7.64329         0.20196
| 42>    S       -3.90194        -8.54099        -0.92293
| 43>    C       -4.47984       -10.08952        -0.38830
| 44>    C       -5.41122        -9.90053         0.61795
| 45>    C       -5.66330        -8.54244         0.96315
| 46>    C       -6.64000        -8.44591         1.98486
| 47>    C       -7.09531        -9.66376         2.38654
| 48>    C       -8.09667        -9.99158         3.40595
| 49>    O       -8.42060       -11.12092         3.68383
| 50>    O       -8.60033        -8.89546         3.97999
| 51>    C       -9.58071        -9.11819         4.98390
| 52>    S       -6.36498       -11.01045         1.55028
| 53>    C       -4.00785       -11.28750        -0.97199
| 54>    N       -4.43877       -12.53026        -0.56220
| 55>    C       -3.81024       -13.46702        -1.31879
| 56>    C       -3.67641       -14.83039        -1.53123
| 57>    C       -2.75534       -14.97024        -2.58387
| 58>    N       -2.34903       -13.72179        -3.00852
| 59>    C       -2.95903       -12.78876        -2.23795
| 60>    C       -3.08287       -11.42323        -2.01717
| 61>    C       -2.27818       -16.17766        -3.13329
| 62>    C       -1.54779       -16.30522        -4.27816
| 63>    C       -1.06445       -17.53146        -4.78330
| 64>    C       -0.78874       -18.69398        -4.11660
| 65>    C       -0.71631       -19.96299        -4.88384
| 66>    O       -0.68678       -20.08779        -6.08638
| 67>    C       -0.73964       -21.03510        -3.86195
| 68>    C       -0.69380       -20.45773        -2.58016
| 69>    C       -0.58259       -19.00530        -2.72093
| 70>    C       -0.11582       -18.16229        -1.74305
| 71>    C        0.16225       -18.56726        -0.42225
| 72>    N        0.38598       -18.83788         0.67087
| 73>    C        0.20967       -16.80899        -1.95466
| 74>    N        0.51750       -15.70911        -2.07465
| 75>    C       -0.73951       -21.27084        -1.45791
| 76>    C       -0.82139       -22.64428        -1.63248
| 77>    C       -0.85046       -23.19444        -2.90712
| 78>    C       -0.81239       -22.39996        -4.04574
| 79>   Br       -0.95308       -25.08230        -3.09557
| 80>    H       -7.12171         2.99602         0.10662
| 81>    H       -9.53927         3.21865         0.44103
| 82>    H      -10.01496        -1.04717         0.38255
| 83>    H       -3.83224        -1.48595        -0.71630
| 84>    H       -3.39368        -3.75979        -1.68659
| 85>    H       -3.48715        -6.15358        -1.45985
| 86>    H       -6.97935        -7.52012         2.40807
| 87>    H       -9.87936        -8.13454         5.33585
| 88>    H       -9.15997        -9.70857         5.80044
| 89>    H      -10.43551        -9.65475         4.56692
| 90>    H       -5.10163       -12.69368         0.17655
| 91>    H       -4.16483       -15.63653        -1.02219
| 92>    H       -1.60609       -13.56227        -3.66655
| 93>    H       -2.59270       -10.61241        -2.51708
| 94>    H       -2.56883       -17.07239        -2.59872
| 95>    H       -1.39184       -15.43899        -4.90669
| 96>    H       -0.94164       -17.59682        -5.86037
| 97>    H       -0.72397       -20.86154        -0.46091
| 98>    H       -0.86243       -23.29276        -0.77088
| 99>    H       -0.83798       -22.82401        -5.03748
|100> *
|101>
|102>                          ****END OF INPUT****

CARTESIAN COORDINATES (ANGSTROEM)
---------------------------------
  C     -7.229300   -1.520240   -0.012500
  O     -7.660910   -2.641640   -0.156170
  C     -8.026810   -0.285600    0.147680
  C     -7.185300    0.837580    0.064580
  C     -7.731330    2.109780    0.169170
  C     -9.099030    2.236950    0.356420
  C     -9.910730    1.112350    0.434040
  C     -9.389650   -0.169780    0.325860
  Br   -11.778310    1.337390    0.692030
  C     -5.809320    0.386720   -0.126550
  C     -4.712490    1.200300   -0.234390
  C     -4.765670    2.610390   -0.211490
  N     -4.742680    3.757890   -0.209160
  C     -3.381990    0.755840   -0.387210
  N     -2.275770    0.472930   -0.508560
  C     -5.818740   -1.064640   -0.124650
  C     -4.760680   -1.894910   -0.338510
  C     -4.771680   -3.306790   -0.129740
  C     -4.012790   -4.175270   -0.905070
  C     -4.069250   -5.557190   -0.772290
  C     -4.849330   -6.224900    0.175010
  C     -5.539490   -5.362390    1.080520
  C     -5.501530   -3.927410    0.918530
  N     -6.151480   -3.400280    1.934570
  O     -6.578860   -4.416440    2.673110
  N     -6.224800   -5.600280    2.179140
  C     -4.907160   -7.643290    0.201960
  S     -3.901940   -8.540990   -0.922930
  C     -4.479840  -10.089520   -0.388300
  C     -5.411220   -9.900530    0.617950
  C     -5.663300   -8.542440    0.963150
  C     -6.640000   -8.445910    1.984860
  C     -7.095310   -9.663760    2.386540
  C     -8.096670   -9.991580    3.405950
  O     -8.420600  -11.120920    3.683830
  O     -8.600330   -8.895460    3.979990
  C     -9.580710   -9.118190    4.983900
  S     -6.364980  -11.010450    1.550280
  C     -4.007850  -11.287500   -0.971990
  N     -4.438770  -12.530260   -0.562200
  C     -3.810240  -13.467020   -1.318790
  C     -3.676410  -14.830390   -1.531230
  C     -2.755340  -14.970240   -2.583870
  N     -2.349030  -13.721790   -3.008520
  C     -2.959030  -12.788760   -2.237950
  C     -3.082870  -11.423230   -2.017170
  C     -2.278180  -16.177660   -3.133290
  C     -1.547790  -16.305220   -4.278160
  C     -1.064450  -17.531460   -4.783300
  C     -0.788740  -18.693980   -4.116600
  C     -0.716310  -19.962990   -4.883840
  O     -0.686780  -20.087790   -6.086380
  C     -0.739640  -21.035100   -3.861950
  C     -0.693800  -20.457730   -2.580160
  C     -0.582590  -19.005300   -2.720930
  C     -0.115820  -18.162290   -1.743050
  C      0.162250  -18.567260   -0.422250
  N      0.385980  -18.837880    0.670870
  C      0.209670  -16.808990   -1.954660
  N      0.517500  -15.709110   -2.074650
  C     -0.739510  -21.270840   -1.457910
  C     -0.821390  -22.644280   -1.632480
  C     -0.850460  -23.194440   -2.907120
  C     -0.812390  -22.399960   -4.045740
  Br    -0.953080  -25.082300   -3.095570
  H     -7.121710    2.996020    0.106620
  H     -9.539270    3.218650    0.441030
  H    -10.014960   -1.047170    0.382550
  H     -3.832240   -1.485950   -0.716300
  H     -3.393680   -3.759790   -1.686590
  H     -3.487150   -6.153580   -1.459850
  H     -6.979350   -7.520120    2.408070
  H     -9.879360   -8.134540    5.335850
  H     -9.159970   -9.708570    5.800440
  H    -10.435510   -9.654750    4.566920
  H     -5.101630  -12.693680    0.176550
  H     -4.164830  -15.636530   -1.022190
  H     -1.606090  -13.562270   -3.666550
  H     -2.592700  -10.612410   -2.517080
  H     -2.568830  -17.072390   -2.598720
  H     -1.391840  -15.438990   -4.906690
  H     -0.941640  -17.596820   -5.860370
  H     -0.723970  -20.861540   -0.460910
  H     -0.862430  -23.292760   -0.770880
  H     -0.837980  -22.824010   -5.037480

 Total Charge           Charge          ....    0
 Multiplicity           Mult            ....    1
 Number of Electrons    NEL             ....  506
 Basis Dimension        Dim             .... 1054

ORBITAL ENERGIES
----------------

  NO   OCC          E(Eh)            E(eV)
   0   2.0000    -482.874493    -13139.6830
   1   2.0000    -482.870776    -13139.5818
   2   2.0000     -88.984990     -2421.4047
   3   2.0000     -88.974034     -2421.1065
   4   2.0000     -62.552206     -1702.1321
   5   2.0000     -62.548491     -1702.0310
   6   2.0000     -56.386045     -1534.3423
   7   2.0000     -56.383521     -1534.2736
   8   2.0000     -56.383509     -1534.2733
   9   2.0000     -56.382327     -1534.2411
  10   2.0000     -56.379804     -1534.1725
  11   2.0000     -56.379799     -1534.1723
  12   2.0000     -19.363972      -526.9205
  13   2.0000     -19.269314      -524.3447
  14   2.0000     -19.222126      -523.0606
  15   2.0000     -19.214469      -522.8523
  16   2.0000     -19.214370      -522.8496
  17   2.0000     -14.491174      -394.3249
  18   2.0000     -14.484604      -394.1461
  19   2.0000     -14.480235      -394.0272
  20   2.0000     -14.473831      -393.8530
  21   2.0000     -14.422628      -392.4597
  22   2.0000     -14.420103      -392.3910
  23   2.0000     -14.415668      -392.2703
  24   2.0000     -14.413675      -392.2160
  25   2.0000     -10.413934      -283.3775
  26   2.0000     -10.372915      -282.2614
  27   2.0000     -10.365274      -282.0534
  28   2.0000     -10.349784      -281.6319
  29   2.0000     -10.347675      -281.5746
  30   2.0000     -10.347418      -281.5676
  31   2.0000     -10.343134      -281.4510
  32   2.0000     -10.342002      -281.4202
  33   2.0000     -10.340331      -281.3747
  34   2.0000     -10.340314      -281.3742
  35   2.0000     -10.339742      -281.3587
  36   2.0000     -10.338390      -281.3219
  37   2.0000     -10.336513      -281.2708
  38   2.0000     -10.332970      -281.1744
  39   2.0000     -10.332748      -281.1684
  40   2.0000     -10.328227      -281.0453
  41   2.0000     -10.324953      -280.9562
  42   2.0000     -10.324325      -280.9392
  43   2.0000     -10.323745      -280.9234
  44   2.0000     -10.323256      -280.9101
  45   2.0000     -10.323008      -280.9033
  46   2.0000     -10.322648      -280.8935
  47   2.0000     -10.318110      -280.7700
  48   2.0000     -10.317948      -280.7656
  49   2.0000     -10.317041      -280.7409
  50   2.0000     -10.315576      -280.7011
  51   2.0000     -10.314999      -280.6854
  52   2.0000     -10.314131      -280.6618
  53   2.0000     -10.313597      -280.6473
  54   2.0000     -10.313462      -280.6436
  55   2.0000     -10.312395      -280.6145
  56   2.0000     -10.310790      -280.5709
  57   2.0000     -10.309052      -280.5236
  58   2.0000     -10.306785      -280.4619
  59   2.0000     -10.306521      -280.4547
  60   2.0000     -10.306147      -280.4445
  61   2.0000     -10.305952      -280.4392
  62   2.0000     -10.305355      -280.4230
  63   2.0000     -10.302791      -280.3532
  64   2.0000     -10.302580      -280.3475
  65   2.0000     -10.301805      -280.3264
  66   2.0000     -10.301288      -280.3123
  67   2.0000     -10.297355      -280.2053
  68   2.0000     -10.295493      -280.1546
  69   2.0000     -10.291932      -280.0577
  70   2.0000     -10.290532      -280.0196
  71   2.0000     -10.289476      -279.9909
  72   2.0000     -10.287778      -279.9447
  73   2.0000      -8.781487      -238.9564
  74   2.0000      -8.777769      -238.8552
  75   2.0000      -8.079592      -219.8569
  76   2.0000      -8.069159      -219.5730
  77   2.0000      -6.617339      -180.0669
  78   2.0000      -6.613602      -179.9653
  79   2.0000      -6.603603      -179.6932
  80   2.0000      -6.603147      -179.6808
  81   2.0000      -6.599877      -179.5918
  82   2.0000      -6.599467      -179.5806
  83   2.0000      -6.049101      -164.6044
  84   2.0000      -6.044826      -164.4881
  85   2.0000      -6.041552      -164.3990
  86   2.0000      -6.038983      -164.3291
  87   2.0000      -6.034758      -164.2141
  88   2.0000      -6.030327      -164.0935
  89   2.0000      -2.733274       -74.3762
  90   2.0000      -2.729528       -74.2742
  91   2.0000      -2.729514       -74.2739
  92   2.0000      -2.729176       -74.2647
  93   2.0000      -2.725788       -74.1725
  94   2.0000      -2.725463       -74.1636
  95   2.0000      -2.718262       -73.9677
  96   2.0000      -2.718247       -73.9673
  97   2.0000      -2.714569       -73.8672
  98   2.0000      -2.714543       -73.8665
  99   2.0000      -1.318376       -35.8748
 100   2.0000      -1.201515       -32.6949
 101   2.0000      -1.138020       -30.9671
 102   2.0000      -1.129652       -30.7394
 103   2.0000      -1.111718       -30.2514
 104   2.0000      -1.108171       -30.1549
 105   2.0000      -1.075313       -29.2608
 106   2.0000      -1.031350       -28.0645
 107   2.0000      -1.025056       -27.8932
 108   2.0000      -1.020146       -27.7596
 109   2.0000      -1.018761       -27.7219
 110   2.0000      -1.010504       -27.4972
 111   2.0000      -1.005803       -27.3693
 112   2.0000      -1.000213       -27.2172
 113   2.0000      -0.999469       -27.1969
 114   2.0000      -0.993326       -27.0298
 115   2.0000      -0.969851       -26.3910
 116   2.0000      -0.967428       -26.3251
 117   2.0000      -0.963310       -26.2130
 118   2.0000      -0.934157       -25.4197
 119   2.0000      -0.927685       -25.2436
 120   2.0000      -0.926569       -25.2132
 121   2.0000      -0.914567       -24.8866
 122   2.0000      -0.908354       -24.7176
 123   2.0000      -0.903126       -24.5753
 124   2.0000      -0.896663       -24.3994
 125   2.0000      -0.889100       -24.1936
 126   2.0000      -0.884733       -24.0748
 127   2.0000      -0.878354       -23.9012
 128   2.0000      -0.865800       -23.5596
 129   2.0000      -0.862009       -23.4565
 130   2.0000      -0.858434       -23.3592
 131   2.0000      -0.847440       -23.0600
 132   2.0000      -0.847277       -23.0556
 133   2.0000      -0.826230       -22.4829
 134   2.0000      -0.811477       -22.0814
 135   2.0000      -0.804421       -21.8894
 136   2.0000      -0.791900       -21.5487
 137   2.0000      -0.773547       -21.0493
 138   2.0000      -0.770900       -20.9773
 139   2.0000      -0.767027       -20.8719
 140   2.0000      -0.764532       -20.8040
 141   2.0000      -0.758465       -20.6389
 142   2.0000      -0.740693       -20.1553
 143   2.0000      -0.729197       -19.8425
 144   2.0000      -0.717189       -19.5157
 145   2.0000      -0.713117       -19.4049
 146   2.0000      -0.709483       -19.3060
 147   2.0000      -0.700978       -19.0746
 148   2.0000      -0.698771       -19.0145
 149   2.0000      -0.694673       -18.9030
 150   2.0000      -0.686456       -18.6794
 151   2.0000      -0.682156       -18.5624
 152   2.0000      -0.674752       -18.3609
 153   2.0000      -0.669121       -18.2077
 154   2.0000      -0.660843       -17.9825
 155   2.0000      -0.651223       -17.7207
 156   2.0000      -0.646908       -17.6033
 157   2.0000      -0.643718       -17.5165
 158   2.0000      -0.638807       -17.3828
 159   2.0000      -0.625412       -17.0183
 160   2.0000      -0.619616       -16.8606
 161   2.0000      -0.618518       -16.8307
 162   2.0000      -0.615765       -16.7558
 163   2.0000      -0.613803       -16.7024
 164   2.0000      -0.603795       -16.4301
 165   2.0000      -0.598006       -16.2726
 166   2.0000      -0.587591       -15.9892
 167   2.0000      -0.587038       -15.9741
 168   2.0000      -0.583303       -15.8725
 169   2.0000      -0.581401       -15.8207
 170   2.0000      -0.579748       -15.7758
 171   2.0000      -0.576390       -15.6844
 172   2.0000      -0.572605       -15.5814
 173   2.0000      -0.563377       -15.3303
 174   2.0000      -0.557475       -15.1697
 175   2.0000      -0.553570       -15.0634
 176   2.0000      -0.551419       -15.0049
 177   2.0000      -0.548127       -14.9153
 178   2.0000      -0.546590       -14.8735
 179   2.0000      -0.543535       -14.7903
 180   2.0000      -0.540995       -14.7212
 181   2.0000      -0.540248       -14.7009
 182   2.0000      -0.536879       -14.6092
 183   2.0000      -0.534862       -14.5543
 184   2.0000      -0.532847       -14.4995
 185   2.0000      -0.529985       -14.4216
 186   2.0000      -0.526890       -14.3374
 187   2.0000      -0.525255       -14.2929
 188   2.0000      -0.519255       -14.1297
 189   2.0000      -0.515108       -14.0168
 190   2.0000      -0.509717       -13.8701
 191   2.0000      -0.508317       -13.8320
 192   2.0000      -0.505293       -13.7497
 193   2.0000      -0.501981       -13.6596
 194   2.0000      -0.498558       -13.5665
 195   2.0000      -0.498357       -13.5610
 196   2.0000      -0.494056       -13.4439
 197   2.0000      -0.491266       -13.3680
 198   2.0000      -0.489826       -13.3288
 199   2.0000      -0.485570       -13.2130
 200   2.0000      -0.482147       -13.1199
 201   2.0000      -0.478705       -13.0262
 202   2.0000      -0.475426       -12.9370
 203   2.0000      -0.474292       -12.9061
 204   2.0000      -0.473496       -12.8845
 205   2.0000      -0.469432       -12.7739
 206   2.0000      -0.468053       -12.7364
 207   2.0000      -0.463132       -12.6025
 208   2.0000      -0.460643       -12.5347
 209   2.0000      -0.456789       -12.4299
 210   2.0000      -0.453941       -12.3524
 211   2.0000      -0.451987       -12.2992
 212   2.0000      -0.450087       -12.2475
 213   2.0000      -0.449567       -12.2333
 214   2.0000      -0.448837       -12.2135
 215   2.0000      -0.444767       -12.1027
 216   2.0000      -0.443860       -12.0781
 217   2.0000      -0.441094       -12.0028
 218   2.0000      -0.438311       -11.9271
 219   2.0000      -0.432875       -11.7791
 220   2.0000      -0.431314       -11.7366
 221   2.0000      -0.429014       -11.6741
 222   2.0000      -0.428643       -11.6640
 223   2.0000      -0.426900       -11.6165
 224   2.0000      -0.422879       -11.5071
 225   2.0000      -0.421699       -11.4750
 226   2.0000      -0.415440       -11.3047
 227   2.0000      -0.414411       -11.2767
 228   2.0000      -0.411741       -11.2041
 229   2.0000      -0.397822       -10.8253
 230   2.0000      -0.397494       -10.8164
 231   2.0000      -0.392921       -10.6919
 232   2.0000      -0.389724       -10.6049
 233   2.0000      -0.386799       -10.5253
 234   2.0000      -0.378162       -10.2903
 235   2.0000      -0.375645       -10.2218
 236   2.0000      -0.368827       -10.0363
 237   2.0000      -0.368407       -10.0249
 238   2.0000      -0.365728        -9.9520
 239   2.0000      -0.360965        -9.8224
 240   2.0000      -0.354971        -9.6592
 241   2.0000      -0.351587        -9.5672
 242   2.0000      -0.349461        -9.5093
 243   2.0000      -0.340378        -9.2621
 244   2.0000      -0.337673        -9.1886
 245   2.0000      -0.330372        -8.9899
 246   2.0000      -0.326098        -8.8736
 247   2.0000      -0.318743        -8.6735
 248   2.0000      -0.310297        -8.4436
 249   2.0000      -0.309684        -8.4269
 250   2.0000      -0.305639        -8.3168
 251   2.0000      -0.278214        -7.5706
 252   2.0000      -0.235164        -6.3991
 253   0.0000      -0.117199        -3.1891
 254   0.0000      -0.090849        -2.4721
 255   0.0000      -0.077055        -2.0968
 256   0.0000      -0.062627        -1.7042
 257   0.0000      -0.053573        -1.4578

MULLIKEN ATOMIC CHARGES
-----------------------
   0 C :    0.151841
   1 O :   -0.140726
   2 C :   -0.024795
   3 C :    0.038085
   4 C :   -0.025139
   5 C :    0.048812
   6 C :   -0.003472
   7 C :   -0.008068
   8 Br:   -0.017756
   9 C :    0.300595
  10 C :   -0.338548
  11 C :   -0.189278
  12 N :    0.156412
  13 C :   -0.187354
  14 N :    0.155374
  15 C :   -0.071701
  16 C :   -0.048305
  17 C :    0.070830
  18 C :   -0.007262
  19 C :   -0.072645
  20 C :    0.148936
  21 C :   -0.025260
  22 C :   -0.005428
  23 N :    0.052176
  24 O :   -0.091344
  25 N :    0.033723
  26 C :   -0.128388
  27 S :    0.129819
  28 C :   -0.107467
  29 C :   -0.043477
  30 C :    0.093529
  31 C :    0.012483
  32 C :   -0.127196
  33 C :    0.207468
  34 O :   -0.202061
  35 O :   -0.291098
  36 C :    0.190386
  37 S :    0.125631
  38 C :    0.070940
  39 N :   -0.033633
  40 C :    0.116371
  41 C :   -0.136539
  42 C :    0.063398
  43 N :   -0.019225
  44 C :    0.127470
  45 C :   -0.173700
  46 C :    0.065122
  47 C :   -0.021396
  48 C :    0.039705
  49 C :   -0.132151
  50 C :    0.135478
  51 O :   -0.143912
  52 C :   -0.006833
  53 C :    0.015680
  54 C :    0.264690
  55 C :   -0.355447
  56 C :   -0.175765
  57 N :    0.151123
  58 C :   -0.182765
  59 N :    0.153238
  60 C :   -0.024838
  61 C :    0.045984
  62 C :   -0.005454
  63 C :   -0.013072
  64 Br:   -0.022567
  65 H :    0.008714
  66 H :    0.005950
  67 H :    0.002949
  68 H :    0.027528
  69 H :   -0.000623
  70 H :    0.004295
  71 H :    0.016181
  72 H :    0.040334
  73 H :    0.035799
  74 H :    0.035113
  75 H :    0.130349
  76 H :   -0.022099
  77 H :    0.136728
  78 H :   -0.019566
  79 H :    0.010929
  80 H :   -0.015954
  81 H :    0.026367
  82 H :    0.007361
  83 H :    0.005513
  84 H :    0.002897
Sum of atomic charges:   -0.0000000

LOEWDIN ATOMIC CHARGES
----------------------
   0 C :    0.084508
   1 O :   -0.131688
   2 C :   -0.033152
   3 C :   -0.016354
   4 C :    0.008850
   5 C :   -0.013037
   6 C :   -0.096846
   7 C :    0.000728
   8 Br:    0.117356
   9 C :    0.075162
  10 C :   -0.132591
  11 C :   -0.018598
  12 N :   -0.047238
  13 C :   -0.020199
  14 N :   -0.047628
  15 C :   -0.082028
  16 C :    0.071860
  17 C :   -0.048289
  18 C :    0.027830
  19 C :   -0.036371
  20 C :   -0.012675
  21 C :   -0.041101
  22 C :   -0.036396
  23 N :   -0.014218
  24 O :    0.081513
  25 N :   -0.011981
  26 C :   -0.169734
  27 S :    0.468815
  28 C :   -0.175380
  29 C :   -0.194047
  30 C :   -0.052587
  31 C :   -0.008943
  32 C :   -0.189440
  33 C :    0.063155
  34 O :   -0.178185
  35 O :   -0.082940
  36 C :    0.084974
  37 S :    0.417670
  38 C :   -0.008310
  39 N :    0.074218
  40 C :   -0.015209
  41 C :   -0.059227
  42 C :   -0.002186
  43 N :    0.079718
  44 C :    0.002184
  45 C :   -0.089787
  46 C :    0.032399
  47 C :   -0.065485
  48 C :    0.068142
  49 C :   -0.108786
  50 C :    0.082283
  51 O :   -0.141954
  52 C :   -0.039110
  53 C :   -0.014188
  54 C :    0.065042
  55 C :   -0.148688
  56 C :   -0.022121
  57 N :   -0.057078
  58 C :   -0.011184
  59 N :   -0.056804
  60 C :    0.004141
  61 C :   -0.014393
  62 C :   -0.100016
  63 C :   -0.000597
  64 Br:    0.112856
  65 H :    0.043011
  66 H :    0.040592
  67 H :    0.044171
  68 H :    0.047046
  69 H :    0.041596
  70 H :    0.025033
  71 H :    0.033677
  72 H :    0.028812
  73 H :    0.025296
  74 H :    0.024928
  75 H :    0.076815
  76 H :    0.031506
  77 H :    0.094571
  78 H :    0.025814
  79 H :    0.041799
  80 H :    0.026752
  81 H :    0.046336
  82 H :    0.041941
  83 H :    0.039775
  84 H :    0.043894

  Mayer bond orders larger than 0.100000
B(  0-C ,  1-O ) :   2.2277 B(  0-C ,  2-C ) :   0.9414 B(  0-C , 15-C ) :   0.9378
B(  2-C ,  3-C ) :   1.3322 B(  2-C ,  7-C ) :   1.3826 B(  3-C ,  4-C ) :   1.3577
B(  3-C ,  9-C ) :   0.9997 B(  4-C ,  5-C ) :   1.3884 B(  4-C , 65-H ) :   0.9838
B(  5-C ,  6-C ) :   1.3841 B(  5-C , 66-H ) :   0.9853 B(  6-C ,  7-C ) :   1.3383
B(  6-C ,  8-Br) :   0.9935 B(  7-C , 67-H ) :   1.0073 B(  9-C , 10-C ) :   1.6435
B(  9-C , 15-C ) :   1.0717 B( 10-C , 11-C ) :   1.1406 B( 10-C , 13-C ) :   1.1415
B( 11-C , 12-N ) :   2.9752 B( 13-C , 14-N ) :   2.9698 B( 15-C , 16-C ) :   1.6332
B( 16-C , 17-C ) :   1.1180 B( 16-C , 68-H ) :   0.9406 B( 17-C , 18-C ) :   1.4124
B( 17-C , 22-C ) :   1.1348 B( 18-C , 19-C ) :   1.2760 B( 18-C , 69-H ) :   0.9915
B( 19-C , 20-C ) :   1.4158 B( 19-C , 70-H ) :   0.9786 B( 20-C , 21-C ) :   1.1231
B( 20-C , 26-C ) :   1.1956 B( 21-C , 22-C ) :   1.1551 B( 21-C , 25-N ) :   1.5912
B( 22-C , 23-N ) :   1.5978 B( 23-N , 24-O ) :   1.0705 B( 23-N , 25-N ) :   0.1769
B( 24-O , 25-N ) :   1.0716 B( 26-C , 27-S ) :   1.0955 B( 26-C , 28-C ) :   0.1073
B( 26-C , 30-C ) :   1.3675 B( 27-S , 28-C ) :   1.1533 B( 28-C , 29-C ) :   1.4838
B( 28-C , 38-C ) :   1.1283 B( 29-C , 30-C ) :   1.2467 B( 29-C , 37-S ) :   1.0312
B( 30-C , 31-C ) :   1.1617 B( 31-C , 32-C ) :   1.5853 B( 31-C , 71-H ) :   0.9835
B( 32-C , 33-C ) :   0.9513 B( 32-C , 37-S ) :   1.0729 B( 33-C , 34-O ) :   2.1374
B( 33-C , 35-O ) :   1.2562 B( 35-O , 36-C ) :   0.9166 B( 36-C , 72-H ) :   0.9812
B( 36-C , 73-H ) :   0.9762 B( 36-C , 74-H ) :   0.9760 B( 38-C , 39-N ) :   1.2302
B( 38-C , 45-C ) :   1.3766 B( 39-N , 40-C ) :   1.1569 B( 39-N , 75-H ) :   0.9222
B( 40-C , 41-C ) :   1.2791 B( 40-C , 44-C ) :   1.2852 B( 41-C , 42-C ) :   1.3210
B( 41-C , 76-H ) :   1.0406 B( 42-C , 43-N ) :   1.1923 B( 42-C , 46-C ) :   1.2267
B( 43-N , 44-C ) :   1.1906 B( 43-N , 77-H ) :   0.9256 B( 44-C , 45-C ) :   1.2859
B( 45-C , 78-H ) :   1.0221 B( 46-C , 47-C ) :   1.5363 B( 46-C , 79-H ) :   0.9515
B( 47-C , 48-C ) :   1.2136 B( 47-C , 80-H ) :   0.9616 B( 48-C , 49-C ) :   1.5991
B( 48-C , 81-H ) :   0.9336 B( 49-C , 50-C ) :   0.9590 B( 49-C , 54-C ) :   1.0609
B( 50-C , 51-O ) :   2.2630 B( 50-C , 52-C ) :   0.9139 B( 52-C , 53-C ) :   1.3359
B( 52-C , 63-C ) :   1.3858 B( 53-C , 54-C ) :   1.0001 B( 53-C , 60-C ) :   1.3680
B( 54-C , 55-C ) :   1.6292 B( 55-C , 56-C ) :   1.1279 B( 55-C , 58-C ) :   1.1748
B( 56-C , 57-N ) :   2.9904 B( 58-C , 59-N ) :   2.9836 B( 60-C , 61-C ) :   1.3794
B( 60-C , 82-H ) :   0.9880 B( 61-C , 62-C ) :   1.3938 B( 61-C , 83-H ) :   0.9856
B( 62-C , 63-C ) :   1.3367 B( 62-C , 64-Br) :   0.9900 B( 63-C , 84-H ) :   1.0080

-----------------------------------------------------------------------------
         ABSORPTION SPECTRUM VIA TRANSITION ELECTRIC DIPOLE MOMENTS
-----------------------------------------------------------------------------
State   Energy  Wavelength   fosc         T2         TX        TY        TZ
        (cm-1)    (nm)                  (au**2)     (au)      (au)      (au)
-----------------------------------------------------------------------------
   0   11993.5    833.8   1.840008543  50.50669   1.72133  -6.82038  -1.01296
   1   17212.3    581.0   0.111387538   2.13046   1.31204  -0.45383  -0.45060
   2   21738.9    460.0   0.138737941   2.10104   0.48522   1.12143  -0.77974
   3   22511.7    444.2   0.034603591   0.50605   0.11708  -0.45570  -0.53355
   4   23632.9    423.1   0.240465091   3.34973   0.61812  -1.31847  -1.10873
   5   26074.7    383.5   0.029801164   0.37626   0.35514  -0.35196   0.35533
   6   26435.7    378.3   0.014053311   0.17501   0.32908   0.23552  -0.10605
   7   27227.0    367.3   0.063546990   0.76837   0.07532  -0.59453   0.63971
   8   27510.8    363.5   0.046570689   0.55730  -0.72683  -0.13074  -0.10921
   9   27949.7    357.8   0.084351819   0.99356  -0.02594  -0.54631  -0.83332
  10   28271.5    353.7   0.099694504   1.16091  -0.82278   0.69431   0.04333
  11   28758.0    347.7   0.097411246   1.11513  -0.01886   1.04485   0.15186
  12   29641.0    337.4   0.132016853   1.46626  -0.85726   0.77852   0.35394
  13   30106.6    332.2   0.071854539   0.78572  -0.28711  -0.63692   0.54555
  14   30613.0    326.7   0.132774876   1.42786   0.08331   1.17904   0.17545
  15   31090.0    321.6   0.038564352   0.40836   0.50255   0.15410   0.36339
  16   31324.1    319.2   0.003666315   0.03853  -0.19126  -0.04403   0.00341
  17   31760.8    314.9   0.024961290   0.25873  -0.13868  -0.26532  -0.41122
  18   31978.4    312.7   0.121604720   1.25190  -0.60950   0.59624   0.72450
  19   32156.0    311.0   0.043220529   0.44249  -0.05592   0.31162   0.58503
  20   33370.6    299.7   0.131976538   1.30199   0.69625  -0.06883  -0.90139
  21   33924.1    294.8   0.222818337   2.16231  -1.45599  -0.17153   0.11397
  22   34123.2    293.1   0.190831777   1.84110   0.47431  -1.07480  -0.67893
  23   34949.2    286.1   0.160863516   1.51529  -0.55625  -1.01682  -0.41469
  24   35131.9    284.6   0.435444094   4.08044   0.92813   1.70801   0.54927
  25   35248.9    283.7   0.333762716   3.11722  -1.69566  -0.16558   0.46319
  26   35687.3    280.2   0.041420362   0.38210  -0.27345  -0.54564   0.09799
  27   36209.8    276.2   0.080405864   0.73103   0.71709   0.46340  -0.04563
  28   36684.4    272.6   0.020089819   0.18029  -0.16208   0.06075   0.38772
  29   37421.8    267.2   0.028855633   0.25385   0.16548  -0.44336  -0.17293
  30   37503.3    266.6   0.024420926   0.21437   0.37402   0.25342  -0.10129
  31   38089.6    262.5   0.014593765   0.12614   0.16825   0.15692  -0.27056
  32   38344.8    260.8   0.033672083   0.28909  -0.10641  -0.44660   0.27986
  33   38410.7    260.3   0.025610391   0.21950   0.30163   0.06640  -0.35230
  34   38980.8    256.5   0.031185056   0.26337  -0.31382   0.39891   0.07590
  35   39037.8    256.2   0.033755057   0.28466   0.19232   0.22112   0.44585
  36   39290.6    254.5   0.016967838   0.14217  -0.10239  -0.22037  -0.28831
  37   39615.2    252.4   0.043701249   0.36317   0.08825  -0.07827  -0.59098
  38   40121.2    249.2   0.048236357   0.39580  -0.36900  -0.41045  -0.30195
  39   40220.7    248.6   0.051751158   0.42359   0.18759   0.49639  -0.37682

FINAL SINGLE POINT ENERGY     -8595.858392897397

DIPOLE MOMENT
-------------
                                X             Y             Z
Electronic contribution:    -32.43080     -25.43850     -12.40181
Nuclear contribution   :     30.29184      24.68082      11.73229
                        -----------------------------------------
Total Dipole Moment    :     -2.13896      -0.75767      -0.66952
                        -----------------------------------------
Magnitude (a.u.)       :      2.36590
Magnitude (Debye)      :      6.01363

Rotational constants in cm-1:     0.002340     0.000189     0.000182
Rotational constants in MHz :    70.142289     5.675284     5.450643

                             ****ORCA TERMINATED NORMALLY****
TOTAL RUN TIME: 0 days 0 hours 8 minutes 26 seconds 856 msec
