                         Program Version 4.2.0 -  RELEASE  -
|  1> # ORCA input file
|  2> # SCF done       -162.464250771559          0.000635233094
|  3> ! CAM-B3LYP def2-SVP def2/J RIJCOSX Grid4 TightSCF
|  4> %maxcore 5000
|  5> %tddft
|  6>     Mode sTDDFT
|  7>     Ethresh 5.0
|  8>     maxcore 5000
|  9> end
| 10>
| 11> %pal
| 12>   nprocs 6
| 13>   end
| 14> * xyz 0 1
| 15>    C       -5.15513        -0.81514         2.66187
| 16>    O       -4.62044        -1.85671         2.96724
| 17>    C       -5.34173         0.36593         3.53142
| 18>    C       -5.78742         1.45574         2.76293
| 19>    C       -6.00637         2.68135         3.37767
| 20>    C       -5.78393         2.79464         4.74119
| 21>    C       -5.34555         1.70321         5.48040
| 22>    C       -5.11029         0.47030         4.88718
| 23>   Br       -5.06002         1.90603         7.34640
| 24>    C       -5.94028         1.02790         1.37513
| 25>    C       -6.36949         1.81749         0.34161
| 26>    C       -6.69069         3.18604         0.46937
| 27>    N       -6.96018         4.30096         0.50476
| 28>    C       -6.54859         1.38986        -0.99121
| 29>    N       -6.72151         1.11850        -2.09351
| 30>    C       -5.60744        -0.38460         1.31238
| 31>    C       -5.56734        -1.16871         0.20095
| 32>    C       -5.42418        -2.59052         0.19534
| 33>    C       -4.76008        -3.25476        -0.82710
| 34>    C       -4.54268        -4.63049        -0.83002
| 35>    C       -5.00913        -5.49078         0.15991
| 36>    C       -5.79774        -4.86275         1.17173
| 37>    C       -5.99418        -3.43315         1.18710
| 38>    N       -6.81263        -3.16061         2.18163
| 39>    O       -7.09755        -4.31762         2.76266
| 40>    N       -6.49680        -5.35490         2.17552
| 41>    C       -4.73530        -6.89631         0.16638
| 42>    C       -5.20714        -7.74028         1.14862
| 43>    C       -4.96839        -9.10678         1.20896
| 44>    C       -4.15772        -9.79079         0.20107
| 45>    C       -3.58757        -9.16690        -0.85346
| 46>    S       -3.73623        -7.48892        -1.15972
| 47>    C       -4.13434       -11.15427         0.59924
| 48>    C       -4.87174       -11.32463         1.77732
| 49>    C       -4.88955       -12.68014         2.18194
| 50>    C       -4.18138       -13.46990         1.33384
| 51>    S       -3.46513       -12.61863         0.00884
| 52>    C       -5.39847       -10.04586         2.17874
| 53>    C       -6.19041        -9.72130         3.29957
| 54>    C       -6.50170       -10.56441         4.32290
| 55>    C       -7.31263       -10.21962         5.42697
| 56>    C       -8.01679        -9.05307         5.69515
| 57>    C       -8.70861        -9.06856         6.89931
| 58>    C       -9.54881        -7.94262         7.39220
| 59>    C       -8.56911       -10.27938         7.58935
| 60>    S       -7.53477       -11.37301         6.70607
| 61>    C       -9.06576       -10.56099         8.87334
| 62>    C       -9.13869       -11.75359         9.53783
| 63>    C       -9.18226       -11.76218        11.01959
| 64>    O       -9.39780       -10.82397        11.75210
| 65>    C       -8.84304       -13.15401        11.40210
| 66>    C       -8.73720       -13.94656        10.24414
| 67>    C       -9.06971       -13.12207         9.08414
| 68>    C       -9.51521       -13.59486         7.87597
| 69>    C       -9.48969       -14.95277         7.50557
| 70>    N       -9.46525       -16.04484         7.15191
| 71>    C      -10.14358       -12.76878         6.92151
| 72>    N      -10.71224       -12.13122         6.15478
| 73>    C       -8.39686       -15.28571        10.35262
| 74>    C       -8.16983       -15.81449        11.61464
| 75>    C       -8.29150       -15.01859        12.74591
| 76>    C       -8.62965       -13.67416        12.66146
| 77>   Br       -7.98169       -15.79086        14.45450
| 78>    H       -6.34180         3.54237         2.82358
| 79>    H       -5.95132         3.73971         5.23465
| 80>    H       -4.76623        -0.38015         5.45489
| 81>    H       -5.62597        -0.70560        -0.77580
| 82>    H       -4.34453        -2.66964        -1.63436
| 83>    H       -3.96910        -5.04484        -1.64561
| 84>    H       -5.80917        -7.27947         1.91838
| 85>    H       -2.99027        -9.68673        -1.58585
| 86>    H       -5.40072       -13.07480         3.04013
| 87>    H       -4.03009       -14.52953         1.40041
| 88>    H       -6.56022        -8.70646         3.33947
| 89>    H       -6.10356       -11.56715         4.32915
| 90>    H       -8.02650        -8.21236         5.02528
| 91>    H       -9.46047        -7.08814         6.72737
| 92>    H       -9.24430        -7.64202         8.39398
| 93>    H      -10.59421        -8.24500         7.43700
| 94>    H       -9.33884        -9.69523         9.46977
| 95>    H       -8.29527       -15.91455         9.48284
| 96>    H       -7.89761       -16.85340        11.72073
| 97>    H       -8.72418       -13.05443        13.53960
| 98> *
| 99>
|100>                          ****END OF INPUT****

CARTESIAN COORDINATES (ANGSTROEM)
---------------------------------
  C     -5.155130   -0.815140    2.661870
  O     -4.620440   -1.856710    2.967240
  C     -5.341730    0.365930    3.531420
  C     -5.787420    1.455740    2.762930
  C     -6.006370    2.681350    3.377670
  C     -5.783930    2.794640    4.741190
  C     -5.345550    1.703210    5.480400
  C     -5.110290    0.470300    4.887180
  Br    -5.060020    1.906030    7.346400
  C     -5.940280    1.027900    1.375130
  C     -6.369490    1.817490    0.341610
  C     -6.690690    3.186040    0.469370
  N     -6.960180    4.300960    0.504760
  C     -6.548590    1.389860   -0.991210
  N     -6.721510    1.118500   -2.093510
  C     -5.607440   -0.384600    1.312380
  C     -5.567340   -1.168710    0.200950
  C     -5.424180   -2.590520    0.195340
  C     -4.760080   -3.254760   -0.827100
  C     -4.542680   -4.630490   -0.830020
  C     -5.009130   -5.490780    0.159910
  C     -5.797740   -4.862750    1.171730
  C     -5.994180   -3.433150    1.187100
  N     -6.812630   -3.160610    2.181630
  O     -7.097550   -4.317620    2.762660
  N     -6.496800   -5.354900    2.175520
  C     -4.735300   -6.896310    0.166380
  C     -5.207140   -7.740280    1.148620
  C     -4.968390   -9.106780    1.208960
  C     -4.157720   -9.790790    0.201070
  C     -3.587570   -9.166900   -0.853460
  S     -3.736230   -7.488920   -1.159720
  C     -4.134340  -11.154270    0.599240
  C     -4.871740  -11.324630    1.777320
  C     -4.889550  -12.680140    2.181940
  C     -4.181380  -13.469900    1.333840
  S     -3.465130  -12.618630    0.008840
  C     -5.398470  -10.045860    2.178740
  C     -6.190410   -9.721300    3.299570
  C     -6.501700  -10.564410    4.322900
  C     -7.312630  -10.219620    5.426970
  C     -8.016790   -9.053070    5.695150
  C     -8.708610   -9.068560    6.899310
  C     -9.548810   -7.942620    7.392200
  C     -8.569110  -10.279380    7.589350
  S     -7.534770  -11.373010    6.706070
  C     -9.065760  -10.560990    8.873340
  C     -9.138690  -11.753590    9.537830
  C     -9.182260  -11.762180   11.019590
  O     -9.397800  -10.823970   11.752100
  C     -8.843040  -13.154010   11.402100
  C     -8.737200  -13.946560   10.244140
  C     -9.069710  -13.122070    9.084140
  C     -9.515210  -13.594860    7.875970
  C     -9.489690  -14.952770    7.505570
  N     -9.465250  -16.044840    7.151910
  C    -10.143580  -12.768780    6.921510
  N    -10.712240  -12.131220    6.154780
  C     -8.396860  -15.285710   10.352620
  C     -8.169830  -15.814490   11.614640
  C     -8.291500  -15.018590   12.745910
  C     -8.629650  -13.674160   12.661460
  Br    -7.981690  -15.790860   14.454500
  H     -6.341800    3.542370    2.823580
  H     -5.951320    3.739710    5.234650
  H     -4.766230   -0.380150    5.454890
  H     -5.625970   -0.705600   -0.775800
  H     -4.344530   -2.669640   -1.634360
  H     -3.969100   -5.044840   -1.645610
  H     -5.809170   -7.279470    1.918380
  H     -2.990270   -9.686730   -1.585850
  H     -5.400720  -13.074800    3.040130
  H     -4.030090  -14.529530    1.400410
  H     -6.560220   -8.706460    3.339470
  H     -6.103560  -11.567150    4.329150
  H     -8.026500   -8.212360    5.025280
  H     -9.460470   -7.088140    6.727370
  H     -9.244300   -7.642020    8.393980
  H    -10.594210   -8.245000    7.437000
  H     -9.338840   -9.695230    9.469770
  H     -8.295270  -15.914550    9.482840
  H     -7.897610  -16.853400   11.720730
  H     -8.724180  -13.054430   13.539600

 Total Charge           Charge          ....    0
 Multiplicity           Mult            ....    1
 Number of Electrons    NEL             ....  498
 Basis Dimension        Dim             .... 1030

ORBITAL ENERGIES
----------------

  NO   OCC          E(Eh)            E(eV)
   0   2.0000    -482.876726    -13139.7437
   1   2.0000    -482.867251    -13139.4859
   2   2.0000     -88.987677     -2421.4778
   3   2.0000     -88.968855     -2420.9656
   4   2.0000     -88.963246     -2420.8130
   5   2.0000     -62.554442     -1702.1929
   6   2.0000     -62.544973     -1701.9352
   7   2.0000     -56.388285     -1534.4032
   8   2.0000     -56.385754     -1534.3344
   9   2.0000     -56.385740     -1534.3340
  10   2.0000     -56.378801     -1534.1452
  11   2.0000     -56.376288     -1534.0768
  12   2.0000     -56.376286     -1534.0767
  13   2.0000     -19.368403      -527.0410
  14   2.0000     -19.226312      -523.1745
  15   2.0000     -19.209993      -522.7305
  16   2.0000     -14.495757      -394.4496
  17   2.0000     -14.490548      -394.3079
  18   2.0000     -14.426602      -392.5678
  19   2.0000     -14.423749      -392.4902
  20   2.0000     -14.410390      -392.1266
  21   2.0000     -14.405984      -392.0068
  22   2.0000     -10.377105      -282.3754
  23   2.0000     -10.361453      -281.9495
  24   2.0000     -10.354224      -281.7527
  25   2.0000     -10.351575      -281.6807
  26   2.0000     -10.350596      -281.6540
  27   2.0000     -10.343551      -281.4623
  28   2.0000     -10.342342      -281.4294
  29   2.0000     -10.338995      -281.3384
  30   2.0000     -10.337621      -281.3010
  31   2.0000     -10.337479      -281.2971
  32   2.0000     -10.337146      -281.2880
  33   2.0000     -10.336121      -281.2601
  34   2.0000     -10.335216      -281.2355
  35   2.0000     -10.328806      -281.0611
  36   2.0000     -10.328734      -281.0591
  37   2.0000     -10.326005      -280.9849
  38   2.0000     -10.320899      -280.8459
  39   2.0000     -10.320455      -280.8339
  40   2.0000     -10.320155      -280.8257
  41   2.0000     -10.317041      -280.7410
  42   2.0000     -10.314454      -280.6706
  43   2.0000     -10.313323      -280.6398
  44   2.0000     -10.311965      -280.6028
  45   2.0000     -10.311410      -280.5877
  46   2.0000     -10.310242      -280.5559
  47   2.0000     -10.309498      -280.5357
  48   2.0000     -10.309174      -280.5269
  49   2.0000     -10.308584      -280.5108
  50   2.0000     -10.308504      -280.5087
  51   2.0000     -10.308389      -280.5055
  52   2.0000     -10.307021      -280.4683
  53   2.0000     -10.305471      -280.4261
  54   2.0000     -10.305294      -280.4213
  55   2.0000     -10.304714      -280.4055
  56   2.0000     -10.302518      -280.3458
  57   2.0000     -10.300638      -280.2946
  58   2.0000     -10.299135      -280.2537
  59   2.0000     -10.298851      -280.2460
  60   2.0000     -10.298616      -280.2396
  61   2.0000     -10.297157      -280.1999
  62   2.0000     -10.295495      -280.1547
  63   2.0000     -10.294790      -280.1355
  64   2.0000     -10.293293      -280.0947
  65   2.0000     -10.291833      -280.0550
  66   2.0000     -10.288510      -279.9646
  67   2.0000     -10.286712      -279.9157
  68   2.0000     -10.286328      -279.9052
  69   2.0000     -10.279362      -279.7157
  70   2.0000     -10.276335      -279.6333
  71   2.0000      -8.783728      -239.0174
  72   2.0000      -8.774254      -238.7596
  73   2.0000      -8.082956      -219.9484
  74   2.0000      -8.064378      -219.4429
  75   2.0000      -8.058389      -219.2799
  76   2.0000      -6.619600      -180.1285
  77   2.0000      -6.610066      -179.8690
  78   2.0000      -6.605831      -179.7538
  79   2.0000      -6.605377      -179.7414
  80   2.0000      -6.596356      -179.4960
  81   2.0000      -6.595984      -179.4859
  82   2.0000      -6.052511      -164.6972
  83   2.0000      -6.047962      -164.5734
  84   2.0000      -6.044869      -164.4893
  85   2.0000      -6.033800      -164.1881
  86   2.0000      -6.029499      -164.0710
  87   2.0000      -6.027622      -164.0199
  88   2.0000      -6.026462      -163.9884
  89   2.0000      -6.023629      -163.9113
  90   2.0000      -6.020499      -163.8261
  91   2.0000      -2.735529       -74.4375
  92   2.0000      -2.731775       -74.3354
  93   2.0000      -2.731413       -74.3255
  94   2.0000      -2.726008       -74.1785
  95   2.0000      -2.722240       -74.0759
  96   2.0000      -2.721952       -74.0681
  97   2.0000      -2.720483       -74.0281
  98   2.0000      -2.720471       -74.0278
  99   2.0000      -2.711071       -73.7720
 100   2.0000      -2.711057       -73.7716
 101   2.0000      -1.321744       -35.9665
 102   2.0000      -1.142181       -31.0803
 103   2.0000      -1.125155       -30.6170
 104   2.0000      -1.028966       -27.9996
 105   2.0000      -1.028766       -27.9941
 106   2.0000      -1.021068       -27.7847
 107   2.0000      -1.015549       -27.6345
 108   2.0000      -1.014383       -27.6028
 109   2.0000      -1.009467       -27.4690
 110   2.0000      -1.003123       -27.2964
 111   2.0000      -0.996436       -27.1144
 112   2.0000      -0.994769       -27.0690
 113   2.0000      -0.985741       -26.8234
 114   2.0000      -0.983364       -26.7587
 115   2.0000      -0.971508       -26.4361
 116   2.0000      -0.957903       -26.0659
 117   2.0000      -0.945479       -25.7278
 118   2.0000      -0.937559       -25.5123
 119   2.0000      -0.927038       -25.2260
 120   2.0000      -0.918073       -24.9820
 121   2.0000      -0.912159       -24.8211
 122   2.0000      -0.904331       -24.6081
 123   2.0000      -0.902678       -24.5631
 124   2.0000      -0.891738       -24.2654
 125   2.0000      -0.886513       -24.1233
 126   2.0000      -0.872466       -23.7410
 127   2.0000      -0.870555       -23.6890
 128   2.0000      -0.866001       -23.5651
 129   2.0000      -0.852956       -23.2101
 130   2.0000      -0.849730       -23.1223
 131   2.0000      -0.845372       -23.0037
 132   2.0000      -0.818849       -22.2820
 133   2.0000      -0.817231       -22.2380
 134   2.0000      -0.803792       -21.8723
 135   2.0000      -0.789272       -21.4772
 136   2.0000      -0.781832       -21.2747
 137   2.0000      -0.777594       -21.1594
 138   2.0000      -0.774970       -21.0880
 139   2.0000      -0.767795       -20.8928
 140   2.0000      -0.760142       -20.6845
 141   2.0000      -0.757412       -20.6102
 142   2.0000      -0.734557       -19.9883
 143   2.0000      -0.731926       -19.9167
 144   2.0000      -0.710317       -19.3287
 145   2.0000      -0.701749       -19.0956
 146   2.0000      -0.700116       -19.0511
 147   2.0000      -0.692874       -18.8541
 148   2.0000      -0.688973       -18.7479
 149   2.0000      -0.684252       -18.6194
 150   2.0000      -0.674643       -18.3580
 151   2.0000      -0.669913       -18.2293
 152   2.0000      -0.663962       -18.0673
 153   2.0000      -0.652794       -17.7634
 154   2.0000      -0.646994       -17.6056
 155   2.0000      -0.641182       -17.4474
 156   2.0000      -0.639591       -17.4041
 157   2.0000      -0.627455       -17.0739
 158   2.0000      -0.623409       -16.9638
 159   2.0000      -0.622291       -16.9334
 160   2.0000      -0.618895       -16.8410
 161   2.0000      -0.609915       -16.5966
 162   2.0000      -0.604073       -16.4377
 163   2.0000      -0.600777       -16.3480
 164   2.0000      -0.591461       -16.0945
 165   2.0000      -0.587060       -15.9747
 166   2.0000      -0.584598       -15.9077
 167   2.0000      -0.578674       -15.7465
 168   2.0000      -0.574968       -15.6457
 169   2.0000      -0.571837       -15.5605
 170   2.0000      -0.557186       -15.1618
 171   2.0000      -0.555955       -15.1283
 172   2.0000      -0.551899       -15.0179
 173   2.0000      -0.550063       -14.9680
 174   2.0000      -0.546271       -14.8648
 175   2.0000      -0.542204       -14.7541
 176   2.0000      -0.539493       -14.6804
 177   2.0000      -0.537200       -14.6180
 178   2.0000      -0.533331       -14.5127
 179   2.0000      -0.531665       -14.4673
 180   2.0000      -0.528198       -14.3730
 181   2.0000      -0.526867       -14.3368
 182   2.0000      -0.524332       -14.2678
 183   2.0000      -0.523806       -14.2535
 184   2.0000      -0.519611       -14.1393
 185   2.0000      -0.517586       -14.0842
 186   2.0000      -0.514911       -14.0115
 187   2.0000      -0.510110       -13.8808
 188   2.0000      -0.505923       -13.7669
 189   2.0000      -0.504949       -13.7404
 190   2.0000      -0.501943       -13.6586
 191   2.0000      -0.494959       -13.4685
 192   2.0000      -0.493690       -13.4340
 193   2.0000      -0.491129       -13.3643
 194   2.0000      -0.488292       -13.2871
 195   2.0000      -0.483239       -13.1496
 196   2.0000      -0.479942       -13.0599
 197   2.0000      -0.474388       -12.9088
 198   2.0000      -0.473428       -12.8826
 199   2.0000      -0.469549       -12.7771
 200   2.0000      -0.468506       -12.7487
 201   2.0000      -0.466808       -12.7025
 202   2.0000      -0.461376       -12.5547
 203   2.0000      -0.459783       -12.5113
 204   2.0000      -0.458712       -12.4822
 205   2.0000      -0.457367       -12.4456
 206   2.0000      -0.457111       -12.4386
 207   2.0000      -0.452134       -12.3032
 208   2.0000      -0.449603       -12.2343
 209   2.0000      -0.446190       -12.1414
 210   2.0000      -0.444527       -12.0962
 211   2.0000      -0.442446       -12.0396
 212   2.0000      -0.439354       -11.9554
 213   2.0000      -0.438478       -11.9316
 214   2.0000      -0.436818       -11.8864
 215   2.0000      -0.436447       -11.8763
 216   2.0000      -0.434185       -11.8148
 217   2.0000      -0.433339       -11.7918
 218   2.0000      -0.427876       -11.6431
 219   2.0000      -0.427176       -11.6240
 220   2.0000      -0.423765       -11.5312
 221   2.0000      -0.419053       -11.4030
 222   2.0000      -0.417931       -11.3725
 223   2.0000      -0.415882       -11.3167
 224   2.0000      -0.415653       -11.3105
 225   2.0000      -0.413600       -11.2546
 226   2.0000      -0.408968       -11.1286
 227   2.0000      -0.400353       -10.8941
 228   2.0000      -0.396913       -10.8006
 229   2.0000      -0.393319       -10.7028
 230   2.0000      -0.392055       -10.6684
 231   2.0000      -0.379864       -10.3366
 232   2.0000      -0.371993       -10.1225
 233   2.0000      -0.371021       -10.0960
 234   2.0000      -0.362336        -9.8597
 235   2.0000      -0.357785        -9.7358
 236   2.0000      -0.354821        -9.6552
 237   2.0000      -0.353646        -9.6232
 238   2.0000      -0.345490        -9.4013
 239   2.0000      -0.344303        -9.3690
 240   2.0000      -0.337767        -9.1911
 241   2.0000      -0.329229        -8.9588
 242   2.0000      -0.323482        -8.8024
 243   2.0000      -0.318894        -8.6775
 244   2.0000      -0.310694        -8.4544
 245   2.0000      -0.304060        -8.2739
 246   2.0000      -0.292712        -7.9651
 247   2.0000      -0.277661        -7.5555
 248   2.0000      -0.235592        -6.4108
 249   0.0000      -0.118783        -3.2322
 250   0.0000      -0.090954        -2.4750
 251   0.0000      -0.078465        -2.1351
 252   0.0000      -0.062125        -1.6905
 253   0.0000      -0.052614        -1.4317

MULLIKEN ATOMIC CHARGES
-----------------------
   0 C :    0.149621
   1 O :   -0.138494
   2 C :   -0.022313
   3 C :    0.036577
   4 C :   -0.025505
   5 C :    0.051523
   6 C :   -0.005183
   7 C :   -0.007531
   8 Br:   -0.014758
   9 C :    0.301243
  10 C :   -0.344180
  11 C :   -0.185835
  12 N :    0.160366
  13 C :   -0.183546
  14 N :    0.154383
  15 C :   -0.063615
  16 C :   -0.053351
  17 C :    0.075048
  18 C :   -0.004452
  19 C :   -0.068522
  20 C :    0.124478
  21 C :   -0.024729
  22 C :    0.002479
  23 N :    0.056478
  24 O :   -0.087105
  25 N :    0.019415
  26 C :   -0.076619
  27 C :   -0.059815
  28 C :    0.056270
  29 C :    0.065952
  30 C :   -0.113087
  31 S :    0.109050
  32 C :   -0.109433
  33 C :    0.050278
  34 C :   -0.004030
  35 C :   -0.063806
  36 S :    0.138290
  37 C :    0.097537
  38 C :   -0.012797
  39 C :    0.062495
  40 C :   -0.041672
  41 C :   -0.038425
  42 C :   -0.018885
  43 C :    0.117202
  44 C :   -0.123602
  45 S :    0.143427
  46 C :    0.026211
  47 C :   -0.143879
  48 C :    0.141893
  49 O :   -0.146161
  50 C :   -0.009347
  51 C :    0.021539
  52 C :    0.246623
  53 C :   -0.322525
  54 C :   -0.176500
  55 N :    0.147445
  56 C :   -0.210662
  57 N :    0.168551
  58 C :   -0.028255
  59 C :    0.048730
  60 C :   -0.006008
  61 C :   -0.014909
  62 Br:   -0.026510
  63 H :    0.009842
  64 H :    0.007280
  65 H :    0.003394
  66 H :    0.028281
  67 H :    0.001456
  68 H :    0.011627
  69 H :    0.001042
  70 H :    0.040272
  71 H :   -0.003425
  72 H :    0.033021
  73 H :   -0.015332
  74 H :   -0.039130
  75 H :   -0.013072
  76 H :    0.018749
  77 H :    0.039872
  78 H :    0.050721
  79 H :    0.013788
  80 H :    0.008513
  81 H :    0.003508
  82 H :    0.002531
Sum of atomic charges:    0.0000000

LOEWDIN ATOMIC CHARGES
----------------------
   0 C :    0.084445
   1 O :   -0.129546
   2 C :   -0.033431
   3 C :   -0.016538
   4 C :    0.009261
   5 C :   -0.011858
   6 C :   -0.096104
   7 C :    0.001373
   8 Br:    0.119719
   9 C :    0.074941
  10 C :   -0.130420
  11 C :   -0.018669
  12 N :   -0.044517
  13 C :   -0.019926
  14 N :   -0.046005
  15 C :   -0.077968
  16 C :    0.070960
  17 C :   -0.042040
  18 C :    0.028808
  19 C :   -0.033750
  20 C :   -0.015135
  21 C :   -0.038322
  22 C :   -0.037783
  23 N :   -0.009683
  24 O :    0.081080
  25 N :   -0.030223
  26 C :   -0.173664
  27 C :    0.004692
  28 C :   -0.020681
  29 C :   -0.052933
  30 C :   -0.132778
  31 S :    0.456489
  32 C :   -0.192153
  33 C :   -0.038804
  34 C :   -0.062214
  35 C :   -0.159486
  36 S :    0.432797
  37 C :   -0.030033
  38 C :    0.008047
  39 C :   -0.050539
  40 C :   -0.126257
  41 C :   -0.064262
  42 C :   -0.001559
  43 C :   -0.042968
  44 C :   -0.198023
  45 S :    0.466743
  46 C :    0.053646
  47 C :   -0.114501
  48 C :    0.082549
  49 O :   -0.145840
  50 C :   -0.038776
  51 C :   -0.011793
  52 C :    0.060689
  53 C :   -0.148098
  54 C :   -0.020450
  55 N :   -0.057595
  56 C :   -0.035939
  57 N :   -0.052125
  58 C :    0.003159
  59 C :   -0.014883
  60 C :   -0.101068
  61 C :   -0.001340
  62 Br:    0.109960
  63 H :    0.043309
  64 H :    0.041150
  65 H :    0.044561
  66 H :    0.047708
  67 H :    0.042146
  68 H :    0.027556
  69 H :    0.037095
  70 H :    0.038776
  71 H :    0.031776
  72 H :    0.026826
  73 H :    0.033841
  74 H :    0.026621
  75 H :    0.030908
  76 H :    0.036835
  77 H :    0.041887
  78 H :    0.048348
  79 H :    0.047387
  80 H :    0.041913
  81 H :    0.039132
  82 H :    0.043546

  Mayer bond orders larger than 0.100000
B(  0-C ,  1-O ) :   2.2316 B(  0-C ,  2-C ) :   0.9396 B(  0-C , 15-C ) :   0.9354
B(  2-C ,  3-C ) :   1.3322 B(  2-C ,  7-C ) :   1.3838 B(  3-C ,  4-C ) :   1.3567
B(  3-C ,  9-C ) :   1.0020 B(  4-C ,  5-C ) :   1.3903 B(  4-C , 63-H ) :   0.9821
B(  5-C ,  6-C ) :   1.3856 B(  5-C , 64-H ) :   0.9837 B(  6-C ,  7-C ) :   1.3378
B(  6-C ,  8-Br) :   0.9955 B(  7-C , 65-H ) :   1.0063 B(  9-C , 10-C ) :   1.6494
B(  9-C , 15-C ) :   1.0652 B( 10-C , 11-C ) :   1.1390 B( 10-C , 13-C ) :   1.1425
B( 11-C , 12-N ) :   2.9763 B( 13-C , 14-N ) :   2.9668 B( 15-C , 16-C ) :   1.6468
B( 16-C , 17-C ) :   1.1033 B( 16-C , 66-H ) :   0.9414 B( 17-C , 18-C ) :   1.4378
B( 17-C , 22-C ) :   1.1346 B( 18-C , 19-C ) :   1.2488 B( 18-C , 67-H ) :   0.9918
B( 19-C , 20-C ) :   1.4406 B( 19-C , 68-H ) :   0.9776 B( 20-C , 21-C ) :   1.1341
B( 20-C , 26-C ) :   1.1707 B( 21-C , 22-C ) :   1.1590 B( 21-C , 25-N ) :   1.5759
B( 22-C , 23-N ) :   1.5949 B( 23-N , 24-O ) :   1.0754 B( 23-N , 25-N ) :   0.1785
B( 24-O , 25-N ) :   1.0639 B( 26-C , 27-C ) :   1.5219 B( 26-C , 31-S ) :   1.0243
B( 27-C , 28-C ) :   1.2510 B( 27-C , 69-H ) :   0.9394 B( 28-C , 29-C ) :   1.0521
B( 28-C , 37-C ) :   1.3393 B( 29-C , 30-C ) :   1.5993 B( 29-C , 32-C ) :   1.1818
B( 30-C , 31-S ) :   1.1492 B( 30-C , 70-H ) :   0.9407 B( 32-C , 33-C ) :   1.4379
B( 32-C , 36-S ) :   1.0891 B( 33-C , 34-C ) :   1.2097 B( 33-C , 37-C ) :   1.0862
B( 34-C , 35-C ) :   1.5960 B( 34-C , 71-H ) :   0.9994 B( 35-C , 36-S ) :   1.1509
B( 35-C , 72-H ) :   0.9641 B( 37-C , 38-C ) :   1.2059 B( 38-C , 39-C ) :   1.6045
B( 38-C , 73-H ) :   0.9606 B( 39-C , 40-C ) :   1.1451 B( 39-C , 74-H ) :   0.9647
B( 40-C , 41-C ) :   1.4114 B( 40-C , 45-S ) :   1.1565 B( 41-C , 42-C ) :   1.3504
B( 41-C , 75-H ) :   0.9907 B( 42-C , 43-C ) :   1.1086 B( 42-C , 44-C ) :   1.3816
B( 43-C , 76-H ) :   0.9484 B( 43-C , 77-H ) :   0.9321 B( 43-C , 78-H ) :   0.9426
B( 44-C , 45-S ) :   1.0834 B( 44-C , 46-C ) :   1.2158 B( 46-C , 47-C ) :   1.5845
B( 46-C , 79-H ) :   0.9372 B( 47-C , 48-C ) :   0.9626 B( 47-C , 52-C ) :   1.0564
B( 48-C , 49-O ) :   2.2561 B( 48-C , 50-C ) :   0.9164 B( 50-C , 51-C ) :   1.3372
B( 50-C , 61-C ) :   1.3873 B( 51-C , 52-C ) :   1.0055 B( 51-C , 58-C ) :   1.3716
B( 52-C , 53-C ) :   1.6405 B( 53-C , 54-C ) :   1.1352 B( 53-C , 56-C ) :   1.1539
B( 54-C , 55-N ) :   2.9918 B( 56-C , 57-N ) :   3.0275 B( 58-C , 59-C ) :   1.3749
B( 58-C , 80-H ) :   0.9875 B( 59-C , 60-C ) :   1.3965 B( 59-C , 81-H ) :   0.9847
B( 60-C , 61-C ) :   1.3364 B( 60-C , 62-Br) :   0.9886 B( 61-C , 82-H ) :   1.0076

-----------------------------------------------------------------------------
         ABSORPTION SPECTRUM VIA TRANSITION ELECTRIC DIPOLE MOMENTS
-----------------------------------------------------------------------------
State   Energy  Wavelength   fosc         T2         TX        TY        TZ
        (cm-1)    (nm)                  (au**2)     (au)      (au)      (au)
-----------------------------------------------------------------------------
   0   11765.8    849.9   0.993623906  27.80195   0.96951   4.55230  -2.47761
   1   17333.7    576.9   0.515864499   9.79761  -1.57704  -0.59677   2.63712
   2   20499.2    487.8   0.462607886   7.42936   0.92795  -2.33752  -1.05085
   3   21823.7    458.2   0.018072572   0.27263   0.06565  -0.29236  -0.42760
   4   22418.3    446.1   0.011802155   0.17331  -0.05595  -0.31780   0.26303
   5   24156.9    414.0   0.127638775   1.73947   0.04640   1.30768   0.16517
   6   24653.6    405.6   0.275269164   3.67581   0.78887  -0.25265  -1.72906
   7   25856.3    386.8   0.058350934   0.74295   0.13483   0.72885  -0.43994
   8   26582.7    376.2   0.015327233   0.18982   0.11438  -0.00733   0.42034
   9   27062.9    369.5   0.158289062   1.92554  -0.03854  -1.31891  -0.42957
  10   27201.9    367.6   0.050627251   0.61272  -0.20995   0.18722  -0.73047
  11   28157.6    355.1   0.073980087   0.86496   0.13971   0.68103  -0.61776
  12   28545.4    350.3   0.216440296   2.49619   0.02940   0.06185   1.57845
  13   29573.9    338.1   0.076014419   0.84618  -0.39486  -0.17246   0.81273
  14   29785.9    335.7   0.116274442   1.28514   0.15633  -0.19931  -1.10498
  15   30368.4    329.3   0.043138704   0.46765   0.19575   0.57055   0.32219
  16   30643.0    326.3   0.059639624   0.64074  -0.37644   0.56581  -0.42296
  17   30781.1    324.9   0.077562529   0.82955   0.27558  -0.57871  -0.64707
  18   31941.2    313.1   0.017483820   0.18020  -0.03992   0.21590   0.36331
  19   32328.0    309.3   0.064800417   0.65989  -0.15513   0.35189   0.71554
  20   32734.6    305.5   0.040867324   0.41100  -0.52929   0.24564   0.26555
  21   33408.8    299.3   0.194336871   1.91500   0.37243  -0.40960   1.26828
  22   33556.0    298.0   0.030920352   0.30335   0.08428   0.24460  -0.48623
  23   34023.8    293.9   0.034685928   0.33562   0.43331  -0.28008   0.26346
  24   34198.7    292.4   0.329532783   3.17223   0.23224  -0.13976   1.76033
  25   34290.0    291.6   0.091090367   0.87454   0.24918  -0.52190  -0.73490
  26   34669.0    288.4   0.044997942   0.42729  -0.47788   0.17203   0.41149
  27   34951.6    286.1   0.379808224   3.57744   0.49485  -0.65760   1.70298
  28   35471.4    281.9   0.020481241   0.19009   0.31656  -0.29667   0.04315
  29   35612.1    280.8   0.277969906   2.56966  -0.39903  -0.15593  -1.54471
  30   36079.7    277.2   0.066283407   0.60481  -0.28287   0.12771  -0.71308
  31   36293.3    275.5   0.118122935   1.07148   0.30746  -0.62024   0.76957
  32   36644.8    272.9   0.053957313   0.48475   0.04274   0.62386  -0.30613
  33   37015.1    270.2   0.066268434   0.58939  -0.22026  -0.30012   0.67142
  34   37514.5    266.6   0.047804749   0.41951  -0.35738   0.54012  -0.00795
  35   37752.9    264.9   0.052610404   0.45877  -0.09330   0.59310  -0.31353
  36   38234.3    261.5   0.076793734   0.66122  -0.35016   0.53653   0.50074
  37   38413.3    260.3   0.017376621   0.14892  -0.01564   0.37870   0.07253
  38   38681.4    258.5   0.005901729   0.05023  -0.20819   0.07018   0.04428
  39   38733.0    258.2   0.098222716   0.83485  -0.26502   0.09696  -0.86903
  40   39152.0    255.4   0.058068074   0.48827  -0.12942  -0.32690   0.60386
  41   39694.6    251.9   0.406724833   3.37322  -0.23968   1.80127  -0.26684
  42   40167.6    249.0   0.021496450   0.17618   0.22983  -0.34849  -0.04378

FINAL SINGLE POINT ENERGY     -8772.291146870999

DIPOLE MOMENT
-------------
                                X             Y             Z
Electronic contribution:      5.96635      12.66813     114.21339
Nuclear contribution   :     -3.06695     -12.86102    -115.26689
                        -----------------------------------------
Total Dipole Moment    :      2.89940      -0.19288      -1.05350
                        -----------------------------------------
Magnitude (a.u.)       :      3.09089
Magnitude (Debye)      :      7.85641

Rotational constants in cm-1:     0.001072     0.000322     0.000261
Rotational constants in MHz :    32.140238     9.662330     7.813153

                             ****ORCA TERMINATED NORMALLY****
TOTAL RUN TIME: 0 days 0 hours 8 minutes 22 seconds 571 msec
