                         Program Version 4.2.0 -  RELEASE  -
|  1> # ORCA input file
|  2> # SCF done       -171.572322716050          0.000540375318
|  3> ! CAM-B3LYP def2-SVP def2/J RIJCOSX Grid4 TightSCF
|  4> %maxcore 5000
|  5> %tddft
|  6>     Mode sTDDFT
|  7>     Ethresh 5.0
|  8>     maxcore 5000
|  9> end
| 10>
| 11> %pal
| 12>   nprocs 6
| 13>   end
| 14> * xyz 0 1
| 15>    C        1.86041        -4.59380         2.54978
| 16>    O        1.32663        -5.67871         2.52632
| 17>    C        3.05112        -4.21898         3.34221
| 18>    C        3.50622        -2.94855         2.94777
| 19>    C        4.63139        -2.40671         3.55569
| 20>    C        5.27734        -3.13789         4.53992
| 21>    C        4.81129        -4.39329         4.91084
| 22>    C        3.69191        -4.95790         4.31517
| 23>   Br        5.73042        -5.35773         6.26304
| 24>    C        2.62745        -2.43148         1.90321
| 25>    C        2.76621        -1.22477         1.27282
| 26>    C        3.81413        -0.31297         1.52700
| 27>    N        4.64217         0.46603         1.68221
| 28>    C        1.90293        -0.71629         0.27818
| 29>    N        1.25311        -0.23318        -0.53552
| 30>    C        1.57343        -3.41203         1.69084
| 31>    C        0.56788        -3.34552         0.78077
| 32>    C       -0.54311        -4.24821         0.71127
| 33>    C       -1.11950        -4.60646        -0.49480
| 34>    C       -2.12820        -5.57157        -0.60161
| 35>    C       -2.66011        -6.23256         0.49013
| 36>    C       -2.22709        -5.76104         1.76049
| 37>    C       -1.16879        -4.78878         1.86767
| 38>    N       -1.04890        -4.47919         3.14136
| 39>    O       -1.96108        -5.19884         3.78613
| 40>    N       -2.68388        -5.97187         2.97779
| 41>    C       -3.58817        -7.31936         0.34558
| 42>    S       -4.74637        -7.32237        -0.93700
| 43>    C       -5.33859        -8.89888        -0.48040
| 44>    C       -4.65985        -9.37085         0.63854
| 45>    C       -3.65834        -8.48823         1.08163
| 46>    C       -2.64947        -8.82501         2.14706
| 47>    N       -1.33990        -8.37315         1.70012
| 48>    C       -2.72325       -10.32438         2.46894
| 49>    C       -4.17398       -10.73010         2.67661
| 50>    C       -4.95584       -10.66326         1.35338
| 51>    N       -6.39366       -10.80450         1.53485
| 52>    C       -6.30566        -9.46428        -1.35488
| 53>    C       -6.72601       -10.75053        -1.38782
| 54>    C       -7.59964       -11.29622        -2.37674
| 55>    C       -8.34885       -10.59359        -3.31084
| 56>    C       -9.11954       -11.21565        -4.29444
| 57>    C       -9.17207       -12.59118        -4.48028
| 58>    C       -8.47265       -13.35650        -3.50793
| 59>    C       -7.72065       -12.71311        -2.46118
| 60>    N       -7.21890       -13.66305        -1.70065
| 61>    O       -7.62799       -14.81514        -2.21836
| 62>    N       -8.38347       -14.65710        -3.30945
| 63>    C       -9.92253       -13.17250        -5.54716
| 64>    C       -9.76648       -14.38311        -6.14089
| 65>    C      -10.88425       -14.95036        -6.94756
| 66>    O      -11.86318       -14.36587        -7.34530
| 67>    C      -10.55221       -16.38428        -7.10234
| 68>    C       -9.27600       -16.63162        -6.56290
| 69>    C       -8.70734       -15.37055        -6.09748
| 70>    C       -7.37465       -15.12891        -5.90506
| 71>    C       -6.37615       -16.12321        -5.97030
| 72>    N       -5.52678       -16.89384        -6.00508
| 73>    C       -6.83052       -13.84423        -5.70407
| 74>    N       -6.33537       -12.81782        -5.56526
| 75>    C       -8.76518       -17.92109        -6.56427
| 76>    C       -9.52954       -18.93947        -7.11237
| 77>    C      -10.77996       -18.67138        -7.65545
| 78>    C      -11.31583       -17.39038        -7.65799
| 79>   Br      -11.78299       -20.09723        -8.40865
| 80>    H        5.01335        -1.43732         3.28138
| 81>    H        6.15227        -2.73048         5.02281
| 82>    H        3.32610        -5.93280         4.59754
| 83>    H        0.58832        -2.57375         0.02189
| 84>    H       -0.72370        -4.17797        -1.40423
| 85>    H       -2.46822        -5.85067        -1.58840
| 86>    H       -2.89394        -8.24915         3.04870
| 87>    H       -1.01131        -8.93652         0.92327
| 88>    H       -0.65682        -8.43060         2.44573
| 89>    H       -2.13411       -10.53452         3.36372
| 90>    H       -2.29804       -10.89686         1.63914
| 91>    H       -4.63615       -10.05362         3.40150
| 92>    H       -4.23495       -11.74567         3.07398
| 93>    H       -4.62854       -11.49621         0.71361
| 94>    H       -6.74971       -10.05311         2.11560
| 95>    H       -6.60379       -11.68320         1.99464
| 96>    H       -6.65465        -8.77849        -2.11708
| 97>    H       -6.36502       -11.45964        -0.66362
| 98>    H       -8.34176        -9.51517        -3.28574
| 99>    H       -9.66382       -10.59037        -4.98752
|100>    H      -10.76876       -12.59182        -5.90227
|101>    H       -7.80069       -18.14577        -6.13892
|102>    H       -9.15192       -19.95049        -7.11890
|103>    H      -12.28861       -17.18106        -8.07524
|104> *
|105>
|106>                          ****END OF INPUT****

CARTESIAN COORDINATES (ANGSTROEM)
---------------------------------
  C      1.860410   -4.593800    2.549780
  O      1.326630   -5.678710    2.526320
  C      3.051120   -4.218980    3.342210
  C      3.506220   -2.948550    2.947770
  C      4.631390   -2.406710    3.555690
  C      5.277340   -3.137890    4.539920
  C      4.811290   -4.393290    4.910840
  C      3.691910   -4.957900    4.315170
  Br     5.730420   -5.357730    6.263040
  C      2.627450   -2.431480    1.903210
  C      2.766210   -1.224770    1.272820
  C      3.814130   -0.312970    1.527000
  N      4.642170    0.466030    1.682210
  C      1.902930   -0.716290    0.278180
  N      1.253110   -0.233180   -0.535520
  C      1.573430   -3.412030    1.690840
  C      0.567880   -3.345520    0.780770
  C     -0.543110   -4.248210    0.711270
  C     -1.119500   -4.606460   -0.494800
  C     -2.128200   -5.571570   -0.601610
  C     -2.660110   -6.232560    0.490130
  C     -2.227090   -5.761040    1.760490
  C     -1.168790   -4.788780    1.867670
  N     -1.048900   -4.479190    3.141360
  O     -1.961080   -5.198840    3.786130
  N     -2.683880   -5.971870    2.977790
  C     -3.588170   -7.319360    0.345580
  S     -4.746370   -7.322370   -0.937000
  C     -5.338590   -8.898880   -0.480400
  C     -4.659850   -9.370850    0.638540
  C     -3.658340   -8.488230    1.081630
  C     -2.649470   -8.825010    2.147060
  N     -1.339900   -8.373150    1.700120
  C     -2.723250  -10.324380    2.468940
  C     -4.173980  -10.730100    2.676610
  C     -4.955840  -10.663260    1.353380
  N     -6.393660  -10.804500    1.534850
  C     -6.305660   -9.464280   -1.354880
  C     -6.726010  -10.750530   -1.387820
  C     -7.599640  -11.296220   -2.376740
  C     -8.348850  -10.593590   -3.310840
  C     -9.119540  -11.215650   -4.294440
  C     -9.172070  -12.591180   -4.480280
  C     -8.472650  -13.356500   -3.507930
  C     -7.720650  -12.713110   -2.461180
  N     -7.218900  -13.663050   -1.700650
  O     -7.627990  -14.815140   -2.218360
  N     -8.383470  -14.657100   -3.309450
  C     -9.922530  -13.172500   -5.547160
  C     -9.766480  -14.383110   -6.140890
  C    -10.884250  -14.950360   -6.947560
  O    -11.863180  -14.365870   -7.345300
  C    -10.552210  -16.384280   -7.102340
  C     -9.276000  -16.631620   -6.562900
  C     -8.707340  -15.370550   -6.097480
  C     -7.374650  -15.128910   -5.905060
  C     -6.376150  -16.123210   -5.970300
  N     -5.526780  -16.893840   -6.005080
  C     -6.830520  -13.844230   -5.704070
  N     -6.335370  -12.817820   -5.565260
  C     -8.765180  -17.921090   -6.564270
  C     -9.529540  -18.939470   -7.112370
  C    -10.779960  -18.671380   -7.655450
  C    -11.315830  -17.390380   -7.657990
  Br   -11.782990  -20.097230   -8.408650
  H      5.013350   -1.437320    3.281380
  H      6.152270   -2.730480    5.022810
  H      3.326100   -5.932800    4.597540
  H      0.588320   -2.573750    0.021890
  H     -0.723700   -4.177970   -1.404230
  H     -2.468220   -5.850670   -1.588400
  H     -2.893940   -8.249150    3.048700
  H     -1.011310   -8.936520    0.923270
  H     -0.656820   -8.430600    2.445730
  H     -2.134110  -10.534520    3.363720
  H     -2.298040  -10.896860    1.639140
  H     -4.636150  -10.053620    3.401500
  H     -4.234950  -11.745670    3.073980
  H     -4.628540  -11.496210    0.713610
  H     -6.749710  -10.053110    2.115600
  H     -6.603790  -11.683200    1.994640
  H     -6.654650   -8.778490   -2.117080
  H     -6.365020  -11.459640   -0.663620
  H     -8.341760   -9.515170   -3.285740
  H     -9.663820  -10.590370   -4.987520
  H    -10.768760  -12.591820   -5.902270
  H     -7.800690  -18.145770   -6.138920
  H     -9.151920  -19.950490   -7.118900
  H    -12.288610  -17.181060   -8.075240

 Total Charge           Charge          ....    0
 Multiplicity           Mult            ....    1
 Number of Electrons    NEL             ....  500
 Basis Dimension        Dim             .... 1070

ORBITAL ENERGIES
----------------

  NO   OCC          E(Eh)            E(eV)
   0   2.0000    -482.876292    -13139.7319
   1   2.0000    -482.870860    -13139.5841
   2   2.0000     -88.968414     -2420.9536
   3   2.0000     -62.554035     -1702.1818
   4   2.0000     -62.548588     -1702.0336
   5   2.0000     -56.387871     -1534.3920
   6   2.0000     -56.385349     -1534.3233
   7   2.0000     -56.385336     -1534.3230
   8   2.0000     -56.382423     -1534.2437
   9   2.0000     -56.379900     -1534.1751
  10   2.0000     -56.379895     -1534.1749
  11   2.0000     -19.358878      -526.7819
  12   2.0000     -19.353047      -526.6232
  13   2.0000     -19.225355      -523.1485
  14   2.0000     -19.220651      -523.0205
  15   2.0000     -14.487068      -394.2131
  16   2.0000     -14.480794      -394.0424
  17   2.0000     -14.477834      -393.9619
  18   2.0000     -14.476746      -393.9323
  19   2.0000     -14.424577      -392.5127
  20   2.0000     -14.422025      -392.4432
  21   2.0000     -14.416439      -392.2913
  22   2.0000     -14.414619      -392.2417
  23   2.0000     -14.394624      -391.6976
  24   2.0000     -14.393066      -391.6552
  25   2.0000     -10.375946      -282.3438
  26   2.0000     -10.370874      -282.2058
  27   2.0000     -10.352336      -281.7014
  28   2.0000     -10.349726      -281.6304
  29   2.0000     -10.349711      -281.6300
  30   2.0000     -10.343485      -281.4605
  31   2.0000     -10.342783      -281.4414
  32   2.0000     -10.340021      -281.3663
  33   2.0000     -10.329180      -281.0713
  34   2.0000     -10.328057      -281.0407
  35   2.0000     -10.326752      -281.0052
  36   2.0000     -10.326004      -280.9849
  37   2.0000     -10.325574      -280.9731
  38   2.0000     -10.324549      -280.9453
  39   2.0000     -10.324426      -280.9419
  40   2.0000     -10.323949      -280.9289
  41   2.0000     -10.319067      -280.7961
  42   2.0000     -10.318308      -280.7754
  43   2.0000     -10.318284      -280.7748
  44   2.0000     -10.316969      -280.7390
  45   2.0000     -10.315780      -280.7067
  46   2.0000     -10.314773      -280.6792
  47   2.0000     -10.313897      -280.6554
  48   2.0000     -10.313216      -280.6369
  49   2.0000     -10.312106      -280.6067
  50   2.0000     -10.312004      -280.6039
  51   2.0000     -10.311517      -280.5906
  52   2.0000     -10.311262      -280.5837
  53   2.0000     -10.309887      -280.5463
  54   2.0000     -10.308820      -280.5173
  55   2.0000     -10.308419      -280.5063
  56   2.0000     -10.308198      -280.5003
  57   2.0000     -10.307341      -280.4770
  58   2.0000     -10.304059      -280.3877
  59   2.0000     -10.304042      -280.3872
  60   2.0000     -10.303187      -280.3640
  61   2.0000     -10.302988      -280.3586
  62   2.0000     -10.301177      -280.3093
  63   2.0000     -10.300891      -280.3015
  64   2.0000     -10.300842      -280.3002
  65   2.0000     -10.300298      -280.2854
  66   2.0000     -10.299011      -280.2503
  67   2.0000     -10.298854      -280.2461
  68   2.0000     -10.290688      -280.0239
  69   2.0000     -10.288884      -279.9748
  70   2.0000     -10.284414      -279.8531
  71   2.0000     -10.271614      -279.5048
  72   2.0000     -10.270037      -279.4619
  73   2.0000      -8.783340      -239.0068
  74   2.0000      -8.777884      -238.8584
  75   2.0000      -8.063992      -219.4324
  76   2.0000      -6.619197      -180.1175
  77   2.0000      -6.613734      -179.9689
  78   2.0000      -6.605440      -179.7432
  79   2.0000      -6.605008      -179.7314
  80   2.0000      -6.599984      -179.5947
  81   2.0000      -6.599562      -179.5832
  82   2.0000      -6.033075      -164.1683
  83   2.0000      -6.029120      -164.0607
  84   2.0000      -6.026364      -163.9857
  85   2.0000      -2.735149       -74.4272
  86   2.0000      -2.731396       -74.3251
  87   2.0000      -2.730991       -74.3140
  88   2.0000      -2.729643       -74.2774
  89   2.0000      -2.725901       -74.1755
  90   2.0000      -2.725609       -74.1676
  91   2.0000      -2.720108       -74.0179
  92   2.0000      -2.720097       -74.0176
  93   2.0000      -2.714663       -73.8697
  94   2.0000      -2.714655       -73.8695
  95   2.0000      -1.311623       -35.6911
  96   2.0000      -1.306831       -35.5607
  97   2.0000      -1.141060       -31.0498
  98   2.0000      -1.135917       -30.9099
  99   2.0000      -1.027040       -27.9472
 100   2.0000      -1.023867       -27.8608
 101   2.0000      -1.020293       -27.7636
 102   2.0000      -1.014198       -27.5977
 103   2.0000      -1.009788       -27.4777
 104   2.0000      -1.007910       -27.4266
 105   2.0000      -1.006316       -27.3833
 106   2.0000      -1.001704       -27.2578
 107   2.0000      -1.001191       -27.2438
 108   2.0000      -1.000343       -27.2207
 109   2.0000      -0.993080       -27.0231
 110   2.0000      -0.980573       -26.6827
 111   2.0000      -0.974866       -26.5274
 112   2.0000      -0.969668       -26.3860
 113   2.0000      -0.963510       -26.2184
 114   2.0000      -0.929690       -25.2982
 115   2.0000      -0.927620       -25.2418
 116   2.0000      -0.925726       -25.1903
 117   2.0000      -0.917539       -24.9675
 118   2.0000      -0.915846       -24.9214
 119   2.0000      -0.909407       -24.7462
 120   2.0000      -0.897798       -24.4303
 121   2.0000      -0.893935       -24.3252
 122   2.0000      -0.888049       -24.1650
 123   2.0000      -0.878646       -23.9092
 124   2.0000      -0.867383       -23.6027
 125   2.0000      -0.859875       -23.3984
 126   2.0000      -0.850904       -23.1543
 127   2.0000      -0.841345       -22.8942
 128   2.0000      -0.833806       -22.6890
 129   2.0000      -0.815938       -22.2028
 130   2.0000      -0.793532       -21.5931
 131   2.0000      -0.791520       -21.5384
 132   2.0000      -0.775192       -21.0941
 133   2.0000      -0.769678       -20.9440
 134   2.0000      -0.768020       -20.8989
 135   2.0000      -0.765977       -20.8433
 136   2.0000      -0.764373       -20.7997
 137   2.0000      -0.752740       -20.4831
 138   2.0000      -0.751230       -20.4420
 139   2.0000      -0.730843       -19.8872
 140   2.0000      -0.715828       -19.4787
 141   2.0000      -0.711372       -19.3574
 142   2.0000      -0.703250       -19.1364
 143   2.0000      -0.701691       -19.0940
 144   2.0000      -0.696346       -18.9485
 145   2.0000      -0.694978       -18.9113
 146   2.0000      -0.683553       -18.6004
 147   2.0000      -0.681187       -18.5360
 148   2.0000      -0.669548       -18.2193
 149   2.0000      -0.653652       -17.7868
 150   2.0000      -0.651484       -17.7278
 151   2.0000      -0.641212       -17.4483
 152   2.0000      -0.638564       -17.3762
 153   2.0000      -0.635875       -17.3031
 154   2.0000      -0.630398       -17.1540
 155   2.0000      -0.624015       -16.9803
 156   2.0000      -0.621140       -16.9021
 157   2.0000      -0.615243       -16.7416
 158   2.0000      -0.611500       -16.6398
 159   2.0000      -0.608260       -16.5516
 160   2.0000      -0.605759       -16.4835
 161   2.0000      -0.604193       -16.4409
 162   2.0000      -0.594529       -16.1780
 163   2.0000      -0.584824       -15.9139
 164   2.0000      -0.583860       -15.8876
 165   2.0000      -0.582673       -15.8553
 166   2.0000      -0.577439       -15.7129
 167   2.0000      -0.576088       -15.6762
 168   2.0000      -0.572239       -15.5714
 169   2.0000      -0.562796       -15.3145
 170   2.0000      -0.553530       -15.0623
 171   2.0000      -0.549541       -14.9538
 172   2.0000      -0.548269       -14.9192
 173   2.0000      -0.544820       -14.8253
 174   2.0000      -0.543190       -14.7809
 175   2.0000      -0.541449       -14.7336
 176   2.0000      -0.537655       -14.6303
 177   2.0000      -0.536371       -14.5954
 178   2.0000      -0.531199       -14.4547
 179   2.0000      -0.530011       -14.4223
 180   2.0000      -0.527489       -14.3537
 181   2.0000      -0.524205       -14.2643
 182   2.0000      -0.519608       -14.1393
 183   2.0000      -0.517861       -14.0917
 184   2.0000      -0.510889       -13.9020
 185   2.0000      -0.506949       -13.7948
 186   2.0000      -0.503965       -13.7136
 187   2.0000      -0.503772       -13.7083
 188   2.0000      -0.502126       -13.6635
 189   2.0000      -0.500754       -13.6262
 190   2.0000      -0.497787       -13.5455
 191   2.0000      -0.491797       -13.3825
 192   2.0000      -0.488327       -13.2880
 193   2.0000      -0.484341       -13.1796
 194   2.0000      -0.481535       -13.1032
 195   2.0000      -0.479965       -13.0605
 196   2.0000      -0.478115       -13.0102
 197   2.0000      -0.475842       -12.9483
 198   2.0000      -0.475166       -12.9299
 199   2.0000      -0.474018       -12.8987
 200   2.0000      -0.469937       -12.7876
 201   2.0000      -0.466798       -12.7022
 202   2.0000      -0.465336       -12.6624
 203   2.0000      -0.462014       -12.5720
 204   2.0000      -0.457967       -12.4619
 205   2.0000      -0.455631       -12.3983
 206   2.0000      -0.453992       -12.3538
 207   2.0000      -0.452013       -12.2999
 208   2.0000      -0.449847       -12.2410
 209   2.0000      -0.449542       -12.2327
 210   2.0000      -0.444938       -12.1074
 211   2.0000      -0.443194       -12.0599
 212   2.0000      -0.441910       -12.0250
 213   2.0000      -0.434691       -11.8285
 214   2.0000      -0.434202       -11.8152
 215   2.0000      -0.430955       -11.7269
 216   2.0000      -0.428577       -11.6622
 217   2.0000      -0.424737       -11.5577
 218   2.0000      -0.423775       -11.5315
 219   2.0000      -0.419998       -11.4287
 220   2.0000      -0.418748       -11.3947
 221   2.0000      -0.417754       -11.3677
 222   2.0000      -0.415649       -11.3104
 223   2.0000      -0.414521       -11.2797
 224   2.0000      -0.408919       -11.1272
 225   2.0000      -0.406037       -11.0488
 226   2.0000      -0.404481       -11.0065
 227   2.0000      -0.399577       -10.8731
 228   2.0000      -0.392173       -10.6716
 229   2.0000      -0.389498       -10.5988
 230   2.0000      -0.385207       -10.4820
 231   2.0000      -0.380946       -10.3661
 232   2.0000      -0.371448       -10.1076
 233   2.0000      -0.369048       -10.0423
 234   2.0000      -0.368016       -10.0142
 235   2.0000      -0.365902        -9.9567
 236   2.0000      -0.356479        -9.7003
 237   2.0000      -0.353333        -9.6147
 238   2.0000      -0.350491        -9.5373
 239   2.0000      -0.349697        -9.5157
 240   2.0000      -0.341415        -9.2904
 241   2.0000      -0.338235        -9.2038
 242   2.0000      -0.332072        -9.0361
 243   2.0000      -0.325767        -8.8646
 244   2.0000      -0.314004        -8.5445
 245   2.0000      -0.312964        -8.5162
 246   2.0000      -0.308514        -8.3951
 247   2.0000      -0.304357        -8.2820
 248   2.0000      -0.292225        -7.9519
 249   2.0000      -0.257342        -7.0026
 250   0.0000      -0.109673        -2.9844
 251   0.0000      -0.097905        -2.6641
 252   0.0000      -0.074281        -2.0213
 253   0.0000      -0.065882        -1.7927
 254   0.0000      -0.047725        -1.2987

MULLIKEN ATOMIC CHARGES
-----------------------
   0 C :    0.153787
   1 O :   -0.140433
   2 C :   -0.024722
   3 C :    0.034624
   4 C :   -0.023528
   5 C :    0.049799
   6 C :   -0.003513
   7 C :   -0.005450
   8 Br:   -0.016284
   9 C :    0.300370
  10 C :   -0.340235
  11 C :   -0.190089
  12 N :    0.160783
  13 C :   -0.185031
  14 N :    0.154978
  15 C :   -0.060135
  16 C :   -0.043258
  17 C :    0.064622
  18 C :   -0.006081
  19 C :   -0.042668
  20 C :    0.101841
  21 C :    0.013282
  22 C :   -0.013611
  23 N :    0.047322
  24 O :   -0.104663
  25 N :    0.042653
  26 C :   -0.170179
  27 S :    0.140633
  28 C :   -0.116989
  29 C :   -0.056959
  30 C :   -0.011904
  31 C :    0.046776
  32 N :   -0.181272
  33 C :    0.081895
  34 C :    0.069449
  35 C :    0.048272
  36 N :   -0.179075
  37 C :    0.077481
  38 C :    0.001173
  39 C :    0.109752
  40 C :   -0.049713
  41 C :    0.017746
  42 C :    0.076547
  43 C :   -0.053206
  44 C :   -0.027368
  45 N :    0.053800
  46 O :   -0.095784
  47 N :    0.041162
  48 C :   -0.000390
  49 C :   -0.112771
  50 C :    0.131873
  51 O :   -0.135732
  52 C :   -0.004391
  53 C :    0.017454
  54 C :    0.303234
  55 C :   -0.315221
  56 C :   -0.193478
  57 N :    0.164243
  58 C :   -0.205763
  59 N :    0.164284
  60 C :   -0.020388
  61 C :    0.048249
  62 C :   -0.006766
  63 C :   -0.011097
  64 Br:   -0.021613
  65 H :    0.009655
  66 H :    0.007172
  67 H :    0.000448
  68 H :    0.028044
  69 H :   -0.000902
  70 H :   -0.007266
  71 H :    0.028487
  72 H :    0.092423
  73 H :    0.103207
  74 H :   -0.004577
  75 H :   -0.011172
  76 H :   -0.006490
  77 H :   -0.002618
  78 H :    0.018047
  79 H :    0.094225
  80 H :    0.099953
  81 H :   -0.020485
  82 H :   -0.003222
  83 H :   -0.009362
  84 H :   -0.005160
  85 H :    0.020677
  86 H :    0.011511
  87 H :    0.006397
  88 H :    0.002686
Sum of atomic charges:   -0.0000000

LOEWDIN ATOMIC CHARGES
----------------------
   0 C :    0.087006
   1 O :   -0.129814
   2 C :   -0.033775
   3 C :   -0.016339
   4 C :    0.009725
   5 C :   -0.012091
   6 C :   -0.096680
   7 C :    0.000735
   8 Br:    0.118647
   9 C :    0.075720
  10 C :   -0.130219
  11 C :   -0.018569
  12 N :   -0.045241
  13 C :   -0.020078
  14 N :   -0.045156
  15 C :   -0.079093
  16 C :    0.076230
  17 C :   -0.040921
  18 C :    0.027713
  19 C :   -0.025207
  20 C :    0.000294
  21 C :   -0.036248
  22 C :   -0.040692
  23 N :   -0.022880
  24 O :    0.073305
  25 N :   -0.022209
  26 C :   -0.170486
  27 S :    0.456546
  28 C :   -0.158539
  29 C :   -0.050026
  30 C :   -0.042607
  31 C :    0.010323
  32 N :   -0.078978
  33 C :   -0.039115
  34 C :   -0.039321
  35 C :    0.015333
  36 N :   -0.086068
  37 C :   -0.011373
  38 C :   -0.009487
  39 C :    0.012737
  40 C :   -0.019095
  41 C :    0.039244
  42 C :   -0.055130
  43 C :   -0.047645
  44 C :   -0.046398
  45 N :   -0.014075
  46 O :    0.075636
  47 N :   -0.031027
  48 C :    0.067784
  49 C :   -0.082825
  50 C :    0.086797
  51 O :   -0.134071
  52 C :   -0.041020
  53 C :   -0.007288
  54 C :    0.074296
  55 C :   -0.128828
  56 C :   -0.018050
  57 N :   -0.048833
  58 C :   -0.017092
  59 N :   -0.053510
  60 C :    0.008150
  61 C :   -0.010979
  62 C :   -0.100217
  63 C :    0.000843
  64 Br:    0.114178
  65 H :    0.043313
  66 H :    0.041030
  67 H :    0.043281
  68 H :    0.047702
  69 H :    0.040286
  70 H :    0.030598
  71 H :    0.028287
  72 H :    0.054937
  73 H :    0.060614
  74 H :    0.023338
  75 H :    0.017839
  76 H :    0.020770
  77 H :    0.023367
  78 H :    0.029527
  79 H :    0.055771
  80 H :    0.057182
  81 H :    0.025535
  82 H :    0.033308
  83 H :    0.033754
  84 H :    0.039907
  85 H :    0.047792
  86 H :    0.043566
  87 H :    0.040443
  88 H :    0.043900

  Mayer bond orders larger than 0.100000
B(  0-C ,  1-O ) :   2.2251 B(  0-C ,  2-C ) :   0.9426 B(  0-C , 15-C ) :   0.9317
B(  2-C ,  3-C ) :   1.3319 B(  2-C ,  7-C ) :   1.3821 B(  3-C ,  4-C ) :   1.3566
B(  3-C ,  9-C ) :   1.0015 B(  4-C ,  5-C ) :   1.3915 B(  4-C , 65-H ) :   0.9821
B(  5-C ,  6-C ) :   1.3818 B(  5-C , 66-H ) :   0.9848 B(  6-C ,  7-C ) :   1.3415
B(  6-C ,  8-Br) :   0.9942 B(  7-C , 67-H ) :   1.0057 B(  9-C , 10-C ) :   1.6498
B(  9-C , 15-C ) :   1.0631 B( 10-C , 11-C ) :   1.1394 B( 10-C , 13-C ) :   1.1411
B( 11-C , 12-N ) :   2.9772 B( 13-C , 14-N ) :   2.9662 B( 15-C , 16-C ) :   1.6647
B( 16-C , 17-C ) :   1.0912 B( 16-C , 68-H ) :   0.9391 B( 17-C , 18-C ) :   1.4702
B( 17-C , 20-C ) :   0.1020 B( 17-C , 22-C ) :   1.1290 B( 18-C , 19-C ) :   1.2022
B( 18-C , 69-H ) :   0.9953 B( 19-C , 20-C ) :   1.5188 B( 19-C , 70-H ) :   0.9897
B( 20-C , 21-C ) :   1.1522 B( 20-C , 26-C ) :   1.0380 B( 21-C , 22-C ) :   1.1533
B( 21-C , 25-N ) :   1.5983 B( 22-C , 23-N ) :   1.6041 B( 23-N , 24-O ) :   1.0663
B( 23-N , 25-N ) :   0.1786 B( 24-O , 25-N ) :   1.0611 B( 26-C , 27-S ) :   1.1427
B( 26-C , 28-C ) :   0.1072 B( 26-C , 30-C ) :   1.5345 B( 27-S , 28-C ) :   1.1256
B( 28-C , 29-C ) :   1.4700 B( 28-C , 37-C ) :   1.1462 B( 29-C , 30-C ) :   1.3407
B( 29-C , 35-C ) :   0.9951 B( 30-C , 31-C ) :   0.9888 B( 31-C , 32-N ) :   1.0909
B( 31-C , 33-C ) :   1.0662 B( 31-C , 71-H ) :   0.8606 B( 32-N , 72-H ) :   0.9643
B( 32-N , 73-H ) :   0.9625 B( 33-C , 34-C ) :   1.0576 B( 33-C , 74-H ) :   0.9241
B( 33-C , 75-H ) :   0.9231 B( 34-C , 35-C ) :   1.0698 B( 34-C , 76-H ) :   0.9242
B( 34-C , 77-H ) :   0.9251 B( 35-C , 36-N ) :   1.0929 B( 35-C , 78-H ) :   0.8704
B( 36-N , 79-H ) :   0.9634 B( 36-N , 80-H ) :   0.9676 B( 37-C , 38-C ) :   1.6400
B( 37-C , 81-H ) :   0.9412 B( 38-C , 39-C ) :   1.1465 B( 38-C , 82-H ) :   0.9655
B( 39-C , 40-C ) :   1.4299 B( 39-C , 44-C ) :   1.1169 B( 40-C , 41-C ) :   1.2443
B( 40-C , 83-H ) :   0.9881 B( 41-C , 42-C ) :   1.4342 B( 41-C , 84-H ) :   0.9923
B( 42-C , 43-C ) :   1.1344 B( 42-C , 48-C ) :   1.0798 B( 43-C , 44-C ) :   1.1493
B( 43-C , 47-N ) :   1.5949 B( 44-C , 45-N ) :   1.6134 B( 45-N , 46-O ) :   1.0742
B( 45-N , 47-N ) :   0.1753 B( 46-O , 47-N ) :   1.0487 B( 48-C , 49-C ) :   1.6832
B( 48-C , 85-H ) :   0.9462 B( 49-C , 50-C ) :   0.9396 B( 49-C , 54-C ) :   1.0307
B( 50-C , 51-O ) :   2.2736 B( 50-C , 52-C ) :   0.9201 B( 52-C , 53-C ) :   1.3294
B( 52-C , 63-C ) :   1.3801 B( 53-C , 54-C ) :   1.0122 B( 53-C , 60-C ) :   1.3708
B( 54-C , 55-C ) :   1.6590 B( 55-C , 56-C ) :   1.1388 B( 55-C , 58-C ) :   1.1636
B( 56-C , 57-N ) :   2.9994 B( 58-C , 59-N ) :   3.0037 B( 60-C , 61-C ) :   1.3804
B( 60-C , 86-H ) :   0.9855 B( 61-C , 62-C ) :   1.3881 B( 61-C , 87-H ) :   0.9853
B( 62-C , 63-C ) :   1.3451 B( 62-C , 64-Br) :   0.9919 B( 63-C , 88-H ) :   1.0060

-----------------------------------------------------------------------------
         ABSORPTION SPECTRUM VIA TRANSITION ELECTRIC DIPOLE MOMENTS
-----------------------------------------------------------------------------
State   Energy  Wavelength   fosc         T2         TX        TY        TZ
        (cm-1)    (nm)                  (au**2)     (au)      (au)      (au)
-----------------------------------------------------------------------------
   0   16827.4    594.3   1.724732953  33.74283   3.32281   3.92535   2.70062
   1   20548.8    486.6   0.169326441   2.71278   1.44412   0.31340  -0.72737
   2   24424.5    409.4   0.099805494   1.34525   0.89405   0.68135   0.28581
   3   25975.0    385.0   0.019875982   0.25191   0.37119   0.33759   0.01256
   4   26284.6    380.5   0.081049854   1.01514   0.98664   0.14170   0.14697
   5   26586.4    376.1   0.048113897   0.59578   0.76156  -0.02556  -0.12308
   6   27147.1    368.4   0.042755290   0.51849  -0.46208  -0.25124  -0.49178
   7   27689.7    361.1   0.007349570   0.08738  -0.04860  -0.20417   0.20817
   8   28610.5    349.5   0.057023389   0.65615  -0.05739   0.12022   0.79900
   9   29205.0    342.4   0.132710111   1.49597   0.09584   1.21888   0.03352
  10   29643.9    337.3   0.216174954   2.40074  -1.16440  -0.16537  -1.00875
  11   30312.0    329.9   0.045019071   0.48894  -0.38980  -0.55679  -0.16428
  12   30910.6    323.5   0.024939108   0.26561  -0.35012  -0.21158   0.31346
  13   31138.6    321.1   0.038216102   0.40404  -0.11901  -0.54149  -0.31091
  14   31332.1    319.2   0.017901321   0.18809   0.25502  -0.26926   0.22485
  15   31671.2    315.7   0.022760005   0.23658  -0.09045  -0.39898  -0.26308
  16   31898.4    313.5   0.005253520   0.05422  -0.04318   0.22582  -0.03688
  17   32905.9    303.9   0.136695356   1.36759  -0.97736  -0.47345  -0.43383
  18   33177.0    301.4   0.042813512   0.42483  -0.41890   0.04764  -0.49708
  19   33471.9    298.8   0.170307535   1.67505  -0.97732  -0.43013  -0.73136
  20   33967.9    294.4   0.099296757   0.96237   0.11755   0.93913  -0.25804
  21   34452.1    290.3   0.379222787   3.62371   1.48645   0.92129   0.75193
  22   34614.2    288.9   0.413611759   3.93382   0.48089  -1.49957   1.20576
  23   35503.6    281.7   0.017325535   0.16065   0.30188   0.26318  -0.01604
  24   35968.1    278.0   0.089258496   0.81697  -0.33720  -0.83708  -0.05065
  25   36194.4    276.3   0.106523954   0.96891  -0.71370   0.29599  -0.60986
  26   36339.5    275.2   0.220705760   1.99945  -0.64321  -1.22200   0.30407
  27   36543.8    273.6   0.091628847   0.82546   0.66041  -0.39119   0.48609
  28   36707.4    272.4   0.035051284   0.31436  -0.33995   0.24979  -0.36932
  29   37013.7    270.2   0.060245584   0.53584  -0.01115   0.39060  -0.61899
  30   37141.6    269.2   0.112713754   0.99906   0.88306   0.41824   0.21059
  31   37568.7    266.2   0.020213925   0.17713   0.19096   0.35010  -0.13452
  32   37970.8    263.4   0.035302504   0.30608   0.39293   0.09211   0.37841
  33   38184.2    261.9   0.084985723   0.73272  -0.63814   0.06628  -0.56667
  34   38267.3    261.3   0.045274787   0.38950   0.42295  -0.41696   0.19170
  35   38671.8    258.6   0.049991235   0.42557   0.15427  -0.38876  -0.50064
  36   39142.5    255.5   0.020051824   0.16865   0.33995   0.10950  -0.20271
  37   39224.8    254.9   0.028969285   0.24314   0.32892  -0.32460  -0.17200
  38   39599.5    252.5   0.020553004   0.17087  -0.08994   0.37227  -0.15555
  39   40178.1    248.9   0.012768712   0.10462   0.25291   0.18867  -0.07117

FINAL SINGLE POINT ENERGY     -8234.316335722082

DIPOLE MOMENT
-------------
                                X             Y             Z
Electronic contribution:     17.49458     -57.07848     -17.57745
Nuclear contribution   :    -18.14117      56.18137      18.91307
                        -----------------------------------------
Total Dipole Moment    :     -0.64659      -0.89712       1.33562
                        -----------------------------------------
Magnitude (a.u.)       :      1.73401
Magnitude (Debye)      :      4.40749

Rotational constants in cm-1:     0.002651     0.000208     0.000203
Rotational constants in MHz :    79.473840     6.233332     6.089087

                             ****ORCA TERMINATED NORMALLY****
TOTAL RUN TIME: 0 days 0 hours 8 minutes 17 seconds 561 msec
