                         Program Version 4.2.0 -  RELEASE  -
|  1> # ORCA input file
|  2> # SCF done       -190.887001534273          0.000256521093
|  3> ! CAM-B3LYP def2-SVP def2/J RIJCOSX Grid4 TightSCF
|  4> %maxcore 5000
|  5> %tddft
|  6>     Mode sTDDFT
|  7>     Ethresh 5.0
|  8>     maxcore 5000
|  9> end
| 10>
| 11> %pal
| 12>   nprocs 6
| 13>   end
| 14> * xyz 0 1
| 15>    C      -12.73841        -6.19849        -1.53403
| 16>    O      -11.55504        -6.25601        -1.28455
| 17>    C      -13.58327        -4.98497        -1.50186
| 18>    C      -14.83910        -5.26628        -2.06744
| 19>    C      -15.78932        -4.25823        -2.15732
| 20>    C      -15.47138        -2.99524        -1.68177
| 21>    C      -14.22304        -2.74066        -1.12886
| 22>    C      -13.25410        -3.73027        -1.03344
| 23>   Br      -13.83340        -0.99490        -0.49065
| 24>    C      -14.87522        -6.67107        -2.46644
| 25>    C      -15.94067        -7.30340        -3.05198
| 26>    C      -17.15358        -6.66571        -3.38895
| 27>    N      -18.16018        -6.20610        -3.69401
| 28>    C      -15.98425        -8.66729        -3.41032
| 29>    N      -16.09971        -9.76500        -3.72746
| 30>    C      -13.60735        -7.26734        -2.08869
| 31>    C      -13.20103        -8.54626        -2.32699
| 32>    C      -12.03551        -9.16176        -1.78195
| 33>    C      -11.33066       -10.13582        -2.48044
| 34>    C      -10.14764       -10.70251        -2.01794
| 35>    C       -9.57066       -10.39588        -0.78718
| 36>    C      -10.32723        -9.48784         0.01662
| 37>    C      -11.53834        -8.87941        -0.48099
| 38>    N      -12.04617        -8.15877         0.49601
| 39>    O      -11.21720        -8.27974         1.52593
| 40>    N      -10.17298        -9.07275         1.25839
| 41>    C       -8.32797       -10.94912        -0.34806
| 42>    C       -7.77625       -10.64191         0.87664
| 43>    C       -6.57420       -11.13618         1.36082
| 44>    C       -5.75140       -12.06293         0.58240
| 45>    C       -6.08812       -12.50625        -0.64857
| 46>    S       -7.52150       -12.04726        -1.46987
| 47>    C       -4.62190       -12.33471         1.40091
| 48>    C       -4.72239       -11.63419         2.60992
| 49>    C       -3.60789       -11.88178         3.44513
| 50>    C       -2.72373       -12.73512         2.86744
| 51>    S       -3.19332       -13.27784         1.29210
| 52>    C       -5.94448       -10.87675         2.60197
| 53>    C       -6.49063       -10.02498         3.58562
| 54>    C       -5.97295        -9.75151         4.81142
| 55>    C       -6.59079        -8.88499         5.75087
| 56>    C       -7.74662        -8.15653         5.63067
| 57>    C       -8.09099        -7.38908         6.76702
| 58>    C       -7.12722        -7.55637         7.82068
| 59>    S       -5.85120        -8.64909         7.31345
| 60>    C       -7.22060        -6.92361         9.04575
| 61>    O       -6.39728        -6.99018        10.11903
| 62>    C       -5.33667        -7.91586        10.16924
| 63>    C       -8.33855        -6.07407         9.22722
| 64>    C       -9.28171        -5.90373         8.19513
| 65>    C       -9.19937        -6.53739         6.96035
| 66>    O      -10.21688        -6.22344         6.12264
| 67>    C      -10.35934        -6.76595         4.83209
| 68>    S      -10.55611        -4.82553         8.66279
| 69>    C       -9.85095        -4.64287        10.26115
| 70>    C       -8.67921        -5.35434        10.38375
| 71>    C      -10.47015        -3.78070        11.19526
| 72>    C      -10.29832        -3.70611        12.54529
| 73>    C      -10.71118        -2.46429        13.25252
| 74>    O      -11.39371        -1.56863        12.81541
| 75>    C      -10.05942        -2.54285        14.57999
| 76>    C       -9.41513        -3.78628        14.71288
| 77>    C       -9.67628        -4.58288        13.51431
| 78>    C       -9.57602        -5.94800        13.44651
| 79>    C       -9.02371        -6.74761        14.46774
| 80>    N       -8.56250        -7.44172        15.25724
| 81>    C      -10.08392        -6.72843        12.38768
| 82>    N      -10.51569        -7.42081        11.58081
| 83>    C       -8.70414        -4.07199        15.86895
| 84>    C       -8.65429        -3.11813        16.87414
| 85>    C       -9.30997        -1.90253        16.72850
| 86>    C      -10.02293        -1.59146        15.57819
| 87>   Br       -9.22147        -0.63223        18.13806
| 88>    H      -16.76218        -4.43161        -2.58676
| 89>    H      -16.19937        -2.20090        -1.74290
| 90>    H      -12.28163        -3.53808        -0.60758
| 91>    H      -13.77768        -9.16448        -3.00326
| 92>    H      -11.69070       -10.42708        -3.45634
| 93>    H       -9.64524       -11.41191        -2.65864
| 94>    H       -8.34824        -9.96186         1.49060
| 95>    H       -5.47311       -13.19026        -1.21185
| 96>    H       -3.44960       -11.46057         4.42044
| 97>    H       -1.79805       -13.09299         3.27395
| 98>    H       -7.42637        -9.55671         3.31508
| 99>    H       -5.04726       -10.20742         5.12632
|100>    H       -8.32378        -8.18690         4.72911
|101>    H       -4.56245        -7.68725         9.43211
|102>    H       -5.68876        -8.94052        10.02838
|103>    H       -4.91857        -7.81546        11.17014
|104>    H       -9.53137        -6.47871         4.17820
|105>    H      -11.27959        -6.33072         4.44391
|106>    H      -10.46835        -7.85331         4.85758
|107>    H       -8.04795        -5.33282        11.25322
|108>    H      -11.12659        -3.02313        10.77815
|109>    H       -8.18453        -5.00759        15.99720
|110>    H       -8.10208        -3.32069        17.77896
|111>    H      -10.53120        -0.64710        15.46037
|112> *
|113>
|114>                          ****END OF INPUT****

CARTESIAN COORDINATES (ANGSTROEM)
---------------------------------
  C    -12.738410   -6.198490   -1.534030
  O    -11.555040   -6.256010   -1.284550
  C    -13.583270   -4.984970   -1.501860
  C    -14.839100   -5.266280   -2.067440
  C    -15.789320   -4.258230   -2.157320
  C    -15.471380   -2.995240   -1.681770
  C    -14.223040   -2.740660   -1.128860
  C    -13.254100   -3.730270   -1.033440
  Br   -13.833400   -0.994900   -0.490650
  C    -14.875220   -6.671070   -2.466440
  C    -15.940670   -7.303400   -3.051980
  C    -17.153580   -6.665710   -3.388950
  N    -18.160180   -6.206100   -3.694010
  C    -15.984250   -8.667290   -3.410320
  N    -16.099710   -9.765000   -3.727460
  C    -13.607350   -7.267340   -2.088690
  C    -13.201030   -8.546260   -2.326990
  C    -12.035510   -9.161760   -1.781950
  C    -11.330660  -10.135820   -2.480440
  C    -10.147640  -10.702510   -2.017940
  C     -9.570660  -10.395880   -0.787180
  C    -10.327230   -9.487840    0.016620
  C    -11.538340   -8.879410   -0.480990
  N    -12.046170   -8.158770    0.496010
  O    -11.217200   -8.279740    1.525930
  N    -10.172980   -9.072750    1.258390
  C     -8.327970  -10.949120   -0.348060
  C     -7.776250  -10.641910    0.876640
  C     -6.574200  -11.136180    1.360820
  C     -5.751400  -12.062930    0.582400
  C     -6.088120  -12.506250   -0.648570
  S     -7.521500  -12.047260   -1.469870
  C     -4.621900  -12.334710    1.400910
  C     -4.722390  -11.634190    2.609920
  C     -3.607890  -11.881780    3.445130
  C     -2.723730  -12.735120    2.867440
  S     -3.193320  -13.277840    1.292100
  C     -5.944480  -10.876750    2.601970
  C     -6.490630  -10.024980    3.585620
  C     -5.972950   -9.751510    4.811420
  C     -6.590790   -8.884990    5.750870
  C     -7.746620   -8.156530    5.630670
  C     -8.090990   -7.389080    6.767020
  C     -7.127220   -7.556370    7.820680
  S     -5.851200   -8.649090    7.313450
  C     -7.220600   -6.923610    9.045750
  O     -6.397280   -6.990180   10.119030
  C     -5.336670   -7.915860   10.169240
  C     -8.338550   -6.074070    9.227220
  C     -9.281710   -5.903730    8.195130
  C     -9.199370   -6.537390    6.960350
  O    -10.216880   -6.223440    6.122640
  C    -10.359340   -6.765950    4.832090
  S    -10.556110   -4.825530    8.662790
  C     -9.850950   -4.642870   10.261150
  C     -8.679210   -5.354340   10.383750
  C    -10.470150   -3.780700   11.195260
  C    -10.298320   -3.706110   12.545290
  C    -10.711180   -2.464290   13.252520
  O    -11.393710   -1.568630   12.815410
  C    -10.059420   -2.542850   14.579990
  C     -9.415130   -3.786280   14.712880
  C     -9.676280   -4.582880   13.514310
  C     -9.576020   -5.948000   13.446510
  C     -9.023710   -6.747610   14.467740
  N     -8.562500   -7.441720   15.257240
  C    -10.083920   -6.728430   12.387680
  N    -10.515690   -7.420810   11.580810
  C     -8.704140   -4.071990   15.868950
  C     -8.654290   -3.118130   16.874140
  C     -9.309970   -1.902530   16.728500
  C    -10.022930   -1.591460   15.578190
  Br    -9.221470   -0.632230   18.138060
  H    -16.762180   -4.431610   -2.586760
  H    -16.199370   -2.200900   -1.742900
  H    -12.281630   -3.538080   -0.607580
  H    -13.777680   -9.164480   -3.003260
  H    -11.690700  -10.427080   -3.456340
  H     -9.645240  -11.411910   -2.658640
  H     -8.348240   -9.961860    1.490600
  H     -5.473110  -13.190260   -1.211850
  H     -3.449600  -11.460570    4.420440
  H     -1.798050  -13.092990    3.273950
  H     -7.426370   -9.556710    3.315080
  H     -5.047260  -10.207420    5.126320
  H     -8.323780   -8.186900    4.729110
  H     -4.562450   -7.687250    9.432110
  H     -5.688760   -8.940520   10.028380
  H     -4.918570   -7.815460   11.170140
  H     -9.531370   -6.478710    4.178200
  H    -11.279590   -6.330720    4.443910
  H    -10.468350   -7.853310    4.857580
  H     -8.047950   -5.332820   11.253220
  H    -11.126590   -3.023130   10.778150
  H     -8.184530   -5.007590   15.997200
  H     -8.102080   -3.320690   17.778960
  H    -10.531200   -0.647100   15.460370

 Total Charge           Charge          ....    0
 Multiplicity           Mult            ....    1
 Number of Electrons    NEL             ....  576
 Basis Dimension        Dim             .... 1194

ORBITAL ENERGIES
----------------

  NO   OCC          E(Eh)            E(eV)
   0   2.0000    -482.874684    -13139.6882
   1   2.0000    -482.869064    -13139.5352
   2   2.0000     -88.983275     -2421.3580
   3   2.0000     -88.968426     -2420.9539
   4   2.0000     -88.951391     -2420.4904
   5   2.0000     -88.947961     -2420.3971
   6   2.0000     -62.552382     -1702.1368
   7   2.0000     -62.546764     -1701.9840
   8   2.0000     -56.386224     -1534.3472
   9   2.0000     -56.383695     -1534.2783
  10   2.0000     -56.383683     -1534.2780
  11   2.0000     -56.380594     -1534.1940
  12   2.0000     -56.378078     -1534.1255
  13   2.0000     -56.378077     -1534.1255
  14   2.0000     -19.368331      -527.0391
  15   2.0000     -19.253006      -523.9009
  16   2.0000     -19.248783      -523.7860
  17   2.0000     -19.223558      -523.0996
  18   2.0000     -19.213492      -522.8257
  19   2.0000     -14.495695      -394.4479
  20   2.0000     -14.489845      -394.2887
  21   2.0000     -14.424065      -392.4988
  22   2.0000     -14.421105      -392.4182
  23   2.0000     -14.413003      -392.1978
  24   2.0000     -14.409679      -392.1073
  25   2.0000     -10.374343      -282.3002
  26   2.0000     -10.364306      -282.0271
  27   2.0000     -10.351163      -281.6695
  28   2.0000     -10.348866      -281.6070
  29   2.0000     -10.348304      -281.5917
  30   2.0000     -10.343177      -281.4522
  31   2.0000     -10.342872      -281.4439
  32   2.0000     -10.341284      -281.4006
  33   2.0000     -10.340111      -281.3687
  34   2.0000     -10.339229      -281.3447
  35   2.0000     -10.338991      -281.3382
  36   2.0000     -10.338701      -281.3304
  37   2.0000     -10.336715      -281.2763
  38   2.0000     -10.335506      -281.2434
  39   2.0000     -10.332571      -281.1635
  40   2.0000     -10.326544      -280.9995
  41   2.0000     -10.326332      -280.9938
  42   2.0000     -10.325713      -280.9769
  43   2.0000     -10.323564      -280.9185
  44   2.0000     -10.323551      -280.9181
  45   2.0000     -10.318523      -280.7813
  46   2.0000     -10.317551      -280.7548
  47   2.0000     -10.315901      -280.7099
  48   2.0000     -10.315670      -280.7037
  49   2.0000     -10.314472      -280.6711
  50   2.0000     -10.310599      -280.5657
  51   2.0000     -10.308610      -280.5115
  52   2.0000     -10.308066      -280.4967
  53   2.0000     -10.307417      -280.4791
  54   2.0000     -10.307187      -280.4728
  55   2.0000     -10.307127      -280.4712
  56   2.0000     -10.307078      -280.4699
  57   2.0000     -10.307055      -280.4692
  58   2.0000     -10.306838      -280.4633
  59   2.0000     -10.306606      -280.4570
  60   2.0000     -10.306046      -280.4418
  61   2.0000     -10.305767      -280.4342
  62   2.0000     -10.305137      -280.4170
  63   2.0000     -10.302784      -280.3530
  64   2.0000     -10.302160      -280.3360
  65   2.0000     -10.300944      -280.3029
  66   2.0000     -10.300719      -280.2968
  67   2.0000     -10.299283      -280.2577
  68   2.0000     -10.297239      -280.2021
  69   2.0000     -10.295633      -280.1584
  70   2.0000     -10.295339      -280.1504
  71   2.0000     -10.293804      -280.1086
  72   2.0000     -10.293260      -280.0938
  73   2.0000     -10.292501      -280.0732
  74   2.0000     -10.289876      -280.0018
  75   2.0000     -10.287650      -279.9412
  76   2.0000     -10.287374      -279.9337
  77   2.0000     -10.287315      -279.9321
  78   2.0000     -10.286449      -279.9085
  79   2.0000     -10.280201      -279.7385
  80   2.0000     -10.278301      -279.6868
  81   2.0000      -8.781659      -238.9611
  82   2.0000      -8.776045      -238.8083
  83   2.0000      -8.078469      -219.8263
  84   2.0000      -8.063915      -219.4303
  85   2.0000      -8.046784      -218.9641
  86   2.0000      -8.043178      -218.8660
  87   2.0000      -6.617508      -180.0715
  88   2.0000      -6.611846      -179.9175
  89   2.0000      -6.603778      -179.6979
  90   2.0000      -6.603316      -179.6854
  91   2.0000      -6.598162      -179.5451
  92   2.0000      -6.597755      -179.5340
  93   2.0000      -6.048088      -164.5768
  94   2.0000      -6.043520      -164.4525
  95   2.0000      -6.040308      -164.3651
  96   2.0000      -6.033330      -164.1753
  97   2.0000      -6.029054      -164.0589
  98   2.0000      -6.026006      -163.9760
  99   2.0000      -6.016636      -163.7210
 100   2.0000      -6.012798      -163.6166
 101   2.0000      -6.012381      -163.6052
 102   2.0000      -6.008733      -163.5059
 103   2.0000      -6.007856      -163.4821
 104   2.0000      -6.004519      -163.3913
 105   2.0000      -2.733457       -74.3811
 106   2.0000      -2.729687       -74.2786
 107   2.0000      -2.729329       -74.2688
 108   2.0000      -2.727830       -74.2280
 109   2.0000      -2.724024       -74.1245
 110   2.0000      -2.723713       -74.1160
 111   2.0000      -2.718415       -73.9718
 112   2.0000      -2.718412       -73.9717
 113   2.0000      -2.712837       -73.8200
 114   2.0000      -2.712831       -73.8199
 115   2.0000      -1.319655       -35.9096
 116   2.0000      -1.157340       -31.4928
 117   2.0000      -1.152265       -31.3547
 118   2.0000      -1.139211       -30.9995
 119   2.0000      -1.129200       -30.7271
 120   2.0000      -1.027428       -27.9578
 121   2.0000      -1.026347       -27.9283
 122   2.0000      -1.019120       -27.7317
 123   2.0000      -1.016476       -27.6597
 124   2.0000      -1.013887       -27.5893
 125   2.0000      -1.007019       -27.4024
 126   2.0000      -1.000505       -27.2251
 127   2.0000      -0.997555       -27.1448
 128   2.0000      -0.997316       -27.1384
 129   2.0000      -0.989503       -26.9257
 130   2.0000      -0.980809       -26.6892
 131   2.0000      -0.979197       -26.6453
 132   2.0000      -0.969112       -26.3709
 133   2.0000      -0.959992       -26.1227
 134   2.0000      -0.943551       -25.6753
 135   2.0000      -0.935868       -25.4663
 136   2.0000      -0.925630       -25.1877
 137   2.0000      -0.918718       -24.9996
 138   2.0000      -0.915462       -24.9110
 139   2.0000      -0.906562       -24.6688
 140   2.0000      -0.901976       -24.5440
 141   2.0000      -0.896114       -24.3845
 142   2.0000      -0.885843       -24.1050
 143   2.0000      -0.882072       -24.0024
 144   2.0000      -0.877325       -23.8732
 145   2.0000      -0.867299       -23.6004
 146   2.0000      -0.863636       -23.5007
 147   2.0000      -0.852564       -23.1994
 148   2.0000      -0.848239       -23.0818
 149   2.0000      -0.846479       -23.0339
 150   2.0000      -0.837203       -22.7814
 151   2.0000      -0.820451       -22.3256
 152   2.0000      -0.815696       -22.1962
 153   2.0000      -0.808370       -21.9969
 154   2.0000      -0.803135       -21.8544
 155   2.0000      -0.799772       -21.7629
 156   2.0000      -0.784197       -21.3391
 157   2.0000      -0.775571       -21.1044
 158   2.0000      -0.772756       -21.0278
 159   2.0000      -0.767356       -20.8808
 160   2.0000      -0.764017       -20.7900
 161   2.0000      -0.762152       -20.7392
 162   2.0000      -0.745033       -20.2734
 163   2.0000      -0.738372       -20.0921
 164   2.0000      -0.732554       -19.9338
 165   2.0000      -0.711225       -19.3534
 166   2.0000      -0.705389       -19.1946
 167   2.0000      -0.698934       -19.0190
 168   2.0000      -0.696871       -18.9628
 169   2.0000      -0.690287       -18.7837
 170   2.0000      -0.686703       -18.6861
 171   2.0000      -0.680228       -18.5099
 172   2.0000      -0.675719       -18.3872
 173   2.0000      -0.670207       -18.2373
 174   2.0000      -0.667754       -18.1705
 175   2.0000      -0.661591       -18.0028
 176   2.0000      -0.651641       -17.7320
 177   2.0000      -0.649096       -17.6628
 178   2.0000      -0.639699       -17.4071
 179   2.0000      -0.637140       -17.3375
 180   2.0000      -0.633196       -17.2301
 181   2.0000      -0.624353       -16.9895
 182   2.0000      -0.621348       -16.9077
 183   2.0000      -0.618297       -16.8247
 184   2.0000      -0.614899       -16.7323
 185   2.0000      -0.613828       -16.7031
 186   2.0000      -0.609679       -16.5902
 187   2.0000      -0.599067       -16.3014
 188   2.0000      -0.594097       -16.1662
 189   2.0000      -0.589935       -16.0530
 190   2.0000      -0.587292       -15.9810
 191   2.0000      -0.586748       -15.9662
 192   2.0000      -0.583528       -15.8786
 193   2.0000      -0.577639       -15.7184
 194   2.0000      -0.572715       -15.5844
 195   2.0000      -0.563205       -15.3256
 196   2.0000      -0.560685       -15.2570
 197   2.0000      -0.556543       -15.1443
 198   2.0000      -0.555096       -15.1049
 199   2.0000      -0.553481       -15.0610
 200   2.0000      -0.549190       -14.9442
 201   2.0000      -0.547066       -14.8864
 202   2.0000      -0.545076       -14.8323
 203   2.0000      -0.542605       -14.7650
 204   2.0000      -0.540756       -14.7147
 205   2.0000      -0.537701       -14.6316
 206   2.0000      -0.535431       -14.5698
 207   2.0000      -0.534785       -14.5522
 208   2.0000      -0.531098       -14.4519
 209   2.0000      -0.527468       -14.3531
 210   2.0000      -0.526210       -14.3189
 211   2.0000      -0.524256       -14.2657
 212   2.0000      -0.523028       -14.2323
 213   2.0000      -0.517501       -14.0819
 214   2.0000      -0.516320       -14.0498
 215   2.0000      -0.513157       -13.9637
 216   2.0000      -0.508586       -13.8393
 217   2.0000      -0.503799       -13.7091
 218   2.0000      -0.503312       -13.6958
 219   2.0000      -0.500790       -13.6272
 220   2.0000      -0.500404       -13.6167
 221   2.0000      -0.495183       -13.4746
 222   2.0000      -0.492880       -13.4119
 223   2.0000      -0.488407       -13.2902
 224   2.0000      -0.485825       -13.2200
 225   2.0000      -0.483146       -13.1471
 226   2.0000      -0.480992       -13.0885
 227   2.0000      -0.477854       -13.0031
 228   2.0000      -0.471544       -12.8314
 229   2.0000      -0.471243       -12.8232
 230   2.0000      -0.468511       -12.7488
 231   2.0000      -0.467828       -12.7303
 232   2.0000      -0.466396       -12.6913
 233   2.0000      -0.461971       -12.5709
 234   2.0000      -0.459524       -12.5043
 235   2.0000      -0.458044       -12.4640
 236   2.0000      -0.457224       -12.4417
 237   2.0000      -0.455026       -12.3819
 238   2.0000      -0.451035       -12.2733
 239   2.0000      -0.449721       -12.2375
 240   2.0000      -0.447421       -12.1749
 241   2.0000      -0.444401       -12.0928
 242   2.0000      -0.443925       -12.0798
 243   2.0000      -0.442381       -12.0378
 244   2.0000      -0.441480       -12.0133
 245   2.0000      -0.439199       -11.9512
 246   2.0000      -0.438000       -11.9186
 247   2.0000      -0.436354       -11.8738
 248   2.0000      -0.433965       -11.8088
 249   2.0000      -0.431275       -11.7356
 250   2.0000      -0.429940       -11.6993
 251   2.0000      -0.427098       -11.6219
 252   2.0000      -0.425331       -11.5739
 253   2.0000      -0.424160       -11.5420
 254   2.0000      -0.422503       -11.4969
 255   2.0000      -0.419910       -11.4263
 256   2.0000      -0.419324       -11.4104
 257   2.0000      -0.415447       -11.3049
 258   2.0000      -0.413762       -11.2590
 259   2.0000      -0.412281       -11.2187
 260   2.0000      -0.404202       -10.9989
 261   2.0000      -0.402708       -10.9582
 262   2.0000      -0.398979       -10.8568
 263   2.0000      -0.397778       -10.8241
 264   2.0000      -0.395447       -10.7607
 265   2.0000      -0.391219       -10.6456
 266   2.0000      -0.383128       -10.4254
 267   2.0000      -0.381855       -10.3908
 268   2.0000      -0.378405       -10.2969
 269   2.0000      -0.368989       -10.0407
 270   2.0000      -0.363950        -9.9036
 271   2.0000      -0.357574        -9.7301
 272   2.0000      -0.355477        -9.6730
 273   2.0000      -0.352363        -9.5883
 274   2.0000      -0.347818        -9.4646
 275   2.0000      -0.347329        -9.4513
 276   2.0000      -0.341723        -9.2988
 277   2.0000      -0.341512        -9.2930
 278   2.0000      -0.334195        -9.0939
 279   2.0000      -0.328280        -8.9329
 280   2.0000      -0.316823        -8.6212
 281   2.0000      -0.311941        -8.4883
 282   2.0000      -0.308288        -8.3890
 283   2.0000      -0.305618        -8.3163
 284   2.0000      -0.287511        -7.8236
 285   2.0000      -0.279228        -7.5982
 286   2.0000      -0.247086        -6.7236
 287   2.0000      -0.224122        -6.0987
 288   0.0000      -0.115907        -3.1540
 289   0.0000      -0.087160        -2.3717
 290   0.0000      -0.078571        -2.1380
 291   0.0000      -0.063283        -1.7220
 292   0.0000      -0.055937        -1.5221

MULLIKEN ATOMIC CHARGES
-----------------------
   0 C :    0.147587
   1 O :   -0.140809
   2 C :   -0.022201
   3 C :    0.034666
   4 C :   -0.024857
   5 C :    0.047992
   6 C :   -0.003231
   7 C :   -0.007585
   8 Br:   -0.015689
   9 C :    0.303161
  10 C :   -0.343845
  11 C :   -0.186656
  12 N :    0.157812
  13 C :   -0.188624
  14 N :    0.157046
  15 C :   -0.063427
  16 C :   -0.055344
  17 C :    0.074115
  18 C :    0.000828
  19 C :   -0.074791
  20 C :    0.124316
  21 C :   -0.017986
  22 C :   -0.001027
  23 N :    0.058155
  24 O :   -0.096394
  25 N :    0.016088
  26 C :   -0.079690
  27 C :   -0.065659
  28 C :    0.049415
  29 C :    0.072632
  30 C :   -0.117407
  31 S :    0.103555
  32 C :   -0.107969
  33 C :    0.043118
  34 C :   -0.000473
  35 C :   -0.063885
  36 S :    0.137823
  37 C :    0.114308
  38 C :   -0.011837
  39 C :    0.056054
  40 C :   -0.028014
  41 C :   -0.088687
  42 C :    0.075644
  43 C :   -0.137453
  44 S :    0.072360
  45 C :    0.130336
  46 O :   -0.309132
  47 C :    0.169343
  48 C :    0.038133
  49 C :   -0.089624
  50 C :    0.122781
  51 O :   -0.312184
  52 C :    0.190882
  53 S :    0.159719
  54 C :   -0.087064
  55 C :   -0.009903
  56 C :    0.092273
  57 C :   -0.134189
  58 C :    0.136142
  59 O :   -0.139009
  60 C :   -0.005939
  61 C :    0.016745
  62 C :    0.265423
  63 C :   -0.334742
  64 C :   -0.177917
  65 N :    0.151443
  66 C :   -0.203789
  67 N :    0.180999
  68 C :   -0.025276
  69 C :    0.048744
  70 C :   -0.006370
  71 C :   -0.011412
  72 Br:   -0.023194
  73 H :    0.008482
  74 H :    0.007874
  75 H :    0.002281
  76 H :    0.027413
  77 H :    0.000469
  78 H :    0.011599
  79 H :    0.000158
  80 H :    0.038395
  81 H :   -0.009147
  82 H :    0.028634
  83 H :   -0.029142
  84 H :   -0.049290
  85 H :   -0.037314
  86 H :    0.036396
  87 H :    0.040013
  88 H :    0.041028
  89 H :    0.031431
  90 H :    0.039038
  91 H :    0.035686
  92 H :    0.000199
  93 H :    0.024226
  94 H :    0.007629
  95 H :    0.004403
  96 H :    0.003186
Sum of atomic charges:   -0.0000000

LOEWDIN ATOMIC CHARGES
----------------------
   0 C :    0.083876
   1 O :   -0.132552
   2 C :   -0.033506
   3 C :   -0.016870
   4 C :    0.009306
   5 C :   -0.012554
   6 C :   -0.096266
   7 C :    0.000500
   8 Br:    0.118758
   9 C :    0.075261
  10 C :   -0.132213
  11 C :   -0.018626
  12 N :   -0.046151
  13 C :   -0.020355
  14 N :   -0.047254
  15 C :   -0.081456
  16 C :    0.071215
  17 C :   -0.046868
  18 C :    0.031970
  19 C :   -0.038087
  20 C :   -0.013160
  21 C :   -0.036294
  22 C :   -0.036560
  23 N :   -0.008920
  24 O :    0.072712
  25 N :   -0.032880
  26 C :   -0.178557
  27 C :    0.007032
  28 C :   -0.029151
  29 C :   -0.054633
  30 C :   -0.132920
  31 S :    0.446847
  32 C :   -0.189604
  33 C :   -0.040617
  34 C :   -0.062048
  35 C :   -0.161700
  36 S :    0.431539
  37 C :   -0.022883
  38 C :   -0.007544
  39 C :   -0.040975
  40 C :   -0.154432
  41 C :   -0.058897
  42 C :   -0.058818
  43 C :   -0.186713
  44 S :    0.394375
  45 C :    0.035659
  46 O :   -0.098967
  47 C :    0.066613
  48 C :   -0.062982
  49 C :   -0.160887
  50 C :    0.023578
  51 O :   -0.104348
  52 C :    0.080735
  53 S :    0.432203
  54 C :   -0.179146
  55 C :    0.007079
  56 C :    0.058296
  57 C :   -0.098608
  58 C :    0.083516
  59 O :   -0.137689
  60 C :   -0.039335
  61 C :   -0.012627
  62 C :    0.064848
  63 C :   -0.137492
  64 C :   -0.019669
  65 N :   -0.054776
  66 C :   -0.019267
  67 N :   -0.035188
  68 C :    0.004273
  69 C :   -0.013883
  70 C :   -0.100096
  71 C :   -0.000021
  72 Br:    0.112829
  73 H :    0.043124
  74 H :    0.041099
  75 H :    0.044062
  76 H :    0.047393
  77 H :    0.042002
  78 H :    0.027770
  79 H :    0.035537
  80 H :    0.037877
  81 H :    0.030190
  82 H :    0.025274
  83 H :    0.031412
  84 H :    0.024487
  85 H :    0.026088
  86 H :    0.011279
  87 H :    0.016287
  88 H :    0.032058
  89 H :    0.017106
  90 H :    0.033093
  91 H :    0.018829
  92 H :    0.034772
  93 H :    0.046579
  94 H :    0.041976
  95 H :    0.039623
  96 H :    0.044111

  Mayer bond orders larger than 0.100000
B(  0-C ,  1-O ) :   2.2290 B(  0-C ,  2-C ) :   0.9414 B(  0-C , 15-C ) :   0.9375
B(  2-C ,  3-C ) :   1.3330 B(  2-C ,  7-C ) :   1.3811 B(  3-C ,  4-C ) :   1.3593
B(  3-C ,  9-C ) :   0.9986 B(  4-C ,  5-C ) :   1.3885 B(  4-C , 73-H ) :   0.9826
B(  5-C ,  6-C ) :   1.3857 B(  5-C , 74-H ) :   0.9846 B(  6-C ,  7-C ) :   1.3383
B(  6-C ,  8-Br) :   0.9951 B(  7-C , 75-H ) :   1.0067 B(  9-C , 10-C ) :   1.6442
B(  9-C , 15-C ) :   1.0694 B( 10-C , 11-C ) :   1.1397 B( 10-C , 13-C ) :   1.1448
B( 11-C , 12-N ) :   2.9753 B( 13-C , 14-N ) :   2.9683 B( 15-C , 16-C ) :   1.6316
B( 16-C , 17-C ) :   1.1184 B( 16-C , 76-H ) :   0.9402 B( 17-C , 18-C ) :   1.4261
B( 17-C , 22-C ) :   1.1312 B( 18-C , 19-C ) :   1.2569 B( 18-C , 77-H ) :   0.9919
B( 19-C , 20-C ) :   1.4286 B( 19-C , 78-H ) :   0.9787 B( 20-C , 21-C ) :   1.1274
B( 20-C , 26-C ) :   1.1875 B( 21-C , 22-C ) :   1.1566 B( 21-C , 25-N ) :   1.5770
B( 22-C , 23-N ) :   1.5999 B( 23-N , 24-O ) :   1.0694 B( 23-N , 25-N ) :   0.1776
B( 24-O , 25-N ) :   1.0545 B( 25-N , 79-H ) :   0.1055 B( 26-C , 27-C ) :   1.5178
B( 26-C , 31-S ) :   1.0167 B( 27-C , 28-C ) :   1.2570 B( 27-C , 79-H ) :   0.9369
B( 28-C , 29-C ) :   1.0457 B( 28-C , 37-C ) :   1.3436 B( 29-C , 30-C ) :   1.6035
B( 29-C , 32-C ) :   1.1787 B( 30-C , 31-S ) :   1.1439 B( 30-C , 80-H ) :   0.9414
B( 32-C , 33-C ) :   1.4387 B( 32-C , 36-S ) :   1.0883 B( 33-C , 34-C ) :   1.2080
B( 33-C , 37-C ) :   1.0859 B( 34-C , 35-C ) :   1.5964 B( 34-C , 81-H ) :   1.0005
B( 35-C , 36-S ) :   1.1503 B( 35-C , 82-H ) :   0.9643 B( 37-C , 38-C ) :   1.1983
B( 38-C , 39-C ) :   1.6280 B( 38-C , 83-H ) :   0.9582 B( 39-C , 40-C ) :   1.1151
B( 39-C , 84-H ) :   0.9702 B( 40-C , 41-C ) :   1.5592 B( 40-C , 44-S ) :   1.0530
B( 41-C , 42-C ) :   1.1788 B( 41-C , 85-H ) :   0.9859 B( 42-C , 43-C ) :   1.2526
B( 42-C , 50-C ) :   1.2305 B( 43-C , 44-S ) :   1.0035 B( 43-C , 45-C ) :   1.4155
B( 45-C , 46-O ) :   1.2297 B( 45-C , 48-C ) :   1.2521 B( 46-O , 47-C ) :   0.9409
B( 47-C , 86-H ) :   0.9661 B( 47-C , 87-H ) :   0.9685 B( 47-C , 88-H ) :   0.9759
B( 48-C , 49-C ) :   1.3633 B( 48-C , 55-C ) :   1.2480 B( 49-C , 50-C ) :   1.3862
B( 49-C , 53-S ) :   1.0559 B( 50-C , 51-O ) :   1.2637 B( 51-O , 52-C ) :   0.9434
B( 52-C , 89-H ) :   0.9672 B( 52-C , 90-H ) :   0.9717 B( 52-C , 91-H ) :   0.9670
B( 53-S , 54-C ) :   1.0569 B( 54-C , 55-C ) :   1.4663 B( 54-C , 56-C ) :   1.1318
B( 55-C , 92-H ) :   0.9954 B( 56-C , 57-C ) :   1.6576 B( 56-C , 93-H ) :   0.9317
B( 57-C , 58-C ) :   0.9500 B( 57-C , 62-C ) :   1.0429 B( 58-C , 59-O ) :   2.2678
B( 58-C , 60-C ) :   0.9162 B( 60-C , 61-C ) :   1.3377 B( 60-C , 71-C ) :   1.3835
B( 61-C , 62-C ) :   1.0006 B( 61-C , 68-C ) :   1.3705 B( 62-C , 63-C ) :   1.6519
B( 63-C , 64-C ) :   1.1288 B( 63-C , 66-C ) :   1.1618 B( 64-C , 65-N ) :   2.9908
B( 66-C , 67-N ) :   3.0083 B( 68-C , 69-C ) :   1.3815 B( 68-C , 94-H ) :   0.9852
B( 69-C , 70-C ) :   1.3927 B( 69-C , 95-H ) :   0.9843 B( 70-C , 71-C ) :   1.3409
B( 70-C , 72-Br) :   0.9909 B( 71-C , 96-H ) :   1.0059

-----------------------------------------------------------------------------
         ABSORPTION SPECTRUM VIA TRANSITION ELECTRIC DIPOLE MOMENTS
-----------------------------------------------------------------------------
State   Energy  Wavelength   fosc         T2         TX        TY        TZ
        (cm-1)    (nm)                  (au**2)     (au)      (au)      (au)
-----------------------------------------------------------------------------
   0   10441.6    957.7   0.522089563  16.46083  -1.94739  -0.12443  -3.55711
   1   14864.3    672.8   0.396874114   8.78991   2.09036  -1.58992  -1.37567
   2   16029.0    623.9   0.327090429   6.71794   1.91483  -0.81896   1.54295
   3   20077.2    498.1   0.236022481   3.87013   0.31561  -1.10981  -1.59337
   4   20868.1    479.2   0.147858626   2.33259  -1.21356   0.47422  -0.79686
   5   21546.8    464.1   0.444127011   6.78578   1.55336  -1.64122  -1.29586
   6   22157.8    451.3   0.159333183   2.36731   0.86273  -0.58233   1.13309
   7   22622.7    442.0   0.405452214   5.90025   1.26776  -1.43978  -1.48998
   8   24508.2    408.0   0.099172926   1.33216   0.52264  -0.54029  -0.87584
   9   25031.7    399.5   0.085484469   1.12428   0.13822  -0.33473   0.99656
  10   25465.1    392.7   0.031940811   0.41293   0.00450  -0.22948  -0.60021
  11   26013.7    384.4   0.014082866   0.17822  -0.42073  -0.00856  -0.03371
  12   26226.0    381.3   0.080818802   1.01451  -0.46791   0.71239   0.53672
  13   26778.5    373.4   0.087086232   1.07063  -0.27151   0.98787   0.14498
  14   27187.3    367.8   0.050779820   0.61489   0.57217   0.38055   0.37776
  15   27705.8    360.9   0.189387113   2.25038   0.04980   0.37548   1.45152
  16   28373.1    352.4   0.152537801   1.76989   0.59672  -1.17718   0.16751
  17   29353.3    340.7   0.030818483   0.34564   0.14417   0.51764   0.23855
  18   30028.6    333.0   0.344659255   3.77860  -0.03773   1.26008   1.47965
  19   30556.6    327.3   0.030508238   0.32869   0.06498   0.42131   0.38336
  20   30616.6    326.6   0.054104581   0.58177  -0.03137  -0.72442  -0.23664
  21   30934.3    323.3   0.024325552   0.25888   0.28159   0.30749   0.29161
  22   31505.8    317.4   0.108251294   1.13114  -0.62262   0.72108   0.47278
  23   31513.3    317.3   0.118519100   1.23814  -0.01987   0.85248   0.71486
  24   31837.3    314.1   0.064977142   0.67189   0.55414   0.03480   0.60300
  25   32306.5    309.5   0.026932592   0.27445   0.22474  -0.04807   0.47078
  26   32503.4    307.7   0.003652217   0.03699   0.10409  -0.04262  -0.15601
  27   32680.4    306.0   0.031088509   0.31318   0.04562   0.49206  -0.26262
  28   32820.6    304.7   0.040680171   0.40805   0.11040  -0.58580  -0.22956
  29   33620.2    297.4   0.446804448   4.37514  -0.26062  -1.75383  -1.10964
  30   33708.7    296.7   0.228440463   2.23104  -1.03811   0.68271   0.82902
  31   34574.4    289.2   0.128085561   1.21961   0.02079   0.76686   0.79443
  32   34698.3    288.2   0.121605881   1.15378   0.42131   0.89819   0.41175
  33   34945.6    286.2   0.281426168   2.65123  -0.72954  -1.25046  -0.74523
  34   34965.1    286.0   0.118964099   1.12010   0.89779   0.34995   0.43773
  35   35114.9    284.8   0.043620641   0.40896   0.42526  -0.44233   0.18014
  36   35395.4    282.5   0.219768062   2.04406   0.04028   1.24627   0.69947
  37   36056.7    277.3   0.076047793   0.69435  -0.23813  -0.25146  -0.75790
  38   36127.5    276.8   0.025366948   0.23116   0.31978   0.34411   0.10240
  39   36444.8    274.4   0.013832907   0.12495  -0.18149  -0.19359  -0.23354
  40   36544.4    273.6   0.050823320   0.45784   0.33613   0.23648   0.53753
  41   36788.4    271.8   0.072528004   0.64904   0.40996   0.46762   0.51215
  42   37173.3    269.0   0.030117832   0.26673  -0.01693   0.22749   0.46335
  43   37508.9    266.6   0.093829794   0.82354   0.87421  -0.10204   0.22109
  44   37549.9    266.3   0.032414142   0.28419   0.17139  -0.05075   0.50223
  45   38056.7    262.8   0.019441201   0.16818   0.07928  -0.18207  -0.35881
  46   38209.6    261.7   0.012382117   0.10668   0.16708  -0.19077  -0.20585
  47   38368.4    260.6   0.101454325   0.87051  -0.69164  -0.14088  -0.61016
  48   38495.6    259.8   0.003210436   0.02746  -0.00412  -0.02293   0.16405
  49   38863.5    257.3   0.235642054   1.99612  -0.35689   1.31748   0.36468
  50   38925.7    256.9   0.024324222   0.20572   0.41749  -0.16428  -0.06661
  51   39162.5    255.3   0.067476847   0.56723   0.71400  -0.20340   0.12675
  52   39823.2    251.1   0.072424221   0.59872  -0.04138   0.44497   0.63167
  53   39991.1    250.1   0.063800399   0.52521  -0.48209   0.26857   0.46976

FINAL SINGLE POINT ENERGY     -9589.439914008322

DIPOLE MOMENT
-------------
                                X             Y             Z
Electronic contribution:    -49.33238     125.82764      67.60514
Nuclear contribution   :     53.16426    -126.79286     -69.51344
                        -----------------------------------------
Total Dipole Moment    :      3.83188      -0.96521      -1.90830
                        -----------------------------------------
Magnitude (a.u.)       :      4.38823
Magnitude (Debye)      :     11.15399

Rotational constants in cm-1:     0.000724     0.000271     0.000207
Rotational constants in MHz :    21.691471     8.138629     6.209229

                             ****ORCA TERMINATED NORMALLY****
TOTAL RUN TIME: 0 days 0 hours 9 minutes 45 seconds 383 msec
