                         Program Version 4.2.0 -  RELEASE  -
|  1> # ORCA input file
|  2> # SCF done       -187.778573204189          0.000906207171
|  3> ! CAM-B3LYP def2-SVP def2/J RIJCOSX Grid4 TightSCF
|  4> %maxcore 5000
|  5> %tddft
|  6>     Mode sTDDFT
|  7>     Ethresh 5.0
|  8>     maxcore 5000
|  9> end
| 10>
| 11> %pal
| 12>   nprocs 6
| 13>   end
| 14> * xyz 0 1
| 15>    C       -1.46682        -0.90262         0.08271
| 16>    O       -2.05314        -1.62031         0.86038
| 17>    C       -1.26206         0.55662         0.21712
| 18>    C       -0.35041         1.00008        -0.75689
| 19>    C        0.00528         2.34139        -0.80033
| 20>    C       -0.55314         3.21126         0.12363
| 21>    C       -1.44969         2.74919         1.07858
| 22>    C       -1.81701         1.41218         1.14597
| 23>   Br       -2.18411         3.97912         2.32531
| 24>    C        0.05603        -0.13701        -1.57867
| 25>    C        0.91991        -0.08279        -2.64109
| 26>    C        1.57877         1.08954        -3.06884
| 27>    N        2.14980         2.00491        -3.46058
| 28>    C        1.27953        -1.17778        -3.45499
| 29>    N        1.61736        -2.01646        -4.16281
| 30>    C       -0.66119        -1.30374        -1.09978
| 31>    C       -0.52147        -2.58767        -1.53231
| 32>    C       -1.38339        -3.67231        -1.18758
| 33>    C       -0.91230        -4.97634        -1.08366
| 34>    C       -1.70297        -6.05745        -0.70019
| 35>    C       -3.06533        -5.94626        -0.43709
| 36>    C       -3.60676        -4.64409        -0.63518
| 37>    C       -2.78297        -3.51960        -0.99337
| 38>    N       -3.58780        -2.49000        -1.16216
| 39>    O       -4.81716        -2.93005        -0.91095
| 40>    N       -4.85182        -4.22038        -0.58997
| 41>    C       -3.89219        -7.02320        -0.01818
| 42>    C       -3.52138        -8.33144         0.27272
| 43>    C       -4.57863        -9.13181         0.67036
| 44>    C       -5.78619        -8.42769         0.67859
| 45>    S       -5.60682        -6.78490         0.20583
| 46>    C       -6.94607        -9.13729         1.06814
| 47>    C       -6.79142       -10.46371         1.45585
| 48>   Ge       -4.91118       -10.99923         1.22619
| 49>    C       -4.01213       -11.49083         2.92477
| 50>    C       -4.67394       -12.30631        -0.24082
| 51>    C       -7.99774       -11.04818         1.82025
| 52>    C       -9.08559       -10.20379         1.68510
| 53>    S       -8.58666        -8.61675         1.15202
| 54>    C      -10.47095       -10.48701         1.84997
| 55>    C      -11.07806       -11.72671         1.94451
| 56>    C      -12.50820       -11.64092         2.04160
| 57>    C      -12.93868       -10.29289         2.13621
| 58>    S      -11.60130        -9.17746         2.03251
| 59>    C      -14.25968        -9.90078         2.23361
| 60>    C      -14.63642        -8.45804         2.38173
| 61>    C      -14.76602        -8.08924         3.86101
| 62>    C      -15.21186       -10.92409         2.20317
| 63>    C      -14.79324       -12.26061         2.00810
| 64>    C      -13.46618       -12.65587         1.91101
| 65>    C      -13.14580       -14.08450         1.57626
| 66>    C      -13.38618       -15.04398         2.74199
| 67>    S      -16.16841       -13.32851         1.87815
| 68>    C      -17.25598       -12.00517         2.11131
| 69>    C      -16.63402       -10.81982         2.26737
| 70>    C      -10.28452       -12.93468         1.99085
| 71>    C      -10.24230       -13.74864         3.07543
| 72>    C      -10.97721       -13.47272         4.33775
| 73>    O      -11.57074       -12.46503         4.64384
| 74>    C      -10.77480       -14.68126         5.17349
| 75>    C       -9.92605       -15.58194         4.50484
| 76>    C       -9.49814       -14.98442         3.24419
| 77>    C       -8.49996       -15.45978         2.43560
| 78>    C       -7.80643       -16.66820         2.66090
| 79>    N       -7.20956       -17.64052         2.78434
| 80>    C       -7.95960       -14.77026         1.33133
| 81>    N       -7.42410       -14.24195         0.46305
| 82>    C       -9.62580       -16.80401         5.09086
| 83>    C      -10.17264       -17.10280         6.32891
| 84>    C      -10.99875       -16.19296         6.97714
| 85>    C      -11.31326       -14.96431         6.41103
| 86>   Br      -11.72148       -16.64627         8.67359
| 87>    H        0.70265         2.72049        -1.52918
| 88>    H       -0.28784         4.25724         0.10352
| 89>    H       -2.51104         1.04661         1.88682
| 90>    H        0.31087        -2.84090        -2.17697
| 91>    H        0.13882        -5.15242        -1.26287
| 92>    H       -1.22965        -7.02173        -0.60308
| 93>    H       -2.50740        -8.68328         0.20251
| 94>    H       -2.94176       -11.58544         2.76959
| 95>    H       -4.39295       -12.44296         3.28194
| 96>    H       -4.19020       -10.73493         3.68343
| 97>    H       -5.03865       -11.88929        -1.17443
| 98>    H       -5.23854       -13.20750        -0.02296
| 99>    H       -3.62577       -12.56451        -0.35585
|100>    H       -8.06758       -12.04791         2.20458
|101>    H      -15.57949        -8.26259         1.86932
|102>    H      -13.86346        -7.83685         1.92302
|103>    H      -15.53397        -8.69348         4.33867
|104>    H      -15.03077        -7.04014         3.96595
|105>    H      -13.82401        -8.26335         4.37532
|106>    H      -12.11003       -14.15732         1.23853
|107>    H      -13.79031       -14.38845         0.74552
|108>    H      -12.86071       -14.71276         3.63329
|109>    H      -13.04233       -16.04335         2.48404
|110>    H      -14.44558       -15.09498         2.97803
|111>    H      -18.30975       -12.20537         2.11835
|112>    H      -17.15783        -9.89487         2.42517
|113>    H       -9.65406       -13.13394         1.13116
|114>    H       -8.98799       -17.52389         4.60470
|115>    H       -9.95482       -18.05070         6.79630
|116>    H      -11.95741       -14.25550         6.90799
|117> *
|118>
|119>                          ****END OF INPUT****

CARTESIAN COORDINATES (ANGSTROEM)
---------------------------------
  C     -1.466820   -0.902620    0.082710
  O     -2.053140   -1.620310    0.860380
  C     -1.262060    0.556620    0.217120
  C     -0.350410    1.000080   -0.756890
  C      0.005280    2.341390   -0.800330
  C     -0.553140    3.211260    0.123630
  C     -1.449690    2.749190    1.078580
  C     -1.817010    1.412180    1.145970
  Br    -2.184110    3.979120    2.325310
  C      0.056030   -0.137010   -1.578670
  C      0.919910   -0.082790   -2.641090
  C      1.578770    1.089540   -3.068840
  N      2.149800    2.004910   -3.460580
  C      1.279530   -1.177780   -3.454990
  N      1.617360   -2.016460   -4.162810
  C     -0.661190   -1.303740   -1.099780
  C     -0.521470   -2.587670   -1.532310
  C     -1.383390   -3.672310   -1.187580
  C     -0.912300   -4.976340   -1.083660
  C     -1.702970   -6.057450   -0.700190
  C     -3.065330   -5.946260   -0.437090
  C     -3.606760   -4.644090   -0.635180
  C     -2.782970   -3.519600   -0.993370
  N     -3.587800   -2.490000   -1.162160
  O     -4.817160   -2.930050   -0.910950
  N     -4.851820   -4.220380   -0.589970
  C     -3.892190   -7.023200   -0.018180
  C     -3.521380   -8.331440    0.272720
  C     -4.578630   -9.131810    0.670360
  C     -5.786190   -8.427690    0.678590
  S     -5.606820   -6.784900    0.205830
  C     -6.946070   -9.137290    1.068140
  C     -6.791420  -10.463710    1.455850
  Ge    -4.911180  -10.999230    1.226190
  C     -4.012130  -11.490830    2.924770
  C     -4.673940  -12.306310   -0.240820
  C     -7.997740  -11.048180    1.820250
  C     -9.085590  -10.203790    1.685100
  S     -8.586660   -8.616750    1.152020
  C    -10.470950  -10.487010    1.849970
  C    -11.078060  -11.726710    1.944510
  C    -12.508200  -11.640920    2.041600
  C    -12.938680  -10.292890    2.136210
  S    -11.601300   -9.177460    2.032510
  C    -14.259680   -9.900780    2.233610
  C    -14.636420   -8.458040    2.381730
  C    -14.766020   -8.089240    3.861010
  C    -15.211860  -10.924090    2.203170
  C    -14.793240  -12.260610    2.008100
  C    -13.466180  -12.655870    1.911010
  C    -13.145800  -14.084500    1.576260
  C    -13.386180  -15.043980    2.741990
  S    -16.168410  -13.328510    1.878150
  C    -17.255980  -12.005170    2.111310
  C    -16.634020  -10.819820    2.267370
  C    -10.284520  -12.934680    1.990850
  C    -10.242300  -13.748640    3.075430
  C    -10.977210  -13.472720    4.337750
  O    -11.570740  -12.465030    4.643840
  C    -10.774800  -14.681260    5.173490
  C     -9.926050  -15.581940    4.504840
  C     -9.498140  -14.984420    3.244190
  C     -8.499960  -15.459780    2.435600
  C     -7.806430  -16.668200    2.660900
  N     -7.209560  -17.640520    2.784340
  C     -7.959600  -14.770260    1.331330
  N     -7.424100  -14.241950    0.463050
  C     -9.625800  -16.804010    5.090860
  C    -10.172640  -17.102800    6.328910
  C    -10.998750  -16.192960    6.977140
  C    -11.313260  -14.964310    6.411030
  Br   -11.721480  -16.646270    8.673590
  H      0.702650    2.720490   -1.529180
  H     -0.287840    4.257240    0.103520
  H     -2.511040    1.046610    1.886820
  H      0.310870   -2.840900   -2.176970
  H      0.138820   -5.152420   -1.262870
  H     -1.229650   -7.021730   -0.603080
  H     -2.507400   -8.683280    0.202510
  H     -2.941760  -11.585440    2.769590
  H     -4.392950  -12.442960    3.281940
  H     -4.190200  -10.734930    3.683430
  H     -5.038650  -11.889290   -1.174430
  H     -5.238540  -13.207500   -0.022960
  H     -3.625770  -12.564510   -0.355850
  H     -8.067580  -12.047910    2.204580
  H    -15.579490   -8.262590    1.869320
  H    -13.863460   -7.836850    1.923020
  H    -15.533970   -8.693480    4.338670
  H    -15.030770   -7.040140    3.965950
  H    -13.824010   -8.263350    4.375320
  H    -12.110030  -14.157320    1.238530
  H    -13.790310  -14.388450    0.745520
  H    -12.860710  -14.712760    3.633290
  H    -13.042330  -16.043350    2.484040
  H    -14.445580  -15.094980    2.978030
  H    -18.309750  -12.205370    2.118350
  H    -17.157830   -9.894870    2.425170
  H     -9.654060  -13.133940    1.131160
  H     -8.987990  -17.523890    4.604700
  H     -9.954820  -18.050700    6.796300
  H    -11.957410  -14.255500    6.907990

 Total Charge           Charge          ....    0
 Multiplicity           Mult            ....    1
 Number of Electrons    NEL             ....  598
 Basis Dimension        Dim             .... 1228

ORBITAL ENERGIES
----------------

  NO   OCC          E(Eh)            E(eV)
   0   2.0000    -482.880034    -13139.8338
   1   2.0000    -482.869914    -13139.5584
   2   2.0000    -398.774591    -10851.2083
   3   2.0000     -88.967654     -2420.9330
   4   2.0000     -88.966144     -2420.8918
   5   2.0000     -88.954781     -2420.5826
   6   2.0000     -88.947940     -2420.3965
   7   2.0000     -62.557742     -1702.2827
   8   2.0000     -62.547640     -1702.0078
   9   2.0000     -56.391591     -1534.4932
  10   2.0000     -56.389055     -1534.4242
  11   2.0000     -56.389034     -1534.4236
  12   2.0000     -56.381474     -1534.2179
  13   2.0000     -56.378956     -1534.1494
  14   2.0000     -56.378946     -1534.1491
  15   2.0000     -49.834094     -1356.0546
  16   2.0000     -44.371393     -1207.4070
  17   2.0000     -44.370616     -1207.3859
  18   2.0000     -44.370138     -1207.3728
  19   2.0000     -19.354787      -526.6705
  20   2.0000     -19.228516      -523.2345
  21   2.0000     -19.215700      -522.8858
  22   2.0000     -14.481833      -394.0707
  23   2.0000     -14.475734      -393.9048
  24   2.0000     -14.435870      -392.8200
  25   2.0000     -14.428598      -392.6221
  26   2.0000     -14.417563      -392.3218
  27   2.0000     -14.415339      -392.2613
  28   2.0000     -10.378725      -282.4195
  29   2.0000     -10.366516      -282.0872
  30   2.0000     -10.358858      -281.8789
  31   2.0000     -10.357438      -281.8402
  32   2.0000     -10.354585      -281.7626
  33   2.0000     -10.344257      -281.4815
  34   2.0000     -10.342850      -281.4433
  35   2.0000     -10.342208      -281.4258
  36   2.0000     -10.338920      -281.3363
  37   2.0000     -10.331624      -281.1378
  38   2.0000     -10.331072      -281.1228
  39   2.0000     -10.326230      -280.9910
  40   2.0000     -10.324547      -280.9452
  41   2.0000     -10.323951      -280.9290
  42   2.0000     -10.323178      -280.9080
  43   2.0000     -10.321036      -280.8497
  44   2.0000     -10.320082      -280.8237
  45   2.0000     -10.318614      -280.7837
  46   2.0000     -10.318047      -280.7683
  47   2.0000     -10.315963      -280.7116
  48   2.0000     -10.313285      -280.6387
  49   2.0000     -10.313282      -280.6387
  50   2.0000     -10.313146      -280.6350
  51   2.0000     -10.312739      -280.6239
  52   2.0000     -10.312279      -280.6114
  53   2.0000     -10.311284      -280.5843
  54   2.0000     -10.309827      -280.5447
  55   2.0000     -10.309735      -280.5421
  56   2.0000     -10.309196      -280.5275
  57   2.0000     -10.308309      -280.5034
  58   2.0000     -10.306582      -280.4564
  59   2.0000     -10.301357      -280.3142
  60   2.0000     -10.301303      -280.3127
  61   2.0000     -10.300437      -280.2891
  62   2.0000     -10.299215      -280.2559
  63   2.0000     -10.297808      -280.2176
  64   2.0000     -10.297583      -280.2115
  65   2.0000     -10.296558      -280.1836
  66   2.0000     -10.296464      -280.1810
  67   2.0000     -10.296230      -280.1747
  68   2.0000     -10.294102      -280.1168
  69   2.0000     -10.289389      -279.9885
  70   2.0000     -10.286564      -279.9116
  71   2.0000     -10.284624      -279.8588
  72   2.0000     -10.283737      -279.8347
  73   2.0000     -10.281136      -279.7639
  74   2.0000     -10.277352      -279.6610
  75   2.0000     -10.275774      -279.6180
  76   2.0000     -10.273462      -279.5551
  77   2.0000     -10.272714      -279.5348
  78   2.0000     -10.268912      -279.4313
  79   2.0000     -10.268755      -279.4270
  80   2.0000     -10.264219      -279.3036
  81   2.0000     -10.263207      -279.2760
  82   2.0000     -10.257541      -279.1219
  83   2.0000     -10.254236      -279.0320
  84   2.0000      -8.787028      -239.1072
  85   2.0000      -8.776925      -238.8323
  86   2.0000      -8.063075      -219.4074
  87   2.0000      -8.060792      -219.3453
  88   2.0000      -8.050467      -219.0643
  89   2.0000      -8.043663      -218.8792
  90   2.0000      -6.622901      -180.2183
  91   2.0000      -6.612771      -179.9426
  92   2.0000      -6.609150      -179.8441
  93   2.0000      -6.608657      -179.8307
  94   2.0000      -6.599040      -179.5690
  95   2.0000      -6.598602      -179.5571
  96   2.0000      -6.293955      -171.2672
  97   2.0000      -6.032315      -164.1476
  98   2.0000      -6.029995      -164.0845
  99   2.0000      -6.028251      -164.0370
 100   2.0000      -6.025758      -163.9692
 101   2.0000      -6.025203      -163.9541
 102   2.0000      -6.023132      -163.8978
 103   2.0000      -6.020065      -163.8143
 104   2.0000      -6.016029      -163.7045
 105   2.0000      -6.013293      -163.6300
 106   2.0000      -6.011774      -163.5887
 107   2.0000      -6.008972      -163.5124
 108   2.0000      -6.005269      -163.4117
 109   2.0000      -4.470426      -121.6465
 110   2.0000      -4.469140      -121.6115
 111   2.0000      -4.467834      -121.5759
 112   2.0000      -2.738844       -74.5277
 113   2.0000      -2.735068       -74.4250
 114   2.0000      -2.734705       -74.4151
 115   2.0000      -2.728694       -74.2516
 116   2.0000      -2.724957       -74.1499
 117   2.0000      -2.724608       -74.1404
 118   2.0000      -2.723765       -74.1174
 119   2.0000      -2.723757       -74.1172
 120   2.0000      -2.713723       -73.8442
 121   2.0000      -2.713700       -73.8435
 122   2.0000      -1.308232       -35.5988
 123   2.0000      -1.294450       -35.2238
 124   2.0000      -1.292435       -35.1689
 125   2.0000      -1.291625       -35.1469
 126   2.0000      -1.290889       -35.1269
 127   2.0000      -1.290420       -35.1141
 128   2.0000      -1.143596       -31.1188
 129   2.0000      -1.131569       -30.7916
 130   2.0000      -1.035059       -28.1654
 131   2.0000      -1.019864       -27.7519
 132   2.0000      -1.016694       -27.6656
 133   2.0000      -1.015778       -27.6407
 134   2.0000      -1.010734       -27.5035
 135   2.0000      -1.008873       -27.4528
 136   2.0000      -1.006373       -27.3848
 137   2.0000      -1.000744       -27.2316
 138   2.0000      -0.997299       -27.1379
 139   2.0000      -0.994642       -27.0656
 140   2.0000      -0.982931       -26.7469
 141   2.0000      -0.975769       -26.5520
 142   2.0000      -0.969352       -26.3774
 143   2.0000      -0.962714       -26.1968
 144   2.0000      -0.925866       -25.1941
 145   2.0000      -0.925391       -25.1812
 146   2.0000      -0.922935       -25.1143
 147   2.0000      -0.917693       -24.9717
 148   2.0000      -0.911662       -24.8076
 149   2.0000      -0.909110       -24.7381
 150   2.0000      -0.904803       -24.6209
 151   2.0000      -0.889637       -24.2083
 152   2.0000      -0.886142       -24.1131
 153   2.0000      -0.874467       -23.7955
 154   2.0000      -0.865402       -23.5488
 155   2.0000      -0.859202       -23.3801
 156   2.0000      -0.852684       -23.2027
 157   2.0000      -0.847233       -23.0544
 158   2.0000      -0.842173       -22.9167
 159   2.0000      -0.833020       -22.6676
 160   2.0000      -0.827259       -22.5109
 161   2.0000      -0.824785       -22.4435
 162   2.0000      -0.816094       -22.2071
 163   2.0000      -0.794841       -21.6287
 164   2.0000      -0.790963       -21.5232
 165   2.0000      -0.787527       -21.4297
 166   2.0000      -0.780704       -21.2440
 167   2.0000      -0.771337       -20.9891
 168   2.0000      -0.767665       -20.8892
 169   2.0000      -0.764499       -20.8031
 170   2.0000      -0.764081       -20.7917
 171   2.0000      -0.763616       -20.7791
 172   2.0000      -0.750392       -20.4192
 173   2.0000      -0.735626       -20.0174
 174   2.0000      -0.724178       -19.7059
 175   2.0000      -0.710766       -19.3409
 176   2.0000      -0.705619       -19.2009
 177   2.0000      -0.701747       -19.0955
 178   2.0000      -0.694684       -18.9033
 179   2.0000      -0.692522       -18.8445
 180   2.0000      -0.690778       -18.7970
 181   2.0000      -0.686518       -18.6811
 182   2.0000      -0.680988       -18.5306
 183   2.0000      -0.674365       -18.3504
 184   2.0000      -0.664151       -18.0725
 185   2.0000      -0.651746       -17.7349
 186   2.0000      -0.646965       -17.6048
 187   2.0000      -0.640711       -17.4346
 188   2.0000      -0.634402       -17.2630
 189   2.0000      -0.630790       -17.1647
 190   2.0000      -0.630344       -17.1525
 191   2.0000      -0.627067       -17.0634
 192   2.0000      -0.620738       -16.8912
 193   2.0000      -0.613845       -16.7036
 194   2.0000      -0.613313       -16.6891
 195   2.0000      -0.606585       -16.5060
 196   2.0000      -0.601256       -16.3610
 197   2.0000      -0.596727       -16.2378
 198   2.0000      -0.593836       -16.1591
 199   2.0000      -0.581924       -15.8349
 200   2.0000      -0.579469       -15.7681
 201   2.0000      -0.577112       -15.7040
 202   2.0000      -0.575230       -15.6528
 203   2.0000      -0.561308       -15.2740
 204   2.0000      -0.558529       -15.1984
 205   2.0000      -0.557182       -15.1617
 206   2.0000      -0.552942       -15.0463
 207   2.0000      -0.548899       -14.9363
 208   2.0000      -0.544962       -14.8292
 209   2.0000      -0.541711       -14.7407
 210   2.0000      -0.540278       -14.7017
 211   2.0000      -0.537257       -14.6195
 212   2.0000      -0.534652       -14.5486
 213   2.0000      -0.529171       -14.3995
 214   2.0000      -0.528350       -14.3771
 215   2.0000      -0.527748       -14.3608
 216   2.0000      -0.526786       -14.3346
 217   2.0000      -0.525023       -14.2866
 218   2.0000      -0.521545       -14.1920
 219   2.0000      -0.517661       -14.0863
 220   2.0000      -0.517178       -14.0731
 221   2.0000      -0.511600       -13.9213
 222   2.0000      -0.511020       -13.9056
 223   2.0000      -0.507934       -13.8216
 224   2.0000      -0.505156       -13.7460
 225   2.0000      -0.499924       -13.6036
 226   2.0000      -0.496728       -13.5167
 227   2.0000      -0.492521       -13.4022
 228   2.0000      -0.491636       -13.3781
 229   2.0000      -0.491225       -13.3669
 230   2.0000      -0.488069       -13.2810
 231   2.0000      -0.483750       -13.1635
 232   2.0000      -0.482785       -13.1373
 233   2.0000      -0.482233       -13.1222
 234   2.0000      -0.478540       -13.0217
 235   2.0000      -0.477176       -12.9846
 236   2.0000      -0.475206       -12.9310
 237   2.0000      -0.474317       -12.9068
 238   2.0000      -0.474112       -12.9012
 239   2.0000      -0.472555       -12.8589
 240   2.0000      -0.468874       -12.7587
 241   2.0000      -0.466830       -12.7031
 242   2.0000      -0.465910       -12.6780
 243   2.0000      -0.463239       -12.6054
 244   2.0000      -0.462068       -12.5735
 245   2.0000      -0.461500       -12.5580
 246   2.0000      -0.458663       -12.4808
 247   2.0000      -0.454961       -12.3801
 248   2.0000      -0.453993       -12.3538
 249   2.0000      -0.453835       -12.3495
 250   2.0000      -0.451417       -12.2837
 251   2.0000      -0.449132       -12.2215
 252   2.0000      -0.447416       -12.1748
 253   2.0000      -0.445634       -12.1263
 254   2.0000      -0.443671       -12.0729
 255   2.0000      -0.441955       -12.0262
 256   2.0000      -0.441043       -12.0014
 257   2.0000      -0.439371       -11.9559
 258   2.0000      -0.436311       -11.8726
 259   2.0000      -0.434093       -11.8123
 260   2.0000      -0.430688       -11.7196
 261   2.0000      -0.430431       -11.7126
 262   2.0000      -0.428091       -11.6489
 263   2.0000      -0.425793       -11.5864
 264   2.0000      -0.424684       -11.5562
 265   2.0000      -0.424349       -11.5471
 266   2.0000      -0.417223       -11.3532
 267   2.0000      -0.416220       -11.3259
 268   2.0000      -0.414397       -11.2763
 269   2.0000      -0.409680       -11.1480
 270   2.0000      -0.402257       -10.9460
 271   2.0000      -0.394706       -10.7405
 272   2.0000      -0.393081       -10.6963
 273   2.0000      -0.390928       -10.6377
 274   2.0000      -0.389821       -10.6076
 275   2.0000      -0.383961       -10.4481
 276   2.0000      -0.380062       -10.3420
 277   2.0000      -0.375003       -10.2043
 278   2.0000      -0.374446       -10.1892
 279   2.0000      -0.370144       -10.0721
 280   2.0000      -0.366779        -9.9806
 281   2.0000      -0.364688        -9.9237
 282   2.0000      -0.364393        -9.9156
 283   2.0000      -0.360888        -9.8203
 284   2.0000      -0.359853        -9.7921
 285   2.0000      -0.347877        -9.4662
 286   2.0000      -0.344798        -9.3824
 287   2.0000      -0.342956        -9.3323
 288   2.0000      -0.340126        -9.2553
 289   2.0000      -0.333884        -9.0854
 290   2.0000      -0.329455        -8.9649
 291   2.0000      -0.328113        -8.9284
 292   2.0000      -0.320694        -8.7265
 293   2.0000      -0.316706        -8.6180
 294   2.0000      -0.308561        -8.3964
 295   2.0000      -0.304056        -8.2738
 296   2.0000      -0.284235        -7.7344
 297   2.0000      -0.260060        -7.0766
 298   2.0000      -0.238482        -6.4894
 299   0.0000      -0.105042        -2.8583
 300   0.0000      -0.096299        -2.6204
 301   0.0000      -0.071601        -1.9484
 302   0.0000      -0.066881        -1.8199
 303   0.0000      -0.047888        -1.3031

MULLIKEN ATOMIC CHARGES
-----------------------
   0 C :    0.150694
   1 O :   -0.136806
   2 C :   -0.024465
   3 C :    0.036898
   4 C :   -0.027503
   5 C :    0.050571
   6 C :   -0.003292
   7 C :   -0.010151
   8 Br:   -0.020262
   9 C :    0.302066
  10 C :   -0.341298
  11 C :   -0.187711
  12 N :    0.155373
  13 C :   -0.188557
  14 N :    0.151708
  15 C :   -0.071294
  16 C :   -0.053090
  17 C :    0.065700
  18 C :    0.007584
  19 C :   -0.072121
  20 C :    0.191077
  21 C :   -0.086083
  22 C :    0.015239
  23 N :    0.048944
  24 O :   -0.090467
  25 N :    0.026674
  26 C :   -0.116697
  27 C :   -0.037652
  28 C :   -0.077027
  29 C :   -0.070450
  30 S :    0.189196
  31 C :   -0.086197
  32 C :   -0.086430
  33 Ge:    0.447092
  34 C :   -0.195000
  35 C :   -0.182357
  36 C :   -0.036756
  37 C :   -0.077201
  38 S :    0.162258
  39 C :   -0.025822
  40 C :    0.006499
  41 C :    0.154826
  42 C :   -0.119798
  43 S :    0.113488
  44 C :   -0.091575
  45 C :    0.034451
  46 C :    0.036284
  47 C :    0.080876
  48 C :   -0.132769
  49 C :   -0.131389
  50 C :    0.045717
  51 C :    0.023370
  52 S :    0.086753
  53 C :   -0.049728
  54 C :    0.001258
  55 C :   -0.129378
  56 C :   -0.071475
  57 C :    0.127557
  58 O :   -0.115693
  59 C :   -0.023287
  60 C :    0.034927
  61 C :    0.323329
  62 C :   -0.350675
  63 C :   -0.191749
  64 N :    0.162275
  65 C :   -0.192415
  66 N :    0.168242
  67 C :   -0.029569
  68 C :    0.053598
  69 C :   -0.003261
  70 C :   -0.010091
  71 Br:   -0.011249
  72 H :    0.007613
  73 H :    0.004921
  74 H :    0.003141
  75 H :    0.026869
  76 H :   -0.003677
  77 H :   -0.017216
  78 H :   -0.020119
  79 H :    0.046177
  80 H :    0.046976
  81 H :    0.057020
  82 H :    0.053778
  83 H :    0.059704
  84 H :    0.035666
  85 H :   -0.018974
  86 H :    0.008592
  87 H :    0.011625
  88 H :    0.012802
  89 H :    0.018015
  90 H :    0.017827
  91 H :   -0.002371
  92 H :    0.018749
  93 H :    0.005356
  94 H :    0.015469
  95 H :    0.026248
  96 H :    0.026833
  97 H :   -0.017497
  98 H :    0.056327
  99 H :    0.011083
 100 H :    0.007069
 101 H :    0.006259
Sum of atomic charges:   -0.0000000

LOEWDIN ATOMIC CHARGES
----------------------
   0 C :    0.083795
   1 O :   -0.129343
   2 C :   -0.032321
   3 C :   -0.016904
   4 C :    0.008259
   5 C :   -0.014294
   6 C :   -0.097025
   7 C :    0.000544
   8 Br:    0.115448
   9 C :    0.076311
  10 C :   -0.134891
  11 C :   -0.018612
  12 N :   -0.049676
  13 C :   -0.020211
  14 N :   -0.049781
  15 C :   -0.085806
  16 C :    0.074056
  17 C :   -0.052373
  18 C :    0.030956
  19 C :   -0.029037
  20 C :   -0.004173
  21 C :   -0.058136
  22 C :   -0.038077
  23 N :   -0.017365
  24 O :    0.082346
  25 N :   -0.034602
  26 C :   -0.182448
  27 C :   -0.031587
  28 C :   -0.165973
  29 C :   -0.180076
  30 S :    0.486821
  31 C :   -0.187833
  32 C :   -0.156081
  33 Ge:    0.516183
  34 C :   -0.201714
  35 C :   -0.198032
  36 C :   -0.047117
  37 C :   -0.186555
  38 S :    0.443256
  39 C :   -0.149896
  40 C :   -0.064874
  41 C :   -0.030444
  42 C :   -0.146244
  43 S :    0.407487
  44 C :   -0.033634
  45 C :   -0.031605
  46 C :   -0.047418
  47 C :   -0.045895
  48 C :   -0.150559
  49 C :   -0.037798
  50 C :   -0.034408
  51 C :   -0.053771
  52 S :    0.400506
  53 C :   -0.162003
  54 C :   -0.063140
  55 C :    0.081317
  56 C :   -0.093215
  57 C :    0.075281
  58 O :   -0.113919
  59 C :   -0.037495
  60 C :   -0.018645
  61 C :    0.079328
  62 C :   -0.139058
  63 C :   -0.021114
  64 N :   -0.045061
  65 C :   -0.012972
  66 N :   -0.044976
  67 C :    0.009523
  68 C :   -0.012424
  69 C :   -0.094543
  70 C :    0.000484
  71 Br:    0.121934
  72 H :    0.042680
  73 H :    0.040066
  74 H :    0.044423
  75 H :    0.046515
  76 H :    0.040162
  77 H :    0.033456
  78 H :    0.028846
  79 H :    0.036827
  80 H :    0.037675
  81 H :    0.040964
  82 H :    0.042037
  83 H :    0.037981
  84 H :    0.033355
  85 H :    0.027168
  86 H :    0.028422
  87 H :    0.021554
  88 H :    0.024139
  89 H :    0.024678
  90 H :    0.026815
  91 H :    0.025454
  92 H :    0.029641
  93 H :    0.022294
  94 H :    0.025482
  95 H :    0.019265
  96 H :    0.024993
  97 H :    0.028992
  98 H :    0.047283
  99 H :    0.043427
 100 H :    0.041199
 101 H :    0.045524

  Mayer bond orders larger than 0.100000
B(  0-C ,  1-O ) :   2.2324 B(  0-C ,  2-C ) :   0.9394 B(  0-C , 15-C ) :   0.9395
B(  2-C ,  3-C ) :   1.3339 B(  2-C ,  7-C ) :   1.3821 B(  3-C ,  4-C ) :   1.3564
B(  3-C ,  9-C ) :   0.9987 B(  4-C ,  5-C ) :   1.3880 B(  4-C , 72-H ) :   0.9839
B(  5-C ,  6-C ) :   1.3870 B(  5-C , 73-H ) :   0.9842 B(  6-C ,  7-C ) :   1.3365
B(  6-C ,  8-Br) :   0.9915 B(  7-C , 74-H ) :   1.0079 B(  9-C , 10-C ) :   1.6431
B(  9-C , 15-C ) :   1.0714 B( 10-C , 11-C ) :   1.1375 B( 10-C , 13-C ) :   1.1428
B( 11-C , 12-N ) :   2.9762 B( 13-C , 14-N ) :   2.9703 B( 15-C , 16-C ) :   1.6264
B( 16-C , 17-C ) :   1.1186 B( 16-C , 75-H ) :   0.9427 B( 17-C , 18-C ) :   1.4177
B( 17-C , 22-C ) :   1.1385 B( 18-C , 19-C ) :   1.2461 B( 18-C , 76-H ) :   0.9920
B( 19-C , 20-C ) :   1.4423 B( 19-C , 77-H ) :   0.9947 B( 20-C , 21-C ) :   1.1112
B( 20-C , 26-C ) :   1.1530 B( 21-C , 22-C ) :   1.1633 B( 21-C , 25-N ) :   1.5828
B( 22-C , 23-N ) :   1.5912 B( 23-N , 24-O ) :   1.0683 B( 23-N , 25-N ) :   0.1808
B( 24-O , 25-N ) :   1.0745 B( 26-C , 27-C ) :   1.4147 B( 26-C , 30-S ) :   1.1124
B( 27-C , 28-C ) :   1.3148 B( 27-C , 78-H ) :   0.9940 B( 28-C , 29-C ) :   1.4650
B( 28-C , 33-Ge) :   0.8691 B( 29-C , 30-S ) :   1.1132 B( 29-C , 31-C ) :   1.1658
B( 31-C , 32-C ) :   1.5042 B( 31-C , 37-C ) :   0.1036 B( 31-C , 38-S ) :   1.1047
B( 32-C , 33-Ge) :   0.8711 B( 32-C , 36-C ) :   1.2549 B( 33-Ge, 34-C ) :   1.0147
B( 33-Ge, 35-C ) :   1.0289 B( 34-C , 79-H ) :   0.9600 B( 34-C , 80-H ) :   0.9613
B( 34-C , 81-H ) :   0.9580 B( 35-C , 82-H ) :   0.9543 B( 35-C , 83-H ) :   0.9493
B( 35-C , 84-H ) :   0.9548 B( 36-C , 37-C ) :   1.4666 B( 36-C , 85-H ) :   0.9944
B( 37-C , 38-S ) :   1.1083 B( 37-C , 39-C ) :   1.1195 B( 39-C , 40-C ) :   1.5843
B( 39-C , 43-S ) :   1.0843 B( 40-C , 41-C ) :   1.1296 B( 40-C , 55-C ) :   1.0539
B( 41-C , 42-C ) :   1.2816 B( 41-C , 49-C ) :   1.3737 B( 42-C , 43-S ) :   1.0279
B( 42-C , 44-C ) :   1.4586 B( 44-C , 45-C ) :   1.0710 B( 44-C , 47-C ) :   1.3415
B( 45-C , 46-C ) :   1.1043 B( 45-C , 86-H ) :   0.9174 B( 45-C , 87-H ) :   0.9217
B( 46-C , 88-H ) :   0.9692 B( 46-C , 89-H ) :   0.9680 B( 46-C , 90-H ) :   0.9660
B( 47-C , 48-C ) :   1.3003 B( 47-C , 54-C ) :   1.1730 B( 48-C , 49-C ) :   1.4262
B( 48-C , 52-S ) :   1.0586 B( 49-C , 50-C ) :   1.0703 B( 50-C , 51-C ) :   1.0945
B( 50-C , 91-H ) :   0.9109 B( 50-C , 92-H ) :   0.9187 B( 51-C , 93-H ) :   0.9636
B( 51-C , 94-H ) :   0.9619 B( 51-C , 95-H ) :   0.9566 B( 52-S , 53-C ) :   1.1100
B( 53-C , 54-C ) :   1.6469 B( 53-C , 96-H ) :   0.9675 B( 54-C , 97-H ) :   0.9905
B( 55-C , 56-C ) :   1.7045 B( 55-C , 98-H ) :   0.9119 B( 56-C , 57-C ) :   0.9233
B( 56-C , 61-C ) :   1.0330 B( 57-C , 58-O ) :   2.2509 B( 57-C , 59-C ) :   0.9252
B( 59-C , 60-C ) :   1.3290 B( 59-C , 70-C ) :   1.3843 B( 60-C , 61-C ) :   1.0059
B( 60-C , 67-C ) :   1.3546 B( 61-C , 62-C ) :   1.6469 B( 62-C , 63-C ) :   1.1287
B( 62-C , 65-C ) :   1.1653 B( 63-C , 64-N ) :   2.9858 B( 65-C , 66-N ) :   2.9187
B( 67-C , 68-C ) :   1.3874 B( 67-C , 99-H ) :   0.9843 B( 68-C , 69-C ) :   1.3844
B( 68-C ,100-H ) :   0.9845 B( 69-C , 70-C ) :   1.3335 B( 69-C , 71-Br) :   0.9987
B( 70-C ,101-H ) :   1.0087

-----------------------------------------------------------------------------
         ABSORPTION SPECTRUM VIA TRANSITION ELECTRIC DIPOLE MOMENTS
-----------------------------------------------------------------------------
State   Energy  Wavelength   fosc         T2         TX        TY        TZ
        (cm-1)    (nm)                  (au**2)     (au)      (au)      (au)
-----------------------------------------------------------------------------
   0   14104.4    709.0   0.882736951  20.60397  -2.15057  -3.78936   1.27270
   1   16336.5    612.1   0.910742483  18.35323  -3.19653  -2.74156   0.78694
   2   20037.6    499.1   0.043889249   0.72109  -0.70032   0.42150  -0.23016
   3   20658.4    484.1   0.012428176   0.19806  -0.25006  -0.05770   0.36359
   4   23695.3    422.0   0.047818427   0.66437   0.57091  -0.53508   0.22831
   5   24202.0    413.2   0.032122349   0.43695  -0.45211  -0.47339   0.09193
   6   25440.3    393.1   0.023735012   0.30715   0.11556  -0.53992   0.04769
   7   26290.8    380.4   0.110401035   1.38244   1.08546   0.41593  -0.17665
   8   26628.0    375.5   0.007133699   0.08820   0.28580   0.08071  -0.00078
   9   27352.9    365.6   0.343389359   4.13294  -1.90818  -0.64217   0.28180
  10   27856.3    359.0   0.069670871   0.82338   0.88004  -0.09429  -0.20004
  11   28354.3    352.7   0.054140762   0.62861   0.20008   0.47159  -0.60513
  12   28773.1    347.5   0.245799013   2.81235  -0.21569   1.52447   0.66471
  13   29293.6    341.4   0.216355246   2.43148  -1.51123  -0.38364   0.02226
  14   30186.9    331.3   0.005390825   0.05879  -0.16694   0.14928   0.09293
  15   31209.1    320.4   0.198788616   2.09694   0.89968  -0.11202  -1.12915
  16   31338.4    319.1   0.211757035   2.22452   1.04198   0.12507  -1.05980
  17   31519.6    317.3   0.001671057   0.01745   0.11055   0.02717  -0.06704
  18   31899.9    313.5   0.009029000   0.09318   0.10894  -0.28496   0.01054
  19   32402.4    308.6   0.051396742   0.52220   0.37480  -0.48954   0.37692
  20   32541.9    307.3   0.070115655   0.70933   0.12365   0.28478  -0.78291
  21   33051.1    302.6   0.069297621   0.69025  -0.16133   0.46042   0.67249
  22   33474.1    298.7   0.045207775   0.44461   0.28429  -0.54196   0.26471
  23   33564.8    297.9   0.265789383   2.60693  -0.85061   1.22879   0.61111
  24   34438.1    290.4   0.235886636   2.25497  -0.88126   0.46995   1.12138
  25   34627.8    288.8   0.240770648   2.28904  -0.68698   0.15984   1.33849
  26   34864.2    286.8   0.082944333   0.78322  -0.80888  -0.05316  -0.35511
  27   35141.1    284.6   0.143402527   1.34344  -0.65421  -0.30576   0.90662
  28   35662.6    280.4   0.057467752   0.53050   0.33331   0.00749  -0.64758
  29   35739.0    279.8   0.080491478   0.74145   0.72349   0.34147  -0.31845
  30   35967.4    278.0   0.032652994   0.29887   0.45585  -0.30090   0.02310
  31   36098.3    277.0   0.133739560   1.21969   0.20183  -0.31191  -1.04003
  32   36202.0    276.2   0.119405066   1.08584   0.86485  -0.57643  -0.07480
  33   36547.8    273.6   0.091232001   0.82179  -0.70311   0.09318   0.56458
  34   37411.8    267.3   0.068118589   0.59942   0.08935  -0.32889   0.69517
  35   37673.9    265.4   0.089709193   0.78392  -0.38438  -0.02036   0.79734
  36   37832.3    264.3   0.005611293   0.04883   0.07639   0.14380   0.14939
  37   38032.2    262.9   0.044465864   0.38490  -0.54814   0.11012   0.26891
  38   38216.4    261.7   0.072247464   0.62237   0.32073  -0.71908   0.04930
  39   38542.0    259.5   0.016685275   0.14252   0.17793  -0.02400  -0.33209
  40   38880.8    257.2   0.017929194   0.15181   0.13070   0.28288  -0.23389
  41   39174.8    255.3   0.002761441   0.02321   0.01828   0.12006  -0.09196
  42   39386.8    253.9   0.068433444   0.57200  -0.43763   0.54472   0.28941
  43   39463.6    253.4   0.097025287   0.80940  -0.66681   0.43394   0.42008
  44   39637.4    252.3   0.063561988   0.52792  -0.71548   0.07092   0.10481
  45   39852.5    250.9   0.033228438   0.27449  -0.24986  -0.37970  -0.26056
  46   40162.3    249.0   0.012567814   0.10302   0.18503   0.24538  -0.09259

FINAL SINGLE POINT ENERGY    -11519.699399744231

DIPOLE MOMENT
-------------
                                X             Y             Z
Electronic contribution:     57.14270      59.71079      62.08776
Nuclear contribution   :    -59.28000     -62.11371     -59.82332
                        -----------------------------------------
Total Dipole Moment    :     -2.13730      -2.40292       2.26444
                        -----------------------------------------
Magnitude (a.u.)       :      3.93316
Magnitude (Debye)      :      9.99731

Rotational constants in cm-1:     0.001222     0.000209     0.000197
Rotational constants in MHz :    36.620381     6.266792     5.917180

                             ****ORCA TERMINATED NORMALLY****
TOTAL RUN TIME: 0 days 0 hours 11 minutes 52 seconds 750 msec
