                         Program Version 4.2.0 -  RELEASE  -
|  1> # ORCA input file
|  2> # SCF done       -185.932711557898          0.000838671184
|  3> ! CAM-B3LYP def2-SVP def2/J RIJCOSX Grid4 TightSCF
|  4> %maxcore 5000
|  5> %tddft
|  6>     Mode sTDDFT
|  7>     Ethresh 5.0
|  8>     maxcore 5000
|  9> end
| 10>
| 11> %pal
| 12>   nprocs 6
| 13>   end
| 14> * xyz 0 1
| 15>    C       -3.99957        -1.86943        -3.21179
| 16>    O       -3.75216        -3.02966        -2.92313
| 17>    C       -4.08686        -1.30523        -4.57483
| 18>    C       -4.39016         0.06548        -4.48759
| 19>    C       -4.52107         0.81011        -5.64954
| 20>    C       -4.34765         0.17741        -6.87285
| 21>    C       -4.04906        -1.17618        -6.93292
| 22>    C       -3.91326        -1.94458        -5.78357
| 23>   Br       -3.82098        -1.99988        -8.63014
| 24>    C       -4.51061         0.43050        -3.07464
| 25>    C       -4.79959         1.68918        -2.60509
| 26>    C       -5.02252         2.80900        -3.43189
| 27>    N       -5.21519         3.75816        -4.04874
| 28>    C       -4.91738         2.04865        -1.24779
| 29>    N       -5.02833         2.41408        -0.16363
| 30>    C       -4.27105        -0.76418        -2.30117
| 31>    C       -4.29615        -0.86320        -0.92419
| 32>    C       -4.07620        -1.96195        -0.10421
| 33>    S       -3.67889        -3.60076        -0.57964
| 34>    C       -3.60825        -4.15606         1.07436
| 35>    C       -3.88561        -3.10692         1.95073
| 36>    C       -4.14756        -1.88104         1.30529
| 37>    C       -4.42902        -0.83819         2.21368
| 38>    C       -4.38118        -1.26552         3.51042
| 39>    C       -4.60796        -0.51234         4.74408
| 40>    O       -4.51348        -0.99444         5.84984
| 41>    O       -4.92812         0.76033         4.50399
| 42>    C       -5.16499         1.56898         5.64805
| 43>    S       -3.99012        -2.95590         3.67545
| 44>    C       -3.30894        -5.50507         1.38355
| 45>    C       -3.24463        -5.96802         2.68063
| 46>    C       -2.96525        -7.27444         3.04723
| 47>    C       -2.70809        -8.31636         2.05038
| 48>    C       -2.71592        -8.09101         0.71720
| 49>    S       -3.02808        -6.56174         0.00141
| 50>    C       -2.47982        -9.49785         2.80705
| 51>    C       -2.59146        -9.22322         4.17755
| 52>    C       -2.34859       -10.37576         4.96031
| 53>    C       -2.07644       -11.46026         4.19007
| 54>    S       -2.09751       -11.13978         2.48806
| 55>    C       -2.90026        -7.83114         4.34582
| 56>    C       -3.11910        -7.06817         5.51669
| 57>    C       -3.26560        -7.52244         6.78509
| 58>    C       -3.55080        -6.70288         7.92929
| 59>    C       -3.37529        -5.29066         7.97371
| 60>    O       -2.79026        -4.69134         6.91097
| 61>    C       -2.45929        -3.31904         6.98428
| 62>    C       -3.78701        -4.60282         9.09571
| 63>    C       -4.29991        -5.23683        10.23786
| 64>    C       -4.43789        -6.64689        10.20838
| 65>    C       -4.06746        -7.33252         9.06693
| 66>    O       -4.99249        -7.23338        11.29865
| 67>    C       -5.18203        -8.62954        11.30590
| 68>    C       -4.71978        -4.39665        11.31298
| 69>    C       -4.91163        -4.60154        12.64601
| 70>    C       -5.72747        -3.60057        13.38819
| 71>    O       -6.08549        -2.51525        12.99356
| 72>    C       -6.03720        -4.23713        14.68795
| 73>    C       -5.35701        -5.46483        14.77762
| 74>    C       -4.54991        -5.64651        13.57220
| 75>    C       -3.50592        -6.52576        13.44495
| 76>    C       -3.19484        -7.52613        14.38574
| 77>    N       -2.91856        -8.38132        15.10071
| 78>    C       -2.59227        -6.49513        12.37407
| 79>    N       -1.81695        -6.49143        11.52753
| 80>    C       -5.51440        -6.25489        15.90637
| 81>    C       -6.34433        -5.80787        16.92392
| 82>    C       -6.99839        -4.58796        16.81806
| 83>    C       -6.85714        -3.77937        15.69810
| 84>   Br       -8.12006        -4.01458        18.24132
| 85>    H       -4.75207         1.86239        -5.62745
| 86>    H       -4.44712         0.74294        -7.78649
| 87>    H       -3.68080        -2.99732        -5.82485
| 88>    H       -4.51861         0.04281        -0.37672
| 89>    H       -4.65665         0.17742         1.94531
| 90>    H       -5.44015         2.55009         5.27065
| 91>    H       -4.26316         1.63121         6.26072
| 92>    H       -5.97150         1.14647         6.25092
| 93>    H       -3.42840        -5.24944         3.46462
| 94>    H       -2.52544        -8.86977        -0.00465
| 95>    H       -2.35897       -10.41174         6.03385
| 96>    H       -1.85545       -12.45772         4.51656
| 97>    H       -3.21738        -6.00766         5.35351
| 98>    H       -3.24702        -8.58725         6.97216
| 99>    H       -1.86635        -3.12162         6.09224
|100>    H       -1.85862        -3.10151         7.87121
|101>    H       -3.34959        -2.68546         6.96655
|102>    H       -3.69376        -3.52936         9.12961
|103>    H       -4.18728        -8.40360         9.02519
|104>    H       -5.62196        -8.86055        12.27523
|105>    H       -4.23121        -9.16157        11.20623
|106>    H       -5.86718        -8.94509        10.51372
|107>    H       -4.99687        -3.39146        11.00159
|108>    H       -5.01656        -7.20587        16.00557
|109>    H       -6.48326        -6.41183        17.80751
|110>    H       -7.36420        -2.83081        15.61203
|111> *
|112>
|113>                          ****END OF INPUT****

CARTESIAN COORDINATES (ANGSTROEM)
---------------------------------
  C     -3.999570   -1.869430   -3.211790
  O     -3.752160   -3.029660   -2.923130
  C     -4.086860   -1.305230   -4.574830
  C     -4.390160    0.065480   -4.487590
  C     -4.521070    0.810110   -5.649540
  C     -4.347650    0.177410   -6.872850
  C     -4.049060   -1.176180   -6.932920
  C     -3.913260   -1.944580   -5.783570
  Br    -3.820980   -1.999880   -8.630140
  C     -4.510610    0.430500   -3.074640
  C     -4.799590    1.689180   -2.605090
  C     -5.022520    2.809000   -3.431890
  N     -5.215190    3.758160   -4.048740
  C     -4.917380    2.048650   -1.247790
  N     -5.028330    2.414080   -0.163630
  C     -4.271050   -0.764180   -2.301170
  C     -4.296150   -0.863200   -0.924190
  C     -4.076200   -1.961950   -0.104210
  S     -3.678890   -3.600760   -0.579640
  C     -3.608250   -4.156060    1.074360
  C     -3.885610   -3.106920    1.950730
  C     -4.147560   -1.881040    1.305290
  C     -4.429020   -0.838190    2.213680
  C     -4.381180   -1.265520    3.510420
  C     -4.607960   -0.512340    4.744080
  O     -4.513480   -0.994440    5.849840
  O     -4.928120    0.760330    4.503990
  C     -5.164990    1.568980    5.648050
  S     -3.990120   -2.955900    3.675450
  C     -3.308940   -5.505070    1.383550
  C     -3.244630   -5.968020    2.680630
  C     -2.965250   -7.274440    3.047230
  C     -2.708090   -8.316360    2.050380
  C     -2.715920   -8.091010    0.717200
  S     -3.028080   -6.561740    0.001410
  C     -2.479820   -9.497850    2.807050
  C     -2.591460   -9.223220    4.177550
  C     -2.348590  -10.375760    4.960310
  C     -2.076440  -11.460260    4.190070
  S     -2.097510  -11.139780    2.488060
  C     -2.900260   -7.831140    4.345820
  C     -3.119100   -7.068170    5.516690
  C     -3.265600   -7.522440    6.785090
  C     -3.550800   -6.702880    7.929290
  C     -3.375290   -5.290660    7.973710
  O     -2.790260   -4.691340    6.910970
  C     -2.459290   -3.319040    6.984280
  C     -3.787010   -4.602820    9.095710
  C     -4.299910   -5.236830   10.237860
  C     -4.437890   -6.646890   10.208380
  C     -4.067460   -7.332520    9.066930
  O     -4.992490   -7.233380   11.298650
  C     -5.182030   -8.629540   11.305900
  C     -4.719780   -4.396650   11.312980
  C     -4.911630   -4.601540   12.646010
  C     -5.727470   -3.600570   13.388190
  O     -6.085490   -2.515250   12.993560
  C     -6.037200   -4.237130   14.687950
  C     -5.357010   -5.464830   14.777620
  C     -4.549910   -5.646510   13.572200
  C     -3.505920   -6.525760   13.444950
  C     -3.194840   -7.526130   14.385740
  N     -2.918560   -8.381320   15.100710
  C     -2.592270   -6.495130   12.374070
  N     -1.816950   -6.491430   11.527530
  C     -5.514400   -6.254890   15.906370
  C     -6.344330   -5.807870   16.923920
  C     -6.998390   -4.587960   16.818060
  C     -6.857140   -3.779370   15.698100
  Br    -8.120060   -4.014580   18.241320
  H     -4.752070    1.862390   -5.627450
  H     -4.447120    0.742940   -7.786490
  H     -3.680800   -2.997320   -5.824850
  H     -4.518610    0.042810   -0.376720
  H     -4.656650    0.177420    1.945310
  H     -5.440150    2.550090    5.270650
  H     -4.263160    1.631210    6.260720
  H     -5.971500    1.146470    6.250920
  H     -3.428400   -5.249440    3.464620
  H     -2.525440   -8.869770   -0.004650
  H     -2.358970  -10.411740    6.033850
  H     -1.855450  -12.457720    4.516560
  H     -3.217380   -6.007660    5.353510
  H     -3.247020   -8.587250    6.972160
  H     -1.866350   -3.121620    6.092240
  H     -1.858620   -3.101510    7.871210
  H     -3.349590   -2.685460    6.966550
  H     -3.693760   -3.529360    9.129610
  H     -4.187280   -8.403600    9.025190
  H     -5.621960   -8.860550   12.275230
  H     -4.231210   -9.161570   11.206230
  H     -5.867180   -8.945090   10.513720
  H     -4.996870   -3.391460   11.001590
  H     -5.016560   -7.205870   16.005570
  H     -6.483260   -6.411830   17.807510
  H     -7.364200   -2.830810   15.612030

 Total Charge           Charge          ....    0
 Multiplicity           Mult            ....    1
 Number of Electrons    NEL             ....  560
 Basis Dimension        Dim             .... 1162

ORBITAL ENERGIES
----------------

  NO   OCC          E(Eh)            E(eV)
   0   2.0000    -482.872055    -13139.6166
   1   2.0000    -482.867352    -13139.4886
   2   2.0000     -88.981105     -2421.2990
   3   2.0000     -88.980750     -2421.2893
   4   2.0000     -88.978604     -2421.2309
   5   2.0000     -88.964633     -2420.8507
   6   2.0000     -62.549766     -1702.0657
   7   2.0000     -62.545080     -1701.9382
   8   2.0000     -56.383598     -1534.2757
   9   2.0000     -56.381081     -1534.2072
  10   2.0000     -56.381071     -1534.2069
  11   2.0000     -56.378909     -1534.1481
  12   2.0000     -56.376398     -1534.0798
  13   2.0000     -56.376391     -1534.0796
  14   2.0000     -19.275618      -524.5162
  15   2.0000     -19.260551      -524.1062
  16   2.0000     -19.246732      -523.7302
  17   2.0000     -19.225642      -523.1563
  18   2.0000     -19.222765      -523.0780
  19   2.0000     -19.212371      -522.7952
  20   2.0000     -14.420765      -392.4090
  21   2.0000     -14.413568      -392.2131
  22   2.0000     -14.412065      -392.1722
  23   2.0000     -14.406918      -392.0322
  24   2.0000     -10.422013      -283.5974
  25   2.0000     -10.372317      -282.2451
  26   2.0000     -10.361600      -281.9535
  27   2.0000     -10.344381      -281.4849
  28   2.0000     -10.342632      -281.4373
  29   2.0000     -10.342535      -281.4347
  30   2.0000     -10.341425      -281.4045
  31   2.0000     -10.338736      -281.3313
  32   2.0000     -10.336956      -281.2829
  33   2.0000     -10.336414      -281.2681
  34   2.0000     -10.334647      -281.2200
  35   2.0000     -10.334230      -281.2087
  36   2.0000     -10.333477      -281.1882
  37   2.0000     -10.331615      -281.1375
  38   2.0000     -10.331511      -281.1347
  39   2.0000     -10.330581      -281.1094
  40   2.0000     -10.327747      -281.0323
  41   2.0000     -10.324855      -280.9536
  42   2.0000     -10.324270      -280.9377
  43   2.0000     -10.324224      -280.9364
  44   2.0000     -10.322070      -280.8778
  45   2.0000     -10.317174      -280.7446
  46   2.0000     -10.314964      -280.6844
  47   2.0000     -10.313891      -280.6552
  48   2.0000     -10.311418      -280.5879
  49   2.0000     -10.310176      -280.5542
  50   2.0000     -10.309651      -280.5399
  51   2.0000     -10.308258      -280.5020
  52   2.0000     -10.306962      -280.4667
  53   2.0000     -10.306610      -280.4571
  54   2.0000     -10.304798      -280.4078
  55   2.0000     -10.304514      -280.4001
  56   2.0000     -10.304265      -280.3933
  57   2.0000     -10.303579      -280.3746
  58   2.0000     -10.302903      -280.3562
  59   2.0000     -10.301734      -280.3244
  60   2.0000     -10.299194      -280.2553
  61   2.0000     -10.299072      -280.2520
  62   2.0000     -10.298989      -280.2497
  63   2.0000     -10.298369      -280.2329
  64   2.0000     -10.296670      -280.1866
  65   2.0000     -10.295317      -280.1498
  66   2.0000     -10.292478      -280.0726
  67   2.0000     -10.291912      -280.0572
  68   2.0000     -10.291344      -280.0417
  69   2.0000     -10.288358      -279.9605
  70   2.0000     -10.287267      -279.9308
  71   2.0000     -10.286622      -279.9132
  72   2.0000     -10.283077      -279.8168
  73   2.0000     -10.282301      -279.7956
  74   2.0000     -10.277423      -279.6629
  75   2.0000     -10.277152      -279.6555
  76   2.0000     -10.276181      -279.6291
  77   2.0000     -10.274446      -279.5819
  78   2.0000      -8.779049      -238.8901
  79   2.0000      -8.774371      -238.7628
  80   2.0000      -8.076485      -219.7723
  81   2.0000      -8.073235      -219.6839
  82   2.0000      -8.072640      -219.6677
  83   2.0000      -8.060107      -219.3267
  84   2.0000      -6.614891      -180.0003
  85   2.0000      -6.610199      -179.8727
  86   2.0000      -6.601150      -179.6264
  87   2.0000      -6.600748      -179.6155
  88   2.0000      -6.596461      -179.4988
  89   2.0000      -6.596092      -179.4888
  90   2.0000      -6.046193      -164.5253
  91   2.0000      -6.042895      -164.4355
  92   2.0000      -6.042404      -164.4222
  93   2.0000      -6.041507      -164.3978
  94   2.0000      -6.038162      -164.3067
  95   2.0000      -6.038079      -164.3045
  96   2.0000      -6.038075      -164.3044
  97   2.0000      -6.035353      -164.2303
  98   2.0000      -6.034154      -164.1977
  99   2.0000      -6.029495      -164.0709
 100   2.0000      -6.025282      -163.9562
 101   2.0000      -6.022184      -163.8720
 102   2.0000      -2.730809       -74.3091
 103   2.0000      -2.727065       -74.2072
 104   2.0000      -2.726752       -74.1987
 105   2.0000      -2.726084       -74.1805
 106   2.0000      -2.722374       -74.0795
 107   2.0000      -2.722113       -74.0725
 108   2.0000      -2.715850       -73.9020
 109   2.0000      -2.715830       -73.9015
 110   2.0000      -2.711183       -73.7750
 111   2.0000      -2.711168       -73.7746
 112   2.0000      -1.208513       -32.8853
 113   2.0000      -1.164816       -31.6962
 114   2.0000      -1.151536       -31.3349
 115   2.0000      -1.139875       -31.0176
 116   2.0000      -1.127257       -30.6742
 117   2.0000      -1.114946       -30.3392
 118   2.0000      -1.030718       -28.0473
 119   2.0000      -1.021013       -27.7832
 120   2.0000      -1.013116       -27.5683
 121   2.0000      -1.012710       -27.5572
 122   2.0000      -1.003576       -27.3087
 123   2.0000      -0.995328       -27.0843
 124   2.0000      -0.994918       -27.0731
 125   2.0000      -0.988352       -26.8944
 126   2.0000      -0.983150       -26.7529
 127   2.0000      -0.968197       -26.3460
 128   2.0000      -0.962328       -26.1863
 129   2.0000      -0.960970       -26.1493
 130   2.0000      -0.955113       -25.9899
 131   2.0000      -0.936134       -25.4735
 132   2.0000      -0.920086       -25.0368
 133   2.0000      -0.910695       -24.7813
 134   2.0000      -0.909123       -24.7385
 135   2.0000      -0.902991       -24.5716
 136   2.0000      -0.897503       -24.4223
 137   2.0000      -0.886572       -24.1249
 138   2.0000      -0.880747       -23.9663
 139   2.0000      -0.869772       -23.6677
 140   2.0000      -0.864184       -23.5156
 141   2.0000      -0.862154       -23.4604
 142   2.0000      -0.854664       -23.2566
 143   2.0000      -0.850169       -23.1343
 144   2.0000      -0.849581       -23.1183
 145   2.0000      -0.843349       -22.9487
 146   2.0000      -0.828035       -22.5320
 147   2.0000      -0.823478       -22.4080
 148   2.0000      -0.816922       -22.2296
 149   2.0000      -0.810864       -22.0647
 150   2.0000      -0.803181       -21.8557
 151   2.0000      -0.793717       -21.5982
 152   2.0000      -0.776901       -21.1406
 153   2.0000      -0.770513       -20.9667
 154   2.0000      -0.767802       -20.8930
 155   2.0000      -0.759739       -20.6736
 156   2.0000      -0.752686       -20.4816
 157   2.0000      -0.736446       -20.0397
 158   2.0000      -0.731758       -19.9122
 159   2.0000      -0.727862       -19.8061
 160   2.0000      -0.707714       -19.2579
 161   2.0000      -0.698414       -19.0048
 162   2.0000      -0.698328       -19.0025
 163   2.0000      -0.692972       -18.8567
 164   2.0000      -0.689049       -18.7500
 165   2.0000      -0.679867       -18.5001
 166   2.0000      -0.676012       -18.3952
 167   2.0000      -0.669413       -18.2156
 168   2.0000      -0.662239       -18.0204
 169   2.0000      -0.660011       -17.9598
 170   2.0000      -0.656889       -17.8749
 171   2.0000      -0.650907       -17.7121
 172   2.0000      -0.642825       -17.4922
 173   2.0000      -0.631099       -17.1731
 174   2.0000      -0.629728       -17.1358
 175   2.0000      -0.621458       -16.9107
 176   2.0000      -0.619927       -16.8691
 177   2.0000      -0.612201       -16.6588
 178   2.0000      -0.609022       -16.5723
 179   2.0000      -0.605707       -16.4821
 180   2.0000      -0.603037       -16.4095
 181   2.0000      -0.595592       -16.2069
 182   2.0000      -0.589962       -16.0537
 183   2.0000      -0.585461       -15.9312
 184   2.0000      -0.580078       -15.7847
 185   2.0000      -0.577688       -15.7197
 186   2.0000      -0.574523       -15.6336
 187   2.0000      -0.571682       -15.5563
 188   2.0000      -0.569790       -15.5048
 189   2.0000      -0.567570       -15.4444
 190   2.0000      -0.563626       -15.3371
 191   2.0000      -0.560702       -15.2575
 192   2.0000      -0.552213       -15.0265
 193   2.0000      -0.548912       -14.9367
 194   2.0000      -0.547693       -14.9035
 195   2.0000      -0.545040       -14.8313
 196   2.0000      -0.544797       -14.8247
 197   2.0000      -0.540924       -14.7193
 198   2.0000      -0.536751       -14.6057
 199   2.0000      -0.535430       -14.5698
 200   2.0000      -0.535240       -14.5646
 201   2.0000      -0.532114       -14.4796
 202   2.0000      -0.531205       -14.4548
 203   2.0000      -0.530576       -14.4377
 204   2.0000      -0.525876       -14.3098
 205   2.0000      -0.520005       -14.1500
 206   2.0000      -0.517874       -14.0921
 207   2.0000      -0.516173       -14.0458
 208   2.0000      -0.515718       -14.0334
 209   2.0000      -0.510236       -13.8842
 210   2.0000      -0.510132       -13.8814
 211   2.0000      -0.500727       -13.6255
 212   2.0000      -0.499595       -13.5947
 213   2.0000      -0.497065       -13.5258
 214   2.0000      -0.496173       -13.5016
 215   2.0000      -0.491279       -13.3684
 216   2.0000      -0.490576       -13.3493
 217   2.0000      -0.487073       -13.2539
 218   2.0000      -0.484941       -13.1959
 219   2.0000      -0.482824       -13.1383
 220   2.0000      -0.480235       -13.0678
 221   2.0000      -0.479688       -13.0530
 222   2.0000      -0.472955       -12.8698
 223   2.0000      -0.470813       -12.8115
 224   2.0000      -0.467546       -12.7226
 225   2.0000      -0.465398       -12.6641
 226   2.0000      -0.459480       -12.5031
 227   2.0000      -0.459182       -12.4950
 228   2.0000      -0.455678       -12.3996
 229   2.0000      -0.454506       -12.3677
 230   2.0000      -0.452971       -12.3260
 231   2.0000      -0.449892       -12.2422
 232   2.0000      -0.448918       -12.2157
 233   2.0000      -0.446749       -12.1567
 234   2.0000      -0.446185       -12.1413
 235   2.0000      -0.444782       -12.1031
 236   2.0000      -0.443410       -12.0658
 237   2.0000      -0.443236       -12.0611
 238   2.0000      -0.439596       -11.9620
 239   2.0000      -0.437030       -11.8922
 240   2.0000      -0.436724       -11.8839
 241   2.0000      -0.430823       -11.7233
 242   2.0000      -0.429788       -11.6951
 243   2.0000      -0.429492       -11.6871
 244   2.0000      -0.428427       -11.6581
 245   2.0000      -0.425908       -11.5895
 246   2.0000      -0.422211       -11.4890
 247   2.0000      -0.419601       -11.4179
 248   2.0000      -0.419444       -11.4137
 249   2.0000      -0.416931       -11.3453
 250   2.0000      -0.413341       -11.2476
 251   2.0000      -0.411133       -11.1875
 252   2.0000      -0.410214       -11.1625
 253   2.0000      -0.406247       -11.0545
 254   2.0000      -0.405118       -11.0238
 255   2.0000      -0.393990       -10.7210
 256   2.0000      -0.393029       -10.6949
 257   2.0000      -0.388186       -10.5631
 258   2.0000      -0.385651       -10.4941
 259   2.0000      -0.385209       -10.4821
 260   2.0000      -0.374760       -10.1977
 261   2.0000      -0.366719        -9.9789
 262   2.0000      -0.365999        -9.9593
 263   2.0000      -0.362923        -9.8756
 264   2.0000      -0.362207        -9.8561
 265   2.0000      -0.352460        -9.5909
 266   2.0000      -0.350464        -9.5366
 267   2.0000      -0.345666        -9.4060
 268   2.0000      -0.341046        -9.2803
 269   2.0000      -0.339208        -9.2303
 270   2.0000      -0.335278        -9.1234
 271   2.0000      -0.328319        -8.9340
 272   2.0000      -0.325635        -8.8610
 273   2.0000      -0.310328        -8.4445
 274   2.0000      -0.309185        -8.4134
 275   2.0000      -0.296820        -8.0769
 276   2.0000      -0.293656        -7.9908
 277   2.0000      -0.280065        -7.6210
 278   2.0000      -0.265160        -7.2154
 279   2.0000      -0.228498        -6.2177
 280   0.0000      -0.110430        -3.0049
 281   0.0000      -0.078728        -2.1423
 282   0.0000      -0.069919        -1.9026
 283   0.0000      -0.058543        -1.5930
 284   0.0000      -0.047791        -1.3005

MULLIKEN ATOMIC CHARGES
-----------------------
   0 C :    0.167953
   1 O :   -0.187923
   2 C :   -0.018985
   3 C :    0.026526
   4 C :   -0.028507
   5 C :    0.046918
   6 C :   -0.003098
   7 C :   -0.013818
   8 Br:   -0.022837
   9 C :    0.326792
  10 C :   -0.354967
  11 C :   -0.191397
  12 N :    0.152473
  13 C :   -0.186236
  14 N :    0.138566
  15 C :   -0.108604
  16 C :   -0.045541
  17 C :   -0.065449
  18 S :    0.209799
  19 C :   -0.090600
  20 C :   -0.037837
  21 C :    0.124451
  22 C :    0.001876
  23 C :   -0.119562
  24 C :    0.227062
  25 O :   -0.208779
  26 O :   -0.287421
  27 C :    0.186990
  28 S :    0.135112
  29 C :   -0.052642
  30 C :   -0.039683
  31 C :    0.032849
  32 C :    0.070064
  33 C :   -0.123471
  34 S :    0.144402
  35 C :   -0.110556
  36 C :    0.047802
  37 C :   -0.000424
  38 C :   -0.064046
  39 S :    0.134861
  40 C :    0.110279
  41 C :   -0.007268
  42 C :   -0.036197
  43 C :    0.113188
  44 C :    0.234317
  45 O :   -0.325094
  46 C :    0.165570
  47 C :   -0.147275
  48 C :    0.079890
  49 C :    0.239353
  50 C :   -0.161886
  51 O :   -0.312207
  52 C :    0.176800
  53 C :   -0.002654
  54 C :   -0.111016
  55 C :    0.131487
  56 O :   -0.142684
  57 C :   -0.007162
  58 C :    0.027623
  59 C :    0.307649
  60 C :   -0.338465
  61 C :   -0.194536
  62 N :    0.147762
  63 C :   -0.211475
  64 N :    0.175413
  65 C :   -0.034514
  66 C :    0.049147
  67 C :   -0.006803
  68 C :   -0.012722
  69 Br:   -0.027616
  70 H :    0.008742
  71 H :    0.004660
  72 H :    0.000919
  73 H :   -0.008882
  74 H :    0.027853
  75 H :    0.046441
  76 H :    0.035622
  77 H :    0.038833
  78 H :   -0.030075
  79 H :    0.039420
  80 H :   -0.008228
  81 H :    0.028444
  82 H :   -0.001903
  83 H :   -0.042491
  84 H :    0.027205
  85 H :    0.023828
  86 H :    0.047974
  87 H :   -0.027152
  88 H :   -0.042163
  89 H :    0.042147
  90 H :    0.037275
  91 H :    0.031878
  92 H :    0.021105
  93 H :    0.003952
  94 H :    0.002955
  95 H :    0.000627
Sum of atomic charges:   -0.0000000

LOEWDIN ATOMIC CHARGES
----------------------
   0 C :    0.085417
   1 O :   -0.171208
   2 C :   -0.036324
   3 C :   -0.014737
   4 C :    0.007633
   5 C :   -0.014791
   6 C :   -0.099131
   7 C :   -0.001965
   8 Br:    0.112855
   9 C :    0.077150
  10 C :   -0.148665
  11 C :   -0.020113
  12 N :   -0.056118
  13 C :   -0.015899
  14 N :   -0.063579
  15 C :   -0.121495
  16 C :    0.049864
  17 C :   -0.188283
  18 S :    0.518600
  19 C :   -0.178924
  20 C :   -0.195503
  21 C :   -0.044407
  22 C :   -0.010757
  23 C :   -0.191712
  24 C :    0.071267
  25 O :   -0.180928
  26 O :   -0.078242
  27 C :    0.086176
  28 S :    0.457348
  29 C :   -0.200251
  30 C :   -0.000904
  31 C :   -0.025806
  32 C :   -0.054275
  33 C :   -0.132552
  34 S :    0.446715
  35 C :   -0.191713
  36 C :   -0.039347
  37 C :   -0.061862
  38 C :   -0.162199
  39 S :    0.429210
  40 C :   -0.026032
  41 C :   -0.007672
  42 C :   -0.024180
  43 C :   -0.006670
  44 C :    0.052724
  45 O :   -0.092518
  46 C :    0.071032
  47 C :   -0.037146
  48 C :   -0.054456
  49 C :    0.064228
  50 C :   -0.056763
  51 O :   -0.078368
  52 C :    0.078688
  53 C :    0.076488
  54 C :   -0.095876
  55 C :    0.085889
  56 O :   -0.139977
  57 C :   -0.041661
  58 C :   -0.009803
  59 C :    0.067887
  60 C :   -0.136222
  61 C :   -0.021223
  62 N :   -0.060579
  63 C :   -0.019542
  64 N :   -0.051048
  65 C :    0.000344
  66 C :   -0.014180
  67 C :   -0.102625
  68 C :    0.000056
  69 Br:    0.108917
  70 H :    0.043101
  71 H :    0.040032
  72 H :    0.043168
  73 H :    0.048419
  74 H :    0.045900
  75 H :    0.031525
  76 H :    0.025306
  77 H :    0.026338
  78 H :    0.023111
  79 H :    0.038278
  80 H :    0.030850
  81 H :    0.024886
  82 H :    0.027013
  83 H :    0.024221
  84 H :    0.021903
  85 H :    0.016757
  86 H :    0.015435
  87 H :    0.034756
  88 H :    0.028743
  89 H :    0.031175
  90 H :    0.020687
  91 H :    0.019026
  92 H :    0.046142
  93 H :    0.040760
  94 H :    0.038969
  95 H :    0.043240

  Mayer bond orders larger than 0.100000
B(  0-C ,  1-O ) :   2.1056 B(  0-C ,  2-C ) :   0.9556 B(  0-C , 15-C ) :   1.0024
B(  2-C ,  3-C ) :   1.3314 B(  2-C ,  7-C ) :   1.3854 B(  3-C ,  4-C ) :   1.3770
B(  3-C ,  9-C ) :   0.9839 B(  4-C ,  5-C ) :   1.3726 B(  4-C , 70-H ) :   0.9825
B(  5-C ,  6-C ) :   1.3972 B(  5-C , 71-H ) :   0.9851 B(  6-C ,  7-C ) :   1.3283
B(  6-C ,  8-Br) :   0.9898 B(  7-C , 72-H ) :   1.0072 B(  9-C , 10-C ) :   1.6051
B(  9-C , 15-C ) :   1.1052 B( 10-C , 11-C ) :   1.1461 B( 10-C , 13-C ) :   1.1500
B( 11-C , 12-N ) :   2.9722 B( 13-C , 14-N ) :   2.9693 B( 15-C , 16-C ) :   1.4377
B( 16-C , 17-C ) :   1.3556 B( 16-C , 73-H ) :   0.9345 B( 17-C , 18-S ) :   1.0702
B( 17-C , 21-C ) :   1.2428 B( 18-S , 19-C ) :   1.1280 B( 19-C , 20-C ) :   1.4128
B( 19-C , 29-C ) :   1.2032 B( 20-C , 21-C ) :   1.3262 B( 20-C , 28-S ) :   1.0627
B( 21-C , 22-C ) :   1.1698 B( 22-C , 23-C ) :   1.5781 B( 22-C , 74-H ) :   0.9922
B( 23-C , 24-C ) :   0.9593 B( 23-C , 28-S ) :   1.0981 B( 24-C , 25-O ) :   2.0560
B( 24-C , 26-O ) :   1.2726 B( 26-O , 27-C ) :   0.9112 B( 27-C , 75-H ) :   0.9809
B( 27-C , 76-H ) :   0.9770 B( 27-C , 77-H ) :   0.9759 B( 29-C , 30-C ) :   1.4971
B( 29-C , 34-S ) :   1.0268 B( 30-C , 31-C ) :   1.2953 B( 30-C , 78-H ) :   0.9568
B( 31-C , 32-C ) :   1.0405 B( 31-C , 40-C ) :   1.3540 B( 32-C , 33-C ) :   1.6058
B( 32-C , 35-C ) :   1.1794 B( 33-C , 34-S ) :   1.1453 B( 33-C , 79-H ) :   0.9400
B( 35-C , 36-C ) :   1.4324 B( 35-C , 39-S ) :   1.0866 B( 36-C , 37-C ) :   1.2129
B( 36-C , 40-C ) :   1.0869 B( 37-C , 38-C ) :   1.5906 B( 37-C , 80-H ) :   1.0006
B( 38-C , 39-S ) :   1.1489 B( 38-C , 81-H ) :   0.9648 B( 40-C , 41-C ) :   1.1712
B( 41-C , 42-C ) :   1.6164 B( 41-C , 82-H ) :   0.9456 B( 42-C , 43-C ) :   1.1098
B( 42-C , 83-H ) :   0.9810 B( 43-C , 44-C ) :   1.2724 B( 43-C , 50-C ) :   1.3090
B( 44-C , 45-O ) :   1.1391 B( 44-C , 47-C ) :   1.3352 B( 45-O , 46-C ) :   0.9351
B( 46-C , 84-H ) :   0.9742 B( 46-C , 85-H ) :   0.9639 B( 46-C , 86-H ) :   0.9611
B( 47-C , 48-C ) :   1.2522 B( 47-C , 87-H ) :   1.0008 B( 48-C , 49-C ) :   1.3023
B( 48-C , 53-C ) :   1.1185 B( 49-C , 50-C ) :   1.2865 B( 49-C , 51-O ) :   1.1612
B( 50-C , 88-H ) :   1.0010 B( 51-O , 52-C ) :   0.9440 B( 52-C , 89-H ) :   0.9762
B( 52-C , 90-H ) :   0.9681 B( 52-C , 91-H ) :   0.9703 B( 53-C , 54-C ) :   1.6303
B( 53-C , 92-H ) :   0.9330 B( 54-C , 55-C ) :   0.9483 B( 54-C , 59-C ) :   1.0514
B( 55-C , 56-O ) :   2.2526 B( 55-C , 57-C ) :   0.9198 B( 57-C , 58-C ) :   1.3326
B( 57-C , 68-C ) :   1.3841 B( 58-C , 59-C ) :   1.0046 B( 58-C , 65-C ) :   1.3676
B( 59-C , 60-C ) :   1.6370 B( 60-C , 61-C ) :   1.1408 B( 60-C , 63-C ) :   1.1695
B( 61-C , 62-N ) :   2.9823 B( 63-C , 64-N ) :   3.0053 B( 65-C , 66-C ) :   1.3787
B( 65-C , 93-H ) :   0.9859 B( 66-C , 67-C ) :   1.3950 B( 66-C , 94-H ) :   0.9848
B( 67-C , 68-C ) :   1.3382 B( 67-C , 69-Br) :   0.9870 B( 68-C , 95-H ) :   1.0070

-----------------------------------------------------------------------------
         ABSORPTION SPECTRUM VIA TRANSITION ELECTRIC DIPOLE MOMENTS
-----------------------------------------------------------------------------
State   Energy  Wavelength   fosc         T2         TX        TY        TZ
        (cm-1)    (nm)                  (au**2)     (au)      (au)      (au)
-----------------------------------------------------------------------------
   0   11953.1    836.6   1.194229068  32.89142   0.38784  -3.12408   4.79386
   1   18928.2    528.3   0.498115988   8.66356   0.35052  -0.52500  -2.87490
   2   19115.4    523.1   0.377712741   6.50509   0.57706  -2.46884   0.27738
   3   21347.2    468.4   0.019603315   0.30232   0.06964  -0.28757  -0.46343
   4   21616.4    462.6   0.022877766   0.34842  -0.05626   0.22284   0.54369
   5   23106.2    432.8   0.025641316   0.36533  -0.04445  -0.34423  -0.49484
   6   24364.0    410.4   0.080564932   1.08861   0.33553  -0.71187  -0.68503
   7   25692.1    389.2   0.228718827   2.93074   0.23465  -0.49897  -1.62071
   8   26140.7    382.5   0.055248507   0.69579   0.17740  -0.42286  -0.69678
   9   26881.2    372.0   0.036356279   0.44525  -0.13946   0.64276  -0.11255
  10   27888.8    358.6   0.330003327   3.89550   0.00023  -0.07104   1.97242
  11   28203.4    354.6   0.003473446   0.04054  -0.00481   0.17767  -0.09462
  12   28215.7    354.4   0.001965754   0.02294   0.11697  -0.03372   0.09009
  13   28650.8    349.0   0.065095948   0.74799  -0.02117   0.01944   0.86438
  14   28936.1    345.6   0.053611311   0.60995   0.14131  -0.55651  -0.52941
  15   29416.6    339.9   0.039454198   0.44155  -0.25595   0.61131  -0.04835
  16   30213.6    331.0   0.013888292   0.15133  -0.08501   0.10665   0.36432
  17   30544.0    327.4   0.127310610   1.37219   0.04861   0.34666   1.11788
  18   31129.0    321.2   0.132581161   1.40214  -0.53188  -0.16682   1.04471
  19   31690.8    315.5   0.413909213   4.29980  -1.06422   1.06088   1.42890
  20   31889.4    313.6   0.001388429   0.01433   0.09476  -0.02619  -0.06832
  21   31942.3    313.1   0.014593795   0.15041  -0.34824  -0.04849   0.16366
  22   33070.3    302.4   0.205250012   2.04325  -0.16367   0.09645   1.41674
  23   33299.5    300.3   0.044967783   0.44457  -0.01687   0.04062  -0.66531
  24   33484.1    298.6   0.014629825   0.14384   0.16074  -0.30174   0.16418
  25   33740.0    296.4   0.372683516   3.63640  -0.39986   1.28527   1.35077
  26   34074.4    293.5   0.004901089   0.04735   0.09211   0.15783   0.11815
  27   34211.8    292.3   0.044811777   0.43121   0.11131   0.48718   0.42601
  28   35065.4    285.2   0.230582536   2.16483   0.18722  -1.37380   0.49238
  29   35184.5    284.2   0.777468080   7.27457   1.62203  -1.66909  -1.36298
  30   35437.1    282.2   0.069259738   0.64343  -0.22030  -0.66270   0.39462
  31   35514.7    281.6   0.092467798   0.85715  -0.57694   0.15406  -0.70750
  32   35882.1    278.7   0.056870765   0.52178   0.28707  -0.16130  -0.64293
  33   36230.0    276.0   0.193196751   1.75552  -0.20032   1.30819  -0.06358
  34   36417.2    274.6   0.064130403   0.57974  -0.21368   0.13868   0.71753
  35   36591.9    273.3   0.282226053   2.53914   0.37225  -1.27260  -0.88377
  36   36755.4    272.1   0.085484559   0.76567   0.00782   0.33891  -0.80669
  37   37653.8    265.6   0.032849665   0.28721   0.07042  -0.08998  -0.52360
  38   38475.6    259.9   0.085365772   0.73042  -0.04449   0.81582  -0.25077
  39   38566.4    259.3   0.152399797   1.30092   0.41713  -0.98011  -0.40780
  40   38762.5    258.0   0.058375706   0.49579  -0.37044   0.59807  -0.02963
  41   39009.8    256.3   0.011260361   0.09503  -0.00908   0.30409   0.04974
  42   39145.1    255.5   0.033293690   0.28000   0.24508  -0.32009  -0.34275
  43   39384.6    253.9   0.051849363   0.43340  -0.34984   0.51664  -0.21001
  44   40078.5    249.5   0.011493283   0.09441   0.03857   0.30472   0.00799

FINAL SINGLE POINT ENERGY     -9480.407285683810

DIPOLE MOMENT
-------------
                                X             Y             Z
Electronic contribution:    -34.05677      25.22785     -34.84490
Nuclear contribution   :     33.59204     -27.28822      33.74968
                        -----------------------------------------
Total Dipole Moment    :     -0.46474      -2.06037      -1.09522
                        -----------------------------------------
Magnitude (a.u.)       :      2.37920
Magnitude (Debye)      :      6.04745

Rotational constants in cm-1:     0.001363     0.000233     0.000203
Rotational constants in MHz :    40.854442     6.982639     6.078552

                             ****ORCA TERMINATED NORMALLY****
TOTAL RUN TIME: 0 days 0 hours 14 minutes 0 seconds 333 msec
