                         Program Version 4.2.0 -  RELEASE  -
|  1> # ORCA input file
|  2> # SCF done       -173.159183845229          0.000663676519
|  3> ! CAM-B3LYP def2-SVP def2/J RIJCOSX Grid4 TightSCF
|  4> %maxcore 5000
|  5> %tddft
|  6>     Mode sTDDFT
|  7>     Ethresh 5.0
|  8>     maxcore 5000
|  9> end
| 10>
| 11> %pal
| 12>   nprocs 6
| 13>   end
| 14> * xyz 0 1
| 15>    C       -1.98547        -0.89090        -0.74104
| 16>    O       -2.56973        -1.34035         0.23308
| 17>    C       -1.22669         0.37931        -0.78936
| 18>    C       -0.72730         0.56781        -2.08951
| 19>    C        0.03845         1.68802        -2.37071
| 20>    C        0.31460         2.58650        -1.34764
| 21>    C       -0.17733         2.36499        -0.07211
| 22>    C       -0.97480         1.27023         0.23151
| 23>   Br        0.26383         3.57860         1.31287
| 24>    C       -1.14220        -0.57094        -2.91435
| 25>    C       -0.79113        -0.75455        -4.23174
| 26>    C       -0.07037         0.18692        -4.99021
| 27>    N        0.50663         0.91825        -5.66261
| 28>    C       -1.06571        -1.91096        -4.98657
| 29>    N       -1.21394        -2.83671        -5.65122
| 30>    C       -1.91900        -1.45200        -2.08369
| 31>    C       -2.61161        -2.58117        -2.50142
| 32>    C       -3.29125        -3.52120        -1.74549
| 33>    S       -3.31440        -3.64181         0.00164
| 34>    C       -4.14504        -5.17855        -0.01620
| 35>    C       -4.49971        -5.50182        -1.33426
| 36>    C       -4.00896        -4.61237        -2.30373
| 37>    C       -4.34608        -5.01405        -3.61226
| 38>    C       -5.07591        -6.17166        -3.61836
| 39>    C       -5.61048        -6.85896        -4.79360
| 40>    O       -5.49695        -6.47019        -5.92863
| 41>    O       -6.25551        -7.98385        -4.44343
| 42>    C       -6.82067        -8.73175        -5.50827
| 43>    S       -5.36714        -6.82281        -2.02759
| 44>    C       -4.39180        -5.93556         1.12551
| 45>    C       -3.78764        -5.74456         2.35625
| 46>    C       -4.02993        -6.47860         3.53830
| 47>    C       -3.22901        -6.12712         4.59059
| 48>    C       -2.30370        -5.11783         4.27321
| 49>    S       -2.51176        -4.58385         2.61970
| 50>    C       -1.32249        -4.52234         5.05843
| 51>    C       -1.15383        -4.53474         6.45751
| 52>    C       -0.15910        -3.70761         6.89557
| 53>    C        0.52758        -3.02405         5.86185
| 54>    S       -0.11734        -3.51911         4.30240
| 55>    C        1.42562        -1.99203         5.99160
| 56>    C        2.03397        -1.34650         4.88229
| 57>    C        2.39500        -2.08442         3.74654
| 58>    C        2.70239        -1.47778         2.55169
| 59>    C        2.64237        -0.08778         2.38630
| 60>    C        2.56809         0.71170         3.57057
| 61>    C        2.77703         2.08918         3.64558
| 62>   Si        1.96548         2.55070         5.19400
| 63>    C        2.23534         0.92659         5.95212
| 64>    C        2.26888         0.06353         4.85441
| 65>    C        2.68769         0.49419         1.09314
| 66>    C        2.31988        -0.07583        -0.09640
| 67>    C        2.77570         0.53390        -1.36555
| 68>    O        3.27227         1.62929        -1.51166
| 69>    C        2.52926        -0.49429        -2.40277
| 70>    C        1.86386        -1.59112        -1.82188
| 71>    C        1.59967        -1.28647        -0.41704
| 72>    C        0.64263        -1.90582         0.35277
| 73>    C        0.02434        -3.11355        -0.00925
| 74>    N       -0.45417        -4.12966        -0.25313
| 75>    C        0.15063        -1.34578         1.54812
| 76>    N       -0.32436        -0.85089         2.46903
| 77>    C        1.54047        -2.68980        -2.60390
| 78>    C        1.89223        -2.68224        -3.94581
| 79>    C        2.54773        -1.58982        -4.49971
| 80>    C        2.87320        -0.47337        -3.73760
| 81>   Br        3.01820        -1.63085        -6.33339
| 82>    H        0.43052         1.87886        -3.35571
| 83>    H        0.92956         3.45001        -1.54814
| 84>    H       -1.36619         1.10166         1.22272
| 85>    H       -2.63248        -2.77215        -3.56719
| 86>    H       -4.07772        -4.49991        -4.51724
| 87>    H       -7.28796        -9.60106        -5.05329
| 88>    H       -6.04299        -9.03588        -6.21188
| 89>    H       -7.56074        -8.13151        -6.04174
| 90>    H       -5.06942        -6.77410         1.02496
| 91>    H       -4.78502        -7.24364         3.57955
| 92>    H       -3.26327        -6.59049         5.56051
| 93>    H       -1.79587        -5.10682         7.10335
| 94>    H        0.09059        -3.55526         7.93098
| 95>    H        1.57634        -1.59502         6.98568
| 96>    H        2.44125        -3.16116         3.81643
| 97>    H        2.99417        -2.08993         1.71004
| 98>    H        2.92928         2.68210         2.76019
| 99>    H        1.94268         0.56619         6.92480
|100>    H        3.08604         1.49827         0.99961
|101>    H        1.03581        -3.54904        -2.19339
|102>    H        1.65204        -3.53095        -4.56765
|103>    H        3.37160         0.38049        -4.16912
|104> *
|105>
|106>                          ****END OF INPUT****

CARTESIAN COORDINATES (ANGSTROEM)
---------------------------------
  C     -1.985470   -0.890900   -0.741040
  O     -2.569730   -1.340350    0.233080
  C     -1.226690    0.379310   -0.789360
  C     -0.727300    0.567810   -2.089510
  C      0.038450    1.688020   -2.370710
  C      0.314600    2.586500   -1.347640
  C     -0.177330    2.364990   -0.072110
  C     -0.974800    1.270230    0.231510
  Br     0.263830    3.578600    1.312870
  C     -1.142200   -0.570940   -2.914350
  C     -0.791130   -0.754550   -4.231740
  C     -0.070370    0.186920   -4.990210
  N      0.506630    0.918250   -5.662610
  C     -1.065710   -1.910960   -4.986570
  N     -1.213940   -2.836710   -5.651220
  C     -1.919000   -1.452000   -2.083690
  C     -2.611610   -2.581170   -2.501420
  C     -3.291250   -3.521200   -1.745490
  S     -3.314400   -3.641810    0.001640
  C     -4.145040   -5.178550   -0.016200
  C     -4.499710   -5.501820   -1.334260
  C     -4.008960   -4.612370   -2.303730
  C     -4.346080   -5.014050   -3.612260
  C     -5.075910   -6.171660   -3.618360
  C     -5.610480   -6.858960   -4.793600
  O     -5.496950   -6.470190   -5.928630
  O     -6.255510   -7.983850   -4.443430
  C     -6.820670   -8.731750   -5.508270
  S     -5.367140   -6.822810   -2.027590
  C     -4.391800   -5.935560    1.125510
  C     -3.787640   -5.744560    2.356250
  C     -4.029930   -6.478600    3.538300
  C     -3.229010   -6.127120    4.590590
  C     -2.303700   -5.117830    4.273210
  S     -2.511760   -4.583850    2.619700
  C     -1.322490   -4.522340    5.058430
  C     -1.153830   -4.534740    6.457510
  C     -0.159100   -3.707610    6.895570
  C      0.527580   -3.024050    5.861850
  S     -0.117340   -3.519110    4.302400
  C      1.425620   -1.992030    5.991600
  C      2.033970   -1.346500    4.882290
  C      2.395000   -2.084420    3.746540
  C      2.702390   -1.477780    2.551690
  C      2.642370   -0.087780    2.386300
  C      2.568090    0.711700    3.570570
  C      2.777030    2.089180    3.645580
  Si     1.965480    2.550700    5.194000
  C      2.235340    0.926590    5.952120
  C      2.268880    0.063530    4.854410
  C      2.687690    0.494190    1.093140
  C      2.319880   -0.075830   -0.096400
  C      2.775700    0.533900   -1.365550
  O      3.272270    1.629290   -1.511660
  C      2.529260   -0.494290   -2.402770
  C      1.863860   -1.591120   -1.821880
  C      1.599670   -1.286470   -0.417040
  C      0.642630   -1.905820    0.352770
  C      0.024340   -3.113550   -0.009250
  N     -0.454170   -4.129660   -0.253130
  C      0.150630   -1.345780    1.548120
  N     -0.324360   -0.850890    2.469030
  C      1.540470   -2.689800   -2.603900
  C      1.892230   -2.682240   -3.945810
  C      2.547730   -1.589820   -4.499710
  C      2.873200   -0.473370   -3.737600
  Br     3.018200   -1.630850   -6.333390
  H      0.430520    1.878860   -3.355710
  H      0.929560    3.450010   -1.548140
  H     -1.366190    1.101660    1.222720
  H     -2.632480   -2.772150   -3.567190
  H     -4.077720   -4.499910   -4.517240
  H     -7.287960   -9.601060   -5.053290
  H     -6.042990   -9.035880   -6.211880
  H     -7.560740   -8.131510   -6.041740
  H     -5.069420   -6.774100    1.024960
  H     -4.785020   -7.243640    3.579550
  H     -3.263270   -6.590490    5.560510
  H     -1.795870   -5.106820    7.103350
  H      0.090590   -3.555260    7.930980
  H      1.576340   -1.595020    6.985680
  H      2.441250   -3.161160    3.816430
  H      2.994170   -2.089930    1.710040
  H      2.929280    2.682100    2.760190
  H      1.942680    0.566190    6.924800
  H      3.086040    1.498270    0.999610
  H      1.035810   -3.549040   -2.193390
  H      1.652040   -3.530950   -4.567650
  H      3.371600    0.380490   -4.169120

 Total Charge           Charge          ....    0
 Multiplicity           Mult            ....    1
 Number of Electrons    NEL             ....  542
 Basis Dimension        Dim             .... 1104

ORBITAL ENERGIES
----------------

  NO   OCC          E(Eh)            E(eV)
   0   2.0000    -482.862797    -13139.3647
   1   2.0000    -482.859669    -13139.2796
   2   2.0000     -88.964763     -2420.8543
   3   2.0000     -88.964612     -2420.8502
   4   2.0000     -88.962081     -2420.7813
   5   2.0000     -88.961758     -2420.7725
   6   2.0000     -66.193548     -1801.2180
   7   2.0000     -62.540173     -1701.8046
   8   2.0000     -62.537264     -1701.7255
   9   2.0000     -56.373995     -1534.0144
  10   2.0000     -56.371570     -1533.9484
  11   2.0000     -56.371448     -1533.9451
  12   2.0000     -56.371128     -1533.9364
  13   2.0000     -56.368586     -1533.8672
  14   2.0000     -56.368545     -1533.8661
  15   2.0000     -19.263335      -524.1820
  16   2.0000     -19.212954      -522.8111
  17   2.0000     -19.209725      -522.7232
  18   2.0000     -19.204672      -522.5857
  19   2.0000     -14.414204      -392.2304
  20   2.0000     -14.411362      -392.1531
  21   2.0000     -14.406632      -392.0244
  22   2.0000     -14.401606      -391.8876
  23   2.0000     -10.405008      -283.1347
  24   2.0000     -10.363526      -282.0059
  25   2.0000     -10.358275      -281.8630
  26   2.0000     -10.341143      -281.3968
  27   2.0000     -10.337688      -281.3028
  28   2.0000     -10.336195      -281.2622
  29   2.0000     -10.330373      -281.1037
  30   2.0000     -10.330102      -281.0964
  31   2.0000     -10.329707      -281.0856
  32   2.0000     -10.329424      -281.0779
  33   2.0000     -10.327154      -281.0162
  34   2.0000     -10.326479      -280.9978
  35   2.0000     -10.325350      -280.9671
  36   2.0000     -10.323616      -280.9199
  37   2.0000     -10.320495      -280.8349
  38   2.0000     -10.317643      -280.7573
  39   2.0000     -10.313903      -280.6556
  40   2.0000     -10.313138      -280.6348
  41   2.0000     -10.311767      -280.5974
  42   2.0000     -10.311260      -280.5837
  43   2.0000     -10.310433      -280.5612
  44   2.0000     -10.310041      -280.5505
  45   2.0000     -10.308498      -280.5085
  46   2.0000     -10.308186      -280.5000
  47   2.0000     -10.307442      -280.4798
  48   2.0000     -10.306058      -280.4421
  49   2.0000     -10.305210      -280.4190
  50   2.0000     -10.305013      -280.4137
  51   2.0000     -10.304374      -280.3963
  52   2.0000     -10.304030      -280.3869
  53   2.0000     -10.301934      -280.3299
  54   2.0000     -10.301353      -280.3141
  55   2.0000     -10.300059      -280.2789
  56   2.0000     -10.299891      -280.2743
  57   2.0000     -10.299239      -280.2565
  58   2.0000     -10.297101      -280.1984
  59   2.0000     -10.296394      -280.1791
  60   2.0000     -10.296270      -280.1757
  61   2.0000     -10.295631      -280.1584
  62   2.0000     -10.294747      -280.1343
  63   2.0000     -10.293680      -280.1053
  64   2.0000     -10.293635      -280.1040
  65   2.0000     -10.292899      -280.0840
  66   2.0000     -10.292547      -280.0744
  67   2.0000     -10.289046      -279.9792
  68   2.0000     -10.289007      -279.9781
  69   2.0000     -10.288758      -279.9713
  70   2.0000     -10.288091      -279.9532
  71   2.0000     -10.285525      -279.8834
  72   2.0000     -10.282690      -279.8062
  73   2.0000     -10.259228      -279.1678
  74   2.0000     -10.251553      -278.9589
  75   2.0000      -8.769382      -238.6270
  76   2.0000      -8.766528      -238.5493
  77   2.0000      -8.059835      -219.3193
  78   2.0000      -8.057799      -219.2639
  79   2.0000      -8.057425      -219.2537
  80   2.0000      -8.057019      -219.2426
  81   2.0000      -6.605015      -179.7316
  82   2.0000      -6.602474      -179.6625
  83   2.0000      -6.591667      -179.3684
  84   2.0000      -6.591114      -179.3533
  85   2.0000      -6.588639      -179.2860
  86   2.0000      -6.588082      -179.2708
  87   2.0000      -6.029362      -164.0673
  88   2.0000      -6.027470      -164.0158
  89   2.0000      -6.027109      -164.0060
  90   2.0000      -6.026554      -163.9909
  91   2.0000      -6.025167      -163.9531
  92   2.0000      -6.023169      -163.8988
  93   2.0000      -6.022916      -163.8919
  94   2.0000      -6.021868      -163.8634
  95   2.0000      -6.021486      -163.8530
  96   2.0000      -6.019192      -163.7906
  97   2.0000      -6.018986      -163.7849
  98   2.0000      -6.018521      -163.7723
  99   2.0000      -5.364733      -145.9818
 100   2.0000      -3.731844      -101.5486
 101   2.0000      -3.723604      -101.3244
 102   2.0000      -3.722386      -101.2913
 103   2.0000      -2.720986       -74.0418
 104   2.0000      -2.718384       -73.9710
 105   2.0000      -2.717426       -73.9449
 106   2.0000      -2.716939       -73.9317
 107   2.0000      -2.714622       -73.8686
 108   2.0000      -2.714242       -73.8583
 109   2.0000      -2.706359       -73.6438
 110   2.0000      -2.706334       -73.6431
 111   2.0000      -2.703220       -73.5584
 112   2.0000      -2.703211       -73.5581
 113   2.0000      -1.193838       -32.4860
 114   2.0000      -1.127171       -30.6719
 115   2.0000      -1.125434       -30.6246
 116   2.0000      -1.098831       -29.9007
 117   2.0000      -1.019312       -27.7369
 118   2.0000      -1.017009       -27.6742
 119   2.0000      -1.012658       -27.5558
 120   2.0000      -1.008286       -27.4369
 121   2.0000      -0.996760       -27.1232
 122   2.0000      -0.995570       -27.0908
 123   2.0000      -0.992077       -26.9958
 124   2.0000      -0.990650       -26.9570
 125   2.0000      -0.983163       -26.7532
 126   2.0000      -0.981001       -26.6944
 127   2.0000      -0.958438       -26.0804
 128   2.0000      -0.956580       -26.0299
 129   2.0000      -0.950717       -25.8703
 130   2.0000      -0.924428       -25.1550
 131   2.0000      -0.913617       -24.8608
 132   2.0000      -0.905962       -24.6525
 133   2.0000      -0.903752       -24.5923
 134   2.0000      -0.898741       -24.4560
 135   2.0000      -0.890601       -24.2345
 136   2.0000      -0.884625       -24.0719
 137   2.0000      -0.876742       -23.8574
 138   2.0000      -0.864997       -23.5378
 139   2.0000      -0.863141       -23.4873
 140   2.0000      -0.853264       -23.2185
 141   2.0000      -0.849290       -23.1104
 142   2.0000      -0.848085       -23.0776
 143   2.0000      -0.838701       -22.8222
 144   2.0000      -0.837146       -22.7799
 145   2.0000      -0.832428       -22.6515
 146   2.0000      -0.812416       -22.1070
 147   2.0000      -0.802125       -21.8269
 148   2.0000      -0.794117       -21.6090
 149   2.0000      -0.785986       -21.3878
 150   2.0000      -0.779433       -21.2095
 151   2.0000      -0.762112       -20.7381
 152   2.0000      -0.756678       -20.5903
 153   2.0000      -0.755054       -20.5461
 154   2.0000      -0.753686       -20.5088
 155   2.0000      -0.731578       -19.9072
 156   2.0000      -0.718850       -19.5609
 157   2.0000      -0.709761       -19.3136
 158   2.0000      -0.699545       -19.0356
 159   2.0000      -0.690742       -18.7961
 160   2.0000      -0.687927       -18.7194
 161   2.0000      -0.684118       -18.6158
 162   2.0000      -0.679413       -18.4878
 163   2.0000      -0.674915       -18.3654
 164   2.0000      -0.667975       -18.1765
 165   2.0000      -0.655340       -17.8327
 166   2.0000      -0.652202       -17.7473
 167   2.0000      -0.647102       -17.6085
 168   2.0000      -0.641601       -17.4589
 169   2.0000      -0.635251       -17.2861
 170   2.0000      -0.625839       -17.0300
 171   2.0000      -0.623209       -16.9584
 172   2.0000      -0.614780       -16.7290
 173   2.0000      -0.613743       -16.7008
 174   2.0000      -0.610349       -16.6085
 175   2.0000      -0.606892       -16.5144
 176   2.0000      -0.605019       -16.4634
 177   2.0000      -0.602473       -16.3941
 178   2.0000      -0.591710       -16.1012
 179   2.0000      -0.585386       -15.9292
 180   2.0000      -0.574193       -15.6246
 181   2.0000      -0.573211       -15.5979
 182   2.0000      -0.571523       -15.5519
 183   2.0000      -0.568505       -15.4698
 184   2.0000      -0.565958       -15.4005
 185   2.0000      -0.556273       -15.1370
 186   2.0000      -0.554769       -15.0960
 187   2.0000      -0.550903       -14.9908
 188   2.0000      -0.540506       -14.7079
 189   2.0000      -0.536677       -14.6037
 190   2.0000      -0.535739       -14.5782
 191   2.0000      -0.534367       -14.5409
 192   2.0000      -0.531997       -14.4764
 193   2.0000      -0.529999       -14.4220
 194   2.0000      -0.525734       -14.3060
 195   2.0000      -0.524331       -14.2678
 196   2.0000      -0.521795       -14.1988
 197   2.0000      -0.520050       -14.1513
 198   2.0000      -0.519185       -14.1277
 199   2.0000      -0.517936       -14.0938
 200   2.0000      -0.513785       -13.9808
 201   2.0000      -0.512334       -13.9413
 202   2.0000      -0.509964       -13.8768
 203   2.0000      -0.509529       -13.8650
 204   2.0000      -0.503520       -13.7015
 205   2.0000      -0.502901       -13.6846
 206   2.0000      -0.502237       -13.6666
 207   2.0000      -0.499059       -13.5801
 208   2.0000      -0.492975       -13.4145
 209   2.0000      -0.491431       -13.3725
 210   2.0000      -0.487011       -13.2522
 211   2.0000      -0.486423       -13.2363
 212   2.0000      -0.480410       -13.0726
 213   2.0000      -0.476835       -12.9753
 214   2.0000      -0.475893       -12.9497
 215   2.0000      -0.472254       -12.8507
 216   2.0000      -0.466056       -12.6820
 217   2.0000      -0.464705       -12.6453
 218   2.0000      -0.460331       -12.5262
 219   2.0000      -0.457178       -12.4404
 220   2.0000      -0.456502       -12.4220
 221   2.0000      -0.455648       -12.3988
 222   2.0000      -0.452858       -12.3229
 223   2.0000      -0.450152       -12.2493
 224   2.0000      -0.447414       -12.1748
 225   2.0000      -0.446350       -12.1458
 226   2.0000      -0.444380       -12.0922
 227   2.0000      -0.441860       -12.0236
 228   2.0000      -0.440234       -11.9794
 229   2.0000      -0.438462       -11.9311
 230   2.0000      -0.436282       -11.8718
 231   2.0000      -0.433663       -11.8006
 232   2.0000      -0.432199       -11.7607
 233   2.0000      -0.431931       -11.7534
 234   2.0000      -0.426826       -11.6145
 235   2.0000      -0.423158       -11.5147
 236   2.0000      -0.419302       -11.4098
 237   2.0000      -0.419051       -11.4029
 238   2.0000      -0.418400       -11.3852
 239   2.0000      -0.416684       -11.3385
 240   2.0000      -0.413430       -11.2500
 241   2.0000      -0.409159       -11.1338
 242   2.0000      -0.404998       -11.0205
 243   2.0000      -0.400066       -10.8863
 244   2.0000      -0.397407       -10.8140
 245   2.0000      -0.390671       -10.6307
 246   2.0000      -0.387409       -10.5419
 247   2.0000      -0.382173       -10.3995
 248   2.0000      -0.380613       -10.3570
 249   2.0000      -0.370987       -10.0951
 250   2.0000      -0.365972        -9.9586
 251   2.0000      -0.362940        -9.8761
 252   2.0000      -0.357585        -9.7304
 253   2.0000      -0.356061        -9.6889
 254   2.0000      -0.353393        -9.6163
 255   2.0000      -0.348374        -9.4797
 256   2.0000      -0.343406        -9.3445
 257   2.0000      -0.341590        -9.2951
 258   2.0000      -0.335908        -9.1405
 259   2.0000      -0.335212        -9.1216
 260   2.0000      -0.328183        -8.9303
 261   2.0000      -0.327417        -8.9095
 262   2.0000      -0.324341        -8.8258
 263   2.0000      -0.314895        -8.5687
 264   2.0000      -0.306183        -8.3317
 265   2.0000      -0.298607        -8.1255
 266   2.0000      -0.295182        -8.0323
 267   2.0000      -0.283800        -7.7226
 268   2.0000      -0.274056        -7.4574
 269   2.0000      -0.249788        -6.7971
 270   2.0000      -0.221774        -6.0348
 271   0.0000      -0.126425        -3.4402
 272   0.0000      -0.100528        -2.7355
 273   0.0000      -0.080770        -2.1979
 274   0.0000      -0.070577        -1.9205
 275   0.0000      -0.053262        -1.4493

MULLIKEN ATOMIC CHARGES
-----------------------
   0 C :    0.141322
   1 O :   -0.185093
   2 C :   -0.023129
   3 C :    0.016446
   4 C :   -0.048515
   5 C :    0.068059
   6 C :   -0.022590
   7 C :   -0.003033
   8 Br:   -0.021295
   9 C :    0.334984
  10 C :   -0.385815
  11 C :   -0.190023
  12 N :    0.154813
  13 C :   -0.213002
  14 N :    0.157097
  15 C :   -0.110915
  16 C :   -0.048703
  17 C :   -0.042090
  18 S :    0.202579
  19 C :   -0.090157
  20 C :   -0.026258
  21 C :    0.130896
  22 C :   -0.006187
  23 C :   -0.133592
  24 C :    0.204420
  25 O :   -0.189150
  26 O :   -0.312877
  27 C :    0.189213
  28 S :    0.176107
  29 C :   -0.020844
  30 C :   -0.028107
  31 C :    0.026408
  32 C :    0.044409
  33 C :   -0.045097
  34 S :    0.125672
  35 C :   -0.046090
  36 C :    0.045618
  37 C :    0.035347
  38 C :   -0.039130
  39 S :    0.115653
  40 C :   -0.008949
  41 C :    0.103575
  42 C :   -0.055313
  43 C :   -0.010776
  44 C :    0.075791
  45 C :    0.021679
  46 C :   -0.188049
  47 Si:    0.345781
  48 C :   -0.184680
  49 C :    0.010039
  50 C :    0.026370
  51 C :   -0.120385
  52 C :    0.144601
  53 O :   -0.151415
  54 C :   -0.019918
  55 C :    0.034435
  56 C :    0.255809
  57 C :   -0.369321
  58 C :   -0.156738
  59 N :    0.140508
  60 C :   -0.189294
  61 N :    0.180026
  62 C :   -0.047783
  63 C :    0.067624
  64 C :   -0.020933
  65 C :   -0.011097
  66 Br:    0.002387
  67 H :    0.002993
  68 H :    0.004463
  69 H :    0.007591
  70 H :    0.005110
  71 H :    0.025144
  72 H :    0.035274
  73 H :    0.037067
  74 H :    0.036081
  75 H :   -0.004972
  76 H :   -0.003574
  77 H :   -0.007575
  78 H :   -0.004924
  79 H :   -0.001211
  80 H :    0.000755
  81 H :    0.006568
  82 H :    0.007821
  83 H :    0.008030
  84 H :   -0.001391
  85 H :    0.014604
  86 H :    0.004248
  87 H :    0.012514
  88 H :    0.004059
Sum of atomic charges:   -0.0000000

LOEWDIN ATOMIC CHARGES
----------------------
   0 C :    0.074779
   1 O :   -0.171242
   2 C :   -0.041406
   3 C :   -0.019990
   4 C :    0.000607
   5 C :   -0.011709
   6 C :   -0.107980
   7 C :   -0.000928
   8 Br:    0.123936
   9 C :    0.075162
  10 C :   -0.158802
  11 C :   -0.019763
  12 N :   -0.066622
  13 C :   -0.022558
  14 N :   -0.066284
  15 C :   -0.123971
  16 C :    0.043341
  17 C :   -0.174977
  18 S :    0.548060
  19 C :   -0.164831
  20 C :   -0.194302
  21 C :   -0.047977
  22 C :   -0.005951
  23 C :   -0.196552
  24 C :    0.067444
  25 O :   -0.166197
  26 O :   -0.103014
  27 C :    0.082970
  28 S :    0.441582
  29 C :   -0.076199
  30 C :   -0.134218
  31 C :   -0.032504
  32 C :   -0.025388
  33 C :   -0.179440
  34 S :    0.424724
  35 C :   -0.167680
  36 C :   -0.022045
  37 C :   -0.025774
  38 C :   -0.126320
  39 S :    0.436903
  40 C :   -0.030534
  41 C :    0.003739
  42 C :   -0.041580
  43 C :    0.028903
  44 C :   -0.048500
  45 C :    0.009322
  46 C :   -0.232945
  47 Si:    0.424630
  48 C :   -0.221712
  49 C :    0.002730
  50 C :    0.084860
  51 C :   -0.096194
  52 C :    0.084295
  53 O :   -0.144076
  54 C :   -0.041253
  55 C :   -0.018210
  56 C :    0.071859
  57 C :   -0.153698
  58 C :   -0.022577
  59 N :   -0.073849
  60 C :   -0.013123
  61 N :   -0.053346
  62 C :    0.001509
  63 C :   -0.010909
  64 C :   -0.097711
  65 C :    0.005170
  66 Br:    0.133900
  67 H :    0.040908
  68 H :    0.040702
  69 H :    0.042900
  70 H :    0.048310
  71 H :    0.046795
  72 H :    0.026672
  73 H :    0.025499
  74 H :    0.025021
  75 H :    0.038298
  76 H :    0.036145
  77 H :    0.034526
  78 H :    0.035568
  79 H :    0.036962
  80 H :    0.036432
  81 H :    0.028114
  82 H :    0.036772
  83 H :    0.015577
  84 H :    0.017666
  85 H :    0.042616
  86 H :    0.041029
  87 H :    0.042525
  88 H :    0.045375

  Mayer bond orders larger than 0.100000
B(  0-C ,  1-O ) :   2.0814 B(  0-C ,  2-C ) :   0.9404 B(  0-C , 15-C ) :   1.0177
B(  2-C ,  3-C ) :   1.3300 B(  2-C ,  7-C ) :   1.3947 B(  3-C ,  4-C ) :   1.3858
B(  3-C ,  9-C ) :   0.9715 B(  4-C ,  5-C ) :   1.3499 B(  4-C , 67-H ) :   0.9901
B(  5-C ,  6-C ) :   1.4049 B(  5-C , 68-H ) :   0.9858 B(  6-C ,  7-C ) :   1.3112
B(  6-C ,  8-Br) :   0.9907 B(  7-C , 69-H ) :   0.9961 B(  9-C , 10-C ) :   1.5951
B(  9-C , 15-C ) :   1.1173 B( 10-C , 11-C ) :   1.1639 B( 10-C , 13-C ) :   1.1462
B( 11-C , 12-N ) :   2.9416 B( 13-C , 14-N ) :   2.9725 B( 15-C , 16-C ) :   1.3867
B( 16-C , 17-C ) :   1.3999 B( 16-C , 70-H ) :   0.9422 B( 17-C , 18-S ) :   1.0802
B( 17-C , 21-C ) :   1.1916 B( 18-S , 19-C ) :   1.1370 B( 19-C , 20-C ) :   1.3084
B( 19-C , 29-C ) :   1.2686 B( 20-C , 21-C ) :   1.3561 B( 20-C , 28-S ) :   1.0626
B( 21-C , 22-C ) :   1.1835 B( 22-C , 23-C ) :   1.5857 B( 22-C , 71-H ) :   1.0000
B( 23-C , 24-C ) :   0.9580 B( 23-C , 28-S ) :   1.0959 B( 24-C , 25-O ) :   2.1489
B( 24-C , 26-O ) :   1.2275 B( 26-O , 27-C ) :   0.9203 B( 27-C , 72-H ) :   0.9811
B( 27-C , 73-H ) :   0.9768 B( 27-C , 74-H ) :   0.9770 B( 29-C , 30-C ) :   1.4729
B( 29-C , 75-H ) :   0.9716 B( 30-C , 31-C ) :   1.1835 B( 30-C , 34-S ) :   1.0852
B( 31-C , 32-C ) :   1.5417 B( 31-C , 76-H ) :   1.0007 B( 32-C , 33-C ) :   1.2215
B( 32-C , 77-H ) :   0.9954 B( 33-C , 34-S ) :   1.0626 B( 33-C , 35-C ) :   1.4315
B( 35-C , 36-C ) :   1.2108 B( 35-C , 39-S ) :   1.0845 B( 36-C , 37-C ) :   1.5668
B( 36-C , 78-H ) :   0.9952 B( 37-C , 38-C ) :   1.1582 B( 37-C , 79-H ) :   0.9968
B( 38-C , 39-S ) :   1.0589 B( 38-C , 40-C ) :   1.5650 B( 40-C , 41-C ) :   1.1412
B( 40-C , 80-H ) :   0.9648 B( 41-C , 42-C ) :   1.4183 B( 41-C , 49-C ) :   1.0933
B( 42-C , 43-C ) :   1.2554 B( 42-C , 81-H ) :   0.9790 B( 43-C , 44-C ) :   1.4273
B( 43-C , 82-H ) :   0.9840 B( 44-C , 45-C ) :   1.0984 B( 44-C , 50-C ) :   1.1186
B( 45-C , 46-C ) :   1.6530 B( 45-C , 47-Si) :   0.1346 B( 45-C , 49-C ) :   1.0182
B( 46-C , 47-Si) :   1.0159 B( 46-C , 48-C ) :   0.1069 B( 46-C , 83-H ) :   0.9353
B( 47-Si, 48-C ) :   0.9961 B( 47-Si, 49-C ) :   0.1353 B( 48-C , 49-C ) :   1.6608
B( 48-C , 84-H ) :   0.9391 B( 50-C , 51-C ) :   1.6344 B( 50-C , 85-H ) :   0.9387
B( 51-C , 52-C ) :   0.9547 B( 51-C , 56-C ) :   1.0290 B( 52-C , 53-O ) :   2.2256
B( 52-C , 54-C ) :   0.9192 B( 54-C , 55-C ) :   1.3176 B( 54-C , 65-C ) :   1.3893
B( 55-C , 56-C ) :   1.0199 B( 55-C , 62-C ) :   1.3593 B( 56-C , 57-C ) :   1.6375
B( 57-C , 58-C ) :   1.1447 B( 57-C , 60-C ) :   1.1800 B( 58-C , 59-N ) :   2.8906
B( 60-C , 61-N ) :   2.9191 B( 62-C , 63-C ) :   1.3635 B( 62-C , 86-H ) :   0.9943
B( 63-C , 64-C ) :   1.3951 B( 63-C , 87-H ) :   0.9816 B( 64-C , 65-C ) :   1.3123
B( 64-C , 66-Br) :   1.0134 B( 65-C , 88-H ) :   1.0119

-----------------------------------------------------------------------------
         ABSORPTION SPECTRUM VIA TRANSITION ELECTRIC DIPOLE MOMENTS
-----------------------------------------------------------------------------
State   Energy  Wavelength   fosc         T2         TX        TY        TZ
        (cm-1)    (nm)                  (au**2)     (au)      (au)      (au)
-----------------------------------------------------------------------------
   0    5301.3   1886.3   0.085477182   5.30815  -1.86376  -1.03837  -0.86968
   1    9931.3   1006.9   0.100794813   3.34125  -0.53950   0.03200  -1.74619
   2   11343.8    881.5   0.278764761   8.09011   0.54492  -0.84962   2.65919
   3   14328.7    697.9   0.141198381   3.24412  -0.28585  -0.41349  -1.72958
   4   15452.0    647.2   0.240697439   5.12817  -0.39011  -2.19102   0.41884
   5   16798.6    595.3   0.184458365   3.61494   0.71277   0.88005  -1.52723
   6   17312.9    577.6   0.238418387   4.53362   1.26252   1.44899  -0.91657
   7   17616.3    567.7   0.031821990   0.59469  -0.23317  -0.25961  -0.68769
   8   19349.6    516.8   0.154062427   2.62120   1.22777   1.05483  -0.03336
   9   20287.5    492.9   0.009317745   0.15120   0.23302  -0.20246   0.23646
  10   21210.8    471.5   0.350691499   5.44307  -1.61059  -1.65905   0.31087
  11   22071.9    453.1   0.025558886   0.38122   0.31705  -0.26559  -0.45843
  12   22393.4    446.6   0.057368506   0.84339   0.63443   0.59852   0.28750
  13   22964.0    435.5   0.105132799   1.50718  -0.74457  -0.59946  -0.77035
  14   23381.7    427.7   0.001661433   0.02339  -0.08650  -0.09766   0.07982
  15   23586.7    424.0   0.024753575   0.34550   0.13932   0.54758   0.16202
  16   23907.0    418.3   0.412082302   5.67459  -1.68746  -1.44692  -0.85645
  17   24569.9    407.0   0.131978560   1.76838  -0.19350  -0.13996  -1.30818
  18   25605.6    390.5   0.038388001   0.49356  -0.13174  -0.14773  -0.67407
  19   26293.1    380.3   0.018297411   0.22910   0.22687   0.20509   0.36820
  20   26309.7    380.1   0.015045221   0.18826   0.04484   0.20217   0.38128
  21   26561.2    376.5   0.002003844   0.02484  -0.05298   0.14102   0.04629
  22   26808.1    373.0   0.002834248   0.03481  -0.02958  -0.15165  -0.10456
  23   27409.1    364.8   0.070918675   0.85181   0.21900   0.38924   0.80768
  24   27586.9    362.5   0.264570656   3.15729   0.39822   0.26498   1.71128
  25   27659.7    361.5   0.010828263   0.12888   0.19390   0.27985  -0.11388
  26   28038.8    356.6   0.011352867   0.13330   0.01990  -0.02247   0.36386
  27   28405.5    352.0   0.011807412   0.13684   0.20966   0.25975  -0.15942
  28   28629.1    349.3   0.085620095   0.98456  -0.49894  -0.40394  -0.75661
  29   28877.3    346.3   0.032979258   0.37598  -0.18349  -0.29426  -0.50568
  30   29114.3    343.5   0.014662870   0.16580  -0.00762  -0.28539  -0.29034
  31   29328.3    341.0   0.003908522   0.04387  -0.11737  -0.10995   0.13420
  32   29633.0    337.5   0.016404930   0.18225  -0.18805   0.18070  -0.33799
  33   29924.3    334.2   0.229175005   2.52127  -1.00611  -1.21115  -0.20523
  34   30169.6    331.5   0.060067615   0.65546   0.44520  -0.07542  -0.67199
  35   30535.1    327.5   0.023378366   0.25205  -0.38811  -0.30891  -0.07743
  36   30649.8    326.3   0.013752744   0.14772  -0.27020   0.03251  -0.27139
  37   31028.4    322.3   0.116374754   1.23474   0.57070   0.11648  -0.94629
  38   31195.9    320.6   0.036888414   0.38928   0.13637   0.31744  -0.51954
  39   31525.5    317.2   0.031253416   0.32637   0.09807   0.24104   0.50858
  40   31533.8    317.1   0.058148775   0.60707  -0.59544  -0.42435   0.26916
  41   31970.7    312.8   0.006202713   0.06387   0.12059   0.10562  -0.19538
  42   32242.7    310.1   0.100066066   1.02172  -0.34043  -0.24290   0.92023
  43   32600.6    306.7   0.017742641   0.17917   0.10854  -0.39399  -0.11026
  44   32718.0    305.6   0.072732007   0.73184  -0.17069  -0.44613  -0.70970
  45   32782.7    305.0   0.109342492   1.09804  -0.28610   0.11435   1.00156
  46   32940.6    303.6   0.025124762   0.25110  -0.24302  -0.30650  -0.31321
  47   33223.4    301.0   0.011885312   0.11777   0.15532   0.22749  -0.20468
  48   33569.3    297.9   0.019225055   0.18854  -0.08209  -0.17859  -0.38718
  49   33578.9    297.8   0.031765878   0.31144  -0.01926  -0.17776   0.52865
  50   33713.1    296.6   0.001117753   0.01091   0.10025  -0.02611   0.01355
  51   33944.9    294.6   0.042547858   0.41265  -0.26823  -0.25199   0.52650
  52   34072.6    293.5   0.204099443   1.97202  -0.01492  -0.43143  -1.33629
  53   34255.7    291.9   0.005624836   0.05406  -0.23239  -0.00659  -0.00317
  54   34608.1    288.9   0.016465603   0.15663  -0.13151  -0.33535   0.16394
  55   34795.1    287.4   0.044410883   0.42019  -0.18742   0.24778   0.56892
  56   34948.1    286.1   0.030988261   0.29191   0.36918   0.19348  -0.34377
  57   34996.0    285.7   0.058004037   0.54565  -0.48090  -0.45456   0.32826
  58   35189.7    284.2   0.013927984   0.13030  -0.19050  -0.15495   0.26457
  59   35258.1    283.6   0.043166757   0.40306   0.23215   0.42365   0.41193
  60   35558.0    281.2   0.001302102   0.01206   0.02538   0.08326  -0.06693
  61   35648.0    280.5   0.001743618   0.01610  -0.08878   0.04460  -0.07894
  62   36164.9    276.5   0.055628667   0.50639  -0.11694  -0.03051   0.70127
  63   36253.0    275.8   0.015263015   0.13860  -0.07031  -0.25593  -0.26108
  64   36477.8    274.1   0.012641848   0.11409   0.07833  -0.02268  -0.32778
  65   36607.9    273.2   0.001621844   0.01459   0.09519  -0.04196   0.06135
  66   36692.2    272.5   0.007863584   0.07055  -0.22119   0.12405   0.07899
  67   36824.2    271.6   0.008323257   0.07441   0.26031   0.05444  -0.06069
  68   36952.7    270.6   0.011282002   0.10051   0.23465   0.19262  -0.09138
  69   37275.3    268.3   0.060963409   0.53842   0.13666  -0.15619  -0.70381
  70   37307.2    268.0   0.010676009   0.09421   0.25817   0.00994  -0.16571
  71   37447.6    267.0   0.010753101   0.09453   0.11853  -0.13564   0.24917
  72   37485.1    266.8   0.012370819   0.10865  -0.05259   0.03869  -0.32309
  73   37574.7    266.1   0.007825233   0.06856   0.06480   0.22096  -0.12465
  74   37661.1    265.5   0.093505675   0.81737  -0.15612   0.10717   0.88403
  75   37795.6    264.6   0.237258781   2.06660   0.04906  -0.39595  -1.38109
  76   37837.6    264.3   0.012394605   0.10784   0.08874   0.31360  -0.04026
  77   37874.9    264.0   0.082611778   0.71807   0.07155  -0.26413  -0.80199
  78   38045.6    262.8   0.076795498   0.66452  -0.19149  -0.40921   0.67852
  79   38128.6    262.3   0.011406190   0.09848   0.00363  -0.10145  -0.29695
  80   38513.3    259.7   0.012373661   0.10577   0.04965   0.31084   0.08175
  81   38693.3    258.4   0.129252445   1.09971   0.35593   0.68487  -0.70991
  82   38734.0    258.2   0.030983515   0.26334   0.21037   0.17818   0.43282
  83   39132.1    255.5   0.021259211   0.17885  -0.03224  -0.38460  -0.17290
  84   39345.5    254.2   0.054816173   0.45866   0.01592  -0.32542  -0.59372
  85   39409.5    253.7   0.017956006   0.15000  -0.10626  -0.07391  -0.36503
  86   39749.9    251.6   0.003330130   0.02758   0.06134  -0.14964   0.03774
  87   39867.4    250.8   0.017174573   0.14182   0.13081   0.09809   0.33925
  88   39946.1    250.3   0.019702284   0.16237  -0.01981   0.40082  -0.03636
  89   40271.2    248.3   0.036053895   0.29474   0.31398   0.43854  -0.06190

FINAL SINGLE POINT ENERGY     -9540.863109478985

DIPOLE MOMENT
-------------
                                X             Y             Z
Electronic contribution:     48.88294      72.97723     -50.10256
Nuclear contribution   :    -49.46615     -75.77642      54.39174
                        -----------------------------------------
Total Dipole Moment    :     -0.58322      -2.79920       4.28918
                        -----------------------------------------
Magnitude (a.u.)       :      5.15487
Magnitude (Debye)      :     13.10264

Rotational constants in cm-1:     0.001052     0.000830     0.000544
Rotational constants in MHz :    31.553081    24.869296    16.318645

                             ****ORCA TERMINATED NORMALLY****
TOTAL RUN TIME: 0 days 0 hours 16 minutes 1 seconds 836 msec
