                         Program Version 4.2.0 -  RELEASE  -
|  1> # ORCA input file
|  2> # SCF done       -188.378425106928          0.000832665372
|  3> ! CAM-B3LYP def2-SVP def2/J RIJCOSX Grid4 TightSCF
|  4> %maxcore 5000
|  5> %tddft
|  6>     Mode sTDDFT
|  7>     Ethresh 5.0
|  8>     maxcore 5000
|  9> end
| 10>
| 11> %pal
| 12>   nprocs 6
| 13>   end
| 14> * xyz 0 1
| 15>    C       -6.25434        -0.85873        -4.78977
| 16>    O       -6.08192        -1.67513        -3.89779
| 17>    C       -6.16751         0.60903        -4.65543
| 18>    C       -6.27013         1.19951        -5.92604
| 19>    C       -6.24201         2.58028        -6.04027
| 20>    C       -6.10743         3.34861        -4.89042
| 21>    C       -5.99930         2.73733        -3.65261
| 22>    C       -6.02547         1.35707        -3.50709
| 23>   Br       -5.82615         3.81534        -2.08967
| 24>    C       -6.43189         0.13186        -6.91763
| 25>    C       -6.52074         0.33108        -8.27332
| 26>    C       -6.35082         1.58316        -8.89545
| 27>    N       -6.18674         2.56141        -9.47444
| 28>    C       -6.76500        -0.66284        -9.24339
| 29>    N       -6.98371        -1.39919       -10.09790
| 30>    C       -6.50442        -1.12545        -6.20658
| 31>    C       -6.62910        -2.37638        -6.79605
| 32>    C       -6.94241        -3.61765        -6.24579
| 33>    C       -7.59422        -3.94269        -5.06394
| 34>    C       -7.88177        -5.26552        -4.63235
| 35>    C       -8.59124        -5.33885        -3.46834
| 36>    C       -8.91242        -4.07089        -2.94283
| 37>    S       -8.28713        -2.80459        -3.96482
| 38>    C       -9.52533        -3.69660        -1.75392
| 39>    C      -10.06264        -4.44721        -0.69113
| 40>    C      -10.50835        -3.67932         0.35048
| 41>    C      -10.34896        -2.28638         0.16258
| 42>    S       -9.63448        -1.99461        -1.40816
| 43>    C      -10.61343        -1.28706         1.08003
| 44>    C      -10.41065         0.08095         0.87819
| 45>    C      -10.11295         0.76199        -0.30649
| 46>    C       -9.88448         2.10562        -0.10603
| 47>    C      -10.01596         2.51208         1.24921
| 48>    S      -10.44955         1.19479         2.25752
| 49>    C       -9.72456         3.87989         1.33074
| 50>    C       -9.41767         4.35210         0.02596
| 51>    C       -9.52080         3.25297        -0.91399
| 52>    C       -9.29538         3.28895        -2.25980
| 53>    C       -9.32000         2.13597        -3.07113
| 54>    N       -9.29536         1.20598        -3.74294
| 55>    C       -9.00271         4.48786        -2.94662
| 56>    N       -8.78396         5.45445        -3.52320
| 57>    C       -9.04503         5.67688        -0.01213
| 58>    C       -9.04323         6.27307         1.25349
| 59>    S       -9.56989         5.12538         2.49794
| 60>    C       -8.66057         7.56399         1.62069
| 61>    C       -8.04702         8.49843         0.80654
| 62>    C       -7.64646         9.80203         1.17835
| 63>    C       -7.00648        10.50144         0.19140
| 64>    C       -6.86978         9.77984        -1.00866
| 65>    S       -7.58157         8.19967        -0.85240
| 66>    C       -6.28166        10.12828        -2.21906
| 67>    C       -5.63706        11.31644        -2.60783
| 68>    C       -5.17024        11.28718        -3.89399
| 69>    C       -5.42666        10.07579        -4.57143
| 70>    S       -6.28776         8.97431        -3.52858
| 71>    C       -5.09444         9.74505        -5.87465
| 72>    C       -5.40186         8.50430        -6.42015
| 73>    C       -5.19852         8.02641        -7.69702
| 74>    C       -5.23446         6.56285        -7.91723
| 75>    O       -5.58397         5.71618        -7.12168
| 76>    C       -4.69564         6.35795        -9.27888
| 77>    C       -4.41462         7.60951        -9.85832
| 78>    C       -4.84070         8.66390        -8.93404
| 79>    C       -5.04322         9.97777        -9.28745
| 80>    C       -4.68191        10.52180       -10.53563
| 81>    N       -4.38887        11.03150       -11.52242
| 82>    C       -5.73077        10.92452        -8.50338
| 83>    N       -6.32167        11.73220        -7.93925
| 84>    C       -3.85319         7.66817       -11.12380
| 85>    C       -3.58752         6.48127       -11.79240
| 86>    C       -3.89260         5.25946       -11.20936
| 87>    C       -4.45283         5.17343        -9.94143
| 88>   Br       -3.51866         3.66152       -12.16541
| 89>    H       -6.32253         3.08973        -6.98578
| 90>    H       -6.08814         4.42349        -4.98042
| 91>    H       -5.94842         0.87953        -2.54236
| 92>    H       -6.44100        -2.40938        -7.86284
| 93>    H       -6.72371        -4.46989        -6.87971
| 94>    H       -7.53841        -6.12124        -5.18692
| 95>    H       -8.87200        -6.25480        -2.97982
| 96>    H      -10.09479        -5.52185        -0.70910
| 97>    H      -10.93601        -4.07775         1.25385
| 98>    H      -10.95382        -1.59759         2.05898
| 99>    H      -10.09484         0.29886        -1.27334
|100>    H       -8.79861         6.19411        -0.91788
|101>    H       -8.82154         7.85057         2.65172
|102>    H       -7.83887        10.18821         2.16390
|103>    H       -6.63270        11.50321         0.30393
|104>    H       -5.53056        12.15432        -1.94220
|105>    H       -4.65869        12.10161        -4.37496
|106>    H       -4.56203        10.48613        -6.45096
|107>    H       -5.79773         7.75922        -5.73414
|108>    H       -3.61083         8.60711       -11.59414
|109>    H       -3.14442         6.50801       -12.77608
|110>    H       -4.71201         4.22339        -9.49992
|111> *
|112>
|113>                          ****END OF INPUT****

CARTESIAN COORDINATES (ANGSTROEM)
---------------------------------
  C     -6.254340   -0.858730   -4.789770
  O     -6.081920   -1.675130   -3.897790
  C     -6.167510    0.609030   -4.655430
  C     -6.270130    1.199510   -5.926040
  C     -6.242010    2.580280   -6.040270
  C     -6.107430    3.348610   -4.890420
  C     -5.999300    2.737330   -3.652610
  C     -6.025470    1.357070   -3.507090
  Br    -5.826150    3.815340   -2.089670
  C     -6.431890    0.131860   -6.917630
  C     -6.520740    0.331080   -8.273320
  C     -6.350820    1.583160   -8.895450
  N     -6.186740    2.561410   -9.474440
  C     -6.765000   -0.662840   -9.243390
  N     -6.983710   -1.399190  -10.097900
  C     -6.504420   -1.125450   -6.206580
  C     -6.629100   -2.376380   -6.796050
  C     -6.942410   -3.617650   -6.245790
  C     -7.594220   -3.942690   -5.063940
  C     -7.881770   -5.265520   -4.632350
  C     -8.591240   -5.338850   -3.468340
  C     -8.912420   -4.070890   -2.942830
  S     -8.287130   -2.804590   -3.964820
  C     -9.525330   -3.696600   -1.753920
  C    -10.062640   -4.447210   -0.691130
  C    -10.508350   -3.679320    0.350480
  C    -10.348960   -2.286380    0.162580
  S     -9.634480   -1.994610   -1.408160
  C    -10.613430   -1.287060    1.080030
  C    -10.410650    0.080950    0.878190
  C    -10.112950    0.761990   -0.306490
  C     -9.884480    2.105620   -0.106030
  C    -10.015960    2.512080    1.249210
  S    -10.449550    1.194790    2.257520
  C     -9.724560    3.879890    1.330740
  C     -9.417670    4.352100    0.025960
  C     -9.520800    3.252970   -0.913990
  C     -9.295380    3.288950   -2.259800
  C     -9.320000    2.135970   -3.071130
  N     -9.295360    1.205980   -3.742940
  C     -9.002710    4.487860   -2.946620
  N     -8.783960    5.454450   -3.523200
  C     -9.045030    5.676880   -0.012130
  C     -9.043230    6.273070    1.253490
  S     -9.569890    5.125380    2.497940
  C     -8.660570    7.563990    1.620690
  C     -8.047020    8.498430    0.806540
  C     -7.646460    9.802030    1.178350
  C     -7.006480   10.501440    0.191400
  C     -6.869780    9.779840   -1.008660
  S     -7.581570    8.199670   -0.852400
  C     -6.281660   10.128280   -2.219060
  C     -5.637060   11.316440   -2.607830
  C     -5.170240   11.287180   -3.893990
  C     -5.426660   10.075790   -4.571430
  S     -6.287760    8.974310   -3.528580
  C     -5.094440    9.745050   -5.874650
  C     -5.401860    8.504300   -6.420150
  C     -5.198520    8.026410   -7.697020
  C     -5.234460    6.562850   -7.917230
  O     -5.583970    5.716180   -7.121680
  C     -4.695640    6.357950   -9.278880
  C     -4.414620    7.609510   -9.858320
  C     -4.840700    8.663900   -8.934040
  C     -5.043220    9.977770   -9.287450
  C     -4.681910   10.521800  -10.535630
  N     -4.388870   11.031500  -11.522420
  C     -5.730770   10.924520   -8.503380
  N     -6.321670   11.732200   -7.939250
  C     -3.853190    7.668170  -11.123800
  C     -3.587520    6.481270  -11.792400
  C     -3.892600    5.259460  -11.209360
  C     -4.452830    5.173430   -9.941430
  Br    -3.518660    3.661520  -12.165410
  H     -6.322530    3.089730   -6.985780
  H     -6.088140    4.423490   -4.980420
  H     -5.948420    0.879530   -2.542360
  H     -6.441000   -2.409380   -7.862840
  H     -6.723710   -4.469890   -6.879710
  H     -7.538410   -6.121240   -5.186920
  H     -8.872000   -6.254800   -2.979820
  H    -10.094790   -5.521850   -0.709100
  H    -10.936010   -4.077750    1.253850
  H    -10.953820   -1.597590    2.058980
  H    -10.094840    0.298860   -1.273340
  H     -8.798610    6.194110   -0.917880
  H     -8.821540    7.850570    2.651720
  H     -7.838870   10.188210    2.163900
  H     -6.632700   11.503210    0.303930
  H     -5.530560   12.154320   -1.942200
  H     -4.658690   12.101610   -4.374960
  H     -4.562030   10.486130   -6.450960
  H     -5.797730    7.759220   -5.734140
  H     -3.610830    8.607110  -11.594140
  H     -3.144420    6.508010  -12.776080
  H     -4.712010    4.223390   -9.499920

 Total Charge           Charge          ....    0
 Multiplicity           Mult            ....    1
 Number of Electrons    NEL             ....  594
 Basis Dimension        Dim             .... 1206

ORBITAL ENERGIES
----------------

  NO   OCC          E(Eh)            E(eV)
   0   2.0000    -482.862684    -13139.3616
   1   2.0000    -482.848252    -13138.9689
   2   2.0000     -88.996582     -2421.7201
   3   2.0000     -88.995835     -2421.6998
   4   2.0000     -88.967538     -2420.9298
   5   2.0000     -88.966264     -2420.8951
   6   2.0000     -88.959980     -2420.7241
   7   2.0000     -88.957315     -2420.6516
   8   2.0000     -62.539925     -1701.7979
   9   2.0000     -62.525949     -1701.4176
  10   2.0000     -56.373734     -1534.0073
  11   2.0000     -56.371303     -1533.9411
  12   2.0000     -56.371280     -1533.9405
  13   2.0000     -56.359778     -1533.6275
  14   2.0000     -56.357277     -1533.5595
  15   2.0000     -56.357239     -1533.5584
  16   2.0000     -19.204007      -522.5676
  17   2.0000     -19.198416      -522.4155
  18   2.0000     -14.434674      -392.7875
  19   2.0000     -14.431421      -392.6989
  20   2.0000     -14.400925      -391.8691
  21   2.0000     -14.399680      -391.8352
  22   2.0000     -14.399337      -391.8259
  23   2.0000     -14.399196      -391.8221
  24   2.0000     -10.370320      -282.1907
  25   2.0000     -10.354194      -281.7519
  26   2.0000     -10.352067      -281.6941
  27   2.0000     -10.342663      -281.4382
  28   2.0000     -10.342396      -281.4309
  29   2.0000     -10.341137      -281.3967
  30   2.0000     -10.336397      -281.2677
  31   2.0000     -10.334808      -281.2244
  32   2.0000     -10.334567      -281.2179
  33   2.0000     -10.334316      -281.2110
  34   2.0000     -10.333912      -281.2000
  35   2.0000     -10.331393      -281.1315
  36   2.0000     -10.330089      -281.0960
  37   2.0000     -10.329886      -281.0905
  38   2.0000     -10.328288      -281.0470
  39   2.0000     -10.326799      -281.0065
  40   2.0000     -10.326353      -280.9944
  41   2.0000     -10.326231      -280.9910
  42   2.0000     -10.325416      -280.9688
  43   2.0000     -10.323813      -280.9252
  44   2.0000     -10.323256      -280.9101
  45   2.0000     -10.320967      -280.8478
  46   2.0000     -10.320945      -280.8472
  47   2.0000     -10.319666      -280.8124
  48   2.0000     -10.317842      -280.7628
  49   2.0000     -10.314936      -280.6837
  50   2.0000     -10.311986      -280.6034
  51   2.0000     -10.311821      -280.5989
  52   2.0000     -10.311257      -280.5836
  53   2.0000     -10.308801      -280.5167
  54   2.0000     -10.308794      -280.5165
  55   2.0000     -10.307304      -280.4760
  56   2.0000     -10.307228      -280.4739
  57   2.0000     -10.306625      -280.4575
  58   2.0000     -10.306346      -280.4499
  59   2.0000     -10.306296      -280.4486
  60   2.0000     -10.303051      -280.3603
  61   2.0000     -10.302951      -280.3576
  62   2.0000     -10.302662      -280.3497
  63   2.0000     -10.299852      -280.2732
  64   2.0000     -10.298643      -280.2403
  65   2.0000     -10.296666      -280.1865
  66   2.0000     -10.293726      -280.1065
  67   2.0000     -10.291596      -280.0486
  68   2.0000     -10.290282      -280.0128
  69   2.0000     -10.287415      -279.9348
  70   2.0000     -10.284286      -279.8497
  71   2.0000     -10.284036      -279.8429
  72   2.0000     -10.282889      -279.8116
  73   2.0000     -10.281585      -279.7762
  74   2.0000     -10.281332      -279.7693
  75   2.0000     -10.278936      -279.7041
  76   2.0000     -10.278378      -279.6889
  77   2.0000     -10.277958      -279.6774
  78   2.0000     -10.277246      -279.6581
  79   2.0000     -10.276452      -279.6365
  80   2.0000     -10.276292      -279.6321
  81   2.0000     -10.276215      -279.6300
  82   2.0000      -8.768995      -238.6165
  83   2.0000      -8.755248      -238.2424
  84   2.0000      -8.091060      -220.1689
  85   2.0000      -8.090331      -220.1491
  86   2.0000      -8.063563      -219.4207
  87   2.0000      -8.062421      -219.3896
  88   2.0000      -8.056339      -219.2241
  89   2.0000      -8.052833      -219.1287
  90   2.0000      -6.604509      -179.7178
  91   2.0000      -6.591388      -179.3608
  92   2.0000      -6.591085      -179.3525
  93   2.0000      -6.590752      -179.3435
  94   2.0000      -6.577408      -178.9804
  95   2.0000      -6.576891      -178.9663
  96   2.0000      -6.060378      -164.9113
  97   2.0000      -6.059622      -164.8907
  98   2.0000      -6.056301      -164.8003
  99   2.0000      -6.055600      -164.7813
 100   2.0000      -6.053216      -164.7164
 101   2.0000      -6.052499      -164.6969
 102   2.0000      -6.033240      -164.1728
 103   2.0000      -6.032113      -164.1421
 104   2.0000      -6.029033      -164.0583
 105   2.0000      -6.027838      -164.0258
 106   2.0000      -6.025934      -163.9740
 107   2.0000      -6.024693      -163.9402
 108   2.0000      -6.023531      -163.9086
 109   2.0000      -6.022283      -163.8747
 110   2.0000      -6.021868      -163.8634
 111   2.0000      -6.017778      -163.7521
 112   2.0000      -6.017480      -163.7439
 113   2.0000      -6.014622      -163.6662
 114   2.0000      -2.720511       -74.0289
 115   2.0000      -2.716977       -73.9327
 116   2.0000      -2.716504       -73.9198
 117   2.0000      -2.707007       -73.6614
 118   2.0000      -2.706069       -73.6359
 119   2.0000      -2.706058       -73.6356
 120   2.0000      -2.703328       -73.5613
 121   2.0000      -2.702894       -73.5495
 122   2.0000      -2.692047       -73.2543
 123   2.0000      -2.692029       -73.2538
 124   2.0000      -1.116795       -30.3895
 125   2.0000      -1.111875       -30.2557
 126   2.0000      -1.050677       -28.5904
 127   2.0000      -1.025072       -27.8936
 128   2.0000      -1.018019       -27.7017
 129   2.0000      -1.016114       -27.6499
 130   2.0000      -1.009720       -27.4759
 131   2.0000      -1.003569       -27.3085
 132   2.0000      -1.002570       -27.2813
 133   2.0000      -1.002419       -27.2772
 134   2.0000      -0.992651       -27.0114
 135   2.0000      -0.987971       -26.8841
 136   2.0000      -0.982890       -26.7458
 137   2.0000      -0.982502       -26.7352
 138   2.0000      -0.979237       -26.6464
 139   2.0000      -0.978181       -26.6177
 140   2.0000      -0.964272       -26.2392
 141   2.0000      -0.945591       -25.7308
 142   2.0000      -0.944370       -25.6976
 143   2.0000      -0.930408       -25.3177
 144   2.0000      -0.915777       -24.9195
 145   2.0000      -0.907631       -24.6979
 146   2.0000      -0.897978       -24.4352
 147   2.0000      -0.893602       -24.3162
 148   2.0000      -0.890764       -24.2389
 149   2.0000      -0.888841       -24.1866
 150   2.0000      -0.877843       -23.8873
 151   2.0000      -0.873926       -23.7807
 152   2.0000      -0.867934       -23.6177
 153   2.0000      -0.866970       -23.5915
 154   2.0000      -0.863472       -23.4963
 155   2.0000      -0.860786       -23.4232
 156   2.0000      -0.846498       -23.0344
 157   2.0000      -0.842624       -22.9290
 158   2.0000      -0.838766       -22.8240
 159   2.0000      -0.835694       -22.7404
 160   2.0000      -0.834757       -22.7149
 161   2.0000      -0.830607       -22.6020
 162   2.0000      -0.813992       -22.1498
 163   2.0000      -0.805138       -21.9089
 164   2.0000      -0.784855       -21.3570
 165   2.0000      -0.784037       -21.3347
 166   2.0000      -0.772399       -21.0180
 167   2.0000      -0.755026       -20.5453
 168   2.0000      -0.749413       -20.3926
 169   2.0000      -0.748448       -20.3663
 170   2.0000      -0.737977       -20.0814
 171   2.0000      -0.726380       -19.7658
 172   2.0000      -0.708054       -19.2671
 173   2.0000      -0.705603       -19.2004
 174   2.0000      -0.697200       -18.9718
 175   2.0000      -0.695884       -18.9360
 176   2.0000      -0.682990       -18.5851
 177   2.0000      -0.680464       -18.5164
 178   2.0000      -0.679683       -18.4951
 179   2.0000      -0.675534       -18.3822
 180   2.0000      -0.671462       -18.2714
 181   2.0000      -0.666040       -18.1239
 182   2.0000      -0.661507       -18.0005
 183   2.0000      -0.657390       -17.8885
 184   2.0000      -0.647470       -17.6186
 185   2.0000      -0.646035       -17.5795
 186   2.0000      -0.642146       -17.4737
 187   2.0000      -0.638286       -17.3686
 188   2.0000      -0.633810       -17.2469
 189   2.0000      -0.627618       -17.0783
 190   2.0000      -0.624128       -16.9834
 191   2.0000      -0.621575       -16.9139
 192   2.0000      -0.618550       -16.8316
 193   2.0000      -0.602952       -16.4072
 194   2.0000      -0.598858       -16.2958
 195   2.0000      -0.597029       -16.2460
 196   2.0000      -0.594411       -16.1747
 197   2.0000      -0.588738       -16.0204
 198   2.0000      -0.583253       -15.8711
 199   2.0000      -0.571614       -15.5544
 200   2.0000      -0.564493       -15.3606
 201   2.0000      -0.563166       -15.3245
 202   2.0000      -0.559885       -15.2353
 203   2.0000      -0.555256       -15.1093
 204   2.0000      -0.554163       -15.0795
 205   2.0000      -0.549689       -14.9578
 206   2.0000      -0.542157       -14.7528
 207   2.0000      -0.535865       -14.5816
 208   2.0000      -0.531855       -14.4725
 209   2.0000      -0.531117       -14.4524
 210   2.0000      -0.527741       -14.3606
 211   2.0000      -0.524141       -14.2626
 212   2.0000      -0.522882       -14.2283
 213   2.0000      -0.522345       -14.2137
 214   2.0000      -0.520491       -14.1633
 215   2.0000      -0.518454       -14.1079
 216   2.0000      -0.517154       -14.0725
 217   2.0000      -0.515655       -14.0317
 218   2.0000      -0.514022       -13.9872
 219   2.0000      -0.512018       -13.9327
 220   2.0000      -0.510268       -13.8851
 221   2.0000      -0.508928       -13.8486
 222   2.0000      -0.505775       -13.7628
 223   2.0000      -0.504788       -13.7360
 224   2.0000      -0.503095       -13.6899
 225   2.0000      -0.499650       -13.5962
 226   2.0000      -0.497096       -13.5267
 227   2.0000      -0.494342       -13.4517
 228   2.0000      -0.488821       -13.3015
 229   2.0000      -0.486742       -13.2449
 230   2.0000      -0.483983       -13.1698
 231   2.0000      -0.482947       -13.1417
 232   2.0000      -0.481226       -13.0948
 233   2.0000      -0.479605       -13.0507
 234   2.0000      -0.473960       -12.8971
 235   2.0000      -0.473222       -12.8770
 236   2.0000      -0.471014       -12.8170
 237   2.0000      -0.466661       -12.6985
 238   2.0000      -0.464394       -12.6368
 239   2.0000      -0.462504       -12.5854
 240   2.0000      -0.461066       -12.5462
 241   2.0000      -0.459515       -12.5040
 242   2.0000      -0.456485       -12.4216
 243   2.0000      -0.454994       -12.3810
 244   2.0000      -0.451858       -12.2957
 245   2.0000      -0.450043       -12.2463
 246   2.0000      -0.446087       -12.1386
 247   2.0000      -0.444857       -12.1052
 248   2.0000      -0.442630       -12.0446
 249   2.0000      -0.441553       -12.0153
 250   2.0000      -0.440718       -11.9925
 251   2.0000      -0.440131       -11.9766
 252   2.0000      -0.438442       -11.9306
 253   2.0000      -0.436513       -11.8781
 254   2.0000      -0.434591       -11.8258
 255   2.0000      -0.434273       -11.8172
 256   2.0000      -0.432805       -11.7772
 257   2.0000      -0.431079       -11.7303
 258   2.0000      -0.428048       -11.6478
 259   2.0000      -0.427634       -11.6365
 260   2.0000      -0.425378       -11.5751
 261   2.0000      -0.419353       -11.4112
 262   2.0000      -0.413673       -11.2566
 263   2.0000      -0.412420       -11.2225
 264   2.0000      -0.412323       -11.2199
 265   2.0000      -0.408745       -11.1225
 266   2.0000      -0.408661       -11.1202
 267   2.0000      -0.405875       -11.0444
 268   2.0000      -0.404701       -11.0125
 269   2.0000      -0.402019       -10.9395
 270   2.0000      -0.395699       -10.7675
 271   2.0000      -0.393934       -10.7195
 272   2.0000      -0.392386       -10.6774
 273   2.0000      -0.389534       -10.5998
 274   2.0000      -0.379288       -10.3209
 275   2.0000      -0.367179        -9.9915
 276   2.0000      -0.360714        -9.8155
 277   2.0000      -0.356972        -9.7137
 278   2.0000      -0.354841        -9.6557
 279   2.0000      -0.353433        -9.6174
 280   2.0000      -0.351688        -9.5699
 281   2.0000      -0.344399        -9.3716
 282   2.0000      -0.342756        -9.3269
 283   2.0000      -0.337253        -9.1771
 284   2.0000      -0.336274        -9.1505
 285   2.0000      -0.330197        -8.9851
 286   2.0000      -0.329076        -8.9546
 287   2.0000      -0.326387        -8.8814
 288   2.0000      -0.323849        -8.8124
 289   2.0000      -0.320156        -8.7119
 290   2.0000      -0.305943        -8.3251
 291   2.0000      -0.300570        -8.1789
 292   2.0000      -0.290051        -7.8927
 293   2.0000      -0.287664        -7.8277
 294   2.0000      -0.275463        -7.4957
 295   2.0000      -0.238908        -6.5010
 296   2.0000      -0.219259        -5.9663
 297   0.0000      -0.128678        -3.5015
 298   0.0000      -0.104008        -2.8302
 299   0.0000      -0.103063        -2.8045
 300   0.0000      -0.060094        -1.6352
 301   0.0000      -0.056421        -1.5353

MULLIKEN ATOMIC CHARGES
-----------------------
   0 C :    0.115688
   1 O :   -0.174265
   2 C :    0.005686
   3 C :    0.051840
   4 C :   -0.045208
   5 C :    0.054102
   6 C :   -0.028872
   7 C :   -0.020809
   8 Br:   -0.046563
   9 C :    0.306854
  10 C :   -0.359587
  11 C :   -0.167367
  12 N :    0.142847
  13 C :   -0.196247
  14 N :    0.149259
  15 C :   -0.086105
  16 C :   -0.012112
  17 C :   -0.005331
  18 C :   -0.002394
  19 C :    0.031304
  20 C :    0.041453
  21 C :   -0.060715
  22 S :    0.169759
  23 C :   -0.010384
  24 C :    0.028558
  25 C :    0.046140
  26 C :   -0.042441
  27 S :    0.068192
  28 C :    0.053338
  29 C :   -0.102800
  30 C :   -0.033402
  31 C :   -0.011449
  32 C :   -0.095367
  33 S :    0.186416
  34 C :   -0.098892
  35 C :   -0.003186
  36 C :    0.333868
  37 C :   -0.304033
  38 C :   -0.181382
  39 N :    0.178829
  40 C :   -0.181252
  41 N :    0.182609
  42 C :   -0.043217
  43 C :   -0.096701
  44 S :    0.185552
  45 C :    0.048479
  46 C :   -0.040058
  47 C :    0.042622
  48 C :    0.029981
  49 C :   -0.013888
  50 S :    0.067766
  51 C :   -0.046963
  52 C :    0.037814
  53 C :    0.042082
  54 C :   -0.023278
  55 S :    0.109685
  56 C :    0.009160
  57 C :    0.008372
  58 C :   -0.119416
  59 C :    0.157683
  60 O :   -0.155771
  61 C :   -0.017352
  62 C :    0.020864
  63 C :    0.292426
  64 C :   -0.346544
  65 C :   -0.180011
  66 N :    0.142889
  67 C :   -0.217633
  68 N :    0.159230
  69 C :   -0.036080
  70 C :    0.049564
  71 C :   -0.011605
  72 C :    0.020813
  73 Br:   -0.023160
  74 H :    0.005596
  75 H :    0.010222
  76 H :   -0.012702
  77 H :    0.020736
  78 H :   -0.005495
  79 H :   -0.006175
  80 H :   -0.010472
  81 H :   -0.003068
  82 H :   -0.002542
  83 H :   -0.007531
  84 H :    0.039401
  85 H :    0.039007
  86 H :   -0.009246
  87 H :   -0.004171
  88 H :   -0.005657
  89 H :   -0.003133
  90 H :    0.005520
  91 H :    0.008921
  92 H :    0.026476
  93 H :    0.003056
  94 H :   -0.001355
  95 H :   -0.017272
Sum of atomic charges:   -0.0000000

LOEWDIN ATOMIC CHARGES
----------------------
   0 C :    0.052067
   1 O :   -0.174627
   2 C :   -0.028507
   3 C :   -0.015920
   4 C :    0.014152
   5 C :   -0.011670
   6 C :   -0.108831
   7 C :   -0.012239
   8 Br:    0.101294
   9 C :    0.083462
  10 C :   -0.148662
  11 C :   -0.001302
  12 N :   -0.057791
  13 C :   -0.022493
  14 N :   -0.059635
  15 C :   -0.112944
  16 C :    0.038764
  17 C :   -0.073305
  18 C :   -0.115657
  19 C :   -0.032024
  20 C :   -0.026606
  21 C :   -0.189345
  22 S :    0.502059
  23 C :   -0.146935
  24 C :   -0.039514
  25 C :   -0.012481
  26 C :   -0.153442
  27 S :    0.425032
  28 C :   -0.052722
  29 C :   -0.167423
  30 C :   -0.033393
  31 C :   -0.059562
  32 C :   -0.176583
  33 S :    0.463933
  34 C :   -0.181614
  35 C :   -0.056201
  36 C :    0.075432
  37 C :   -0.090404
  38 C :   -0.014451
  39 N :   -0.025576
  40 C :   -0.020944
  41 N :   -0.025358
  42 C :   -0.034909
  43 C :   -0.163281
  44 S :    0.464050
  45 C :   -0.060038
  46 C :   -0.150348
  47 C :   -0.017907
  48 C :   -0.037070
  49 C :   -0.158252
  50 S :    0.423120
  51 C :   -0.181988
  52 C :   -0.011018
  53 C :   -0.029669
  54 C :   -0.103947
  55 S :    0.416794
  56 C :   -0.060550
  57 C :    0.048214
  58 C :   -0.101767
  59 C :    0.091208
  60 O :   -0.154265
  61 C :   -0.042545
  62 C :   -0.014114
  63 C :    0.070118
  64 C :   -0.148328
  65 C :   -0.019518
  66 N :   -0.060263
  67 C :   -0.023053
  68 N :   -0.061032
  69 C :   -0.001700
  70 C :   -0.015089
  71 C :   -0.099326
  72 C :    0.010865
  73 Br:    0.112659
  74 H :    0.040125
  75 H :    0.040006
  76 H :    0.036830
  77 H :    0.046331
  78 H :    0.039352
  79 H :    0.035457
  80 H :    0.033591
  81 H :    0.036485
  82 H :    0.037146
  83 H :    0.037762
  84 H :    0.024358
  85 H :    0.024030
  86 H :    0.037403
  87 H :    0.036779
  88 H :    0.035761
  89 H :    0.036547
  90 H :    0.041211
  91 H :    0.038292
  92 H :    0.034071
  93 H :    0.040243
  94 H :    0.037434
  95 H :    0.035701

  Mayer bond orders larger than 0.100000
B(  0-C ,  1-O ) :   2.1551 B(  0-C ,  2-C ) :   0.9283 B(  0-C , 15-C ) :   1.0138
B(  2-C ,  3-C ) :   1.3331 B(  2-C ,  7-C ) :   1.3908 B(  3-C ,  4-C ) :   1.3451
B(  3-C ,  9-C ) :   0.9800 B(  4-C ,  5-C ) :   1.3851 B(  4-C , 74-H ) :   0.9915
B(  5-C ,  6-C ) :   1.3806 B(  5-C , 75-H ) :   0.9829 B(  6-C ,  7-C ) :   1.3121
B(  6-C ,  8-Br) :   0.9833 B(  7-C , 76-H ) :   1.0083 B(  9-C , 10-C ) :   1.6030
B(  9-C , 15-C ) :   1.1193 B( 10-C , 11-C ) :   1.1553 B( 10-C , 13-C ) :   1.1395
B( 11-C , 12-N ) :   2.9225 B( 13-C , 14-N ) :   2.9802 B( 15-C , 16-C ) :   1.4146
B( 16-C , 17-C ) :   1.3695 B( 16-C , 77-H ) :   0.9335 B( 17-C , 18-C ) :   1.4344
B( 17-C , 78-H ) :   0.9499 B( 18-C , 19-C ) :   1.1751 B( 18-C , 22-S ) :   1.1390
B( 19-C , 20-C ) :   1.5622 B( 19-C , 79-H ) :   0.9973 B( 20-C , 21-C ) :   1.2002
B( 20-C , 80-H ) :   0.9950 B( 21-C , 22-S ) :   1.0834 B( 21-C , 23-C ) :   1.4411
B( 23-C , 24-C ) :   1.2103 B( 23-C , 27-S ) :   1.0795 B( 24-C , 25-C ) :   1.5600
B( 24-C , 81-H ) :   0.9963 B( 25-C , 26-C ) :   1.1722 B( 25-C , 82-H ) :   0.9976
B( 26-C , 27-S ) :   1.0448 B( 26-C , 28-C ) :   1.5470 B( 28-C , 29-C ) :   1.2137
B( 28-C , 83-H ) :   0.9568 B( 29-C , 30-C ) :   1.3662 B( 29-C , 33-S ) :   1.0803
B( 30-C , 31-C ) :   1.3815 B( 30-C , 84-H ) :   0.9572 B( 31-C , 32-C ) :   1.3788
B( 31-C , 36-C ) :   1.0023 B( 32-C , 33-S ) :   1.1128 B( 32-C , 34-C ) :   1.2612
B( 34-C , 35-C ) :   1.3795 B( 34-C , 44-S ) :   1.1104 B( 35-C , 36-C ) :   1.0036
B( 35-C , 42-C ) :   1.3828 B( 36-C , 37-C ) :   1.7026 B( 37-C , 38-C ) :   1.1456
B( 37-C , 40-C ) :   1.1423 B( 38-C , 39-N ) :   2.9563 B( 40-C , 41-N ) :   2.9579
B( 42-C , 43-C ) :   1.3650 B( 42-C , 85-H ) :   0.9588 B( 43-C , 44-S ) :   1.0823
B( 43-C , 45-C ) :   1.2167 B( 45-C , 46-C ) :   1.5415 B( 45-C , 86-H ) :   0.9560
B( 46-C , 47-C ) :   1.1753 B( 46-C , 50-S ) :   1.0481 B( 47-C , 48-C ) :   1.5591
B( 47-C , 87-H ) :   0.9983 B( 48-C , 49-C ) :   1.2139 B( 48-C , 88-H ) :   0.9944
B( 49-C , 50-S ) :   1.0734 B( 49-C , 51-C ) :   1.4442 B( 51-C , 52-C ) :   1.2234
B( 51-C , 55-S ) :   1.0585 B( 52-C , 53-C ) :   1.5421 B( 52-C , 89-H ) :   0.9960
B( 53-C , 54-C ) :   1.1800 B( 53-C , 90-H ) :   1.0002 B( 54-C , 55-S ) :   1.0845
B( 54-C , 56-C ) :   1.4992 B( 56-C , 57-C ) :   1.2159 B( 56-C , 91-H ) :   0.9648
B( 57-C , 58-C ) :   1.5419 B( 57-C , 92-H ) :   0.9331 B( 58-C , 59-C ) :   0.9811
B( 58-C , 63-C ) :   1.0744 B( 59-C , 60-O ) :   2.1707 B( 59-C , 61-C ) :   0.9280
B( 61-C , 62-C ) :   1.3227 B( 61-C , 72-C ) :   1.3884 B( 62-C , 63-C ) :   0.9991
B( 62-C , 69-C ) :   1.3741 B( 63-C , 64-C ) :   1.6101 B( 64-C , 65-C ) :   1.1313
B( 64-C , 67-C ) :   1.1680 B( 65-C , 66-N ) :   2.9821 B( 67-C , 68-N ) :   3.0062
B( 69-C , 70-C ) :   1.3712 B( 69-C , 93-H ) :   0.9855 B( 70-C , 71-C ) :   1.3935
B( 70-C , 94-H ) :   0.9844 B( 71-C , 72-C ) :   1.3383 B( 71-C , 73-Br) :   0.9985
B( 72-C , 95-H ) :   0.9899

-----------------------------------------------------------------------------
         ABSORPTION SPECTRUM VIA TRANSITION ELECTRIC DIPOLE MOMENTS
-----------------------------------------------------------------------------
State   Energy  Wavelength   fosc         T2         TX        TY        TZ
        (cm-1)    (nm)                  (au**2)     (au)      (au)      (au)
-----------------------------------------------------------------------------
   0    6104.2   1638.2   0.240591985  12.97569  -0.65589  -3.51369   0.44666
   1   10134.1    986.8   0.100521521   3.26550  -0.24384  -1.70658   0.54187
   2   11397.3    877.4   0.160844506   4.64601  -0.96971  -0.12364   1.92104
   3   12714.6    786.5   1.377467323  35.66586   2.63520   0.50946  -5.33498
   4   16438.7    608.3   0.143736803   2.87856  -0.67212  -0.47214   1.48456
   5   18005.0    555.4   0.028950984   0.52935  -0.18988  -0.69017  -0.13027
   6   18608.2    537.4   0.412043239   7.28976   0.60787   2.53798   0.69205
   7   20451.9    489.0   0.003859424   0.06212  -0.00409   0.03309  -0.24701
   8   20700.4    483.1   0.241632446   3.84284  -0.03638  -1.95650  -0.11666
   9   21455.6    466.1   0.031883300   0.48921  -0.42938  -0.39287  -0.38794
  10   21912.8    456.4   0.009045743   0.13590   0.13061   0.33730  -0.07120
  11   22594.2    442.6   0.135515863   1.97455   0.30671   1.26181   0.53695
  12   23168.4    431.6   0.046958885   0.66726   0.49000  -0.64923   0.07527
  13   23666.5    422.5   0.096183165   1.33795  -0.45570  -1.06315  -0.00269
  14   24646.0    405.7   0.030121831   0.40236  -0.04982  -0.28454  -0.56472
  15   24832.6    402.7   0.747773044   9.91341   0.61396   3.01987   0.64563
  16   25272.9    395.7   0.135567830   1.76594  -0.29963  -0.99798  -0.82474
  17   26051.4    383.9   0.068676065   0.86786  -0.09391   0.78043  -0.49997
  18   26355.8    379.4   0.033032583   0.41261  -0.18644  -0.09435   0.60741
  19   26721.4    374.2   0.116450973   1.43469   0.09861   1.15412  -0.30491
  20   26839.1    372.6   0.010381660   0.12734   0.10248   0.29405  -0.17428
  21   27260.2    366.8   0.019483630   0.23530  -0.07651  -0.36296   0.31258
  22   27786.3    359.9   0.016389837   0.19419  -0.11873  -0.19901   0.37481
  23   27953.3    357.7   0.142724588   1.68090   0.26596  -0.41327  -1.19974
  24   28315.8    353.2   0.049933973   0.58055  -0.21514  -0.73037  -0.02866
  25   28513.6    350.7   0.002923430   0.03375  -0.03631  -0.02258  -0.17868
  26   28780.0    347.5   0.015771547   0.18041  -0.12101   0.40468   0.04471
  27   29007.2    344.7   0.051077719   0.57970  -0.06115   0.04328  -0.75768
  28   29422.5    339.9   0.093140351   1.04216  -0.19605  -0.53943   0.84424
  29   29473.9    339.3   0.079172202   0.88432   0.13594  -0.08562  -0.92656
  30   30595.1    326.8   0.030195898   0.32492   0.13469   0.24294   0.49775
  31   30686.7    325.9   0.110276368   1.18306   0.01281  -0.70957  -0.82426
  32   30770.2    325.0   0.073888400   0.79053   0.01361   0.88880   0.01963
  33   30900.2    323.6   0.034320472   0.36565  -0.21501   0.07986   0.55950
  34   31048.8    322.1   0.071281538   0.75580   0.34561   0.13437  -0.78632
  35   31321.0    319.3   0.005891899   0.06193  -0.12716  -0.07208  -0.20141
  36   31623.8    316.2   0.012071840   0.12567   0.11070   0.31862  -0.10907
  37   31827.1    314.2   0.153583086   1.58863  -0.10520  -1.25382  -0.07406
  38   32005.6    312.4   0.037721914   0.38801   0.21983   0.55543  -0.17660
  39   32179.2    310.8   0.018034085   0.18450  -0.03550   0.01204  -0.42789
  40   32498.4    307.7   0.012944426   0.13113  -0.02309   0.27555   0.23381
  41   32568.6    307.0   0.020013528   0.20230   0.00392   0.38793  -0.22759
  42   32716.8    305.7   0.007309634   0.07355   0.04256   0.25721  -0.07475
  43   32994.0    303.1   0.138622354   1.38316  -0.11027   1.15853   0.16975
  44   33179.6    301.4   0.011932895   0.11840   0.19757   0.27987   0.03224
  45   33454.9    298.9   0.025388346   0.24983  -0.05231   0.49605   0.03204
  46   33630.9    297.3   0.032475468   0.31790  -0.34383  -0.13387  -0.42633
  47   33735.2    296.4   0.375713994   3.66649   0.33202  -0.25565  -1.86839
  48   33857.1    295.4   0.165498067   1.60923   0.12664   0.34012  -1.21553
  49   34058.8    293.6   0.208425506   2.01464   0.43871  -1.04746  -0.85146
  50   34208.5    292.3   0.333137709   3.20601   0.21868  -1.77709  -0.01238
  51   34450.3    290.3   0.512058315   4.89330   0.06092   0.81923   2.05389
  52   34674.7    288.4   0.033718278   0.32013   0.34595  -0.08466  -0.43964
  53   34811.1    287.3   0.013113485   0.12402  -0.14377  -0.22306  -0.23150
  54   34845.7    287.0   0.007415917   0.07006   0.05993   0.06577   0.24929
  55   35151.3    284.5   0.090453420   0.84715  -0.18997  -0.46278   0.77259
  56   35546.5    281.3   0.005484362   0.05079  -0.00746  -0.03701   0.22219
  57   35776.2    279.5   0.006846635   0.06300  -0.10214  -0.00735   0.22916
  58   35957.1    278.1   0.034241860   0.31351  -0.07976   0.19060   0.52040
  59   36084.5    277.1   0.019150511   0.17472   0.02706   0.22641   0.35032
  60   36245.5    275.9   0.019681982   0.17877  -0.08819   0.07384  -0.40686
  61   36471.0    274.2   0.027192463   0.24546  -0.01360   0.12458   0.47932
  62   36805.6    271.7   0.167623503   1.49933   0.05754  -1.09918  -0.53650
  63   36897.2    271.0   0.004722237   0.04213  -0.03630   0.14410   0.14161
  64   36944.6    270.7   0.075011648   0.66843   0.08951  -0.57893  -0.57031
  65   37006.0    270.2   0.008359579   0.07437  -0.11047  -0.13137   0.21191
  66   37185.6    268.9   0.038341014   0.33944   0.12334  -0.42010  -0.38437
  67   37205.0    268.8   0.021984066   0.19453  -0.04399  -0.43786  -0.02950
  68   37444.7    267.1   0.012577444   0.11058   0.08411  -0.07546  -0.31275
  69   37563.1    266.2   0.014008831   0.12278  -0.14952  -0.00919   0.31676
  70   37689.1    265.3   0.020102412   0.17559   0.01682  -0.41868   0.00431
  71   37953.2    263.5   0.051143057   0.44362   0.03138  -0.62942   0.21558
  72   38127.7    262.3   0.003270795   0.02824  -0.07071  -0.06997   0.13544
  73   38310.8    261.0   0.047070689   0.40449  -0.18000  -0.60569  -0.07233
  74   38367.4    260.6   0.014726663   0.12636   0.07833   0.05640  -0.34212
  75   38425.6    260.2   0.039315561   0.33684  -0.03895   0.44279   0.37317
  76   38717.7    258.3   0.027390132   0.23290  -0.04975   0.26207  -0.40217
  77   38854.9    257.4   0.002323047   0.01968  -0.03455  -0.13533  -0.01327
  78   38923.2    256.9   0.013575102   0.11482  -0.01035   0.32686  -0.08874
  79   38997.7    256.4   0.080549047   0.67998   0.17270   0.76355  -0.25912
  80   39110.5    255.7   0.001219749   0.01027   0.03891  -0.08747   0.03321
  81   39227.4    254.9   0.019091215   0.16022  -0.00207   0.39808  -0.04181
  82   39537.7    252.9   0.009103667   0.07580   0.04757  -0.26230   0.06881
  83   39611.7    252.5   0.035054220   0.29133  -0.07204   0.49634  -0.19949
  84   40031.7    249.8   0.011062761   0.09098  -0.01298  -0.29487  -0.06214
  85   40218.2    248.6   0.004558398   0.03731  -0.04008   0.16261   0.09626

FINAL SINGLE POINT ENERGY    -10235.044538993030

DIPOLE MOMENT
-------------
                                X             Y             Z
Electronic contribution:     41.47227       3.90565     -53.45449
Nuclear contribution   :    -42.99935      -5.69391      61.57225
                        -----------------------------------------
Total Dipole Moment    :     -1.52708      -1.78826       8.11776
                        -----------------------------------------
Magnitude (a.u.)       :      8.45150
Magnitude (Debye)      :     21.48201

Rotational constants in cm-1:     0.000781     0.000539     0.000330
Rotational constants in MHz :    23.419044    16.171889     9.900788

                             ****ORCA TERMINATED NORMALLY****
TOTAL RUN TIME: 0 days 0 hours 13 minutes 3 seconds 395 msec
