                         Program Version 4.2.0 -  RELEASE  -
|  1> # ORCA input file
|  2> # SCF done       -204.432655171907          0.000852282738
|  3> ! CAM-B3LYP def2-SVP def2/J RIJCOSX Grid4 TightSCF
|  4> %maxcore 5000
|  5> %tddft
|  6>     Mode sTDDFT
|  7>     Ethresh 5.0
|  8>     maxcore 5000
|  9> end
| 10>
| 11> %pal
| 12>   nprocs 6
| 13>   end
| 14> * xyz 0 1
| 15>    C       -4.63399        -2.07445         4.49253
| 16>    O       -4.95387        -3.24961         4.46034
| 17>    C       -4.59870        -1.21079         5.68779
| 18>    C       -4.19488         0.08374         5.31481
| 19>    C       -4.08386         1.06853         6.28610
| 20>    C       -4.37668         0.74544         7.60265
| 21>    C       -4.77575        -0.53983         7.94645
| 22>    C       -4.89421        -1.54297         6.99348
| 23>   Br       -5.16553        -0.93384         9.76249
| 24>    C       -3.96219         0.10789         3.87140
| 25>    C       -3.61413         1.21682         3.14707
| 26>    C       -3.40942         2.49555         3.70953
| 27>    N       -3.22927         3.55825         4.10339
| 28>    C       -3.42650         1.26264         1.74872
| 29>    N       -3.26242         1.38499         0.61887
| 30>    C       -4.20095        -1.23503         3.37212
| 31>    C       -4.00938        -1.66468         2.08332
| 32>    C       -4.21367        -2.92659         1.50629
| 33>    C       -3.91724        -3.17505         0.15944
| 34>    C       -4.20307        -4.47264        -0.21508
| 35>    C       -4.73670        -5.23369         0.85429
| 36>    S       -4.86294        -4.35827         2.30853
| 37>    C       -5.00165        -6.53692         0.37006
| 38>    C       -4.64241        -6.60562        -0.98880
| 39>    C       -4.12317        -5.31134        -1.40080
| 40>    C       -3.65303        -4.96854        -2.63368
| 41>    C       -3.62808        -5.88833        -3.70366
| 42>    N       -3.60999        -6.63990        -4.56926
| 43>    C       -3.15440        -3.67932        -2.91926
| 44>    N       -2.74388        -2.63584        -3.15623
| 45>    C       -4.87275        -7.85950        -1.55023
| 46>    C       -5.40514        -8.74626        -0.62991
| 47>    S       -5.62399        -8.01812         0.95343
| 48>    C       -5.75695       -10.10187        -0.84823
| 49>    C       -6.28352       -10.99583         0.06722
| 50>    C       -6.49648       -12.25269        -0.49633
| 51>    C       -6.12974       -12.31374        -1.85260
| 52>    S       -5.52546       -10.82696        -2.43338
| 53>    C       -6.37054       -13.62731        -2.32757
| 54>    C       -6.88824       -14.39804        -1.27147
| 55>    C       -6.98919       -13.55894        -0.08731
| 56>    C       -7.44740       -13.92107         1.14450
| 57>    C       -7.89945       -15.22955         1.41891
| 58>    N       -8.26400       -16.29392         1.63910
| 59>    C       -7.49770       -13.01048         2.22155
| 60>    N       -7.53628       -12.26892         3.09485
| 61>    C       -7.14522       -15.71776        -1.63825
| 62>    C       -6.82847       -15.95650        -2.96386
| 63>    S       -6.20639       -14.52373        -3.77096
| 64>    C       -6.94004       -17.17980        -3.67097
| 65>    C       -6.63799       -17.41416        -5.00174
| 66>    C       -6.84602       -18.74560        -5.35446
| 67>    C       -7.31057       -19.53117        -4.28379
| 68>    S       -7.49614       -18.62706        -2.84606
| 69>    C       -7.47962       -20.86258        -4.73581
| 70>    C       -7.11656       -20.91686        -6.09825
| 71>    C       -6.72294       -19.58885        -6.53369
| 72>    C       -6.35355       -19.21678        -7.79255
| 73>    C       -6.30717       -20.15193        -8.84850
| 74>    N       -6.27178       -20.92769        -9.69217
| 75>    C       -5.99953       -17.88837        -8.10913
| 76>    N       -5.71136       -16.80614        -8.35378
| 77>    C       -7.25989       -22.18313        -6.64632
| 78>    C       -7.73498       -23.10515        -5.72315
| 79>    S       -7.97457       -22.37527        -4.13787
| 80>    C       -7.97424       -24.48478        -5.89078
| 81>    C       -8.12146       -25.19350        -7.04582
| 82>    C       -7.91921       -26.66909        -7.00503
| 83>    O       -7.85273       -27.36352        -6.01921
| 84>    C       -7.76251       -27.07339        -8.41918
| 85>    C       -7.99050       -25.96263        -9.25237
| 86>    C       -8.36548       -24.81848        -8.42304
| 87>    C       -9.05983       -23.72539        -8.87083
| 88>    C       -9.38371       -23.50077       -10.22618
| 89>    N       -9.67719       -23.27386       -11.31159
| 90>    C       -9.61712       -22.74614        -8.02538
| 91>    N      -10.10797       -21.93960        -7.37200
| 92>    C       -7.85557       -26.09212       -10.62648
| 93>    C       -7.50829       -27.32948       -11.14695
| 94>    C       -7.30580       -28.41883       -10.30864
| 95>    C       -7.42574       -28.31026        -8.92917
| 96>   Br       -6.84411       -30.09609       -11.06934
| 97>    H       -3.77482         2.07205         6.04517
| 98>    H       -4.29341         1.50012         8.36953
| 99>    H       -5.20285        -2.54357         7.25357
|100>    H       -3.63153        -0.93613         1.37614
|101>    H       -3.51271        -2.41596        -0.48667
|102>    H       -4.67007        -8.13033        -2.57092
|103>    H       -6.49251       -10.72896         1.08767
|104>    H       -7.54011       -16.47761        -0.98793
|105>    H       -6.28459       -16.64455        -5.66446
|106>    H       -6.98913       -22.44756        -7.65207
|107>    H       -7.97203       -25.08580        -4.98634
|108>    H       -7.99921       -25.25501       -11.29009
|109>    H       -7.39342       -27.44947       -12.21322
|110>    H       -7.26330       -29.15287        -8.27520
|111> *
|112>
|113>                          ****END OF INPUT****

CARTESIAN COORDINATES (ANGSTROEM)
---------------------------------
  C     -4.633990   -2.074450    4.492530
  O     -4.953870   -3.249610    4.460340
  C     -4.598700   -1.210790    5.687790
  C     -4.194880    0.083740    5.314810
  C     -4.083860    1.068530    6.286100
  C     -4.376680    0.745440    7.602650
  C     -4.775750   -0.539830    7.946450
  C     -4.894210   -1.542970    6.993480
  Br    -5.165530   -0.933840    9.762490
  C     -3.962190    0.107890    3.871400
  C     -3.614130    1.216820    3.147070
  C     -3.409420    2.495550    3.709530
  N     -3.229270    3.558250    4.103390
  C     -3.426500    1.262640    1.748720
  N     -3.262420    1.384990    0.618870
  C     -4.200950   -1.235030    3.372120
  C     -4.009380   -1.664680    2.083320
  C     -4.213670   -2.926590    1.506290
  C     -3.917240   -3.175050    0.159440
  C     -4.203070   -4.472640   -0.215080
  C     -4.736700   -5.233690    0.854290
  S     -4.862940   -4.358270    2.308530
  C     -5.001650   -6.536920    0.370060
  C     -4.642410   -6.605620   -0.988800
  C     -4.123170   -5.311340   -1.400800
  C     -3.653030   -4.968540   -2.633680
  C     -3.628080   -5.888330   -3.703660
  N     -3.609990   -6.639900   -4.569260
  C     -3.154400   -3.679320   -2.919260
  N     -2.743880   -2.635840   -3.156230
  C     -4.872750   -7.859500   -1.550230
  C     -5.405140   -8.746260   -0.629910
  S     -5.623990   -8.018120    0.953430
  C     -5.756950  -10.101870   -0.848230
  C     -6.283520  -10.995830    0.067220
  C     -6.496480  -12.252690   -0.496330
  C     -6.129740  -12.313740   -1.852600
  S     -5.525460  -10.826960   -2.433380
  C     -6.370540  -13.627310   -2.327570
  C     -6.888240  -14.398040   -1.271470
  C     -6.989190  -13.558940   -0.087310
  C     -7.447400  -13.921070    1.144500
  C     -7.899450  -15.229550    1.418910
  N     -8.264000  -16.293920    1.639100
  C     -7.497700  -13.010480    2.221550
  N     -7.536280  -12.268920    3.094850
  C     -7.145220  -15.717760   -1.638250
  C     -6.828470  -15.956500   -2.963860
  S     -6.206390  -14.523730   -3.770960
  C     -6.940040  -17.179800   -3.670970
  C     -6.637990  -17.414160   -5.001740
  C     -6.846020  -18.745600   -5.354460
  C     -7.310570  -19.531170   -4.283790
  S     -7.496140  -18.627060   -2.846060
  C     -7.479620  -20.862580   -4.735810
  C     -7.116560  -20.916860   -6.098250
  C     -6.722940  -19.588850   -6.533690
  C     -6.353550  -19.216780   -7.792550
  C     -6.307170  -20.151930   -8.848500
  N     -6.271780  -20.927690   -9.692170
  C     -5.999530  -17.888370   -8.109130
  N     -5.711360  -16.806140   -8.353780
  C     -7.259890  -22.183130   -6.646320
  C     -7.734980  -23.105150   -5.723150
  S     -7.974570  -22.375270   -4.137870
  C     -7.974240  -24.484780   -5.890780
  C     -8.121460  -25.193500   -7.045820
  C     -7.919210  -26.669090   -7.005030
  O     -7.852730  -27.363520   -6.019210
  C     -7.762510  -27.073390   -8.419180
  C     -7.990500  -25.962630   -9.252370
  C     -8.365480  -24.818480   -8.423040
  C     -9.059830  -23.725390   -8.870830
  C     -9.383710  -23.500770  -10.226180
  N     -9.677190  -23.273860  -11.311590
  C     -9.617120  -22.746140   -8.025380
  N    -10.107970  -21.939600   -7.372000
  C     -7.855570  -26.092120  -10.626480
  C     -7.508290  -27.329480  -11.146950
  C     -7.305800  -28.418830  -10.308640
  C     -7.425740  -28.310260   -8.929170
  Br    -6.844110  -30.096090  -11.069340
  H     -3.774820    2.072050    6.045170
  H     -4.293410    1.500120    8.369530
  H     -5.202850   -2.543570    7.253570
  H     -3.631530   -0.936130    1.376140
  H     -3.512710   -2.415960   -0.486670
  H     -4.670070   -8.130330   -2.570920
  H     -6.492510  -10.728960    1.087670
  H     -7.540110  -16.477610   -0.987930
  H     -6.284590  -16.644550   -5.664460
  H     -6.989130  -22.447560   -7.652070
  H     -7.972030  -25.085800   -4.986340
  H     -7.999210  -25.255010  -11.290090
  H     -7.393420  -27.449470  -12.213220
  H     -7.263300  -29.152870   -8.275200

 Total Charge           Charge          ....    0
 Multiplicity           Mult            ....    1
 Number of Electrons    NEL             ....  638
 Basis Dimension        Dim             .... 1278

ORBITAL ENERGIES
----------------

  NO   OCC          E(Eh)            E(eV)
   0   2.0000    -482.877889    -13139.7754
   1   2.0000    -482.875288    -13139.7046
   2   2.0000     -89.006898     -2422.0008
   3   2.0000     -89.006646     -2421.9940
   4   2.0000     -89.006135     -2421.9801
   5   2.0000     -89.005452     -2421.9615
   6   2.0000     -89.004527     -2421.9363
   7   2.0000     -88.998465     -2421.7713
   8   2.0000     -62.555574     -1702.2237
   9   2.0000     -62.552995     -1702.1535
  10   2.0000     -56.389418     -1534.4341
  11   2.0000     -56.386887     -1534.3652
  12   2.0000     -56.386870     -1534.3647
  13   2.0000     -56.386835     -1534.3638
  14   2.0000     -56.384302     -1534.2949
  15   2.0000     -56.384300     -1534.2948
  16   2.0000     -19.236106      -523.4411
  17   2.0000     -19.225598      -523.1551
  18   2.0000     -14.444133      -393.0449
  19   2.0000     -14.444012      -393.0416
  20   2.0000     -14.441510      -392.9735
  21   2.0000     -14.441328      -392.9685
  22   2.0000     -14.440477      -392.9454
  23   2.0000     -14.438196      -392.8833
  24   2.0000     -14.425249      -392.5310
  25   2.0000     -14.424967      -392.5233
  26   2.0000     -14.421453      -392.4277
  27   2.0000     -14.419878      -392.3848
  28   2.0000     -10.383456      -282.5482
  29   2.0000     -10.379769      -282.4479
  30   2.0000     -10.377121      -282.3758
  31   2.0000     -10.376459      -282.3578
  32   2.0000     -10.375552      -282.3331
  33   2.0000     -10.366503      -282.0869
  34   2.0000     -10.364005      -282.0189
  35   2.0000     -10.363198      -281.9970
  36   2.0000     -10.352428      -281.7039
  37   2.0000     -10.352324      -281.7011
  38   2.0000     -10.351874      -281.6888
  39   2.0000     -10.351339      -281.6742
  40   2.0000     -10.350947      -281.6636
  41   2.0000     -10.350712      -281.6572
  42   2.0000     -10.348852      -281.6066
  43   2.0000     -10.348726      -281.6031
  44   2.0000     -10.348645      -281.6009
  45   2.0000     -10.348097      -281.5860
  46   2.0000     -10.347562      -281.5715
  47   2.0000     -10.346150      -281.5331
  48   2.0000     -10.345285      -281.5095
  49   2.0000     -10.345146      -281.5057
  50   2.0000     -10.344335      -281.4837
  51   2.0000     -10.344131      -281.4781
  52   2.0000     -10.343985      -281.4741
  53   2.0000     -10.343966      -281.4736
  54   2.0000     -10.341455      -281.4053
  55   2.0000     -10.341329      -281.4019
  56   2.0000     -10.340575      -281.3814
  57   2.0000     -10.337671      -281.3023
  58   2.0000     -10.335644      -281.2472
  59   2.0000     -10.335375      -281.2398
  60   2.0000     -10.334739      -281.2225
  61   2.0000     -10.332904      -281.1726
  62   2.0000     -10.327056      -281.0135
  63   2.0000     -10.326317      -280.9934
  64   2.0000     -10.324177      -280.9351
  65   2.0000     -10.322165      -280.8804
  66   2.0000     -10.322029      -280.8767
  67   2.0000     -10.321694      -280.8676
  68   2.0000     -10.321417      -280.8600
  69   2.0000     -10.320933      -280.8469
  70   2.0000     -10.319444      -280.8064
  71   2.0000     -10.319420      -280.8057
  72   2.0000     -10.318940      -280.7926
  73   2.0000     -10.318361      -280.7769
  74   2.0000     -10.317783      -280.7612
  75   2.0000     -10.317332      -280.7489
  76   2.0000     -10.316999      -280.7398
  77   2.0000     -10.316309      -280.7210
  78   2.0000     -10.315845      -280.7084
  79   2.0000     -10.314071      -280.6601
  80   2.0000     -10.311905      -280.6012
  81   2.0000     -10.310105      -280.5522
  82   2.0000     -10.309291      -280.5301
  83   2.0000     -10.308939      -280.5205
  84   2.0000     -10.308214      -280.5008
  85   2.0000     -10.308023      -280.4956
  86   2.0000     -10.307808      -280.4897
  87   2.0000     -10.307129      -280.4712
  88   2.0000     -10.307088      -280.4701
  89   2.0000     -10.305004      -280.4134
  90   2.0000      -8.784846      -239.0478
  91   2.0000      -8.782282      -238.9780
  92   2.0000      -8.101213      -220.4452
  93   2.0000      -8.101000      -220.4394
  94   2.0000      -8.100521      -220.4264
  95   2.0000      -8.099826      -220.4075
  96   2.0000      -8.099108      -220.3879
  97   2.0000      -8.090766      -220.1609
  98   2.0000      -6.620713      -180.1587
  99   2.0000      -6.618139      -180.0887
 100   2.0000      -6.606951      -179.7843
 101   2.0000      -6.606497      -179.7719
 102   2.0000      -6.604387      -179.7145
 103   2.0000      -6.603950      -179.7026
 104   2.0000      -6.070510      -165.1870
 105   2.0000      -6.070317      -165.1817
 106   2.0000      -6.069846      -165.1689
 107   2.0000      -6.069126      -165.1493
 108   2.0000      -6.068270      -165.1260
 109   2.0000      -6.066316      -165.0729
 110   2.0000      -6.066102      -165.0670
 111   2.0000      -6.065634      -165.0543
 112   2.0000      -6.064933      -165.0352
 113   2.0000      -6.064101      -165.0126
 114   2.0000      -6.063512      -164.9966
 115   2.0000      -6.063288      -164.9904
 116   2.0000      -6.062767      -164.9763
 117   2.0000      -6.062114      -164.9585
 118   2.0000      -6.061645      -164.9458
 119   2.0000      -6.060212      -164.9067
 120   2.0000      -6.055406      -164.7760
 121   2.0000      -6.053318      -164.7192
 122   2.0000      -2.736676       -74.4687
 123   2.0000      -2.734081       -74.3981
 124   2.0000      -2.732858       -74.3648
 125   2.0000      -2.732536       -74.3561
 126   2.0000      -2.730299       -74.2952
 127   2.0000      -2.729977       -74.2864
 128   2.0000      -2.721598       -74.0584
 129   2.0000      -2.721588       -74.0582
 130   2.0000      -2.719039       -73.9888
 131   2.0000      -2.719030       -73.9886
 132   2.0000      -1.151715       -31.3398
 133   2.0000      -1.141380       -31.0585
 134   2.0000      -1.062139       -28.9023
 135   2.0000      -1.059204       -28.8224
 136   2.0000      -1.056599       -28.7515
 137   2.0000      -1.036319       -28.1997
 138   2.0000      -1.033593       -28.1255
 139   2.0000      -1.031802       -28.0768
 140   2.0000      -1.028375       -27.9835
 141   2.0000      -1.028113       -27.9764
 142   2.0000      -1.023012       -27.8376
 143   2.0000      -1.021084       -27.7851
 144   2.0000      -1.018921       -27.7263
 145   2.0000      -1.016836       -27.6695
 146   2.0000      -1.012823       -27.5603
 147   2.0000      -1.010022       -27.4841
 148   2.0000      -1.008138       -27.4328
 149   2.0000      -1.003565       -27.3084
 150   2.0000      -1.001394       -27.2493
 151   2.0000      -0.999572       -27.1997
 152   2.0000      -0.979753       -26.6604
 153   2.0000      -0.973924       -26.5018
 154   2.0000      -0.970835       -26.4178
 155   2.0000      -0.967743       -26.3336
 156   2.0000      -0.966247       -26.2929
 157   2.0000      -0.937295       -25.5051
 158   2.0000      -0.931764       -25.3546
 159   2.0000      -0.922290       -25.0968
 160   2.0000      -0.918020       -24.9806
 161   2.0000      -0.916354       -24.9353
 162   2.0000      -0.906959       -24.6796
 163   2.0000      -0.904591       -24.6152
 164   2.0000      -0.889182       -24.1959
 165   2.0000      -0.887805       -24.1584
 166   2.0000      -0.885009       -24.0823
 167   2.0000      -0.882738       -24.0205
 168   2.0000      -0.876620       -23.8540
 169   2.0000      -0.875588       -23.8260
 170   2.0000      -0.869290       -23.6546
 171   2.0000      -0.864833       -23.5333
 172   2.0000      -0.862910       -23.4810
 173   2.0000      -0.859297       -23.3827
 174   2.0000      -0.846105       -23.0237
 175   2.0000      -0.825488       -22.4627
 176   2.0000      -0.809228       -22.0202
 177   2.0000      -0.798630       -21.7318
 178   2.0000      -0.794474       -21.6187
 179   2.0000      -0.788252       -21.4494
 180   2.0000      -0.782955       -21.3053
 181   2.0000      -0.778456       -21.1829
 182   2.0000      -0.774497       -21.0751
 183   2.0000      -0.768451       -20.9106
 184   2.0000      -0.750525       -20.4228
 185   2.0000      -0.732427       -19.9304
 186   2.0000      -0.721816       -19.6416
 187   2.0000      -0.717480       -19.5236
 188   2.0000      -0.711881       -19.3713
 189   2.0000      -0.708716       -19.2851
 190   2.0000      -0.706827       -19.2337
 191   2.0000      -0.702803       -19.1243
 192   2.0000      -0.702265       -19.1096
 193   2.0000      -0.696394       -18.9499
 194   2.0000      -0.695569       -18.9274
 195   2.0000      -0.691339       -18.8123
 196   2.0000      -0.687386       -18.7047
 197   2.0000      -0.685509       -18.6537
 198   2.0000      -0.665522       -18.1098
 199   2.0000      -0.661388       -17.9973
 200   2.0000      -0.650420       -17.6988
 201   2.0000      -0.647629       -17.6229
 202   2.0000      -0.643377       -17.5072
 203   2.0000      -0.640953       -17.4412
 204   2.0000      -0.636113       -17.3095
 205   2.0000      -0.633854       -17.2480
 206   2.0000      -0.632047       -17.1989
 207   2.0000      -0.630199       -17.1486
 208   2.0000      -0.624215       -16.9858
 209   2.0000      -0.622875       -16.9493
 210   2.0000      -0.621435       -16.9101
 211   2.0000      -0.615327       -16.7439
 212   2.0000      -0.599320       -16.3083
 213   2.0000      -0.593618       -16.1532
 214   2.0000      -0.590019       -16.0552
 215   2.0000      -0.584928       -15.9167
 216   2.0000      -0.578774       -15.7493
 217   2.0000      -0.567043       -15.4300
 218   2.0000      -0.565052       -15.3758
 219   2.0000      -0.563340       -15.3293
 220   2.0000      -0.561630       -15.2827
 221   2.0000      -0.559087       -15.2135
 222   2.0000      -0.557861       -15.1802
 223   2.0000      -0.551824       -15.0159
 224   2.0000      -0.551325       -15.0023
 225   2.0000      -0.549550       -14.9540
 226   2.0000      -0.547813       -14.9068
 227   2.0000      -0.545155       -14.8344
 228   2.0000      -0.543413       -14.7870
 229   2.0000      -0.539171       -14.6716
 230   2.0000      -0.536930       -14.6106
 231   2.0000      -0.534188       -14.5360
 232   2.0000      -0.528245       -14.3743
 233   2.0000      -0.526165       -14.3177
 234   2.0000      -0.522600       -14.2207
 235   2.0000      -0.521715       -14.1966
 236   2.0000      -0.520522       -14.1641
 237   2.0000      -0.516868       -14.0647
 238   2.0000      -0.515675       -14.0322
 239   2.0000      -0.513173       -13.9642
 240   2.0000      -0.512265       -13.9394
 241   2.0000      -0.511764       -13.9258
 242   2.0000      -0.507239       -13.8027
 243   2.0000      -0.505225       -13.7479
 244   2.0000      -0.504804       -13.7364
 245   2.0000      -0.502883       -13.6841
 246   2.0000      -0.501732       -13.6528
 247   2.0000      -0.498983       -13.5780
 248   2.0000      -0.493733       -13.4352
 249   2.0000      -0.493388       -13.4258
 250   2.0000      -0.490121       -13.3369
 251   2.0000      -0.487791       -13.2735
 252   2.0000      -0.485565       -13.2129
 253   2.0000      -0.482444       -13.1280
 254   2.0000      -0.478968       -13.0334
 255   2.0000      -0.474595       -12.9144
 256   2.0000      -0.473284       -12.8787
 257   2.0000      -0.472009       -12.8440
 258   2.0000      -0.471551       -12.8316
 259   2.0000      -0.471185       -12.8216
 260   2.0000      -0.470015       -12.7898
 261   2.0000      -0.469703       -12.7813
 262   2.0000      -0.468270       -12.7423
 263   2.0000      -0.465334       -12.6624
 264   2.0000      -0.463857       -12.6222
 265   2.0000      -0.461089       -12.5469
 266   2.0000      -0.459120       -12.4933
 267   2.0000      -0.456694       -12.4273
 268   2.0000      -0.456377       -12.4186
 269   2.0000      -0.455616       -12.3980
 270   2.0000      -0.454992       -12.3810
 271   2.0000      -0.454071       -12.3559
 272   2.0000      -0.453481       -12.3399
 273   2.0000      -0.451405       -12.2833
 274   2.0000      -0.450966       -12.2714
 275   2.0000      -0.450597       -12.2614
 276   2.0000      -0.450044       -12.2463
 277   2.0000      -0.449228       -12.2241
 278   2.0000      -0.449027       -12.2186
 279   2.0000      -0.447729       -12.1833
 280   2.0000      -0.447204       -12.1690
 281   2.0000      -0.442481       -12.0405
 282   2.0000      -0.439914       -11.9707
 283   2.0000      -0.439286       -11.9536
 284   2.0000      -0.437174       -11.8961
 285   2.0000      -0.435549       -11.8519
 286   2.0000      -0.434957       -11.8358
 287   2.0000      -0.434695       -11.8287
 288   2.0000      -0.432331       -11.7643
 289   2.0000      -0.430259       -11.7080
 290   2.0000      -0.425649       -11.5825
 291   2.0000      -0.424578       -11.5534
 292   2.0000      -0.421247       -11.4627
 293   2.0000      -0.417811       -11.3692
 294   2.0000      -0.414655       -11.2833
 295   2.0000      -0.408183       -11.1072
 296   2.0000      -0.404604       -11.0098
 297   2.0000      -0.398736       -10.8502
 298   2.0000      -0.384566       -10.4646
 299   2.0000      -0.373407       -10.1609
 300   2.0000      -0.372356       -10.1323
 301   2.0000      -0.369977       -10.0676
 302   2.0000      -0.367236        -9.9930
 303   2.0000      -0.363478        -9.8907
 304   2.0000      -0.361451        -9.8356
 305   2.0000      -0.358939        -9.7672
 306   2.0000      -0.357202        -9.7200
 307   2.0000      -0.355783        -9.6813
 308   2.0000      -0.351219        -9.5572
 309   2.0000      -0.346572        -9.4307
 310   2.0000      -0.341461        -9.2916
 311   2.0000      -0.335353        -9.1254
 312   2.0000      -0.334181        -9.0935
 313   2.0000      -0.330346        -8.9892
 314   2.0000      -0.317398        -8.6368
 315   2.0000      -0.314396        -8.5551
 316   2.0000      -0.304736        -8.2923
 317   2.0000      -0.277834        -7.5603
 318   2.0000      -0.252928        -6.8825
 319   0.0000      -0.126578        -3.4444
 320   0.0000      -0.118781        -3.2322
 321   0.0000      -0.115750        -3.1497
 322   0.0000      -0.094597        -2.5741
 323   0.0000      -0.094250        -2.5647

MULLIKEN ATOMIC CHARGES
-----------------------
   0 C :    0.167056
   1 O :   -0.183720
   2 C :   -0.022645
   3 C :    0.028380
   4 C :   -0.023218
   5 C :    0.049008
   6 C :   -0.005076
   7 C :   -0.009375
   8 Br:   -0.015197
   9 C :    0.319560
  10 C :   -0.346421
  11 C :   -0.188452
  12 N :    0.158864
  13 C :   -0.193369
  14 N :    0.158687
  15 C :   -0.092328
  16 C :   -0.025775
  17 C :   -0.055842
  18 C :   -0.059517
  19 C :    0.048594
  20 C :   -0.066563
  21 S :    0.246516
  22 C :   -0.107964
  23 C :    0.026847
  24 C :    0.301679
  25 C :   -0.295265
  26 C :   -0.186083
  27 N :    0.174966
  28 C :   -0.196033
  29 N :    0.191983
  30 C :   -0.070124
  31 C :   -0.042731
  32 S :    0.208247
  33 C :   -0.055251
  34 C :   -0.061777
  35 C :    0.017330
  36 C :   -0.097143
  37 S :    0.205901
  38 C :   -0.097099
  39 C :    0.019667
  40 C :    0.297342
  41 C :   -0.293058
  42 C :   -0.188956
  43 N :    0.179548
  44 C :   -0.186717
  45 N :    0.178619
  46 C :   -0.063748
  47 C :   -0.052308
  48 S :    0.206235
  49 C :   -0.046008
  50 C :   -0.066038
  51 C :    0.027921
  52 C :   -0.106921
  53 S :    0.205605
  54 C :   -0.070432
  55 C :   -0.005193
  56 C :    0.300567
  57 C :   -0.283971
  58 C :   -0.184009
  59 N :    0.175661
  60 C :   -0.189005
  61 N :    0.178764
  62 C :    0.000182
  63 C :   -0.113767
  64 S :    0.220791
  65 C :    0.084887
  66 C :   -0.133601
  67 C :    0.134440
  68 O :   -0.136358
  69 C :   -0.003906
  70 C :    0.013002
  71 C :    0.261398
  72 C :   -0.324789
  73 C :   -0.172289
  74 N :    0.164629
  75 C :   -0.201324
  76 N :    0.166491
  77 C :   -0.020841
  78 C :    0.046759
  79 C :   -0.005976
  80 C :   -0.010545
  81 Br:   -0.016615
  82 H :    0.009459
  83 H :    0.008488
  84 H :    0.003157
  85 H :    0.016966
  86 H :    0.029561
  87 H :    0.015104
  88 H :    0.014805
  89 H :    0.014154
  90 H :    0.014713
  91 H :    0.025465
  92 H :    0.023007
  93 H :    0.016876
  94 H :    0.009884
  95 H :    0.005576
Sum of atomic charges:   -0.0000000

LOEWDIN ATOMIC CHARGES
----------------------
   0 C :    0.086799
   1 O :   -0.168433
   2 C :   -0.038769
   3 C :   -0.014463
   4 C :    0.009415
   5 C :   -0.011146
   6 C :   -0.098391
   7 C :    0.000697
   8 Br:    0.118987
   9 C :    0.075142
  10 C :   -0.135348
  11 C :   -0.018909
  12 N :   -0.047250
  13 C :   -0.023134
  14 N :   -0.043364
  15 C :   -0.113698
  16 C :    0.057657
  17 C :   -0.184760
  18 C :    0.014526
  19 C :   -0.078833
  20 C :   -0.164303
  21 S :    0.548717
  22 C :   -0.188039
  23 C :   -0.050902
  24 C :    0.077228
  25 C :   -0.097382
  26 C :   -0.015788
  27 N :   -0.030478
  28 C :   -0.020561
  29 N :   -0.019835
  30 C :   -0.041789
  31 C :   -0.167886
  32 S :    0.492389
  33 C :   -0.181887
  34 C :   -0.032235
  35 C :   -0.067080
  36 C :   -0.176553
  37 S :    0.492916
  38 C :   -0.178423
  39 C :   -0.065879
  40 C :    0.080874
  41 C :   -0.096902
  42 C :   -0.016391
  43 N :   -0.027974
  44 C :   -0.016584
  45 N :   -0.027719
  46 C :   -0.034356
  47 C :   -0.180016
  48 S :    0.492328
  49 C :   -0.171078
  50 C :   -0.038588
  51 C :   -0.053813
  52 C :   -0.184758
  53 S :    0.491905
  54 C :   -0.157762
  55 C :   -0.067377
  56 C :    0.081613
  57 C :   -0.094673
  58 C :   -0.013067
  59 N :   -0.028355
  60 C :   -0.016478
  61 N :   -0.027621
  62 C :    0.011297
  63 C :   -0.182463
  64 S :    0.503513
  65 C :    0.044013
  66 C :   -0.093352
  67 C :    0.084434
  68 O :   -0.135571
  69 C :   -0.040657
  70 C :   -0.012667
  71 C :    0.064295
  72 C :   -0.133394
  73 C :   -0.020091
  74 N :   -0.041340
  75 C :   -0.015383
  76 N :   -0.044187
  77 C :    0.008867
  78 C :   -0.010261
  79 C :   -0.098763
  80 C :    0.001287
  81 Br:    0.118037
  82 H :    0.043607
  83 H :    0.041420
  84 H :    0.044117
  85 H :    0.054094
  86 H :    0.048719
  87 H :    0.036507
  88 H :    0.037117
  89 H :    0.036732
  90 H :    0.037072
  91 H :    0.042762
  92 H :    0.046665
  93 H :    0.044988
  94 H :    0.041600
  95 H :    0.044827

  Mayer bond orders larger than 0.100000
B(  0-C ,  1-O ) :   2.1165 B(  0-C ,  2-C ) :   0.9631 B(  0-C , 15-C ) :   0.9880
B(  2-C ,  3-C ) :   1.3325 B(  2-C ,  7-C ) :   1.3771 B(  3-C ,  4-C ) :   1.3693
B(  3-C ,  9-C ) :   0.9890 B(  4-C ,  5-C ) :   1.3802 B(  4-C , 82-H ) :   0.9830
B(  5-C ,  6-C ) :   1.3893 B(  5-C , 83-H ) :   0.9851 B(  6-C ,  7-C ) :   1.3345
B(  6-C ,  8-Br) :   0.9953 B(  7-C , 84-H ) :   1.0077 B(  9-C , 10-C ) :   1.6356
B(  9-C , 15-C ) :   1.0767 B( 10-C , 11-C ) :   1.1434 B( 10-C , 13-C ) :   1.1423
B( 11-C , 12-N ) :   2.9745 B( 13-C , 14-N ) :   2.9645 B( 15-C , 16-C ) :   1.4916
B( 16-C , 17-C ) :   1.2737 B( 16-C , 85-H ) :   0.9381 B( 17-C , 18-C ) :   1.3272
B( 17-C , 21-S ) :   1.0661 B( 18-C , 19-C ) :   1.3362 B( 18-C , 86-H ) :   1.0073
B( 19-C , 20-C ) :   1.3499 B( 19-C , 24-C ) :   0.9870 B( 20-C , 21-S ) :   1.1311
B( 20-C , 22-C ) :   1.2073 B( 22-C , 23-C ) :   1.4350 B( 22-C , 32-S ) :   1.1094
B( 23-C , 24-C ) :   0.9951 B( 23-C , 30-C ) :   1.3080 B( 24-C , 25-C ) :   1.7193
B( 25-C , 26-C ) :   1.1328 B( 25-C , 28-C ) :   1.1369 B( 26-C , 27-N ) :   2.9897
B( 28-C , 29-N ) :   2.9965 B( 30-C , 31-C ) :   1.4460 B( 30-C , 87-H ) :   0.9857
B( 31-C , 32-S ) :   1.1214 B( 31-C , 33-C ) :   1.1732 B( 33-C , 34-C ) :   1.4540
B( 33-C , 37-S ) :   1.1077 B( 34-C , 35-C ) :   1.3060 B( 34-C , 88-H ) :   0.9863
B( 35-C , 36-C ) :   1.4414 B( 35-C , 40-C ) :   0.9933 B( 36-C , 37-S ) :   1.1259
B( 36-C , 38-C ) :   1.1889 B( 38-C , 39-C ) :   1.4411 B( 38-C , 48-S ) :   1.1239
B( 39-C , 40-C ) :   0.9940 B( 39-C , 46-C ) :   1.3074 B( 40-C , 41-C ) :   1.7192
B( 41-C , 42-C ) :   1.1343 B( 41-C , 44-C ) :   1.1323 B( 42-C , 43-N ) :   2.9920
B( 44-C , 45-N ) :   2.9929 B( 46-C , 47-C ) :   1.4549 B( 46-C , 89-H ) :   0.9850
B( 47-C , 48-S ) :   1.1092 B( 47-C , 49-C ) :   1.1718 B( 49-C , 50-C ) :   1.4494
B( 49-C , 53-S ) :   1.1191 B( 50-C , 51-C ) :   1.3114 B( 50-C , 90-H ) :   0.9853
B( 51-C , 52-C ) :   1.4415 B( 51-C , 56-C ) :   0.9921 B( 52-C , 53-S ) :   1.1126
B( 52-C , 54-C ) :   1.1987 B( 54-C , 55-C ) :   1.4050 B( 54-C , 64-S ) :   1.1585
B( 55-C , 56-C ) :   0.9997 B( 55-C , 62-C ) :   1.3640 B( 56-C , 57-C ) :   1.7205
B( 57-C , 58-C ) :   1.1345 B( 57-C , 60-C ) :   1.1329 B( 58-C , 59-N ) :   2.9841
B( 60-C , 61-N ) :   2.9924 B( 62-C , 63-C ) :   1.3933 B( 62-C , 91-H ) :   0.9781
B( 63-C , 64-S ) :   1.0867 B( 63-C , 65-C ) :   1.1412 B( 65-C , 66-C ) :   1.6647
B( 65-C , 92-H ) :   0.9299 B( 66-C , 67-C ) :   0.9474 B( 66-C , 71-C ) :   1.0389
B( 67-C , 68-O ) :   2.2688 B( 67-C , 69-C ) :   0.9197 B( 69-C , 70-C ) :   1.3337
B( 69-C , 80-C ) :   1.3823 B( 70-C , 71-C ) :   1.0029 B( 70-C , 77-C ) :   1.3687
B( 71-C , 72-C ) :   1.6553 B( 72-C , 73-C ) :   1.1229 B( 72-C , 75-C ) :   1.1704
B( 73-C , 74-N ) :   2.9987 B( 75-C , 76-N ) :   2.9956 B( 77-C , 78-C ) :   1.3819
B( 77-C , 93-H ) :   0.9869 B( 78-C , 79-C ) :   1.3879 B( 78-C , 94-H ) :   0.9858
B( 79-C , 80-C ) :   1.3402 B( 79-C , 81-Br) :   0.9952 B( 80-C , 95-H ) :   1.0073

-----------------------------------------------------------------------------
         ABSORPTION SPECTRUM VIA TRANSITION ELECTRIC DIPOLE MOMENTS
-----------------------------------------------------------------------------
State   Energy  Wavelength   fosc         T2         TX        TY        TZ
        (cm-1)    (nm)                  (au**2)     (au)      (au)      (au)
-----------------------------------------------------------------------------
   0   11259.3    888.2   0.639897967  18.71009   0.67623   3.90630   1.73021
   1   12708.8    786.9   0.174903456   4.53075  -0.30507  -1.86553  -0.97852
   2   13429.4    744.6   0.142588052   3.49545  -0.31961  -1.70437  -0.69887
   3   19519.4    512.3   1.671979896  28.19936   0.96399   4.56160   2.54203
   4   20237.9    494.1   0.014549416   0.23668  -0.00986  -0.46733  -0.13484
   5   20782.9    481.2   0.322865455   5.11435   0.13276   2.11019   0.80240
   6   22219.8    450.0   0.149413865   2.21373  -0.33440  -1.04564  -1.00426
   7   22787.2    438.8   0.105017402   1.51721   0.04793   1.05493   0.63407
   8   25223.8    396.5   0.207540160   2.70874  -0.17929  -1.44422  -0.76866
   9   25965.0    385.1   0.088665875   1.12420   0.21087   1.03563   0.08488
  10   26815.1    372.9   0.023964905   0.29422  -0.09488  -0.50800  -0.16478
  11   27100.0    369.0   0.223576268   2.71601  -0.15527   1.62108   0.25301
  12   28009.2    357.0   0.039770448   0.46745  -0.09079   0.66754   0.11661
  13   28070.7    356.2   0.014236285   0.16696  -0.07274   0.33004  -0.22967
  14   28556.2    350.2   0.032353440   0.37299   0.20936  -0.57366  -0.00849
  15   29176.1    342.7   0.033138426   0.37392   0.22787   0.54751   0.14911
  16   29352.4    340.7   0.002078591   0.02331  -0.00053  -0.09741   0.11758
  17   29650.2    337.3   0.279573183   3.10415  -0.46120  -1.68784  -0.20648
  18   29883.6    334.6   0.235492826   2.59430   0.02337   0.86640   1.35761
  19   30142.0    331.8   0.005229698   0.05712  -0.06718  -0.14699  -0.17606
  20   30677.8    326.0   0.351117165   3.76794  -0.53000   0.29137   1.84449
  21   30948.4    323.1   0.186601775   1.98497   0.68093   0.39753  -1.16760
  22   31254.7    320.0   0.264645982   2.78756   0.78062  -0.80975  -1.23390
  23   31642.6    316.0   1.012384570  10.53293   0.96185   1.21147  -2.85309
  24   31767.0    314.8   0.149738524   1.55179   0.40045   0.07994  -1.17688
  25   32549.5    307.2   0.003886126   0.03931   0.00103  -0.00409  -0.19821
  26   32603.2    306.7   0.060843369   0.61437   0.20029  -0.18657   0.73447
  27   32800.9    304.9   0.088749457   0.89075  -0.22500   0.79069   0.46362
  28   33034.6    302.7   0.145549295   1.45050  -0.46462  -0.65836   0.89509
  29   33178.1    301.4   0.198685596   1.97147  -0.08720  -1.03541  -0.94435
  30   33229.3    300.9   0.081643812   0.80887   0.02663   0.53171   0.72487
  31   33617.3    297.5   0.167541306   1.64072   0.03820  -0.56164  -1.15057
  32   33744.0    296.3   0.033416695   0.32602  -0.08589   0.15004   0.54418
  33   34038.4    293.8   0.398663215   3.85579  -0.64297  -1.05618   1.52540
  34   34129.0    293.0   0.186168228   1.79580  -0.17964  -1.25321   0.43930
  35   34431.2    290.4   0.002896332   0.02769  -0.07291  -0.10771   0.10380
  36   34511.9    289.8   0.554936684   5.29359  -0.14984   2.29281  -0.11895
  37   34603.4    289.0   0.090675681   0.86268  -0.60174   0.63598   0.31003
  38   34722.3    288.0   0.076015986   0.72073   0.06832   0.03459  -0.84550
  39   34867.8    286.8   0.041396935   0.39086  -0.41109   0.47048  -0.02261
  40   34980.7    285.9   0.131016929   1.23303  -0.35787   0.20736   1.03051
  41   35107.8    284.8   0.261123579   2.44860  -0.33690  -0.43573   1.46466
  42   35369.8    282.7   0.167136253   1.55566   0.48340   0.60389  -0.97841
  43   35795.6    279.4   0.038349673   0.35270   0.13774  -0.57097  -0.08787
  44   35976.4    278.0   0.046509717   0.42560   0.06774  -0.31245  -0.56867
  45   36273.5    275.7   0.012945812   0.11749  -0.16864  -0.17754   0.23986
  46   36337.1    275.2   0.016286426   0.14755   0.07833   0.04197  -0.37371
  47   36584.5    273.3   0.052437526   0.47187   0.02556   0.48410  -0.48669
  48   36949.0    270.6   0.022533469   0.20077   0.27091  -0.12964  -0.33253
  49   37123.2    269.4   0.093122324   0.82582  -0.01249   0.74207  -0.52440
  50   37229.6    268.6   0.057311736   0.50679   0.08875   0.70616  -0.01591
  51   37285.9    268.2   0.056123947   0.49554   0.27505  -0.63441   0.13197
  52   37431.4    267.2   0.019718240   0.17342  -0.09436  -0.20146   0.35204
  53   37963.3    263.4   0.005125006   0.04444   0.03867  -0.15665  -0.13567
  54   38179.4    261.9   0.003483521   0.03004  -0.03539   0.13587  -0.10162
  55   38486.6    259.8   0.005490892   0.04697   0.10820   0.06535   0.17604
  56   39009.2    256.4   0.020707014   0.17475  -0.06838  -0.41238  -0.00426
  57   39105.1    255.7   0.014780233   0.12443   0.08433  -0.24262  -0.24178
  58   39215.7    255.0   0.010635992   0.08929  -0.01748   0.08491  -0.28596
  59   39479.3    253.3   0.002802054   0.02337   0.03768   0.10787  -0.10154
  60   39553.7    252.8   0.014740946   0.12269  -0.15466  -0.02242   0.31348
  61   39683.4    252.0   0.029749436   0.24680  -0.00882   0.00301  -0.49670
  62   40052.2    249.7   0.034881454   0.28671  -0.18790  -0.50140  -0.00029
  63   40289.7    248.2   0.014584468   0.11917   0.17923   0.15651  -0.25010

FINAL SINGLE POINT ENERGY    -10601.185772992096

DIPOLE MOMENT
-------------
                                X             Y             Z
Electronic contribution:     -0.10838     -46.35545      29.75695
Nuclear contribution   :      0.50025      44.20849     -27.47285
                        -----------------------------------------
Total Dipole Moment    :      0.39187      -2.14696       2.28411
                        -----------------------------------------
Magnitude (a.u.)       :      3.15914
Magnitude (Debye)      :      8.02989

Rotational constants in cm-1:     0.001855     0.000100     0.000096
Rotational constants in MHz :    55.617261     3.001769     2.869543

                             ****ORCA TERMINATED NORMALLY****
TOTAL RUN TIME: 0 days 0 hours 10 minutes 55 seconds 683 msec
