                         Program Version 4.2.0 -  RELEASE  -
|  1> # ORCA input file
|  2> # SCF done       -173.639778069464          0.000666992296
|  3> ! CAM-B3LYP def2-SVP def2/J RIJCOSX Grid4 TightSCF
|  4> %maxcore 5000
|  5> %tddft
|  6>     Mode sTDDFT
|  7>     Ethresh 5.0
|  8>     maxcore 5000
|  9> end
| 10>
| 11> %pal
| 12>   nprocs 6
| 13>   end
| 14> * xyz 0 1
| 15>    C       -6.55953        -1.95980        -2.26345
| 16>    O       -6.00388        -1.86352        -1.19467
| 17>    C       -5.94551        -1.82453        -3.59747
| 18>    C       -6.94046        -1.86016        -4.59144
| 19>    C       -6.57797        -1.72556        -5.92592
| 20>    C       -5.23832        -1.56744        -6.24139
| 21>    C       -4.27139        -1.54228        -5.24242
| 22>    C       -4.60873        -1.66520        -3.90191
| 23>   Br       -2.44970        -1.33105        -5.72600
| 24>    C       -8.23967        -2.05635        -3.96065
| 25>    C       -9.42733        -2.25318        -4.60611
| 26>    C       -9.57870        -2.22723        -6.01050
| 27>    N       -9.76107        -2.21019        -7.14280
| 28>    C      -10.65455        -2.53697        -3.96597
| 29>    N      -11.67725        -2.79107        -3.51236
| 30>    C       -8.02486        -2.10329        -2.51940
| 31>    C       -8.96204        -2.11579        -1.54614
| 32>    C       -8.65948        -2.32951        -0.15070
| 33>    C       -9.21742        -1.58958         0.87620
| 34>    C      -10.08444        -0.50752         0.73852
| 35>    N      -10.80148         0.38094         0.61300
| 36>    S       -8.63576        -2.09133         2.43327
| 37>    C       -7.67248        -3.35915         1.72045
| 38>    C       -7.79500        -3.34967         0.33488
| 39>    C       -7.20604        -4.27715        -0.53628
| 40>    N       -6.77288        -5.01916        -1.29809
| 41>    C       -6.89298        -4.21515         2.53214
| 42>    N       -6.85190        -4.07327         3.90718
| 43>    C       -6.01020        -5.01157         4.40903
| 44>    C       -5.44659        -5.50340         5.58134
| 45>    C       -4.61424        -6.56029         5.19246
| 46>    N       -4.67077        -6.71141         3.82206
| 47>    C       -5.51375        -5.77413         3.31849
| 48>    C       -6.06437        -5.27657         2.14379
| 49>    C       -3.79385        -7.40190         5.98564
| 50>    C       -3.65960        -7.29677         7.32983
| 51>    C       -2.83061        -8.12962         8.11789
| 52>    S       -1.90187        -9.42423         7.41138
| 53>    C       -2.62605        -8.05868         9.49314
| 54>    C       -3.28966        -7.07644        10.36761
| 55>    O       -4.07122        -6.22110         9.97857
| 56>    C       -2.91977        -7.23662        11.76422
| 57>    C       -3.34228        -6.52724        12.86715
| 58>    N       -2.72084        -7.02168        13.96434
| 59>    C       -2.95855        -6.58888        15.31830
| 60>    C       -4.11804        -7.36101        15.94466
| 61>    C       -1.90955        -8.04279        13.60288
| 62>    C       -1.99735        -8.21252        12.23774
| 63>    C       -1.31366        -9.16672        11.38354
| 64>    O       -0.49693        -9.97336        11.80000
| 65>    C       -1.71359        -9.04320         9.96728
| 66>    C       -1.23437        -9.86870         8.95860
| 67>    C       -0.33132       -10.95725         9.09347
| 68>    C        0.09902       -11.71738         8.06564
| 69>    C        1.01311       -12.82790         8.15724
| 70>    C        1.42404       -13.46878         6.97901
| 71>    C        2.29226       -14.53014         7.03288
| 72>    C        2.78173       -14.99021         8.25715
| 73>    C        2.39566       -14.36567         9.45474
| 74>    C        1.51436       -13.30010         9.37381
| 75>    C        2.90431       -14.79034        10.81163
| 76>    O        2.53803       -13.92354        11.85167
| 77>    N        3.67087       -16.11103         8.21691
| 78>    O        4.10658       -16.44583         7.13175
| 79>    O        3.94691       -16.67578         9.25914
| 80>    H       -7.31103        -1.73723        -6.71562
| 81>    H       -4.93966        -1.46194        -7.27308
| 82>    H       -3.86481        -1.64410        -3.12074
| 83>    H      -10.00562        -1.95339        -1.78459
| 84>    H       -7.35151        -3.37243         4.42765
| 85>    H       -5.59911        -5.16289         6.58453
| 86>    H       -4.15751        -7.40083         3.30007
| 87>    H       -5.90529        -5.60982         1.13931
| 88>    H       -3.23867        -8.17058         5.45943
| 89>    H       -4.19611        -6.53603         7.87707
| 90>    H       -4.03309        -5.70957        12.92329
| 91>    H       -3.18409        -5.51941        15.30698
| 92>    H       -2.04641        -6.74807        15.89898
| 93>    H       -5.02974        -7.20506        15.37299
| 94>    H       -4.28247        -7.02237        16.96350
| 95>    H       -3.89855        -8.42582        15.96141
| 96>    H       -1.31939        -8.58328        14.31605
| 97>    H       -0.00207       -11.13595        10.10703
| 98>    H       -0.25354       -11.48473         7.06687
| 99>    H        1.05049       -13.12577         6.02624
|100>    H        2.61127       -15.03623         6.13441
|101>    H        1.19529       -12.84115        10.29651
|102>    H        3.99452       -14.92342        10.77644
|103>    H        2.47442       -15.76333        11.06894
|104>    H        2.98565       -13.07767        11.73775
|105> *
|106>
|107>                          ****END OF INPUT****

CARTESIAN COORDINATES (ANGSTROEM)
---------------------------------
  C     -6.559530   -1.959800   -2.263450
  O     -6.003880   -1.863520   -1.194670
  C     -5.945510   -1.824530   -3.597470
  C     -6.940460   -1.860160   -4.591440
  C     -6.577970   -1.725560   -5.925920
  C     -5.238320   -1.567440   -6.241390
  C     -4.271390   -1.542280   -5.242420
  C     -4.608730   -1.665200   -3.901910
  Br    -2.449700   -1.331050   -5.726000
  C     -8.239670   -2.056350   -3.960650
  C     -9.427330   -2.253180   -4.606110
  C     -9.578700   -2.227230   -6.010500
  N     -9.761070   -2.210190   -7.142800
  C    -10.654550   -2.536970   -3.965970
  N    -11.677250   -2.791070   -3.512360
  C     -8.024860   -2.103290   -2.519400
  C     -8.962040   -2.115790   -1.546140
  C     -8.659480   -2.329510   -0.150700
  C     -9.217420   -1.589580    0.876200
  C    -10.084440   -0.507520    0.738520
  N    -10.801480    0.380940    0.613000
  S     -8.635760   -2.091330    2.433270
  C     -7.672480   -3.359150    1.720450
  C     -7.795000   -3.349670    0.334880
  C     -7.206040   -4.277150   -0.536280
  N     -6.772880   -5.019160   -1.298090
  C     -6.892980   -4.215150    2.532140
  N     -6.851900   -4.073270    3.907180
  C     -6.010200   -5.011570    4.409030
  C     -5.446590   -5.503400    5.581340
  C     -4.614240   -6.560290    5.192460
  N     -4.670770   -6.711410    3.822060
  C     -5.513750   -5.774130    3.318490
  C     -6.064370   -5.276570    2.143790
  C     -3.793850   -7.401900    5.985640
  C     -3.659600   -7.296770    7.329830
  C     -2.830610   -8.129620    8.117890
  S     -1.901870   -9.424230    7.411380
  C     -2.626050   -8.058680    9.493140
  C     -3.289660   -7.076440   10.367610
  O     -4.071220   -6.221100    9.978570
  C     -2.919770   -7.236620   11.764220
  C     -3.342280   -6.527240   12.867150
  N     -2.720840   -7.021680   13.964340
  C     -2.958550   -6.588880   15.318300
  C     -4.118040   -7.361010   15.944660
  C     -1.909550   -8.042790   13.602880
  C     -1.997350   -8.212520   12.237740
  C     -1.313660   -9.166720   11.383540
  O     -0.496930   -9.973360   11.800000
  C     -1.713590   -9.043200    9.967280
  C     -1.234370   -9.868700    8.958600
  C     -0.331320  -10.957250    9.093470
  C      0.099020  -11.717380    8.065640
  C      1.013110  -12.827900    8.157240
  C      1.424040  -13.468780    6.979010
  C      2.292260  -14.530140    7.032880
  C      2.781730  -14.990210    8.257150
  C      2.395660  -14.365670    9.454740
  C      1.514360  -13.300100    9.373810
  C      2.904310  -14.790340   10.811630
  O      2.538030  -13.923540   11.851670
  N      3.670870  -16.111030    8.216910
  O      4.106580  -16.445830    7.131750
  O      3.946910  -16.675780    9.259140
  H     -7.311030   -1.737230   -6.715620
  H     -4.939660   -1.461940   -7.273080
  H     -3.864810   -1.644100   -3.120740
  H    -10.005620   -1.953390   -1.784590
  H     -7.351510   -3.372430    4.427650
  H     -5.599110   -5.162890    6.584530
  H     -4.157510   -7.400830    3.300070
  H     -5.905290   -5.609820    1.139310
  H     -3.238670   -8.170580    5.459430
  H     -4.196110   -6.536030    7.877070
  H     -4.033090   -5.709570   12.923290
  H     -3.184090   -5.519410   15.306980
  H     -2.046410   -6.748070   15.898980
  H     -5.029740   -7.205060   15.372990
  H     -4.282470   -7.022370   16.963500
  H     -3.898550   -8.425820   15.961410
  H     -1.319390   -8.583280   14.316050
  H     -0.002070  -11.135950   10.107030
  H     -0.253540  -11.484730    7.066870
  H      1.050490  -13.125770    6.026240
  H      2.611270  -15.036230    6.134410
  H      1.195290  -12.841150   10.296510
  H      3.994520  -14.923420   10.776440
  H      2.474420  -15.763330   11.068940
  H      2.985650  -13.077670   11.737750

 Total Charge           Charge          ....    0
 Multiplicity           Mult            ....    1
 Number of Electrons    NEL             ....  484
 Basis Dimension        Dim             .... 1061

ORBITAL ENERGIES
----------------

  NO   OCC          E(Eh)            E(eV)
   0   2.0000    -482.878310    -13139.7868
   1   2.0000     -88.997256     -2421.7385
   2   2.0000     -88.968980     -2420.9690
   3   2.0000     -62.556051     -1702.2367
   4   2.0000     -56.389899     -1534.4471
   5   2.0000     -56.387362     -1534.3781
   6   2.0000     -56.387342     -1534.3776
   7   2.0000     -19.235748      -523.4313
   8   2.0000     -19.232950      -523.3552
   9   2.0000     -19.232622      -523.3463
  10   2.0000     -19.211540      -522.7726
  11   2.0000     -19.201916      -522.5107
  12   2.0000     -19.200131      -522.4621
  13   2.0000     -14.640953      -398.4006
  14   2.0000     -14.489835      -394.2884
  15   2.0000     -14.475621      -393.9017
  16   2.0000     -14.470593      -393.7648
  17   2.0000     -14.426687      -392.5701
  18   2.0000     -14.426575      -392.5671
  19   2.0000     -14.420341      -392.3974
  20   2.0000     -14.415071      -392.2540
  21   2.0000     -10.383629      -282.5529
  22   2.0000     -10.362213      -281.9701
  23   2.0000     -10.360662      -281.9280
  24   2.0000     -10.358952      -281.8814
  25   2.0000     -10.353877      -281.7433
  26   2.0000     -10.352719      -281.7118
  27   2.0000     -10.351408      -281.6761
  28   2.0000     -10.349872      -281.6343
  29   2.0000     -10.335872      -281.2534
  30   2.0000     -10.333115      -281.1784
  31   2.0000     -10.332542      -281.1628
  32   2.0000     -10.328481      -281.0523
  33   2.0000     -10.328220      -281.0452
  34   2.0000     -10.327800      -281.0337
  35   2.0000     -10.325301      -280.9657
  36   2.0000     -10.322775      -280.8970
  37   2.0000     -10.322086      -280.8782
  38   2.0000     -10.322071      -280.8778
  39   2.0000     -10.320597      -280.8377
  40   2.0000     -10.320579      -280.8372
  41   2.0000     -10.320548      -280.8364
  42   2.0000     -10.319785      -280.8156
  43   2.0000     -10.317245      -280.7465
  44   2.0000     -10.315653      -280.7032
  45   2.0000     -10.313915      -280.6559
  46   2.0000     -10.313527      -280.6453
  47   2.0000     -10.312436      -280.6157
  48   2.0000     -10.311991      -280.6035
  49   2.0000     -10.310995      -280.5765
  50   2.0000     -10.310418      -280.5607
  51   2.0000     -10.308687      -280.5136
  52   2.0000     -10.306603      -280.4569
  53   2.0000     -10.300880      -280.3012
  54   2.0000     -10.298584      -280.2387
  55   2.0000     -10.296021      -280.1690
  56   2.0000     -10.290479      -280.0182
  57   2.0000     -10.289857      -280.0012
  58   2.0000     -10.288073      -279.9527
  59   2.0000     -10.287292      -279.9314
  60   2.0000     -10.285744      -279.8893
  61   2.0000     -10.284211      -279.8476
  62   2.0000     -10.284150      -279.8459
  63   2.0000     -10.284082      -279.8441
  64   2.0000     -10.282449      -279.7997
  65   2.0000     -10.279577      -279.7215
  66   2.0000     -10.274235      -279.5762
  67   2.0000     -10.270360      -279.4707
  68   2.0000     -10.270108      -279.4638
  69   2.0000      -8.785364      -239.0619
  70   2.0000      -8.092548      -220.2094
  71   2.0000      -8.064569      -219.4481
  72   2.0000      -6.621258      -180.1736
  73   2.0000      -6.607462      -179.7982
  74   2.0000      -6.606990      -179.7853
  75   2.0000      -6.062030      -164.9562
  76   2.0000      -6.057809      -164.8414
  77   2.0000      -6.054328      -164.7466
  78   2.0000      -6.033582      -164.1821
  79   2.0000      -6.029792      -164.0790
  80   2.0000      -6.026858      -163.9991
  81   2.0000      -2.737182       -74.4825
  82   2.0000      -2.733438       -74.3806
  83   2.0000      -2.733047       -74.3700
  84   2.0000      -2.722098       -74.0720
  85   2.0000      -2.722086       -74.0717
  86   2.0000      -1.314526       -35.7701
  87   2.0000      -1.149354       -31.2755
  88   2.0000      -1.131967       -30.8024
  89   2.0000      -1.120700       -30.4958
  90   2.0000      -1.115555       -30.3558
  91   2.0000      -1.108803       -30.1721
  92   2.0000      -1.106164       -30.1003
  93   2.0000      -1.102242       -29.9935
  94   2.0000      -1.070584       -29.1321
  95   2.0000      -1.033591       -28.1254
  96   2.0000      -1.029607       -28.0170
  97   2.0000      -1.011534       -27.5252
  98   2.0000      -1.004685       -27.3389
  99   2.0000      -1.002858       -27.2891
 100   2.0000      -0.999145       -27.1881
 101   2.0000      -0.992461       -27.0062
 102   2.0000      -0.980071       -26.6691
 103   2.0000      -0.974758       -26.5245
 104   2.0000      -0.939476       -25.5644
 105   2.0000      -0.929385       -25.2899
 106   2.0000      -0.925549       -25.1855
 107   2.0000      -0.920823       -25.0569
 108   2.0000      -0.912717       -24.8363
 109   2.0000      -0.903483       -24.5850
 110   2.0000      -0.895370       -24.3643
 111   2.0000      -0.888356       -24.1734
 112   2.0000      -0.883092       -24.0302
 113   2.0000      -0.879037       -23.9198
 114   2.0000      -0.868644       -23.6370
 115   2.0000      -0.864245       -23.5173
 116   2.0000      -0.863809       -23.5054
 117   2.0000      -0.849073       -23.1045
 118   2.0000      -0.842488       -22.9253
 119   2.0000      -0.837322       -22.7847
 120   2.0000      -0.834513       -22.7083
 121   2.0000      -0.806802       -21.9542
 122   2.0000      -0.791339       -21.5334
 123   2.0000      -0.787256       -21.4223
 124   2.0000      -0.779673       -21.2160
 125   2.0000      -0.771684       -20.9986
 126   2.0000      -0.767852       -20.8943
 127   2.0000      -0.764703       -20.8086
 128   2.0000      -0.745297       -20.2806
 129   2.0000      -0.737918       -20.0798
 130   2.0000      -0.716261       -19.4904
 131   2.0000      -0.711857       -19.3706
 132   2.0000      -0.707625       -19.2555
 133   2.0000      -0.704734       -19.1768
 134   2.0000      -0.703314       -19.1381
 135   2.0000      -0.697950       -18.9922
 136   2.0000      -0.695510       -18.9258
 137   2.0000      -0.692480       -18.8433
 138   2.0000      -0.688775       -18.7425
 139   2.0000      -0.671109       -18.2618
 140   2.0000      -0.663080       -18.0433
 141   2.0000      -0.653638       -17.7864
 142   2.0000      -0.652188       -17.7469
 143   2.0000      -0.644645       -17.5417
 144   2.0000      -0.634016       -17.2524
 145   2.0000      -0.631351       -17.1799
 146   2.0000      -0.627251       -17.0684
 147   2.0000      -0.624257       -16.9869
 148   2.0000      -0.621354       -16.9079
 149   2.0000      -0.615340       -16.7443
 150   2.0000      -0.607262       -16.5244
 151   2.0000      -0.603278       -16.4160
 152   2.0000      -0.599499       -16.3132
 153   2.0000      -0.588923       -16.0254
 154   2.0000      -0.586316       -15.9545
 155   2.0000      -0.583312       -15.8727
 156   2.0000      -0.577580       -15.7168
 157   2.0000      -0.573332       -15.6012
 158   2.0000      -0.569017       -15.4837
 159   2.0000      -0.565442       -15.3865
 160   2.0000      -0.560202       -15.2439
 161   2.0000      -0.557315       -15.1653
 162   2.0000      -0.556334       -15.1386
 163   2.0000      -0.552395       -15.0314
 164   2.0000      -0.551089       -14.9959
 165   2.0000      -0.550279       -14.9739
 166   2.0000      -0.546817       -14.8796
 167   2.0000      -0.541788       -14.7428
 168   2.0000      -0.539575       -14.6826
 169   2.0000      -0.538184       -14.6447
 170   2.0000      -0.531639       -14.4666
 171   2.0000      -0.527460       -14.3529
 172   2.0000      -0.526612       -14.3298
 173   2.0000      -0.525914       -14.3108
 174   2.0000      -0.522591       -14.2204
 175   2.0000      -0.522200       -14.2098
 176   2.0000      -0.521181       -14.1820
 177   2.0000      -0.520609       -14.1665
 178   2.0000      -0.512235       -13.9386
 179   2.0000      -0.511872       -13.9287
 180   2.0000      -0.511453       -13.9174
 181   2.0000      -0.507208       -13.8018
 182   2.0000      -0.503684       -13.7059
 183   2.0000      -0.499872       -13.6022
 184   2.0000      -0.497522       -13.5383
 185   2.0000      -0.492985       -13.4148
 186   2.0000      -0.489177       -13.3112
 187   2.0000      -0.487237       -13.2584
 188   2.0000      -0.482006       -13.1160
 189   2.0000      -0.479500       -13.0479
 190   2.0000      -0.477681       -12.9984
 191   2.0000      -0.475104       -12.9282
 192   2.0000      -0.474302       -12.9064
 193   2.0000      -0.469564       -12.7775
 194   2.0000      -0.469083       -12.7644
 195   2.0000      -0.464391       -12.6367
 196   2.0000      -0.462773       -12.5927
 197   2.0000      -0.458578       -12.4785
 198   2.0000      -0.457433       -12.4474
 199   2.0000      -0.457240       -12.4421
 200   2.0000      -0.456849       -12.4315
 201   2.0000      -0.453335       -12.3359
 202   2.0000      -0.452749       -12.3199
 203   2.0000      -0.448027       -12.1914
 204   2.0000      -0.447363       -12.1734
 205   2.0000      -0.446162       -12.1407
 206   2.0000      -0.444818       -12.1041
 207   2.0000      -0.438200       -11.9240
 208   2.0000      -0.437357       -11.9011
 209   2.0000      -0.436427       -11.8758
 210   2.0000      -0.434148       -11.8138
 211   2.0000      -0.425252       -11.5717
 212   2.0000      -0.424649       -11.5553
 213   2.0000      -0.423683       -11.5290
 214   2.0000      -0.419942       -11.4272
 215   2.0000      -0.418743       -11.3946
 216   2.0000      -0.415037       -11.2937
 217   2.0000      -0.407249       -11.0818
 218   2.0000      -0.402056       -10.9405
 219   2.0000      -0.388674       -10.5763
 220   2.0000      -0.382106       -10.3976
 221   2.0000      -0.377309       -10.2671
 222   2.0000      -0.373659       -10.1678
 223   2.0000      -0.372733       -10.1426
 224   2.0000      -0.366428        -9.9710
 225   2.0000      -0.363888        -9.9019
 226   2.0000      -0.358976        -9.7682
 227   2.0000      -0.355761        -9.6808
 228   2.0000      -0.350800        -9.5457
 229   2.0000      -0.344747        -9.3810
 230   2.0000      -0.340575        -9.2675
 231   2.0000      -0.330810        -9.0018
 232   2.0000      -0.330056        -8.9813
 233   2.0000      -0.327568        -8.9136
 234   2.0000      -0.327430        -8.9098
 235   2.0000      -0.326286        -8.8787
 236   2.0000      -0.317283        -8.6337
 237   2.0000      -0.313151        -8.5213
 238   2.0000      -0.305605        -8.3159
 239   2.0000      -0.303460        -8.2576
 240   2.0000      -0.277447        -7.5497
 241   2.0000      -0.234152        -6.3716
 242   0.0000      -0.101182        -2.7533
 243   0.0000      -0.081544        -2.2189
 244   0.0000      -0.074563        -2.0290
 245   0.0000      -0.067326        -1.8320
 246   0.0000      -0.040524        -1.1027

MULLIKEN ATOMIC CHARGES
-----------------------
   0 C :    0.152466
   1 O :   -0.127025
   2 C :   -0.023454
   3 C :    0.041646
   4 C :   -0.025278
   5 C :    0.052510
   6 C :   -0.004482
   7 C :   -0.000958
   8 Br:   -0.011150
   9 C :    0.291991
  10 C :   -0.320705
  11 C :   -0.189062
  12 N :    0.164671
  13 C :   -0.194234
  14 N :    0.177652
  15 C :   -0.068547
  16 C :   -0.054167
  17 C :    0.221901
  18 C :   -0.294052
  19 C :   -0.193153
  20 N :    0.151572
  21 S :    0.192063
  22 C :   -0.004724
  23 C :   -0.060013
  24 C :   -0.262707
  25 N :    0.155892
  26 C :    0.027837
  27 N :   -0.049009
  28 C :    0.125889
  29 C :   -0.171498
  30 C :    0.105466
  31 N :   -0.027102
  32 C :    0.122846
  33 C :   -0.159607
  34 C :    0.014960
  35 C :   -0.020142
  36 C :   -0.113670
  37 S :    0.109048
  38 C :    0.017888
  39 C :    0.136095
  40 O :   -0.179956
  41 C :   -0.012226
  42 C :    0.004562
  43 N :   -0.133441
  44 C :    0.088377
  45 C :    0.005241
  46 C :    0.009540
  47 C :   -0.015341
  48 C :    0.135945
  49 O :   -0.174030
  50 C :    0.018701
  51 C :   -0.124330
  52 C :    0.018690
  53 C :   -0.009718
  54 C :    0.169437
  55 C :   -0.025304
  56 C :   -0.004999
  57 C :    0.103689
  58 C :   -0.126221
  59 C :   -0.105828
  60 C :    0.317216
  61 O :   -0.295893
  62 N :    0.251200
  63 O :   -0.242541
  64 O :   -0.247626
  65 H :    0.012379
  66 H :    0.009634
  67 H :    0.007407
  68 H :    0.058125
  69 H :    0.129222
  70 H :   -0.016677
  71 H :    0.126355
  72 H :   -0.009637
  73 H :   -0.023269
  74 H :    0.021407
  75 H :    0.005372
  76 H :    0.033502
  77 H :    0.034453
  78 H :    0.029476
  79 H :    0.030673
  80 H :    0.031352
  81 H :    0.006693
  82 H :    0.027218
  83 H :   -0.020846
  84 H :   -0.018783
  85 H :    0.007328
  86 H :   -0.021647
  87 H :    0.020612
  88 H :    0.036052
  89 H :    0.170799
Sum of atomic charges:    0.0000000

LOEWDIN ATOMIC CHARGES
----------------------
   0 C :    0.091158
   1 O :   -0.118372
   2 C :   -0.034389
   3 C :   -0.013149
   4 C :    0.010531
   5 C :   -0.007957
   6 C :   -0.096136
   7 C :    0.005770
   8 Br:    0.123267
   9 C :    0.072689
  10 C :   -0.116910
  11 C :   -0.017541
  12 N :   -0.037570
  13 C :   -0.022110
  14 N :   -0.032273
  15 C :   -0.059554
  16 C :    0.070476
  17 C :   -0.001983
  18 C :   -0.216811
  19 C :   -0.060643
  20 N :   -0.037708
  21 S :    0.472280
  22 C :   -0.112317
  23 C :   -0.107681
  24 C :   -0.023015
  25 N :   -0.067064
  26 C :   -0.034319
  27 N :    0.065478
  28 C :   -0.004296
  29 C :   -0.085801
  30 C :    0.010686
  31 N :    0.073894
  32 C :   -0.021273
  33 C :   -0.059287
  34 C :   -0.027710
  35 C :   -0.035644
  36 C :   -0.121485
  37 S :    0.443186
  38 C :   -0.092532
  39 C :    0.081245
  40 O :   -0.175281
  41 C :   -0.100150
  42 C :    0.028815
  43 N :    0.089785
  44 C :    0.043958
  45 C :   -0.056860
  46 C :    0.031080
  47 C :   -0.102286
  48 C :    0.082511
  49 O :   -0.170130
  50 C :   -0.082253
  51 C :   -0.129273
  52 C :   -0.020030
  53 C :   -0.022202
  54 C :    0.001549
  55 C :   -0.022610
  56 C :    0.006823
  57 C :   -0.044386
  58 C :   -0.015455
  59 C :   -0.017679
  60 C :    0.066139
  61 O :   -0.123380
  62 N :    0.285784
  63 O :   -0.209816
  64 O :   -0.202266
  65 H :    0.044062
  66 H :    0.042057
  67 H :    0.045966
  68 H :    0.054725
  69 H :    0.083630
  70 H :    0.031433
  71 H :    0.092463
  72 H :    0.035483
  73 H :    0.019169
  74 H :    0.038492
  75 H :    0.028858
  76 H :    0.033707
  77 H :    0.033958
  78 H :    0.030339
  79 H :    0.033274
  80 H :    0.031023
  81 H :    0.029618
  82 H :    0.038203
  83 H :    0.018556
  84 H :    0.030358
  85 H :    0.040784
  86 H :    0.030006
  87 H :    0.019080
  88 H :    0.039729
  89 H :    0.077512

  Mayer bond orders larger than 0.100000
B(  0-C ,  1-O ) :   2.2341 B(  0-C ,  2-C ) :   0.9501 B(  0-C , 15-C ) :   0.9132
B(  2-C ,  3-C ) :   1.3275 B(  2-C ,  7-C ) :   1.3797 B(  3-C ,  4-C ) :   1.3511
B(  3-C ,  9-C ) :   1.0118 B(  4-C ,  5-C ) :   1.3953 B(  4-C , 65-H ) :   0.9836
B(  5-C ,  6-C ) :   1.3759 B(  5-C , 66-H ) :   0.9849 B(  6-C ,  7-C ) :   1.3426
B(  6-C ,  8-Br) :   0.9977 B(  7-C , 67-H ) :   1.0066 B(  9-C , 10-C ) :   1.6819
B(  9-C , 15-C ) :   1.0327 B( 10-C , 11-C ) :   1.1350 B( 10-C , 13-C ) :   1.1396
B( 11-C , 12-N ) :   2.9804 B( 13-C , 14-N ) :   2.9863 B( 15-C , 16-C ) :   1.7252
B( 16-C , 17-C ) :   1.0564 B( 16-C , 68-H ) :   0.9272 B( 17-C , 18-C ) :   1.4883
B( 17-C , 23-C ) :   1.2771 B( 18-C , 19-C ) :   1.2103 B( 18-C , 21-S ) :   1.1100
B( 18-C , 22-C ) :   0.1048 B( 19-C , 20-N ) :   2.9955 B( 21-S , 22-C ) :   1.1049
B( 22-C , 23-C ) :   1.5031 B( 22-C , 26-C ) :   1.1290 B( 23-C , 24-C ) :   1.1314
B( 24-C , 25-N ) :   2.9563 B( 26-C , 27-N ) :   1.1824 B( 26-C , 33-C ) :   1.3993
B( 27-N , 28-C ) :   1.1732 B( 27-N , 69-H ) :   0.9297 B( 28-C , 29-C ) :   1.2517
B( 28-C , 32-C ) :   1.2983 B( 29-C , 30-C ) :   1.4043 B( 29-C , 70-H ) :   1.0367
B( 30-C , 31-N ) :   1.1793 B( 30-C , 34-C ) :   1.1160 B( 31-N , 32-C ) :   1.1650
B( 31-N , 71-H ) :   0.9349 B( 32-C , 33-C ) :   1.2608 B( 33-C , 72-H ) :   1.0254
B( 34-C , 35-C ) :   1.6108 B( 34-C , 73-H ) :   0.9620 B( 35-C , 36-C ) :   1.1847
B( 35-C , 74-H ) :   0.9554 B( 36-C , 37-S ) :   1.1102 B( 36-C , 38-C ) :   1.4731
B( 37-S , 51-C ) :   1.1042 B( 38-C , 39-C ) :   0.9497 B( 38-C , 50-C ) :   1.1752
B( 39-C , 40-O ) :   2.1743 B( 39-C , 41-C ) :   0.9997 B( 41-C , 42-C ) :   1.4252
B( 41-C , 47-C ) :   1.2931 B( 42-C , 43-N ) :   1.2321 B( 42-C , 75-H ) :   0.9941
B( 43-N , 44-C ) :   0.9510 B( 43-N , 46-C ) :   1.2366 B( 44-C , 45-C ) :   1.1119
B( 44-C , 76-H ) :   0.9510 B( 44-C , 77-H ) :   0.9511 B( 45-C , 78-H ) :   0.9672
B( 45-C , 79-H ) :   0.9680 B( 45-C , 80-H ) :   0.9671 B( 46-C , 47-C ) :   1.4217
B( 46-C , 81-H ) :   0.9937 B( 47-C , 48-C ) :   1.0039 B( 48-C , 49-O ) :   2.1769
B( 48-C , 50-C ) :   0.9393 B( 49-O , 82-H ) :   0.1006 B( 50-C , 51-C ) :   1.4951
B( 51-C , 52-C ) :   1.1689 B( 52-C , 53-C ) :   1.6348 B( 52-C , 82-H ) :   0.9438
B( 53-C , 54-C ) :   1.0849 B( 53-C , 83-H ) :   0.9822 B( 54-C , 55-C ) :   1.3033
B( 54-C , 59-C ) :   1.2914 B( 55-C , 56-C ) :   1.3674 B( 55-C , 84-H ) :   1.0032
B( 56-C , 57-C ) :   1.3673 B( 56-C , 85-H ) :   0.9842 B( 57-C , 58-C ) :   1.3603
B( 57-C , 62-N ) :   0.9086 B( 58-C , 59-C ) :   1.4148 B( 58-C , 60-C ) :   0.9870
B( 59-C , 86-H ) :   0.9827 B( 60-C , 61-O ) :   1.0542 B( 60-C , 87-H ) :   0.9354
B( 60-C , 88-H ) :   0.9130 B( 61-O , 89-H ) :   0.9749 B( 62-N , 63-O ) :   1.5559
B( 62-N , 64-O ) :   1.5132 B( 63-O , 64-O ) :   0.2587

-----------------------------------------------------------------------------
         ABSORPTION SPECTRUM VIA TRANSITION ELECTRIC DIPOLE MOMENTS
-----------------------------------------------------------------------------
State   Energy  Wavelength   fosc         T2         TX        TY        TZ
        (cm-1)    (nm)                  (au**2)     (au)      (au)      (au)
-----------------------------------------------------------------------------
   0   16049.9    623.1   0.100920127   2.07005  -0.97017   0.99769  -0.36529
   1   18449.5    542.0   1.997260635  35.63896   3.16823  -3.39944   3.74767
   2   21677.1    461.3   0.005723249   0.08692   0.18475  -0.11203  -0.20059
   3   22415.5    446.1   0.389990268   5.72770   0.36047  -0.80587  -2.22448
   4   26775.7    373.5   0.137608372   1.69192  -0.27607   0.33838  -1.22523
   5   27371.5    365.3   0.056819380   0.68340  -0.33229   0.71527   0.24773
   6   28310.5    353.2   0.036759644   0.42746  -0.44286   0.38086   0.29374
   7   28677.6    348.7   0.242408653   2.78279   0.79065  -1.19071  -0.86015
   8   29460.5    339.4   0.175444502   1.96054   1.36164   0.14566  -0.29201
   9   29729.2    336.4   0.000040226   0.00045  -0.00743   0.01271  -0.01513
  10   30174.5    331.4   0.012617591   0.13766  -0.21521   0.13884  -0.26846
  11   30193.0    331.2   0.007239026   0.07893   0.13824  -0.06945   0.23451
  12   30605.3    326.7   0.121808155   1.31025   0.79603  -0.73990   0.35936
  13   30768.2    325.0   0.272209984   2.91258   0.66347  -1.29528  -0.89142
  14   32237.7    310.2   0.106307202   1.08561   0.16151  -0.22184  -1.00514
  15   32360.7    309.0   0.036372962   0.37003  -0.29356   0.45918  -0.27021
  16   33437.4    299.1   0.001856091   0.01827  -0.02986   0.00201  -0.13183
  17   33646.8    297.2   0.254983997   2.49485   1.47588   0.14528   0.54363
  18   33851.9    295.4   0.139402473   1.35570   1.10119   0.36564   0.09685
  19   34137.7    292.9   0.344771884   3.32486  -1.51575  -0.02201   1.01335
  20   34844.3    287.0   0.058080788   0.54875  -0.18554  -0.27534   0.66220
  21   35179.9    284.3   0.064702476   0.60548  -0.01564   0.14999   0.76337
  22   35770.6    279.6   0.078234184   0.72002   0.19717  -0.25473  -0.78502
  23   35948.5    278.2   0.052324550   0.47918  -0.58130  -0.26430  -0.26725
  24   36036.7    277.5   0.036558168   0.33398   0.54566   0.00386  -0.19032
  25   36159.8    276.6   0.016350557   0.14886  -0.37386  -0.05762   0.07597
  26   36194.8    276.3   0.002041114   0.01857  -0.06164  -0.09050  -0.08109
  27   36267.7    275.7   0.002125769   0.01930   0.07231   0.09927   0.06490
  28   36808.0    271.7   0.140260841   1.25450   0.83482   0.14316   0.73286
  29   36906.0    271.0   0.001711305   0.01527   0.00046  -0.02153  -0.12166
  30   37106.1    269.5   0.308049279   2.73307   0.89075  -1.09234  -0.86396
  31   37285.3    268.2   0.038694777   0.34166   0.11874  -0.22066  -0.52808
  32   37900.5    263.8   0.098868535   0.85879   0.11931   0.15010   0.90666
  33   38400.4    260.4   0.002248999   0.01928   0.02945  -0.05668  -0.12329
  34   38484.0    259.8   0.004686936   0.04009   0.02771  -0.03389  -0.19539
  35   38833.8    257.5   0.077382095   0.65600   0.22651  -0.05724  -0.77551
  36   39013.6    256.3   0.108827358   0.91833   0.20023  -0.08361  -0.93341
  37   39645.2    252.2   0.010044860   0.08341   0.17412  -0.16984   0.15571
  38   39945.8    250.3   0.004856329   0.04002  -0.12712   0.11440  -0.10381
  39   40197.8    248.8   0.040191153   0.32916  -0.28644   0.44814   0.21513

FINAL SINGLE POINT ENERGY     -6100.060785162415

DIPOLE MOMENT
-------------
                                X             Y             Z
Electronic contribution:    -15.33789      88.05837    -175.96486
Nuclear contribution   :     16.46486     -86.48713     179.23258
                        -----------------------------------------
Total Dipole Moment    :      1.12697       1.57124       3.26772
                        -----------------------------------------
Magnitude (a.u.)       :      3.79695
Magnitude (Debye)      :      9.65109

Rotational constants in cm-1:     0.001239     0.000254     0.000222
Rotational constants in MHz :    37.141630     7.616963     6.666653

                             ****ORCA TERMINATED NORMALLY****
TOTAL RUN TIME: 0 days 0 hours 7 minutes 23 seconds 661 msec
