                         Program Version 4.2.0 -  RELEASE  -
|  1> # ORCA input file
|  2> # SCF done       -195.545371967225          0.000486166063
|  3> ! CAM-B3LYP def2-SVP def2/J RIJCOSX Grid4 TightSCF
|  4> %maxcore 5000
|  5> %tddft
|  6>     Mode sTDDFT
|  7>     Ethresh 5.0
|  8>     maxcore 5000
|  9> end
| 10>
| 11> %pal
| 12>   nprocs 6
| 13>   end
| 14> * xyz 0 1
| 15>    C       -6.40275        -1.88108         2.92258
| 16>    O       -6.12637        -3.06114         3.05893
| 17>    C       -7.48436        -1.15229         3.60662
| 18>    C       -7.50575         0.17930         3.15458
| 19>    C       -8.44060         1.05786         3.68208
| 20>    C       -9.32022         0.59681         4.65243
| 21>    C       -9.27129        -0.72103         5.08719
| 22>    C       -8.35650        -1.62439         4.56253
| 23>   Br      -10.47278        -1.30951         6.43882
| 24>    C       -6.44189         0.35464         2.16437
| 25>    C       -6.17695         1.51607         1.48275
| 26>    C       -6.91426         2.70817         1.64025
| 27>    N       -7.47634         3.70586         1.72103
| 28>    C       -5.15107         1.68870         0.53160
| 29>    N       -4.33753         1.90256        -0.25132
| 30>    C       -5.74750        -0.91000         2.04906
| 31>    C       -4.64945        -1.17814         1.26087
| 32>    C       -3.92250        -2.35985         1.12866
| 33>    S       -4.21057        -3.87794         1.94469
| 34>    C       -2.84049        -4.65263         1.17942
| 35>    C       -2.20957        -3.76762         0.31458
| 36>    C       -2.79611        -2.48131         0.28741
| 37>    C       -2.10623        -1.59842        -0.56941
| 38>    C       -1.03625        -2.20352        -1.16604
| 39>    C       -0.06557        -1.62936        -2.10377
| 40>    O        0.84768        -2.24943        -2.59073
| 41>    O       -0.31607        -0.33780        -2.34454
| 42>    C        0.57853         0.31054        -3.23780
| 43>    S       -0.82333        -3.87563        -0.71849
| 44>    C       -2.53497        -6.00379         1.48031
| 45>    C       -3.16648        -6.66106         2.51842
| 46>    C       -2.95522        -7.98577         2.86553
| 47>    C       -2.03864        -8.83233         2.09962
| 48>    C       -1.29394        -8.39181         1.05999
| 49>    S       -1.32723        -6.78273         0.46810
| 50>    C       -2.11842       -10.11312         2.70851
| 51>    C       -2.99951       -10.07852         3.79598
| 52>    C       -3.10771       -11.34847         4.40936
| 53>    C       -2.32782       -12.27578         3.79484
| 54>    S       -1.42880       -11.66271         2.45103
| 55>    C       -3.52164        -8.74112         3.92357
| 56>    C       -4.36817        -8.20310         4.91334
| 57>    C       -4.82182        -8.86436         6.01647
| 58>    C       -5.58640        -8.28838         7.05354
| 59>    C       -6.06751        -6.98919         7.20293
| 60>    C       -6.71685        -6.80628         8.41655
| 61>    C       -6.74799        -7.97180         9.21238
| 62>    S       -5.97898        -9.29114         8.44578
| 63>    C       -7.38553        -7.67467        10.43352
| 64>    C       -7.76044        -6.31029        10.41948
| 65>    C       -7.37062        -5.72977         9.15091
| 66>    C       -7.59126        -4.44524         8.74684
| 67>    C       -7.16956        -3.95535         7.49644
| 68>    N       -6.81911        -3.53693         6.48751
| 69>    C       -8.24944        -3.51361         9.57832
| 70>    N       -8.77052        -2.75969        10.26731
| 71>    C       -8.38239        -5.90688        11.59000
| 72>    C       -8.50091        -6.94087        12.51110
| 73>    S       -7.79757        -8.44020        11.89625
| 74>    C       -9.00486        -6.91101        13.82287
| 75>    C       -9.75458        -5.94847        14.43901
| 76>    C       -9.75873        -5.90130        15.92485
| 77>    O       -9.34880        -6.75132        16.68069
| 78>    C      -10.31487        -4.57274        16.26572
| 79>    C      -10.73924        -3.92821        15.08970
| 80>    C      -10.53604        -4.83199        13.95718
| 81>    C      -11.19823        -4.74127        12.75969
| 82>    C      -12.06713        -3.68232        12.42178
| 83>    N      -12.79138        -2.84987        12.10764
| 84>    C      -11.16926        -5.74574        11.77320
| 85>    N      -11.18712        -6.55429        10.95817
| 86>    C      -11.25489        -2.64304        15.15520
| 87>    C      -11.34969        -2.02683        16.39422
| 88>    C      -10.94211        -2.68767        17.54553
| 89>    C      -10.41432        -3.97152        17.50320
| 90>   Br      -11.10127        -1.80670        19.22122
| 91>    H       -8.49694         2.08618         3.36492
| 92>    H      -10.04714         1.27139         5.07801
| 93>    H       -8.30124        -2.64781         4.89794
| 94>    H       -4.26944        -0.36867         0.65190
| 95>    H       -2.36650        -0.57089        -0.74738
| 96>    H        0.22957         1.33626        -3.32060
| 97>    H        0.56485        -0.18187        -4.21221
| 98>    H        1.59622         0.28003        -2.84316
| 99>    H       -3.87818        -6.07804         3.08687
|100>    H       -0.60953        -9.03184         0.52577
|101>    H       -3.72885       -11.59178         5.25121
|102>    H       -2.22042       -13.31171         4.05080
|103>    H       -4.63721        -7.16304         4.79345
|104>    H       -4.55714        -9.90063         6.15791
|105>    H       -5.93614        -6.22460         6.45938
|106>    H       -8.68760        -4.89852        11.80081
|107>    H       -8.68835        -7.72010        14.47448
|108>    H      -11.56630        -2.11282        14.26996
|109>    H      -11.74264        -1.02429        16.46583
|110>    H      -10.09136        -4.48476        18.39562
|111> *
|112>
|113>                          ****END OF INPUT****

CARTESIAN COORDINATES (ANGSTROEM)
---------------------------------
  C     -6.402750   -1.881080    2.922580
  O     -6.126370   -3.061140    3.058930
  C     -7.484360   -1.152290    3.606620
  C     -7.505750    0.179300    3.154580
  C     -8.440600    1.057860    3.682080
  C     -9.320220    0.596810    4.652430
  C     -9.271290   -0.721030    5.087190
  C     -8.356500   -1.624390    4.562530
  Br   -10.472780   -1.309510    6.438820
  C     -6.441890    0.354640    2.164370
  C     -6.176950    1.516070    1.482750
  C     -6.914260    2.708170    1.640250
  N     -7.476340    3.705860    1.721030
  C     -5.151070    1.688700    0.531600
  N     -4.337530    1.902560   -0.251320
  C     -5.747500   -0.910000    2.049060
  C     -4.649450   -1.178140    1.260870
  C     -3.922500   -2.359850    1.128660
  S     -4.210570   -3.877940    1.944690
  C     -2.840490   -4.652630    1.179420
  C     -2.209570   -3.767620    0.314580
  C     -2.796110   -2.481310    0.287410
  C     -2.106230   -1.598420   -0.569410
  C     -1.036250   -2.203520   -1.166040
  C     -0.065570   -1.629360   -2.103770
  O      0.847680   -2.249430   -2.590730
  O     -0.316070   -0.337800   -2.344540
  C      0.578530    0.310540   -3.237800
  S     -0.823330   -3.875630   -0.718490
  C     -2.534970   -6.003790    1.480310
  C     -3.166480   -6.661060    2.518420
  C     -2.955220   -7.985770    2.865530
  C     -2.038640   -8.832330    2.099620
  C     -1.293940   -8.391810    1.059990
  S     -1.327230   -6.782730    0.468100
  C     -2.118420  -10.113120    2.708510
  C     -2.999510  -10.078520    3.795980
  C     -3.107710  -11.348470    4.409360
  C     -2.327820  -12.275780    3.794840
  S     -1.428800  -11.662710    2.451030
  C     -3.521640   -8.741120    3.923570
  C     -4.368170   -8.203100    4.913340
  C     -4.821820   -8.864360    6.016470
  C     -5.586400   -8.288380    7.053540
  C     -6.067510   -6.989190    7.202930
  C     -6.716850   -6.806280    8.416550
  C     -6.747990   -7.971800    9.212380
  S     -5.978980   -9.291140    8.445780
  C     -7.385530   -7.674670   10.433520
  C     -7.760440   -6.310290   10.419480
  C     -7.370620   -5.729770    9.150910
  C     -7.591260   -4.445240    8.746840
  C     -7.169560   -3.955350    7.496440
  N     -6.819110   -3.536930    6.487510
  C     -8.249440   -3.513610    9.578320
  N     -8.770520   -2.759690   10.267310
  C     -8.382390   -5.906880   11.590000
  C     -8.500910   -6.940870   12.511100
  S     -7.797570   -8.440200   11.896250
  C     -9.004860   -6.911010   13.822870
  C     -9.754580   -5.948470   14.439010
  C     -9.758730   -5.901300   15.924850
  O     -9.348800   -6.751320   16.680690
  C    -10.314870   -4.572740   16.265720
  C    -10.739240   -3.928210   15.089700
  C    -10.536040   -4.831990   13.957180
  C    -11.198230   -4.741270   12.759690
  C    -12.067130   -3.682320   12.421780
  N    -12.791380   -2.849870   12.107640
  C    -11.169260   -5.745740   11.773200
  N    -11.187120   -6.554290   10.958170
  C    -11.254890   -2.643040   15.155200
  C    -11.349690   -2.026830   16.394220
  C    -10.942110   -2.687670   17.545530
  C    -10.414320   -3.971520   17.503200
  Br   -11.101270   -1.806700   19.221220
  H     -8.496940    2.086180    3.364920
  H    -10.047140    1.271390    5.078010
  H     -8.301240   -2.647810    4.897940
  H     -4.269440   -0.368670    0.651900
  H     -2.366500   -0.570890   -0.747380
  H      0.229570    1.336260   -3.320600
  H      0.564850   -0.181870   -4.212210
  H      1.596220    0.280030   -2.843160
  H     -3.878180   -6.078040    3.086870
  H     -0.609530   -9.031840    0.525770
  H     -3.728850  -11.591780    5.251210
  H     -2.220420  -13.311710    4.050800
  H     -4.637210   -7.163040    4.793450
  H     -4.557140   -9.900630    6.157910
  H     -5.936140   -6.224600    6.459380
  H     -8.687600   -4.898520   11.800810
  H     -8.688350   -7.720100   14.474480
  H    -11.566300   -2.112820   14.269960
  H    -11.742640   -1.024290   16.465830
  H    -10.091360   -4.484760   18.395620

 Total Charge           Charge          ....    0
 Multiplicity           Mult            ....    1
 Number of Electrons    NEL             ....  608
 Basis Dimension        Dim             .... 1224

ORBITAL ENERGIES
----------------

  NO   OCC          E(Eh)            E(eV)
   0   2.0000    -482.869750    -13139.5539
   1   2.0000    -482.865591    -13139.4407
   2   2.0000     -88.995484     -2421.6902
   3   2.0000     -88.991540     -2421.5829
   4   2.0000     -88.991346     -2421.5776
   5   2.0000     -88.979282     -2421.2494
   6   2.0000     -88.972523     -2421.0654
   7   2.0000     -88.969448     -2420.9818
   8   2.0000     -62.547484     -1702.0036
   9   2.0000     -62.543115     -1701.8847
  10   2.0000     -56.381317     -1534.2136
  11   2.0000     -56.378795     -1534.1450
  12   2.0000     -56.378791     -1534.1449
  13   2.0000     -56.376961     -1534.0951
  14   2.0000     -56.374451     -1534.0268
  15   2.0000     -56.374383     -1534.0249
  16   2.0000     -19.267765      -524.3026
  17   2.0000     -19.224520      -523.1258
  18   2.0000     -19.217084      -522.9234
  19   2.0000     -19.213151      -522.8164
  20   2.0000     -14.437663      -392.8688
  21   2.0000     -14.434277      -392.7767
  22   2.0000     -14.419955      -392.3869
  23   2.0000     -14.417205      -392.3121
  24   2.0000     -14.412879      -392.1944
  25   2.0000     -14.412485      -392.1837
  26   2.0000     -10.412885      -283.3490
  27   2.0000     -10.370481      -282.1951
  28   2.0000     -10.368883      -282.1516
  29   2.0000     -10.368180      -282.1325
  30   2.0000     -10.357413      -281.8395
  31   2.0000     -10.346076      -281.5311
  32   2.0000     -10.343467      -281.4601
  33   2.0000     -10.342664      -281.4382
  34   2.0000     -10.342442      -281.4322
  35   2.0000     -10.342124      -281.4235
  36   2.0000     -10.342077      -281.4222
  37   2.0000     -10.341474      -281.4058
  38   2.0000     -10.341458      -281.4054
  39   2.0000     -10.339135      -281.3422
  40   2.0000     -10.337881      -281.3080
  41   2.0000     -10.334610      -281.2190
  42   2.0000     -10.333439      -281.1872
  43   2.0000     -10.331666      -281.1389
  44   2.0000     -10.331110      -281.1238
  45   2.0000     -10.326009      -280.9850
  46   2.0000     -10.325859      -280.9809
  47   2.0000     -10.325615      -280.9743
  48   2.0000     -10.324794      -280.9519
  49   2.0000     -10.324669      -280.9485
  50   2.0000     -10.323536      -280.9177
  51   2.0000     -10.323092      -280.9056
  52   2.0000     -10.321026      -280.8494
  53   2.0000     -10.318206      -280.7727
  54   2.0000     -10.316141      -280.7165
  55   2.0000     -10.315105      -280.6883
  56   2.0000     -10.313833      -280.6537
  57   2.0000     -10.313269      -280.6383
  58   2.0000     -10.312921      -280.6289
  59   2.0000     -10.312058      -280.6054
  60   2.0000     -10.309560      -280.5374
  61   2.0000     -10.308985      -280.5217
  62   2.0000     -10.308980      -280.5216
  63   2.0000     -10.306350      -280.4501
  64   2.0000     -10.305776      -280.4344
  65   2.0000     -10.303366      -280.3688
  66   2.0000     -10.302798      -280.3534
  67   2.0000     -10.302145      -280.3356
  68   2.0000     -10.302093      -280.3342
  69   2.0000     -10.301984      -280.3312
  70   2.0000     -10.301741      -280.3246
  71   2.0000     -10.300437      -280.2891
  72   2.0000     -10.298057      -280.2244
  73   2.0000     -10.298020      -280.2234
  74   2.0000     -10.297727      -280.2154
  75   2.0000     -10.297665      -280.2137
  76   2.0000     -10.297591      -280.2117
  77   2.0000     -10.297243      -280.2022
  78   2.0000     -10.294843      -280.1369
  79   2.0000     -10.294362      -280.1238
  80   2.0000     -10.293068      -280.0886
  81   2.0000     -10.292569      -280.0751
  82   2.0000     -10.289871      -280.0016
  83   2.0000     -10.288343      -279.9600
  84   2.0000      -8.776783      -238.8284
  85   2.0000      -8.772342      -238.7076
  86   2.0000      -8.090153      -220.1442
  87   2.0000      -8.086515      -220.0453
  88   2.0000      -8.086289      -220.0391
  89   2.0000      -8.071470      -219.6359
  90   2.0000      -8.067395      -219.5250
  91   2.0000      -8.065036      -219.4608
  92   2.0000      -6.612639      -179.9391
  93   2.0000      -6.608186      -179.8179
  94   2.0000      -6.598869      -179.5644
  95   2.0000      -6.598477      -179.5537
  96   2.0000      -6.594447      -179.4440
  97   2.0000      -6.594015      -179.4323
  98   2.0000      -6.059342      -164.8831
  99   2.0000      -6.056109      -164.7951
 100   2.0000      -6.055475      -164.7779
 101   2.0000      -6.055186      -164.7700
 102   2.0000      -6.052600      -164.6996
 103   2.0000      -6.051474      -164.6690
 104   2.0000      -6.051408      -164.6672
 105   2.0000      -6.048666      -164.5926
 106   2.0000      -6.048418      -164.5858
 107   2.0000      -6.041219      -164.3899
 108   2.0000      -6.037151      -164.2792
 109   2.0000      -6.036322      -164.2567
 110   2.0000      -6.034444      -164.2056
 111   2.0000      -6.033484      -164.1795
 112   2.0000      -6.032753      -164.1596
 113   2.0000      -6.030188      -164.0898
 114   2.0000      -6.028766      -164.0511
 115   2.0000      -6.027083      -164.0053
 116   2.0000      -2.728533       -74.2472
 117   2.0000      -2.724827       -74.1463
 118   2.0000      -2.724490       -74.1371
 119   2.0000      -2.724059       -74.1254
 120   2.0000      -2.720349       -74.0245
 121   2.0000      -2.720078       -74.0171
 122   2.0000      -2.713572       -73.8401
 123   2.0000      -2.713549       -73.8394
 124   2.0000      -2.709133       -73.7193
 125   2.0000      -2.709111       -73.7186
 126   2.0000      -1.199937       -32.6520
 127   2.0000      -1.139864       -31.0173
 128   2.0000      -1.132526       -30.8176
 129   2.0000      -1.106755       -30.1163
 130   2.0000      -1.049981       -28.5714
 131   2.0000      -1.030221       -28.0337
 132   2.0000      -1.028065       -27.9751
 133   2.0000      -1.019843       -27.7513
 134   2.0000      -1.019711       -27.7477
 135   2.0000      -1.018472       -27.7140
 136   2.0000      -1.013726       -27.5849
 137   2.0000      -1.002184       -27.2708
 138   2.0000      -1.000780       -27.2326
 139   2.0000      -1.000542       -27.2261
 140   2.0000      -0.993880       -27.0449
 141   2.0000      -0.992337       -27.0029
 142   2.0000      -0.987015       -26.8580
 143   2.0000      -0.967462       -26.3260
 144   2.0000      -0.966278       -26.2938
 145   2.0000      -0.960842       -26.1458
 146   2.0000      -0.958587       -26.0845
 147   2.0000      -0.943459       -25.6728
 148   2.0000      -0.927659       -25.2429
 149   2.0000      -0.920498       -25.0480
 150   2.0000      -0.909197       -24.7405
 151   2.0000      -0.907756       -24.7013
 152   2.0000      -0.903422       -24.5834
 153   2.0000      -0.896832       -24.4040
 154   2.0000      -0.889872       -24.2146
 155   2.0000      -0.880469       -23.9588
 156   2.0000      -0.878592       -23.9077
 157   2.0000      -0.867791       -23.6138
 158   2.0000      -0.861647       -23.4466
 159   2.0000      -0.860281       -23.4094
 160   2.0000      -0.856525       -23.3072
 161   2.0000      -0.854028       -23.2393
 162   2.0000      -0.847135       -23.0517
 163   2.0000      -0.845628       -23.0107
 164   2.0000      -0.828515       -22.5450
 165   2.0000      -0.817646       -22.2493
 166   2.0000      -0.810216       -22.0471
 167   2.0000      -0.804475       -21.8909
 168   2.0000      -0.797710       -21.7068
 169   2.0000      -0.783691       -21.3253
 170   2.0000      -0.773436       -21.0463
 171   2.0000      -0.767485       -20.8843
 172   2.0000      -0.766386       -20.8544
 173   2.0000      -0.760047       -20.6819
 174   2.0000      -0.743627       -20.2351
 175   2.0000      -0.733831       -19.9686
 176   2.0000      -0.724713       -19.7205
 177   2.0000      -0.717062       -19.5122
 178   2.0000      -0.708531       -19.2801
 179   2.0000      -0.700259       -19.0550
 180   2.0000      -0.696522       -18.9533
 181   2.0000      -0.691708       -18.8223
 182   2.0000      -0.690460       -18.7884
 183   2.0000      -0.685718       -18.6593
 184   2.0000      -0.681773       -18.5520
 185   2.0000      -0.679461       -18.4891
 186   2.0000      -0.666625       -18.1398
 187   2.0000      -0.661756       -18.0073
 188   2.0000      -0.655658       -17.8414
 189   2.0000      -0.646688       -17.5973
 190   2.0000      -0.643063       -17.4986
 191   2.0000      -0.639422       -17.3996
 192   2.0000      -0.634212       -17.2578
 193   2.0000      -0.630775       -17.1643
 194   2.0000      -0.622698       -16.9445
 195   2.0000      -0.618500       -16.8302
 196   2.0000      -0.617315       -16.7980
 197   2.0000      -0.615199       -16.7404
 198   2.0000      -0.612376       -16.6636
 199   2.0000      -0.609539       -16.5864
 200   2.0000      -0.590121       -16.0580
 201   2.0000      -0.589018       -16.0280
 202   2.0000      -0.585911       -15.9435
 203   2.0000      -0.578995       -15.7553
 204   2.0000      -0.578143       -15.7321
 205   2.0000      -0.577648       -15.7186
 206   2.0000      -0.573418       -15.6035
 207   2.0000      -0.568369       -15.4661
 208   2.0000      -0.566138       -15.4054
 209   2.0000      -0.559905       -15.2358
 210   2.0000      -0.553090       -15.0504
 211   2.0000      -0.550728       -14.9861
 212   2.0000      -0.549380       -14.9494
 213   2.0000      -0.543405       -14.7868
 214   2.0000      -0.543118       -14.7790
 215   2.0000      -0.542192       -14.7538
 216   2.0000      -0.540697       -14.7131
 217   2.0000      -0.537549       -14.6274
 218   2.0000      -0.534345       -14.5403
 219   2.0000      -0.532996       -14.5035
 220   2.0000      -0.532020       -14.4770
 221   2.0000      -0.530761       -14.4427
 222   2.0000      -0.529479       -14.4078
 223   2.0000      -0.521755       -14.1977
 224   2.0000      -0.519637       -14.1400
 225   2.0000      -0.518692       -14.1143
 226   2.0000      -0.515942       -14.0395
 227   2.0000      -0.509966       -13.8769
 228   2.0000      -0.509935       -13.8760
 229   2.0000      -0.505045       -13.7430
 230   2.0000      -0.502371       -13.6702
 231   2.0000      -0.498807       -13.5732
 232   2.0000      -0.498345       -13.5607
 233   2.0000      -0.498204       -13.5568
 234   2.0000      -0.495267       -13.4769
 235   2.0000      -0.491595       -13.3770
 236   2.0000      -0.490000       -13.3336
 237   2.0000      -0.488071       -13.2811
 238   2.0000      -0.481754       -13.1092
 239   2.0000      -0.480419       -13.0729
 240   2.0000      -0.478749       -13.0274
 241   2.0000      -0.475624       -12.9424
 242   2.0000      -0.472865       -12.8673
 243   2.0000      -0.472141       -12.8476
 244   2.0000      -0.470779       -12.8106
 245   2.0000      -0.464392       -12.6367
 246   2.0000      -0.463260       -12.6060
 247   2.0000      -0.462338       -12.5809
 248   2.0000      -0.459452       -12.5023
 249   2.0000      -0.457145       -12.4396
 250   2.0000      -0.454795       -12.3756
 251   2.0000      -0.452831       -12.3222
 252   2.0000      -0.451975       -12.2989
 253   2.0000      -0.450983       -12.2719
 254   2.0000      -0.449020       -12.2185
 255   2.0000      -0.448838       -12.2135
 256   2.0000      -0.446729       -12.1561
 257   2.0000      -0.444903       -12.1064
 258   2.0000      -0.444736       -12.1019
 259   2.0000      -0.443189       -12.0598
 260   2.0000      -0.442646       -12.0450
 261   2.0000      -0.441666       -12.0183
 262   2.0000      -0.440319       -11.9817
 263   2.0000      -0.439645       -11.9633
 264   2.0000      -0.434338       -11.8189
 265   2.0000      -0.432516       -11.7694
 266   2.0000      -0.431226       -11.7342
 267   2.0000      -0.430369       -11.7109
 268   2.0000      -0.428561       -11.6617
 269   2.0000      -0.427197       -11.6246
 270   2.0000      -0.426922       -11.6171
 271   2.0000      -0.426624       -11.6090
 272   2.0000      -0.423671       -11.5287
 273   2.0000      -0.422823       -11.5056
 274   2.0000      -0.417461       -11.3597
 275   2.0000      -0.415600       -11.3091
 276   2.0000      -0.410933       -11.1821
 277   2.0000      -0.409857       -11.1528
 278   2.0000      -0.405961       -11.0468
 279   2.0000      -0.397650       -10.8206
 280   2.0000      -0.387401       -10.5417
 281   2.0000      -0.385475       -10.4893
 282   2.0000      -0.382443       -10.4068
 283   2.0000      -0.366728        -9.9792
 284   2.0000      -0.366470        -9.9722
 285   2.0000      -0.364914        -9.9298
 286   2.0000      -0.363890        -9.9020
 287   2.0000      -0.359863        -9.7924
 288   2.0000      -0.352154        -9.5826
 289   2.0000      -0.350070        -9.5259
 290   2.0000      -0.348986        -9.4964
 291   2.0000      -0.346045        -9.4164
 292   2.0000      -0.338648        -9.2151
 293   2.0000      -0.337861        -9.1937
 294   2.0000      -0.335269        -9.1231
 295   2.0000      -0.328838        -8.9481
 296   2.0000      -0.323006        -8.7894
 297   2.0000      -0.322541        -8.7768
 298   2.0000      -0.307658        -8.3718
 299   2.0000      -0.305821        -8.3218
 300   2.0000      -0.299086        -8.1385
 301   2.0000      -0.286028        -7.7832
 302   2.0000      -0.265412        -7.2222
 303   2.0000      -0.229115        -6.2345
 304   0.0000      -0.117472        -3.1966
 305   0.0000      -0.105028        -2.8579
 306   0.0000      -0.087521        -2.3816
 307   0.0000      -0.069601        -1.8939
 308   0.0000      -0.063393        -1.7250

MULLIKEN ATOMIC CHARGES
-----------------------
   0 C :    0.179573
   1 O :   -0.187413
   2 C :   -0.025696
   3 C :    0.030422
   4 C :   -0.030460
   5 C :    0.047473
   6 C :   -0.006654
   7 C :    0.010498
   8 Br:   -0.014748
   9 C :    0.321179
  10 C :   -0.352214
  11 C :   -0.189970
  12 N :    0.155578
  13 C :   -0.186223
  14 N :    0.140997
  15 C :   -0.105341
  16 C :   -0.036281
  17 C :   -0.061742
  18 S :    0.187901
  19 C :   -0.094018
  20 C :   -0.053992
  21 C :    0.127485
  22 C :   -0.003430
  23 C :   -0.134759
  24 C :    0.209588
  25 O :   -0.198532
  26 O :   -0.294667
  27 C :    0.189453
  28 S :    0.181770
  29 C :   -0.055454
  30 C :   -0.087532
  31 C :    0.066006
  32 C :    0.062583
  33 C :   -0.113395
  34 S :    0.146953
  35 C :   -0.111791
  36 C :    0.051613
  37 C :   -0.006544
  38 C :   -0.063415
  39 S :    0.138464
  40 C :    0.093313
  41 C :   -0.008946
  42 C :    0.040200
  43 C :   -0.063866
  44 C :   -0.050853
  45 C :    0.023982
  46 C :   -0.120143
  47 S :    0.186712
  48 C :   -0.062175
  49 C :   -0.019753
  50 C :    0.318463
  51 C :   -0.304315
  52 C :   -0.157919
  53 N :    0.160241
  54 C :   -0.186279
  55 N :    0.173130
  56 C :    0.005652
  57 C :   -0.110435
  58 S :    0.207793
  59 C :    0.085501
  60 C :   -0.147063
  61 C :    0.137009
  62 O :   -0.142945
  63 C :   -0.006138
  64 C :    0.015618
  65 C :    0.265246
  66 C :   -0.328354
  67 C :   -0.172358
  68 N :    0.157122
  69 C :   -0.202388
  70 N :    0.167175
  71 C :   -0.023914
  72 C :    0.050995
  73 C :   -0.005951
  74 C :   -0.013307
  75 Br:   -0.022043
  76 H :    0.006181
  77 H :    0.004660
  78 H :   -0.001256
  79 H :   -0.004618
  80 H :    0.026238
  81 H :    0.043139
  82 H :    0.035549
  83 H :    0.034902
  84 H :    0.016240
  85 H :    0.042187
  86 H :   -0.009351
  87 H :    0.029421
  88 H :   -0.026164
  89 H :   -0.047968
  90 H :    0.011698
  91 H :    0.025097
  92 H :    0.018867
  93 H :    0.014440
  94 H :    0.005805
  95 H :    0.002656
Sum of atomic charges:   -0.0000000

LOEWDIN ATOMIC CHARGES
----------------------
   0 C :    0.089756
   1 O :   -0.165043
   2 C :   -0.036569
   3 C :   -0.016408
   4 C :    0.005442
   5 C :   -0.012956
   6 C :   -0.098549
   7 C :    0.007694
   8 Br:    0.118052
   9 C :    0.077697
  10 C :   -0.144463
  11 C :   -0.019466
  12 N :   -0.052920
  13 C :   -0.016439
  14 N :   -0.060823
  15 C :   -0.110748
  16 C :    0.049256
  17 C :   -0.183208
  18 S :    0.534303
  19 C :   -0.187714
  20 C :   -0.203496
  21 C :   -0.045422
  22 C :   -0.016726
  23 C :   -0.188058
  24 C :    0.063000
  25 O :   -0.174556
  26 O :   -0.085216
  27 C :    0.085143
  28 S :    0.441230
  29 C :   -0.187855
  30 C :   -0.011887
  31 C :   -0.013683
  32 C :   -0.049768
  33 C :   -0.136072
  34 S :    0.466160
  35 C :   -0.196485
  36 C :   -0.036628
  37 C :   -0.066549
  38 C :   -0.160708
  39 S :    0.432487
  40 C :   -0.045695
  41 C :    0.004650
  42 C :   -0.067257
  43 C :   -0.139293
  44 C :   -0.037399
  45 C :   -0.047842
  46 C :   -0.204699
  47 S :    0.474597
  48 C :   -0.147723
  49 C :   -0.075305
  50 C :    0.085899
  51 C :   -0.102000
  52 C :   -0.005579
  53 N :   -0.031730
  54 C :   -0.013376
  55 N :   -0.031312
  56 C :    0.016003
  57 C :   -0.186268
  58 S :    0.492591
  59 C :    0.044158
  60 C :   -0.102034
  61 C :    0.083769
  62 O :   -0.141654
  63 C :   -0.040252
  64 C :   -0.012262
  65 C :    0.064763
  66 C :   -0.138408
  67 C :   -0.019435
  68 N :   -0.047202
  69 C :   -0.016140
  70 N :   -0.046086
  71 C :    0.007882
  72 C :   -0.011980
  73 C :   -0.099805
  74 C :   -0.000049
  75 Br:    0.113445
  76 H :    0.042132
  77 H :    0.040234
  78 H :    0.037952
  79 H :    0.048857
  80 H :    0.045292
  81 H :    0.029962
  82 H :    0.025041
  83 H :    0.024866
  84 H :    0.031786
  85 H :    0.039325
  86 H :    0.028825
  87 H :    0.025645
  88 H :    0.030834
  89 H :    0.024543
  90 H :    0.039454
  91 H :    0.042639
  92 H :    0.045276
  93 H :    0.044276
  94 H :    0.040443
  95 H :    0.043837

  Mayer bond orders larger than 0.100000
B(  0-C ,  1-O ) :   2.0835 B(  0-C ,  2-C ) :   0.9661 B(  0-C , 15-C ) :   0.9981
B(  1-O , 18-S ) :   0.1011 B(  2-C ,  3-C ) :   1.3230 B(  2-C ,  7-C ) :   1.3998
B(  3-C ,  4-C ) :   1.3730 B(  3-C ,  9-C ) :   0.9869 B(  4-C ,  5-C ) :   1.3748
B(  4-C , 76-H ) :   0.9839 B(  5-C ,  6-C ) :   1.3941 B(  5-C , 77-H ) :   0.9849
B(  6-C ,  7-C ) :   1.3261 B(  6-C ,  8-Br) :   0.9940 B(  7-C , 78-H ) :   0.9910
B(  9-C , 10-C ) :   1.6183 B(  9-C , 15-C ) :   1.0887 B( 10-C , 11-C ) :   1.1452
B( 10-C , 13-C ) :   1.1452 B( 11-C , 12-N ) :   2.9755 B( 13-C , 14-N ) :   2.9719
B( 15-C , 16-C ) :   1.4698 B( 16-C , 17-C ) :   1.3176 B( 16-C , 79-H ) :   0.9364
B( 17-C , 18-S ) :   1.0867 B( 17-C , 21-C ) :   1.2614 B( 18-S , 19-C ) :   1.1259
B( 19-C , 20-C ) :   1.3928 B( 19-C , 29-C ) :   1.2061 B( 20-C , 21-C ) :   1.3073
B( 20-C , 28-S ) :   1.0508 B( 21-C , 22-C ) :   1.1712 B( 22-C , 23-C ) :   1.5872
B( 22-C , 80-H ) :   0.9940 B( 23-C , 24-C ) :   0.9543 B( 23-C , 28-S ) :   1.0884
B( 24-C , 25-O ) :   2.1413 B( 24-C , 26-O ) :   1.2554 B( 26-O , 27-C ) :   0.9157
B( 27-C , 81-H ) :   0.9811 B( 27-C , 82-H ) :   0.9760 B( 27-C , 83-H ) :   0.9765
B( 29-C , 30-C ) :   1.4759 B( 29-C , 34-S ) :   1.0499 B( 30-C , 31-C ) :   1.2753
B( 30-C , 84-H ) :   0.9639 B( 31-C , 32-C ) :   1.0533 B( 31-C , 40-C ) :   1.3307
B( 32-C , 33-C ) :   1.5997 B( 32-C , 35-C ) :   1.1832 B( 33-C , 34-S ) :   1.1522
B( 33-C , 85-H ) :   0.9403 B( 35-C , 36-C ) :   1.4419 B( 35-C , 39-S ) :   1.0837
B( 36-C , 37-C ) :   1.2091 B( 36-C , 40-C ) :   1.0800 B( 37-C , 38-C ) :   1.5901
B( 37-C , 86-H ) :   0.9997 B( 38-C , 39-S ) :   1.1567 B( 38-C , 87-H ) :   0.9648
B( 40-C , 41-C ) :   1.2163 B( 41-C , 42-C ) :   1.6058 B( 41-C , 88-H ) :   0.9580
B( 42-C , 43-C ) :   1.1500 B( 42-C , 89-H ) :   0.9591 B( 43-C , 44-C ) :   1.4120
B( 43-C , 47-S ) :   1.1228 B( 44-C , 45-C ) :   1.3302 B( 44-C , 90-H ) :   0.9899
B( 45-C , 46-C ) :   1.4121 B( 45-C , 50-C ) :   0.9867 B( 46-C , 47-S ) :   1.0968
B( 46-C , 48-C ) :   1.2286 B( 48-C , 49-C ) :   1.3795 B( 48-C , 58-S ) :   1.1626
B( 49-C , 50-C ) :   1.0081 B( 49-C , 56-C ) :   1.3785 B( 50-C , 51-C ) :   1.7070
B( 51-C , 52-C ) :   1.1472 B( 51-C , 54-C ) :   1.1351 B( 52-C , 53-N ) :   2.9236
B( 54-C , 55-N ) :   2.9820 B( 56-C , 57-C ) :   1.3732 B( 56-C , 91-H ) :   0.9757
B( 57-C , 58-S ) :   1.0709 B( 57-C , 59-C ) :   1.1746 B( 59-C , 60-C ) :   1.6313
B( 59-C , 92-H ) :   0.9276 B( 60-C , 61-C ) :   0.9562 B( 60-C , 65-C ) :   1.0517
B( 61-C , 62-O ) :   2.2610 B( 61-C , 63-C ) :   0.9177 B( 63-C , 64-C ) :   1.3352
B( 63-C , 74-C ) :   1.3849 B( 64-C , 65-C ) :   0.9989 B( 64-C , 71-C ) :   1.3719
B( 65-C , 66-C ) :   1.6452 B( 66-C , 67-C ) :   1.1258 B( 66-C , 69-C ) :   1.1694
B( 67-C , 68-N ) :   2.9969 B( 69-C , 70-N ) :   2.9967 B( 71-C , 72-C ) :   1.3794
B( 71-C , 93-H ) :   0.9870 B( 72-C , 73-C ) :   1.3938 B( 72-C , 94-H ) :   0.9844
B( 73-C , 74-C ) :   1.3381 B( 73-C , 75-Br) :   0.9907 B( 74-C , 95-H ) :   1.0073

-----------------------------------------------------------------------------
         ABSORPTION SPECTRUM VIA TRANSITION ELECTRIC DIPOLE MOMENTS
-----------------------------------------------------------------------------
State   Energy  Wavelength   fosc         T2         TX        TY        TZ
        (cm-1)    (nm)                  (au**2)     (au)      (au)      (au)
-----------------------------------------------------------------------------
   0    9122.5   1096.2   0.329459665  11.88954  -1.33856  -0.77386   3.08203
   1   12664.8    789.6   0.449941893  11.69592   0.41864  -2.98014   1.62463
   2   17111.8    584.4   0.342616080   6.59155  -1.51443   0.52096   2.00665
   3   18164.2    550.5   0.883153101  16.00647  -2.49136   2.13657   2.28794
   4   19994.9    500.1   0.289261091   4.76264  -1.27320   1.68969   0.53532
   5   20762.6    481.6   0.289703725   4.59354  -1.44538   0.91656   1.29009
   6   21532.4    464.4   0.033666600   0.51473   0.53670  -0.18711  -0.43780
   7   23641.9    423.0   0.007959456   0.11084   0.05601  -0.12444   0.30367
   8   23932.4    417.8   0.427962408   5.88701   1.22752  -0.51657  -2.02815
   9   24955.7    400.7   0.083796591   1.10543  -0.36627   0.40491   0.89851
  10   25854.9    386.8   0.062870499   0.80053   0.60821   0.34818  -0.55622
  11   26162.1    382.2   0.178582969   2.24721  -1.05356   0.28842   1.02666
  12   26810.5    373.0   0.000685871   0.00842  -0.03251  -0.03746   0.07721
  13   27035.4    369.9   0.028669093   0.34911   0.14882  -0.41656   0.39171
  14   27172.2    368.0   0.100257878   1.21470  -0.86580  -0.28866   0.61787
  15   27561.2    362.8   0.038104257   0.45515   0.04525   0.00205   0.67312
  16   28485.7    351.1   0.088609524   1.02407   0.45531   0.01384  -0.90364
  17   29043.1    344.3   0.126701591   1.43620   0.47887  -0.10741  -1.09332
  18   29128.4    343.3   0.091828683   1.03786  -0.25649   0.41263   0.89544
  19   29439.0    339.7   0.034966670   0.39103  -0.35209  -0.46646   0.22242
  20   29717.1    336.5   0.017591462   0.19488   0.37983  -0.21533   0.06515
  21   29969.0    333.7   0.213761219   2.34818   0.19306   1.43816  -0.49254
  22   30268.5    330.4   0.007709158   0.08385  -0.15837   0.20807   0.12440
  23   30560.6    327.2   0.103439937   1.11430  -0.73221   0.68246   0.33527
  24   30777.5    324.9   0.362627779   3.87885   0.14205   1.93170  -0.35667
  25   31333.7    319.1   0.079109731   0.83118   0.48292  -0.52185   0.57065
  26   31872.7    313.7   0.059619486   0.61581   0.34443  -0.46555  -0.52957
  27   31938.4    313.1   0.007874582   0.08117   0.14252  -0.09324  -0.22840
  28   32206.5    310.5   0.133716971   1.36684  -0.55357  -0.09197   1.02564
  29   32546.5    307.3   0.052819710   0.53428  -0.28744   0.50467   0.44381
  30   32779.0    305.1   0.093767988   0.94175   0.28101  -0.11661  -0.92151
  31   32860.6    304.3   0.312681315   3.13258   0.26182  -0.18676  -1.74044
  32   33166.2    301.5   0.233711820   2.31986   1.07640  -0.26528  -1.04443
  33   33322.6    300.1   0.175316436   1.73205  -0.37701  -0.96578   0.81066
  34   33727.8    296.5   0.054513041   0.53209  -0.65789   0.28240  -0.13974
  35   34104.3    293.2   0.006201554   0.05986  -0.08950  -0.11382   0.19723
  36   34579.4    289.2   0.320781639   3.05399   0.24056   1.17474  -1.27126
  37   34657.5    288.5   0.209882979   1.99368   0.24890   1.00239  -0.96278
  38   34894.8    286.6   0.004517599   0.04262  -0.12977   0.15721  -0.03264
  39   34965.5    286.0   0.199725839   1.88049  -0.39207  -0.35065  -1.26642
  40   35050.5    285.3   0.191176930   1.79563  -0.22690  -1.29459  -0.26110
  41   35232.0    283.8   0.114386337   1.06884  -0.58434  -0.67406   0.52253
  42   35431.5    282.2   0.370336767   3.44099   0.54295   1.27567  -1.23242
  43   35961.2    278.1   0.085851129   0.78594   0.55901   0.39419  -0.56397
  44   36110.3    276.9   0.038668342   0.35253  -0.00759   0.56959   0.16745
  45   36431.9    274.5   0.029670202   0.26811  -0.31009  -0.33484   0.24462
  46   36458.8    274.3   0.051413600   0.46425   0.02506  -0.68053   0.02230
  47   36709.1    272.4   0.057595044   0.51652   0.09317   0.25444  -0.66566
  48   37277.3    268.3   0.045719866   0.40377  -0.03036   0.56520  -0.28880
  49   37404.2    267.3   0.147550810   1.29866  -0.26746  -0.08472  -1.10451
  50   37634.4    265.7   0.016818323   0.14712  -0.15653  -0.33845  -0.08985
  51   37679.8    265.4   0.021143611   0.18473   0.00228   0.35662  -0.23990
  52   37806.7    264.5   0.067097562   0.58427   0.37107   0.62184  -0.24472
  53   38050.8    262.8   0.051569635   0.44618  -0.06597   0.48904  -0.45018
  54   38351.9    260.7   0.013702592   0.11762  -0.08107  -0.06002   0.32779
  55   38436.9    260.2   0.000236075   0.00202   0.02021  -0.03820  -0.01243
  56   38489.5    259.8   0.064254610   0.54959   0.19323  -0.70924   0.09609
  57   38544.5    259.4   0.011422655   0.09756   0.00334  -0.31034   0.03518
  58   39078.7    255.9   0.008505940   0.07166   0.25151  -0.07018  -0.05895
  59   39331.6    254.2   0.083272484   0.69700   0.10491   0.70509  -0.43456
  60   39510.7    253.1   0.045383876   0.37815  -0.18912   0.58509   0.00689
  61   39707.8    251.8   0.004375544   0.03628  -0.10565   0.11887   0.10481
  62   39886.1    250.7   0.002051540   0.01693  -0.07809   0.09415   0.04439
  63   39940.8    250.4   0.016392679   0.13512   0.11010  -0.31188  -0.16040
  64   40018.7    249.9   0.011785614   0.09695   0.23667   0.07269  -0.18883
  65   40145.9    249.1   0.086833072   0.71206  -0.25281   0.78764  -0.16665
  66   40305.4    248.1   0.019296822   0.15762  -0.25622   0.06021   0.29722

FINAL SINGLE POINT ENERGY    -10384.206199294249

DIPOLE MOMENT
-------------
                                X             Y             Z
Electronic contribution:    -97.53134      43.60391     136.93396
Nuclear contribution   :    100.37006     -46.80428    -137.39177
                        -----------------------------------------
Total Dipole Moment    :      2.83872      -3.20037      -0.45781
                        -----------------------------------------
Magnitude (a.u.)       :      4.30236
Magnitude (Debye)      :     10.93573

Rotational constants in cm-1:     0.000863     0.000273     0.000219
Rotational constants in MHz :    25.860056     8.187812     6.580431

                             ****ORCA TERMINATED NORMALLY****
TOTAL RUN TIME: 0 days 0 hours 10 minutes 46 seconds 588 msec
