                         Program Version 4.2.0 -  RELEASE  -
|  1> # ORCA input file
|  2> # SCF done       -207.528925845681          0.000528029328
|  3> ! CAM-B3LYP def2-SVP def2/J RIJCOSX Grid4 TightSCF
|  4> %maxcore 5000
|  5> %tddft
|  6>     Mode sTDDFT
|  7>     Ethresh 5.0
|  8>     maxcore 5000
|  9> end
| 10>
| 11> %pal
| 12>   nprocs 6
| 13>   end
| 14> * xyz 0 1
| 15>    C       -5.77977        -2.16933         6.00977
| 16>    O       -5.42242        -3.28826         5.72627
| 17>    C       -5.90506        -1.60330         7.37223
| 18>    C       -6.26896        -0.24701         7.29747
| 19>    C       -6.42035         0.48761         8.46605
| 20>    C       -6.21265        -0.14255         9.68283
| 21>    C       -5.85783        -1.48497         9.73327
| 22>    C       -5.69341        -2.23823         8.57885
| 23>   Br       -5.58976        -2.30638        11.42452
| 24>    C       -6.42275         0.12436         5.89558
| 25>    C       -6.89788         1.31887         5.42811
| 26>    C       -7.25357         2.40631         6.25465
| 27>    N       -7.55551         3.32156         6.87757
| 28>    C       -7.13251         1.61644         4.06751
| 29>    N       -7.37299         1.92583         2.98883
| 30>    C       -6.07400        -1.03597         5.09181
| 31>    C       -5.85300        -1.05188         3.75551
| 32>    C       -5.61795        -2.22486         2.94844
| 33>    C       -4.62689        -2.16462         1.96202
| 34>    F       -3.92374        -1.00619         1.90857
| 35>    C       -4.32254        -3.21797         1.11398
| 36>    O       -3.37843        -3.23090         0.14711
| 37>    C       -2.72620        -2.03770        -0.24262
| 38>    C       -5.09572        -4.39764         1.25164
| 39>    C       -6.10249        -4.44610         2.21699
| 40>    C       -6.40373        -3.39074         3.07645
| 41>    O       -7.41793        -3.32150         3.95535
| 42>    C       -8.22754        -4.44793         4.23149
| 43>    F       -6.79842        -5.60275         2.31125
| 44>    C       -4.88176        -5.50632         0.33928
| 45>    C       -3.70130        -5.92538        -0.19986
| 46>    C       -3.85207        -6.96392        -1.14930
| 47>    C       -5.20059        -7.32556        -1.32338
| 48>    S       -6.24860        -6.41199        -0.28669
| 49>    C       -5.62663        -8.28873        -2.22884
| 50>    O       -6.96656        -8.51313        -2.23828
| 51>    C       -7.50980        -9.72607        -2.70719
| 52>    C       -4.62977        -8.86033        -3.04405
| 53>    C       -3.25504        -8.52048        -2.84736
| 54>    C       -2.83866        -7.60349        -1.89418
| 55>    O       -1.57831        -7.20560        -1.58628
| 56>    C       -0.46225        -7.84279        -2.15952
| 57>    S       -2.25055        -9.35813        -4.01666
| 58>    C       -3.63979       -10.07631        -4.79749
| 59>    C       -4.79461        -9.73071        -4.14801
| 60>    C       -3.47723       -10.87676        -5.98772
| 61>    C       -4.56352       -11.35568        -6.73796
| 62>    F       -5.81570       -11.05189        -6.31435
| 63>    C       -4.43565       -12.11171        -7.89598
| 64>    O       -5.42505       -12.62729        -8.65033
| 65>    C       -6.79112       -12.42552        -8.34518
| 66>    C       -3.13016       -12.41707        -8.35699
| 67>    C       -2.04595       -11.91719        -7.62945
| 68>    C       -2.17725       -11.18224        -6.46361
| 69>    O       -1.13619       -10.69269        -5.74949
| 70>    C        0.10080       -11.38004        -5.72507
| 71>    F       -0.80941       -12.10900        -8.14715
| 72>    C       -3.00064       -13.11407        -9.60277
| 73>    C       -2.01476       -13.89735       -10.10816
| 74>    C       -2.01089       -14.15218       -11.57915
| 75>    O       -2.90039       -13.91022       -12.35865
| 76>    C       -0.67521       -14.71564       -11.87033
| 77>    C        0.02227       -14.91348       -10.66470
| 78>    C       -0.84315       -14.54004        -9.54840
| 79>    C       -0.65949       -14.92544        -8.24757
| 80>    C        0.48069       -15.60976        -7.77772
| 81>    N        1.39204       -16.14619        -7.33168
| 82>    C       -1.60998       -14.73138        -7.22665
| 83>    N       -2.35385       -14.60762        -6.36092
| 84>    C        1.31856       -15.40696       -10.69454
| 85>    C        1.89231       -15.70019       -11.92213
| 86>    C        1.18086       -15.50950       -13.10007
| 87>    C       -0.11540       -15.01182       -13.09604
| 88>   Br        2.00690       -15.93389       -14.75656
| 89>    H       -6.68763         1.53141         8.44785
| 90>    H       -6.32519         0.41355        10.60084
| 91>    H       -5.41322        -3.27968         8.61270
| 92>    H       -5.79003        -0.10975         3.22382
| 93>    H       -2.14133        -2.31334        -1.11880
| 94>    H       -2.05699        -1.66724         0.53717
| 95>    H       -3.43933        -1.25601        -0.51332
| 96>    H       -8.91621        -4.11507         5.00687
| 97>    H       -7.63300        -5.28217         4.60801
| 98>    H       -8.79504        -4.76446         3.35359
| 99>    H       -2.74360        -5.52172         0.06506
|100>    H       -8.45877        -9.84225        -2.18223
|101>    H       -6.86384       -10.57635        -2.47715
|102>    H       -7.70907        -9.68540        -3.78239
|103>    H       -0.38728        -7.64574        -3.23199
|104>    H       -0.48206        -8.92208        -1.98833
|105>    H        0.40258        -7.41385        -1.65421
|106>    H       -5.75857       -10.06247        -4.46844
|107>    H       -7.05462       -12.85084        -7.37473
|108>    H       -7.33072       -12.95424        -9.12945
|109>    H       -7.06133       -11.36770        -8.36964
|110>    H       -0.04617       -12.46073        -5.66214
|111>    H        0.60522       -11.02880        -4.82589
|112>    H        0.71118       -11.14055        -6.59850
|113>    H       -3.82413       -12.94125       -10.29022
|114>    H        1.88859       -15.55430        -9.79178
|115>    H        2.90147       -16.08020       -11.96556
|116>    H       -0.66994       -14.85829       -14.00876
|117> *
|118>
|119>                          ****END OF INPUT****

CARTESIAN COORDINATES (ANGSTROEM)
---------------------------------
  C     -5.779770   -2.169330    6.009770
  O     -5.422420   -3.288260    5.726270
  C     -5.905060   -1.603300    7.372230
  C     -6.268960   -0.247010    7.297470
  C     -6.420350    0.487610    8.466050
  C     -6.212650   -0.142550    9.682830
  C     -5.857830   -1.484970    9.733270
  C     -5.693410   -2.238230    8.578850
  Br    -5.589760   -2.306380   11.424520
  C     -6.422750    0.124360    5.895580
  C     -6.897880    1.318870    5.428110
  C     -7.253570    2.406310    6.254650
  N     -7.555510    3.321560    6.877570
  C     -7.132510    1.616440    4.067510
  N     -7.372990    1.925830    2.988830
  C     -6.074000   -1.035970    5.091810
  C     -5.853000   -1.051880    3.755510
  C     -5.617950   -2.224860    2.948440
  C     -4.626890   -2.164620    1.962020
  F     -3.923740   -1.006190    1.908570
  C     -4.322540   -3.217970    1.113980
  O     -3.378430   -3.230900    0.147110
  C     -2.726200   -2.037700   -0.242620
  C     -5.095720   -4.397640    1.251640
  C     -6.102490   -4.446100    2.216990
  C     -6.403730   -3.390740    3.076450
  O     -7.417930   -3.321500    3.955350
  C     -8.227540   -4.447930    4.231490
  F     -6.798420   -5.602750    2.311250
  C     -4.881760   -5.506320    0.339280
  C     -3.701300   -5.925380   -0.199860
  C     -3.852070   -6.963920   -1.149300
  C     -5.200590   -7.325560   -1.323380
  S     -6.248600   -6.411990   -0.286690
  C     -5.626630   -8.288730   -2.228840
  O     -6.966560   -8.513130   -2.238280
  C     -7.509800   -9.726070   -2.707190
  C     -4.629770   -8.860330   -3.044050
  C     -3.255040   -8.520480   -2.847360
  C     -2.838660   -7.603490   -1.894180
  O     -1.578310   -7.205600   -1.586280
  C     -0.462250   -7.842790   -2.159520
  S     -2.250550   -9.358130   -4.016660
  C     -3.639790  -10.076310   -4.797490
  C     -4.794610   -9.730710   -4.148010
  C     -3.477230  -10.876760   -5.987720
  C     -4.563520  -11.355680   -6.737960
  F     -5.815700  -11.051890   -6.314350
  C     -4.435650  -12.111710   -7.895980
  O     -5.425050  -12.627290   -8.650330
  C     -6.791120  -12.425520   -8.345180
  C     -3.130160  -12.417070   -8.356990
  C     -2.045950  -11.917190   -7.629450
  C     -2.177250  -11.182240   -6.463610
  O     -1.136190  -10.692690   -5.749490
  C      0.100800  -11.380040   -5.725070
  F     -0.809410  -12.109000   -8.147150
  C     -3.000640  -13.114070   -9.602770
  C     -2.014760  -13.897350  -10.108160
  C     -2.010890  -14.152180  -11.579150
  O     -2.900390  -13.910220  -12.358650
  C     -0.675210  -14.715640  -11.870330
  C      0.022270  -14.913480  -10.664700
  C     -0.843150  -14.540040   -9.548400
  C     -0.659490  -14.925440   -8.247570
  C      0.480690  -15.609760   -7.777720
  N      1.392040  -16.146190   -7.331680
  C     -1.609980  -14.731380   -7.226650
  N     -2.353850  -14.607620   -6.360920
  C      1.318560  -15.406960  -10.694540
  C      1.892310  -15.700190  -11.922130
  C      1.180860  -15.509500  -13.100070
  C     -0.115400  -15.011820  -13.096040
  Br     2.006900  -15.933890  -14.756560
  H     -6.687630    1.531410    8.447850
  H     -6.325190    0.413550   10.600840
  H     -5.413220   -3.279680    8.612700
  H     -5.790030   -0.109750    3.223820
  H     -2.141330   -2.313340   -1.118800
  H     -2.056990   -1.667240    0.537170
  H     -3.439330   -1.256010   -0.513320
  H     -8.916210   -4.115070    5.006870
  H     -7.633000   -5.282170    4.608010
  H     -8.795040   -4.764460    3.353590
  H     -2.743600   -5.521720    0.065060
  H     -8.458770   -9.842250   -2.182230
  H     -6.863840  -10.576350   -2.477150
  H     -7.709070   -9.685400   -3.782390
  H     -0.387280   -7.645740   -3.231990
  H     -0.482060   -8.922080   -1.988330
  H      0.402580   -7.413850   -1.654210
  H     -5.758570  -10.062470   -4.468440
  H     -7.054620  -12.850840   -7.374730
  H     -7.330720  -12.954240   -9.129450
  H     -7.061330  -11.367700   -8.369640
  H     -0.046170  -12.460730   -5.662140
  H      0.605220  -11.028800   -4.825890
  H      0.711180  -11.140550   -6.598500
  H     -3.824130  -12.941250  -10.290220
  H      1.888590  -15.554300   -9.791780
  H      2.901470  -16.080200  -11.965560
  H     -0.669940  -14.858290  -14.008760

 Total Charge           Charge          ....    0
 Multiplicity           Mult            ....    1
 Number of Electrons    NEL             ....  582
 Basis Dimension        Dim             .... 1220

ORBITAL ENERGIES
----------------

  NO   OCC          E(Eh)            E(eV)
   0   2.0000    -482.874853    -13139.6927
   1   2.0000    -482.873318    -13139.6510
   2   2.0000     -88.941459     -2420.2201
   3   2.0000     -88.935554     -2420.0595
   4   2.0000     -62.552574     -1702.1421
   5   2.0000     -62.551047     -1702.1005
   6   2.0000     -56.386413     -1534.3523
   7   2.0000     -56.384885     -1534.3107
   8   2.0000     -56.383884     -1534.2835
   9   2.0000     -56.383878     -1534.2833
  10   2.0000     -56.382361     -1534.2421
  11   2.0000     -56.382348     -1534.2417
  12   2.0000     -24.810532      -675.1289
  13   2.0000     -24.803600      -674.9403
  14   2.0000     -24.795573      -674.7218
  15   2.0000     -24.788745      -674.5360
  16   2.0000     -19.269694      -524.3550
  17   2.0000     -19.264137      -524.2038
  18   2.0000     -19.255258      -523.9622
  19   2.0000     -19.252195      -523.8789
  20   2.0000     -19.242375      -523.6117
  21   2.0000     -19.241215      -523.5801
  22   2.0000     -19.222791      -523.0787
  23   2.0000     -19.219806      -522.9975
  24   2.0000     -14.422732      -392.4625
  25   2.0000     -14.422177      -392.4474
  26   2.0000     -14.417557      -392.3217
  27   2.0000     -14.416433      -392.2911
  28   2.0000     -10.378783      -282.4210
  29   2.0000     -10.374784      -282.3122
  30   2.0000     -10.372625      -282.2535
  31   2.0000     -10.369730      -282.1747
  32   2.0000     -10.367273      -282.1078
  33   2.0000     -10.365330      -282.0550
  34   2.0000     -10.362119      -281.9676
  35   2.0000     -10.356420      -281.8125
  36   2.0000     -10.354762      -281.7674
  37   2.0000     -10.349310      -281.6190
  38   2.0000     -10.349010      -281.6109
  39   2.0000     -10.348157      -281.5877
  40   2.0000     -10.346479      -281.5420
  41   2.0000     -10.346403      -281.5399
  42   2.0000     -10.346398      -281.5398
  43   2.0000     -10.342903      -281.4447
  44   2.0000     -10.332782      -281.1693
  45   2.0000     -10.330336      -281.1027
  46   2.0000     -10.329420      -281.0778
  47   2.0000     -10.329271      -281.0738
  48   2.0000     -10.324602      -280.9467
  49   2.0000     -10.323665      -280.9212
  50   2.0000     -10.322666      -280.8940
  51   2.0000     -10.321190      -280.8539
  52   2.0000     -10.320421      -280.8329
  53   2.0000     -10.320397      -280.8323
  54   2.0000     -10.319949      -280.8201
  55   2.0000     -10.319568      -280.8097
  56   2.0000     -10.318699      -280.7861
  57   2.0000     -10.318698      -280.7861
  58   2.0000     -10.318549      -280.7820
  59   2.0000     -10.314817      -280.6805
  60   2.0000     -10.311679      -280.5951
  61   2.0000     -10.308352      -280.5045
  62   2.0000     -10.308197      -280.5003
  63   2.0000     -10.307868      -280.4913
  64   2.0000     -10.307722      -280.4874
  65   2.0000     -10.306516      -280.4546
  66   2.0000     -10.305330      -280.4223
  67   2.0000     -10.305001      -280.4133
  68   2.0000     -10.304756      -280.4067
  69   2.0000     -10.303906      -280.3835
  70   2.0000     -10.303103      -280.3617
  71   2.0000     -10.302495      -280.3452
  72   2.0000     -10.300293      -280.2852
  73   2.0000     -10.299442      -280.2621
  74   2.0000     -10.298215      -280.2287
  75   2.0000     -10.296068      -280.1702
  76   2.0000     -10.290030      -280.0060
  77   2.0000     -10.283539      -279.8293
  78   2.0000     -10.279794      -279.7274
  79   2.0000     -10.274885      -279.5938
  80   2.0000     -10.267890      -279.4035
  81   2.0000     -10.262663      -279.2613
  82   2.0000      -8.781867      -238.9667
  83   2.0000      -8.780335      -238.9251
  84   2.0000      -8.035195      -218.6488
  85   2.0000      -8.030651      -218.5251
  86   2.0000      -6.617724      -180.0774
  87   2.0000      -6.616189      -180.0356
  88   2.0000      -6.603966      -179.7031
  89   2.0000      -6.603544      -179.6916
  90   2.0000      -6.602442      -179.6616
  91   2.0000      -6.602011      -179.6499
  92   2.0000      -6.005295      -163.4124
  93   2.0000      -6.000642      -163.2858
  94   2.0000      -6.000331      -163.2773
  95   2.0000      -5.996189      -163.1646
  96   2.0000      -5.996187      -163.1645
  97   2.0000      -5.991936      -163.0489
  98   2.0000      -2.733655       -74.3865
  99   2.0000      -2.732113       -74.3446
 100   2.0000      -2.729892       -74.2841
 101   2.0000      -2.729563       -74.2752
 102   2.0000      -2.728363       -74.2425
 103   2.0000      -2.728027       -74.2334
 104   2.0000      -2.718636       -73.9779
 105   2.0000      -2.718620       -73.9774
 106   2.0000      -2.717121       -73.9366
 107   2.0000      -2.717102       -73.9361
 108   2.0000      -1.322816       -35.9956
 109   2.0000      -1.317003       -35.8375
 110   2.0000      -1.307930       -35.5906
 111   2.0000      -1.303235       -35.4628
 112   2.0000      -1.173785       -31.9403
 113   2.0000      -1.169888       -31.8343
 114   2.0000      -1.161802       -31.6142
 115   2.0000      -1.156959       -31.4824
 116   2.0000      -1.146229       -31.1905
 117   2.0000      -1.145094       -31.1596
 118   2.0000      -1.138385       -30.9770
 119   2.0000      -1.133832       -30.8531
 120   2.0000      -1.025388       -27.9022
 121   2.0000      -1.021168       -27.7874
 122   2.0000      -1.006575       -27.3903
 123   2.0000      -1.002669       -27.2840
 124   2.0000      -1.001228       -27.2448
 125   2.0000      -0.995435       -27.0872
 126   2.0000      -0.990174       -26.9440
 127   2.0000      -0.982493       -26.7350
 128   2.0000      -0.974714       -26.5233
 129   2.0000      -0.968013       -26.3410
 130   2.0000      -0.965399       -26.2698
 131   2.0000      -0.960025       -26.1236
 132   2.0000      -0.922226       -25.0950
 133   2.0000      -0.915108       -24.9014
 134   2.0000      -0.913770       -24.8649
 135   2.0000      -0.910831       -24.7850
 136   2.0000      -0.898755       -24.4564
 137   2.0000      -0.890497       -24.2317
 138   2.0000      -0.881891       -23.9975
 139   2.0000      -0.870333       -23.6830
 140   2.0000      -0.866119       -23.5683
 141   2.0000      -0.862858       -23.4796
 142   2.0000      -0.860806       -23.4237
 143   2.0000      -0.854219       -23.2445
 144   2.0000      -0.848418       -23.0866
 145   2.0000      -0.839417       -22.8417
 146   2.0000      -0.830317       -22.5941
 147   2.0000      -0.820735       -22.3333
 148   2.0000      -0.812266       -22.1029
 149   2.0000      -0.810885       -22.0653
 150   2.0000      -0.798184       -21.7197
 151   2.0000      -0.795101       -21.6358
 152   2.0000      -0.789077       -21.4719
 153   2.0000      -0.781862       -21.2756
 154   2.0000      -0.775311       -21.0973
 155   2.0000      -0.772162       -21.0116
 156   2.0000      -0.769220       -20.9315
 157   2.0000      -0.761051       -20.7092
 158   2.0000      -0.746698       -20.3187
 159   2.0000      -0.738489       -20.0953
 160   2.0000      -0.729641       -19.8545
 161   2.0000      -0.714376       -19.4392
 162   2.0000      -0.707102       -19.2412
 163   2.0000      -0.705765       -19.2048
 164   2.0000      -0.698757       -19.0142
 165   2.0000      -0.692039       -18.8313
 166   2.0000      -0.688925       -18.7466
 167   2.0000      -0.685730       -18.6596
 168   2.0000      -0.679919       -18.5015
 169   2.0000      -0.674964       -18.3667
 170   2.0000      -0.671424       -18.2704
 171   2.0000      -0.663299       -18.0493
 172   2.0000      -0.654413       -17.8075
 173   2.0000      -0.648852       -17.6562
 174   2.0000      -0.644855       -17.5474
 175   2.0000      -0.640320       -17.4240
 176   2.0000      -0.635627       -17.2963
 177   2.0000      -0.627920       -17.0866
 178   2.0000      -0.622074       -16.9275
 179   2.0000      -0.619714       -16.8633
 180   2.0000      -0.618232       -16.8229
 181   2.0000      -0.615850       -16.7581
 182   2.0000      -0.613668       -16.6988
 183   2.0000      -0.610664       -16.6170
 184   2.0000      -0.602185       -16.3863
 185   2.0000      -0.600477       -16.3398
 186   2.0000      -0.599573       -16.3152
 187   2.0000      -0.596319       -16.2267
 188   2.0000      -0.588870       -16.0240
 189   2.0000      -0.586782       -15.9671
 190   2.0000      -0.584683       -15.9100
 191   2.0000      -0.582315       -15.8456
 192   2.0000      -0.579388       -15.7659
 193   2.0000      -0.578332       -15.7372
 194   2.0000      -0.571645       -15.5552
 195   2.0000      -0.569690       -15.5021
 196   2.0000      -0.568162       -15.4605
 197   2.0000      -0.562720       -15.3124
 198   2.0000      -0.557566       -15.1722
 199   2.0000      -0.555254       -15.1092
 200   2.0000      -0.551593       -15.0096
 201   2.0000      -0.549998       -14.9662
 202   2.0000      -0.549579       -14.9548
 203   2.0000      -0.547478       -14.8976
 204   2.0000      -0.545517       -14.8443
 205   2.0000      -0.543348       -14.7852
 206   2.0000      -0.542931       -14.7739
 207   2.0000      -0.541758       -14.7420
 208   2.0000      -0.539755       -14.6875
 209   2.0000      -0.536135       -14.5890
 210   2.0000      -0.534740       -14.5510
 211   2.0000      -0.532357       -14.4862
 212   2.0000      -0.529690       -14.4136
 213   2.0000      -0.528265       -14.3748
 214   2.0000      -0.525652       -14.3037
 215   2.0000      -0.522811       -14.2264
 216   2.0000      -0.521750       -14.1975
 217   2.0000      -0.518418       -14.1069
 218   2.0000      -0.516150       -14.0452
 219   2.0000      -0.512515       -13.9462
 220   2.0000      -0.506064       -13.7707
 221   2.0000      -0.504918       -13.7395
 222   2.0000      -0.503540       -13.7020
 223   2.0000      -0.497865       -13.5476
 224   2.0000      -0.497385       -13.5345
 225   2.0000      -0.495877       -13.4935
 226   2.0000      -0.493940       -13.4408
 227   2.0000      -0.490629       -13.3507
 228   2.0000      -0.488673       -13.2975
 229   2.0000      -0.486715       -13.2442
 230   2.0000      -0.485827       -13.2200
 231   2.0000      -0.483017       -13.1436
 232   2.0000      -0.480587       -13.0774
 233   2.0000      -0.477318       -12.9885
 234   2.0000      -0.475696       -12.9443
 235   2.0000      -0.472857       -12.8671
 236   2.0000      -0.468295       -12.7430
 237   2.0000      -0.466637       -12.6979
 238   2.0000      -0.463098       -12.6015
 239   2.0000      -0.460468       -12.5300
 240   2.0000      -0.458618       -12.4796
 241   2.0000      -0.457394       -12.4463
 242   2.0000      -0.454420       -12.3654
 243   2.0000      -0.453617       -12.3435
 244   2.0000      -0.449601       -12.2343
 245   2.0000      -0.448743       -12.2109
 246   2.0000      -0.448444       -12.2028
 247   2.0000      -0.444712       -12.1012
 248   2.0000      -0.443252       -12.0615
 249   2.0000      -0.437196       -11.8967
 250   2.0000      -0.435876       -11.8608
 251   2.0000      -0.432735       -11.7753
 252   2.0000      -0.431692       -11.7469
 253   2.0000      -0.431295       -11.7361
 254   2.0000      -0.428507       -11.6603
 255   2.0000      -0.426863       -11.6155
 256   2.0000      -0.425887       -11.5890
 257   2.0000      -0.423525       -11.5247
 258   2.0000      -0.420632       -11.4460
 259   2.0000      -0.419314       -11.4101
 260   2.0000      -0.416109       -11.3229
 261   2.0000      -0.412306       -11.2194
 262   2.0000      -0.411089       -11.1863
 263   2.0000      -0.408504       -11.1160
 264   2.0000      -0.405266       -11.0279
 265   2.0000      -0.403349       -10.9757
 266   2.0000      -0.397107       -10.8058
 267   2.0000      -0.390637       -10.6298
 268   2.0000      -0.388306       -10.5663
 269   2.0000      -0.383197       -10.4273
 270   2.0000      -0.371645       -10.1130
 271   2.0000      -0.370049       -10.0695
 272   2.0000      -0.369653       -10.0588
 273   2.0000      -0.367947       -10.0124
 274   2.0000      -0.364995        -9.9320
 275   2.0000      -0.355797        -9.6817
 276   2.0000      -0.354719        -9.6524
 277   2.0000      -0.351628        -9.5683
 278   2.0000      -0.344754        -9.3812
 279   2.0000      -0.340933        -9.2772
 280   2.0000      -0.337587        -9.1862
 281   2.0000      -0.331217        -9.0129
 282   2.0000      -0.319833        -8.7031
 283   2.0000      -0.313652        -8.5349
 284   2.0000      -0.312743        -8.5102
 285   2.0000      -0.307754        -8.3744
 286   2.0000      -0.300216        -8.1693
 287   2.0000      -0.288065        -7.8387
 288   2.0000      -0.275954        -7.5091
 289   2.0000      -0.263967        -7.1829
 290   2.0000      -0.223920        -6.0932
 291   0.0000      -0.092148        -2.5075
 292   0.0000      -0.087121        -2.3707
 293   0.0000      -0.066709        -1.8152
 294   0.0000      -0.062318        -1.6958
 295   0.0000      -0.029212        -0.7949

MULLIKEN ATOMIC CHARGES
-----------------------
   0 C :    0.153105
   1 O :   -0.134797
   2 C :   -0.031658
   3 C :    0.032527
   4 C :   -0.023964
   5 C :    0.048129
   6 C :   -0.003320
   7 C :   -0.008985
   8 Br:   -0.019074
   9 C :    0.291475
  10 C :   -0.330147
  11 C :   -0.190734
  12 N :    0.157054
  13 C :   -0.203080
  14 N :    0.167592
  15 C :   -0.055594
  16 C :   -0.026540
  17 C :   -0.057125
  18 C :    0.140415
  19 F :   -0.190425
  20 C :    0.134766
  21 O :   -0.302592
  22 C :    0.184469
  23 C :   -0.009404
  24 C :    0.121861
  25 C :    0.181970
  26 O :   -0.299256
  27 C :    0.184987
  28 F :   -0.187445
  29 C :   -0.071084
  30 C :   -0.003812
  31 C :    0.048776
  32 C :   -0.112084
  33 S :    0.148706
  34 C :    0.114091
  35 O :   -0.315070
  36 C :    0.184666
  37 C :    0.062640
  38 C :   -0.114838
  39 C :    0.102341
  40 O :   -0.309555
  41 C :    0.175999
  42 S :    0.083685
  43 C :   -0.055902
  44 C :   -0.088897
  45 C :    0.105812
  46 C :    0.090956
  47 F :   -0.196739
  48 C :    0.176356
  49 O :   -0.298525
  50 C :    0.182965
  51 C :   -0.063531
  52 C :    0.145328
  53 C :    0.124921
  54 O :   -0.341806
  55 C :    0.185622
  56 F :   -0.185165
  57 C :    0.031378
  58 C :   -0.098802
  59 C :    0.132098
  60 O :   -0.133948
  61 C :   -0.006454
  62 C :    0.020716
  63 C :    0.290393
  64 C :   -0.335034
  65 C :   -0.186727
  66 N :    0.160002
  67 C :   -0.206423
  68 N :    0.170014
  69 C :   -0.028446
  70 C :    0.053409
  71 C :   -0.006819
  72 C :   -0.010882
  73 Br:   -0.017985
  74 H :    0.009646
  75 H :    0.005831
  76 H :    0.001734
  77 H :    0.044565
  78 H :    0.036585
  79 H :    0.029675
  80 H :    0.029097
  81 H :    0.031118
  82 H :    0.037435
  83 H :    0.031904
  84 H :   -0.018306
  85 H :    0.033146
  86 H :    0.031029
  87 H :    0.034125
  88 H :    0.035050
  89 H :    0.030985
  90 H :    0.033129
  91 H :   -0.034904
  92 H :    0.033401
  93 H :    0.041625
  94 H :    0.032285
  95 H :    0.035156
  96 H :    0.033510
  97 H :    0.036180
  98 H :    0.038912
  99 H :    0.009791
 100 H :    0.006026
 101 H :    0.004713
Sum of atomic charges:   -0.0000000

LOEWDIN ATOMIC CHARGES
----------------------
   0 C :    0.084189
   1 O :   -0.126452
   2 C :   -0.036362
   3 C :   -0.016774
   4 C :    0.008657
   5 C :   -0.013418
   6 C :   -0.097843
   7 C :   -0.000847
   8 Br:    0.116004
   9 C :    0.074549
  10 C :   -0.130705
  11 C :   -0.018491
  12 N :   -0.048224
  13 C :   -0.023568
  14 N :   -0.043547
  15 C :   -0.080166
  16 C :    0.088584
  17 C :   -0.078575
  18 C :    0.063908
  19 F :   -0.061996
  20 C :    0.023887
  21 O :   -0.086927
  22 C :    0.079103
  23 C :   -0.053014
  24 C :    0.045305
  25 C :    0.048889
  26 O :   -0.080715
  27 C :    0.079767
  28 F :   -0.060471
  29 C :   -0.159818
  30 C :   -0.023257
  31 C :   -0.063509
  32 C :   -0.176090
  33 S :    0.419175
  34 C :    0.022780
  35 O :   -0.110506
  36 C :    0.080107
  37 C :   -0.076499
  38 C :   -0.195312
  39 C :    0.025245
  40 O :   -0.103806
  41 C :    0.063908
  42 S :    0.423697
  43 C :   -0.162763
  44 C :   -0.045917
  45 C :   -0.039482
  46 C :    0.052457
  47 F :   -0.055648
  48 C :    0.050850
  49 O :   -0.084523
  50 C :    0.080961
  51 C :   -0.082672
  52 C :    0.072021
  53 C :    0.019148
  54 O :   -0.105695
  55 C :    0.081919
  56 F :   -0.047294
  57 C :    0.083522
  58 C :   -0.089137
  59 C :    0.086313
  60 O :   -0.131153
  61 C :   -0.040125
  62 C :   -0.012055
  63 C :    0.070276
  64 C :   -0.135564
  65 C :   -0.020827
  66 N :   -0.049808
  67 C :   -0.019400
  68 N :   -0.046740
  69 C :    0.005670
  70 C :   -0.011319
  71 C :   -0.099181
  72 C :    0.001712
  73 Br:    0.116713
  74 H :    0.043164
  75 H :    0.040436
  76 H :    0.043594
  77 H :    0.046699
  78 H :    0.027468
  79 H :    0.016546
  80 H :    0.018205
  81 H :    0.025322
  82 H :    0.021556
  83 H :    0.017910
  84 H :    0.030342
  85 H :    0.027968
  86 H :    0.019824
  87 H :    0.015138
  88 H :    0.010179
  89 H :    0.012316
  90 H :    0.028041
  91 H :    0.020057
  92 H :    0.019958
  93 H :    0.029559
  94 H :    0.018526
  95 H :    0.022354
  96 H :    0.025732
  97 H :    0.018159
  98 H :    0.049991
  99 H :    0.042583
 100 H :    0.040533
 101 H :    0.044721

  Mayer bond orders larger than 0.100000
B(  0-C ,  1-O ) :   2.2329 B(  0-C ,  2-C ) :   0.9419 B(  0-C , 15-C ) :   0.9350
B(  2-C ,  3-C ) :   1.3298 B(  2-C ,  7-C ) :   1.3814 B(  3-C ,  4-C ) :   1.3601
B(  3-C ,  9-C ) :   1.0014 B(  4-C ,  5-C ) :   1.3878 B(  4-C , 74-H ) :   0.9830
B(  5-C ,  6-C ) :   1.3832 B(  5-C , 75-H ) :   0.9853 B(  6-C ,  7-C ) :   1.3398
B(  6-C ,  8-Br) :   0.9930 B(  7-C , 76-H ) :   1.0065 B(  9-C , 10-C ) :   1.6617
B(  9-C , 15-C ) :   1.0511 B( 10-C , 11-C ) :   1.1370 B( 10-C , 13-C ) :   1.1371
B( 11-C , 12-N ) :   2.9811 B( 13-C , 14-N ) :   2.9969 B( 15-C , 16-C ) :   1.6886
B( 16-C , 17-C ) :   1.0620 B( 16-C , 77-H ) :   0.9398 B( 17-C , 18-C ) :   1.3034
B( 17-C , 23-C ) :   0.1182 B( 17-C , 25-C ) :   1.3311 B( 18-C , 19-F ) :   1.1243
B( 18-C , 20-C ) :   1.2855 B( 20-C , 21-O ) :   1.2003 B( 20-C , 23-C ) :   1.3311
B( 21-O , 22-C ) :   0.9321 B( 22-C , 78-H ) :   0.9789 B( 22-C , 79-H ) :   0.9759
B( 22-C , 80-H ) :   0.9744 B( 23-C , 24-C ) :   1.3346 B( 23-C , 29-C ) :   1.0278
B( 24-C , 25-C ) :   1.2505 B( 24-C , 28-F ) :   1.1251 B( 25-C , 26-O ) :   1.2142
B( 26-O , 27-C ) :   0.9231 B( 27-C , 81-H ) :   0.9787 B( 27-C , 82-H ) :   0.9752
B( 27-C , 83-H ) :   0.9764 B( 29-C , 30-C ) :   1.5794 B( 29-C , 33-S ) :   1.0644
B( 30-C , 31-C ) :   1.1723 B( 30-C , 84-H ) :   1.0110 B( 31-C , 32-C ) :   1.3637
B( 31-C , 39-C ) :   1.2736 B( 32-C , 33-S ) :   1.0444 B( 32-C , 34-C ) :   1.4017
B( 34-C , 35-O ) :   1.2537 B( 34-C , 37-C ) :   1.2316 B( 35-O , 36-C ) :   0.9489
B( 36-C , 85-H ) :   0.9737 B( 36-C , 86-H ) :   0.9680 B( 36-C , 87-H ) :   0.9693
B( 37-C , 38-C ) :   1.2636 B( 37-C , 44-C ) :   1.1550 B( 38-C , 39-C ) :   1.3888
B( 38-C , 42-S ) :   0.9693 B( 39-C , 40-O ) :   1.2239 B( 40-O , 41-C ) :   0.9497
B( 41-C , 88-H ) :   0.9664 B( 41-C , 89-H ) :   0.9675 B( 41-C , 90-H ) :   0.9754
B( 42-S , 43-C ) :   1.0550 B( 43-C , 44-C ) :   1.5605 B( 43-C , 45-C ) :   1.1166
B( 44-C , 91-H ) :   0.9920 B( 45-C , 46-C ) :   1.2728 B( 45-C , 51-C ) :   0.1186
B( 45-C , 53-C ) :   1.3094 B( 46-C , 47-F ) :   1.0781 B( 46-C , 48-C ) :   1.2885
B( 48-C , 49-O ) :   1.2389 B( 48-C , 51-C ) :   1.3062 B( 49-O , 50-C ) :   0.9233
B( 50-C , 92-H ) :   0.9766 B( 50-C , 93-H ) :   0.9786 B( 50-C , 94-H ) :   0.9764
B( 51-C , 52-C ) :   1.2826 B( 51-C , 57-C ) :   1.1002 B( 52-C , 53-C ) :   1.3122
B( 52-C , 56-F ) :   1.1014 B( 53-C , 54-O ) :   1.1415 B( 54-O , 55-C ) :   0.9189
B( 55-C , 95-H ) :   0.9739 B( 55-C , 96-H ) :   0.9759 B( 55-C , 97-H ) :   0.9770
B( 57-C , 58-C ) :   1.6800 B( 57-C , 98-H ) :   0.9223 B( 58-C , 59-C ) :   0.9388
B( 58-C , 63-C ) :   1.0275 B( 59-C , 60-O ) :   2.2667 B( 59-C , 61-C ) :   0.9212
B( 61-C , 62-C ) :   1.3325 B( 61-C , 72-C ) :   1.3804 B( 62-C , 63-C ) :   1.0090
B( 62-C , 69-C ) :   1.3621 B( 63-C , 64-C ) :   1.6569 B( 64-C , 65-C ) :   1.1319
B( 64-C , 67-C ) :   1.1749 B( 65-C , 66-N ) :   2.9916 B( 67-C , 68-N ) :   2.9830
B( 69-C , 70-C ) :   1.3836 B( 69-C , 99-H ) :   0.9863 B( 70-C , 71-C ) :   1.3902
B( 70-C ,100-H ) :   0.9841 B( 71-C , 72-C ) :   1.3403 B( 71-C , 73-Br) :   0.9936
B( 72-C ,101-H ) :   1.0078

-----------------------------------------------------------------------------
         ABSORPTION SPECTRUM VIA TRANSITION ELECTRIC DIPOLE MOMENTS
-----------------------------------------------------------------------------
State   Energy  Wavelength   fosc         T2         TX        TY        TZ
        (cm-1)    (nm)                  (au**2)     (au)      (au)      (au)
-----------------------------------------------------------------------------
   0   15929.6    627.8   0.569522867  11.77012   1.42397  -2.10040  -2.30884
   1   18460.3    541.7   0.188694341   3.36509   0.35230  -1.25722  -1.28855
   2   21700.0    460.8   0.307642719   4.66726   0.09424  -1.72845  -1.29261
   3   22243.3    449.6   0.029258182   0.43304  -0.56171   0.33791  -0.05780
   4   23158.3    431.8   0.396645487   5.63861   1.16069  -1.29972  -1.61311
   5   24100.3    414.9   0.003182918   0.04348  -0.10177  -0.01826  -0.18107
   6   25628.3    390.2   0.623775907   8.01280   0.36116  -1.80333  -2.15183
   7   26361.5    379.3   0.044283545   0.55303  -0.46421   0.35720   0.45821
   8   26741.4    374.0   0.020280797   0.24968   0.30023   0.08719   0.38979
   9   28066.2    356.3   0.106216793   1.24590  -0.91799   0.48553   0.40922
  10   29195.2    342.5   0.207613697   2.34110  -0.34536   0.87093   1.20967
  11   29722.1    336.4   0.019140297   0.21200  -0.20165  -0.05560  -0.41019
  12   30289.4    330.1   0.025727453   0.27963  -0.24324   0.29574  -0.36469
  13   30502.9    327.8   0.213158501   2.30058  -0.72492   0.42796   1.26171
  14   30991.2    322.7   0.105186798   1.11737   0.55641  -0.82008   0.36777
  15   31307.1    319.4   0.118681448   1.24800  -0.22715   0.64295  -0.88489
  16   31727.2    315.2   0.309755002   3.21412  -0.70888   0.18495   1.63628
  17   32494.6    307.7   0.022432752   0.22727  -0.20008   0.42622   0.07465
  18   32583.0    306.9   0.211852463   2.14051   0.02192  -0.17827  -1.45198
  19   32636.3    306.4   0.022540492   0.22737  -0.32152   0.32289  -0.14050
  20   32928.9    303.7   0.029477246   0.29470   0.38809   0.35557   0.13289
  21   33486.0    298.6   0.063635496   0.62562  -0.21356   0.55949   0.51670
  22   33752.5    296.3   0.031322490   0.30551  -0.01568  -0.55249  -0.00392
  23   34550.0    289.4   0.267519376   2.54908   0.37406  -1.05249   1.14080
  24   34714.0    288.1   0.367778851   3.48784   0.18762  -0.81396  -1.67037
  25   35015.5    285.6   0.295395454   2.77728  -0.49897   0.92459  -1.29361
  26   35361.7    282.8   0.099947453   0.93049  -0.13879  -0.58348   0.75550
  27   35544.8    281.3   0.135286628   1.25301   0.27065   0.37946  -1.01773
  28   36605.2    273.2   0.073380661   0.65996   0.23302  -0.08757  -0.77330
  29   36698.9    272.5   0.037887254   0.33987  -0.14322   0.52402  -0.21158
  30   37491.3    266.7   0.037023233   0.32510   0.29829  -0.05465  -0.48284
  31   37749.6    264.9   0.192166813   1.67588   0.13741   0.60394   1.13677
  32   38200.8    261.8   0.018082064   0.15583   0.13984   0.01158   0.36897
  33   38668.3    258.6   0.230360139   1.96123  -0.48336   1.28491   0.27677
  34   38738.8    258.1   0.117829808   1.00135   0.11486  -0.16620   0.98007
  35   38840.2    257.5   0.028190211   0.23894   0.14415   0.14620   0.44361
  36   38927.6    256.9   0.019584372   0.16563  -0.05098   0.28151  -0.28945
  37   39730.6    251.7   0.077852277   0.64509   0.20222  -0.50419  -0.59160
  38   39938.3    250.4   0.074663594   0.61545  -0.02971   0.63344   0.46187
  39   40107.0    249.3   0.046195471   0.37919  -0.38819   0.13818   0.45760

FINAL SINGLE POINT ENERGY     -9234.672209409022

DIPOLE MOMENT
-------------
                                X             Y             Z
Electronic contribution:     39.09455     -21.58231      11.31301
Nuclear contribution   :    -38.37014      20.13386     -12.22018
                        -----------------------------------------
Total Dipole Moment    :      0.72441      -1.44845      -0.90717
                        -----------------------------------------
Magnitude (a.u.)       :      1.85627
Magnitude (Debye)      :      4.71826

Rotational constants in cm-1:     0.002385     0.000155     0.000154
Rotational constants in MHz :    71.494454     4.642561     4.611245

                             ****ORCA TERMINATED NORMALLY****
TOTAL RUN TIME: 0 days 0 hours 11 minutes 4 seconds 327 msec
