                         Program Version 4.2.0 -  RELEASE  -
|  1> # ORCA input file
|  2> # SCF done       -184.471144065471          0.000800429946
|  3> ! CAM-B3LYP def2-SVP def2/J RIJCOSX Grid4 TightSCF
|  4> %maxcore 5000
|  5> %tddft
|  6>     Mode sTDDFT
|  7>     Ethresh 5.0
|  8>     maxcore 5000
|  9> end
| 10>
| 11> %pal
| 12>   nprocs 6
| 13>   end
| 14> * xyz 0 1
| 15>    C       -1.64639        -1.42020         1.54434
| 16>    O       -1.37395        -2.59823         1.67801
| 17>    C       -0.71246        -0.28607         1.71498
| 18>    C       -1.38004         0.91673         1.42621
| 19>    C       -0.69662         2.11912         1.53246
| 20>    C        0.63489         2.09884         1.92134
| 21>    C        1.27410         0.89765         2.19647
| 22>    C        0.61160        -0.31881         2.09800
| 23>   Br        3.09942         0.92017         2.72378
| 24>    C       -2.75857         0.60731         1.04809
| 25>    C       -3.67467         1.51928         0.58848
| 26>    C       -3.41765         2.90053         0.46289
| 27>    N       -3.27010         4.03252         0.34226
| 28>    C       -4.97844         1.21584         0.14384
| 29>    N       -6.04534         1.04014        -0.24499
| 30>    C       -2.93806        -0.82341         1.19261
| 31>    C       -4.14275        -1.48102         1.10933
| 32>    C       -4.44818        -2.84312         1.20385
| 33>    S       -3.28193        -4.13957         1.26382
| 34>    C       -4.53657        -5.32967         1.19570
| 35>    C       -5.80581        -4.74995         1.11289
| 36>    C       -5.75970        -3.35774         1.16050
| 37>    C       -6.98822        -2.48055         1.28234
| 38>    N       -7.03527        -1.76088         2.54795
| 39>    C       -8.27358        -3.31232         1.18291
| 40>    C       -8.10470        -4.49908         0.24972
| 41>    C       -7.08773        -5.49150         0.83864
| 42>    N       -6.82852        -6.63207        -0.02657
| 43>    C       -4.12676        -6.68899         1.30594
| 44>    C       -4.88605        -7.70889         1.76180
| 45>    C       -4.43453        -9.05764         1.93558
| 46>    C       -3.27954        -9.61103         1.40753
| 47>    C       -2.88382       -10.93635         1.62711
| 48>    C       -3.60517       -11.82273         2.40599
| 49>    C       -4.79289       -11.30017         2.98071
| 50>    C       -5.21298        -9.94519         2.72895
| 51>    N       -6.34856        -9.76484         3.37304
| 52>    O       -6.62188       -10.91808         3.97933
| 53>    N       -5.70215       -11.85451         3.75810
| 54>    C       -3.18405       -13.16515         2.69797
| 55>    S       -3.56966       -13.83161         4.24550
| 56>    C       -2.64176       -15.27344         3.91520
| 57>    C       -2.08431       -15.21913         2.63987
| 58>    C       -2.42841       -14.04910         1.94261
| 59>    C       -2.14600       -13.91498         0.47064
| 60>    N       -3.14952       -13.08086        -0.17271
| 61>    C       -2.06798       -15.33648        -0.11256
| 62>    C       -0.95305       -16.11380         0.56525
| 63>    C       -1.20441       -16.29456         2.07178
| 64>    N        0.10053       -16.23344         2.73234
| 65>    C       -2.71185       -16.29195         4.89520
| 66>    C       -2.01472       -17.45621         5.00061
| 67>    C       -2.25429       -18.41387         6.01635
| 68>    C       -3.39968       -18.65735         6.71736
| 69>    C       -3.31595       -19.40026         8.00129
| 70>    O       -2.36426       -20.01114         8.42897
| 71>    C       -4.62620       -19.18618         8.65688
| 72>    C       -5.47833       -18.48926         7.78100
| 73>    C       -4.78193       -18.28035         6.51168
| 74>    C       -5.40263       -18.03075         5.31457
| 75>    C       -6.78732       -17.79972         5.18192
| 76>    N       -7.90592       -17.60117         5.01821
| 77>    C       -4.75641       -18.06221         4.06311
| 78>    N       -4.29734       -18.11349         3.01170
| 79>    C       -6.75428       -18.13893         8.19627
| 80>    C       -7.16249       -18.50008         9.47138
| 81>    C       -6.31166       -19.20412        10.31371
| 82>    C       -5.02646       -19.55697         9.92379
| 83>   Br       -6.91979       -19.68538        12.04786
| 84>    H       -1.17255         3.06350         1.32662
| 85>    H        1.17998         3.02581         2.01172
| 86>    H        1.10238        -1.25548         2.31211
| 87>    H       -5.00730        -0.85221         0.93896
| 88>    H       -6.98053        -1.73052         0.48181
| 89>    H       -6.93448        -2.40376         3.32578
| 90>    H       -6.31329        -1.05581         2.62177
| 91>    H       -9.08444        -2.66660         0.84889
| 92>    H       -8.53077        -3.67420         2.18078
| 93>    H       -7.75039        -4.15749        -0.72706
| 94>    H       -9.06215        -5.00478         0.10766
| 95>    H       -7.49225        -5.88755         1.78102
| 96>    H       -6.45414        -6.32022        -0.91627
| 97>    H       -7.69012        -7.13425        -0.20718
| 98>    H       -3.07944        -6.85657         1.08887
| 99>    H       -5.89896        -7.52822         2.08090
|100>    H       -2.64499        -8.99799         0.78675
|101>    H       -1.96101       -11.27185         1.18601
|102>    H       -1.17351       -13.42465         0.32315
|103>    H       -4.07040       -13.49092        -0.05597
|104>    H       -2.96126       -13.01953        -1.16707
|105>    H       -1.88067       -15.27763        -1.18740
|106>    H       -3.02487       -15.84230         0.04269
|107>    H       -0.01344       -15.56970         0.45013
|108>    H       -0.83791       -17.09202         0.09721
|109>    H       -1.73034       -17.25282         2.23755
|110>    H        0.62904       -17.08043         2.55768
|111>    H        0.01534       -16.09804         3.73205
|112>    H       -3.42858       -16.08132         5.68180
|113>    H       -1.17880       -17.66793         4.35405
|114>    H       -1.40311       -19.01253         6.32736
|115>    H       -7.42516       -17.58641         7.55870
|116>    H       -8.15022       -18.23272         9.81414
|117>    H       -4.36094       -20.09893        10.57761
|118> *
|119>
|120>                          ****END OF INPUT****

CARTESIAN COORDINATES (ANGSTROEM)
---------------------------------
  C     -1.646390   -1.420200    1.544340
  O     -1.373950   -2.598230    1.678010
  C     -0.712460   -0.286070    1.714980
  C     -1.380040    0.916730    1.426210
  C     -0.696620    2.119120    1.532460
  C      0.634890    2.098840    1.921340
  C      1.274100    0.897650    2.196470
  C      0.611600   -0.318810    2.098000
  Br     3.099420    0.920170    2.723780
  C     -2.758570    0.607310    1.048090
  C     -3.674670    1.519280    0.588480
  C     -3.417650    2.900530    0.462890
  N     -3.270100    4.032520    0.342260
  C     -4.978440    1.215840    0.143840
  N     -6.045340    1.040140   -0.244990
  C     -2.938060   -0.823410    1.192610
  C     -4.142750   -1.481020    1.109330
  C     -4.448180   -2.843120    1.203850
  S     -3.281930   -4.139570    1.263820
  C     -4.536570   -5.329670    1.195700
  C     -5.805810   -4.749950    1.112890
  C     -5.759700   -3.357740    1.160500
  C     -6.988220   -2.480550    1.282340
  N     -7.035270   -1.760880    2.547950
  C     -8.273580   -3.312320    1.182910
  C     -8.104700   -4.499080    0.249720
  C     -7.087730   -5.491500    0.838640
  N     -6.828520   -6.632070   -0.026570
  C     -4.126760   -6.688990    1.305940
  C     -4.886050   -7.708890    1.761800
  C     -4.434530   -9.057640    1.935580
  C     -3.279540   -9.611030    1.407530
  C     -2.883820  -10.936350    1.627110
  C     -3.605170  -11.822730    2.405990
  C     -4.792890  -11.300170    2.980710
  C     -5.212980   -9.945190    2.728950
  N     -6.348560   -9.764840    3.373040
  O     -6.621880  -10.918080    3.979330
  N     -5.702150  -11.854510    3.758100
  C     -3.184050  -13.165150    2.697970
  S     -3.569660  -13.831610    4.245500
  C     -2.641760  -15.273440    3.915200
  C     -2.084310  -15.219130    2.639870
  C     -2.428410  -14.049100    1.942610
  C     -2.146000  -13.914980    0.470640
  N     -3.149520  -13.080860   -0.172710
  C     -2.067980  -15.336480   -0.112560
  C     -0.953050  -16.113800    0.565250
  C     -1.204410  -16.294560    2.071780
  N      0.100530  -16.233440    2.732340
  C     -2.711850  -16.291950    4.895200
  C     -2.014720  -17.456210    5.000610
  C     -2.254290  -18.413870    6.016350
  C     -3.399680  -18.657350    6.717360
  C     -3.315950  -19.400260    8.001290
  O     -2.364260  -20.011140    8.428970
  C     -4.626200  -19.186180    8.656880
  C     -5.478330  -18.489260    7.781000
  C     -4.781930  -18.280350    6.511680
  C     -5.402630  -18.030750    5.314570
  C     -6.787320  -17.799720    5.181920
  N     -7.905920  -17.601170    5.018210
  C     -4.756410  -18.062210    4.063110
  N     -4.297340  -18.113490    3.011700
  C     -6.754280  -18.138930    8.196270
  C     -7.162490  -18.500080    9.471380
  C     -6.311660  -19.204120   10.313710
  C     -5.026460  -19.556970    9.923790
  Br    -6.919790  -19.685380   12.047860
  H     -1.172550    3.063500    1.326620
  H      1.179980    3.025810    2.011720
  H      1.102380   -1.255480    2.312110
  H     -5.007300   -0.852210    0.938960
  H     -6.980530   -1.730520    0.481810
  H     -6.934480   -2.403760    3.325780
  H     -6.313290   -1.055810    2.621770
  H     -9.084440   -2.666600    0.848890
  H     -8.530770   -3.674200    2.180780
  H     -7.750390   -4.157490   -0.727060
  H     -9.062150   -5.004780    0.107660
  H     -7.492250   -5.887550    1.781020
  H     -6.454140   -6.320220   -0.916270
  H     -7.690120   -7.134250   -0.207180
  H     -3.079440   -6.856570    1.088870
  H     -5.898960   -7.528220    2.080900
  H     -2.644990   -8.997990    0.786750
  H     -1.961010  -11.271850    1.186010
  H     -1.173510  -13.424650    0.323150
  H     -4.070400  -13.490920   -0.055970
  H     -2.961260  -13.019530   -1.167070
  H     -1.880670  -15.277630   -1.187400
  H     -3.024870  -15.842300    0.042690
  H     -0.013440  -15.569700    0.450130
  H     -0.837910  -17.092020    0.097210
  H     -1.730340  -17.252820    2.237550
  H      0.629040  -17.080430    2.557680
  H      0.015340  -16.098040    3.732050
  H     -3.428580  -16.081320    5.681800
  H     -1.178800  -17.667930    4.354050
  H     -1.403110  -19.012530    6.327360
  H     -7.425160  -17.586410    7.558700
  H     -8.150220  -18.232720    9.814140
  H     -4.360940  -20.098930   10.577610

 Total Charge           Charge          ....    0
 Multiplicity           Mult            ....    1
 Number of Electrons    NEL             ....  542
 Basis Dimension        Dim             .... 1180

ORBITAL ENERGIES
----------------

  NO   OCC          E(Eh)            E(eV)
   0   2.0000    -482.872075    -13139.6172
   1   2.0000    -482.871619    -13139.6048
   2   2.0000     -88.961918     -2420.7769
   3   2.0000     -88.961375     -2420.7621
   4   2.0000     -62.549778     -1702.0660
   5   2.0000     -62.549337     -1702.0540
   6   2.0000     -56.383611     -1534.2761
   7   2.0000     -56.383172     -1534.2641
   8   2.0000     -56.381097     -1534.2076
   9   2.0000     -56.381083     -1534.2073
  10   2.0000     -56.380649     -1534.1955
  11   2.0000     -56.380643     -1534.1953
  12   2.0000     -19.353599      -526.6382
  13   2.0000     -19.222551      -523.0722
  14   2.0000     -19.217220      -522.9271
  15   2.0000     -14.478854      -393.9897
  16   2.0000     -14.477097      -393.9418
  17   2.0000     -14.419630      -392.3781
  18   2.0000     -14.418359      -392.3435
  19   2.0000     -14.414638      -392.2422
  20   2.0000     -14.413834      -392.2204
  21   2.0000     -14.393824      -391.6759
  22   2.0000     -14.391663      -391.6171
  23   2.0000     -14.391482      -391.6121
  24   2.0000     -14.387744      -391.5104
  25   2.0000     -10.371283      -282.2170
  26   2.0000     -10.367977      -282.1270
  27   2.0000     -10.344487      -281.4878
  28   2.0000     -10.344391      -281.4852
  29   2.0000     -10.344278      -281.4821
  30   2.0000     -10.343331      -281.4563
  31   2.0000     -10.342795      -281.4418
  32   2.0000     -10.341989      -281.4198
  33   2.0000     -10.323463      -280.9157
  34   2.0000     -10.323264      -280.9103
  35   2.0000     -10.322698      -280.8949
  36   2.0000     -10.322583      -280.8918
  37   2.0000     -10.320278      -280.8290
  38   2.0000     -10.317567      -280.7553
  39   2.0000     -10.317249      -280.7466
  40   2.0000     -10.316190      -280.7178
  41   2.0000     -10.315445      -280.6975
  42   2.0000     -10.313525      -280.6453
  43   2.0000     -10.312163      -280.6082
  44   2.0000     -10.310745      -280.5696
  45   2.0000     -10.309989      -280.5491
  46   2.0000     -10.309455      -280.5345
  47   2.0000     -10.308831      -280.5176
  48   2.0000     -10.308115      -280.4981
  49   2.0000     -10.307858      -280.4911
  50   2.0000     -10.307337      -280.4769
  51   2.0000     -10.305523      -280.4275
  52   2.0000     -10.305312      -280.4218
  53   2.0000     -10.304269      -280.3934
  54   2.0000     -10.304010      -280.3864
  55   2.0000     -10.303645      -280.3764
  56   2.0000     -10.302870      -280.3553
  57   2.0000     -10.302665      -280.3498
  58   2.0000     -10.302535      -280.3462
  59   2.0000     -10.301822      -280.3268
  60   2.0000     -10.299074      -280.2521
  61   2.0000     -10.298538      -280.2375
  62   2.0000     -10.296162      -280.1728
  63   2.0000     -10.295690      -280.1600
  64   2.0000     -10.295589      -280.1572
  65   2.0000     -10.295208      -280.1469
  66   2.0000     -10.294493      -280.1274
  67   2.0000     -10.289838      -280.0007
  68   2.0000     -10.289752      -279.9984
  69   2.0000     -10.289547      -279.9928
  70   2.0000     -10.288408      -279.9618
  71   2.0000     -10.286807      -279.9182
  72   2.0000     -10.284393      -279.8526
  73   2.0000     -10.266968      -279.3784
  74   2.0000     -10.266495      -279.3655
  75   2.0000     -10.264272      -279.3050
  76   2.0000     -10.261711      -279.2353
  77   2.0000      -8.779053      -238.8902
  78   2.0000      -8.778628      -238.8786
  79   2.0000      -8.057397      -219.2529
  80   2.0000      -8.055281      -219.1953
  81   2.0000      -6.614898      -180.0005
  82   2.0000      -6.614451      -179.9883
  83   2.0000      -6.601161      -179.6267
  84   2.0000      -6.600741      -179.6153
  85   2.0000      -6.600730      -179.6150
  86   2.0000      -6.600320      -179.6038
  87   2.0000      -6.026475      -163.9887
  88   2.0000      -6.024507      -163.9352
  89   2.0000      -6.022437      -163.8789
  90   2.0000      -6.020115      -163.8157
  91   2.0000      -6.019707      -163.8046
  92   2.0000      -6.017702      -163.7500
  93   2.0000      -2.730804       -74.3089
  94   2.0000      -2.730416       -74.2984
  95   2.0000      -2.727056       -74.2070
  96   2.0000      -2.726788       -74.1997
  97   2.0000      -2.726627       -74.1953
  98   2.0000      -2.726295       -74.1863
  99   2.0000      -2.715842       -73.9018
 100   2.0000      -2.715833       -73.9016
 101   2.0000      -2.715406       -73.8900
 102   2.0000      -2.715395       -73.8897
 103   2.0000      -1.306490       -35.5514
 104   2.0000      -1.138106       -30.9694
 105   2.0000      -1.132413       -30.8145
 106   2.0000      -1.021022       -27.7834
 107   2.0000      -1.020806       -27.7775
 108   2.0000      -1.016827       -27.6693
 109   2.0000      -1.011227       -27.5169
 110   2.0000      -1.008717       -27.4486
 111   2.0000      -1.002871       -27.2895
 112   2.0000      -1.001947       -27.2644
 113   2.0000      -0.997505       -27.1435
 114   2.0000      -0.994800       -27.0699
 115   2.0000      -0.994408       -27.0592
 116   2.0000      -0.980203       -26.6727
 117   2.0000      -0.979313       -26.6485
 118   2.0000      -0.970600       -26.4114
 119   2.0000      -0.969361       -26.3776
 120   2.0000      -0.964854       -26.2550
 121   2.0000      -0.963265       -26.2118
 122   2.0000      -0.926366       -25.2077
 123   2.0000      -0.923239       -25.1226
 124   2.0000      -0.912824       -24.8392
 125   2.0000      -0.910339       -24.7716
 126   2.0000      -0.909491       -24.7485
 127   2.0000      -0.903526       -24.5862
 128   2.0000      -0.892056       -24.2741
 129   2.0000      -0.887141       -24.1403
 130   2.0000      -0.885237       -24.0885
 131   2.0000      -0.880584       -23.9619
 132   2.0000      -0.868037       -23.6205
 133   2.0000      -0.859880       -23.3985
 134   2.0000      -0.853435       -23.2232
 135   2.0000      -0.845008       -22.9938
 136   2.0000      -0.834132       -22.6979
 137   2.0000      -0.830783       -22.6067
 138   2.0000      -0.821821       -22.3629
 139   2.0000      -0.809806       -22.0359
 140   2.0000      -0.787843       -21.4383
 141   2.0000      -0.786053       -21.3896
 142   2.0000      -0.782504       -21.2930
 143   2.0000      -0.769358       -20.9353
 144   2.0000      -0.767783       -20.8924
 145   2.0000      -0.757968       -20.6254
 146   2.0000      -0.755917       -20.5695
 147   2.0000      -0.745818       -20.2947
 148   2.0000      -0.729171       -19.8417
 149   2.0000      -0.720892       -19.6165
 150   2.0000      -0.708928       -19.2909
 151   2.0000      -0.708781       -19.2869
 152   2.0000      -0.702981       -19.1291
 153   2.0000      -0.700041       -19.0491
 154   2.0000      -0.697462       -18.9789
 155   2.0000      -0.692185       -18.8353
 156   2.0000      -0.686709       -18.6863
 157   2.0000      -0.683659       -18.6033
 158   2.0000      -0.672674       -18.3044
 159   2.0000      -0.664313       -18.0769
 160   2.0000      -0.653891       -17.7933
 161   2.0000      -0.653231       -17.7753
 162   2.0000      -0.639331       -17.3971
 163   2.0000      -0.631741       -17.1905
 164   2.0000      -0.627479       -17.0746
 165   2.0000      -0.621022       -16.8989
 166   2.0000      -0.620068       -16.8729
 167   2.0000      -0.616445       -16.7743
 168   2.0000      -0.613652       -16.6983
 169   2.0000      -0.610668       -16.6171
 170   2.0000      -0.606412       -16.5013
 171   2.0000      -0.604752       -16.4561
 172   2.0000      -0.594935       -16.1890
 173   2.0000      -0.588424       -16.0118
 174   2.0000      -0.584096       -15.8941
 175   2.0000      -0.583743       -15.8845
 176   2.0000      -0.579128       -15.7589
 177   2.0000      -0.573729       -15.6119
 178   2.0000      -0.571276       -15.5452
 179   2.0000      -0.567430       -15.4406
 180   2.0000      -0.564707       -15.3665
 181   2.0000      -0.562031       -15.2936
 182   2.0000      -0.558567       -15.1994
 183   2.0000      -0.549108       -14.9420
 184   2.0000      -0.546680       -14.8759
 185   2.0000      -0.544595       -14.8192
 186   2.0000      -0.542868       -14.7722
 187   2.0000      -0.540964       -14.7204
 188   2.0000      -0.539676       -14.6853
 189   2.0000      -0.537083       -14.6148
 190   2.0000      -0.534668       -14.5491
 191   2.0000      -0.532492       -14.4898
 192   2.0000      -0.531898       -14.4737
 193   2.0000      -0.525058       -14.2875
 194   2.0000      -0.520487       -14.1632
 195   2.0000      -0.517528       -14.0827
 196   2.0000      -0.514280       -13.9943
 197   2.0000      -0.510888       -13.9020
 198   2.0000      -0.506725       -13.7887
 199   2.0000      -0.504894       -13.7389
 200   2.0000      -0.502419       -13.6715
 201   2.0000      -0.499149       -13.5825
 202   2.0000      -0.498185       -13.5563
 203   2.0000      -0.497072       -13.5260
 204   2.0000      -0.493845       -13.4382
 205   2.0000      -0.493548       -13.4301
 206   2.0000      -0.492019       -13.3885
 207   2.0000      -0.486884       -13.2488
 208   2.0000      -0.483634       -13.1603
 209   2.0000      -0.480718       -13.0810
 210   2.0000      -0.480256       -13.0684
 211   2.0000      -0.476463       -12.9652
 212   2.0000      -0.476405       -12.9636
 213   2.0000      -0.474822       -12.9206
 214   2.0000      -0.469324       -12.7709
 215   2.0000      -0.466159       -12.6848
 216   2.0000      -0.464880       -12.6500
 217   2.0000      -0.463325       -12.6077
 218   2.0000      -0.460565       -12.5326
 219   2.0000      -0.458475       -12.4757
 220   2.0000      -0.454658       -12.3719
 221   2.0000      -0.452758       -12.3202
 222   2.0000      -0.452174       -12.3043
 223   2.0000      -0.452080       -12.3017
 224   2.0000      -0.451470       -12.2851
 225   2.0000      -0.445275       -12.1166
 226   2.0000      -0.443819       -12.0769
 227   2.0000      -0.441808       -12.0222
 228   2.0000      -0.439131       -11.9494
 229   2.0000      -0.432160       -11.7597
 230   2.0000      -0.430758       -11.7215
 231   2.0000      -0.429335       -11.6828
 232   2.0000      -0.428662       -11.6645
 233   2.0000      -0.428168       -11.6510
 234   2.0000      -0.426684       -11.6107
 235   2.0000      -0.423349       -11.5199
 236   2.0000      -0.422180       -11.4881
 237   2.0000      -0.418749       -11.3948
 238   2.0000      -0.417621       -11.3640
 239   2.0000      -0.415369       -11.3028
 240   2.0000      -0.412023       -11.2117
 241   2.0000      -0.410856       -11.1800
 242   2.0000      -0.405869       -11.0443
 243   2.0000      -0.405340       -11.0299
 244   2.0000      -0.404171       -10.9981
 245   2.0000      -0.401567       -10.9272
 246   2.0000      -0.400829       -10.9071
 247   2.0000      -0.396858       -10.7991
 248   2.0000      -0.388624       -10.5750
 249   2.0000      -0.378933       -10.3113
 250   2.0000      -0.373883       -10.1739
 251   2.0000      -0.366643        -9.9769
 252   2.0000      -0.366484        -9.9725
 253   2.0000      -0.364960        -9.9311
 254   2.0000      -0.355097        -9.6627
 255   2.0000      -0.351769        -9.5721
 256   2.0000      -0.350800        -9.5457
 257   2.0000      -0.344554        -9.3758
 258   2.0000      -0.338477        -9.2104
 259   2.0000      -0.335140        -9.1196
 260   2.0000      -0.327808        -8.9201
 261   2.0000      -0.326152        -8.8750
 262   2.0000      -0.319295        -8.6884
 263   2.0000      -0.311800        -8.4845
 264   2.0000      -0.310040        -8.4366
 265   2.0000      -0.309193        -8.4136
 266   2.0000      -0.307786        -8.3753
 267   2.0000      -0.304710        -8.2916
 268   2.0000      -0.297862        -8.1052
 269   2.0000      -0.273879        -7.4526
 270   2.0000      -0.247137        -6.7249
 271   0.0000      -0.102471        -2.7884
 272   0.0000      -0.090431        -2.4608
 273   0.0000      -0.071648        -1.9496
 274   0.0000      -0.063553        -1.7294
 275   0.0000      -0.056232        -1.5302

MULLIKEN ATOMIC CHARGES
-----------------------
   0 C :    0.153929
   1 O :   -0.169055
   2 C :   -0.016579
   3 C :    0.029866
   4 C :   -0.026376
   5 C :    0.048809
   6 C :   -0.003394
   7 C :   -0.015551
   8 Br:   -0.022042
   9 C :    0.308183
  10 C :   -0.355254
  11 C :   -0.184859
  12 N :    0.147517
  13 C :   -0.185427
  14 N :    0.146686
  15 C :   -0.095743
  16 C :   -0.053969
  17 C :   -0.099628
  18 S :    0.191728
  19 C :   -0.107256
  20 C :   -0.054568
  21 C :   -0.024243
  22 C :    0.029242
  23 N :   -0.165740
  24 C :    0.097038
  25 C :    0.071232
  26 C :    0.048983
  27 N :   -0.173118
  28 C :    0.034547
  29 C :    0.067826
  30 C :    0.064742
  31 C :   -0.058734
  32 C :    0.061378
  33 C :    0.084554
  34 C :   -0.060296
  35 C :   -0.037325
  36 N :    0.043098
  37 O :   -0.099091
  38 N :    0.043397
  39 C :   -0.178821
  40 S :    0.180454
  41 C :   -0.149960
  42 C :   -0.030891
  43 C :   -0.018111
  44 C :    0.046855
  45 N :   -0.171317
  46 C :    0.055548
  47 C :    0.087293
  48 C :    0.055074
  49 N :   -0.179316
  50 C :    0.071158
  51 C :   -0.012231
  52 C :    0.047955
  53 C :   -0.129225
  54 C :    0.135274
  55 O :   -0.139354
  56 C :   -0.003141
  57 C :    0.012435
  58 C :    0.261162
  59 C :   -0.337171
  60 C :   -0.182623
  61 N :    0.158508
  62 C :   -0.186224
  63 N :    0.168766
  64 C :   -0.026406
  65 C :    0.049976
  66 C :   -0.004183
  67 C :   -0.017364
  68 Br:   -0.020667
  69 H :    0.007496
  70 H :    0.004732
  71 H :    0.000337
  72 H :    0.009028
  73 H :    0.031144
  74 H :    0.093031
  75 H :    0.079495
  76 H :    0.012239
  77 H :   -0.012065
  78 H :   -0.006704
  79 H :   -0.004929
  80 H :    0.013444
  81 H :    0.092583
  82 H :    0.096336
  83 H :   -0.013723
  84 H :   -0.007996
  85 H :   -0.013303
  86 H :   -0.027727
  87 H :    0.007922
  88 H :    0.100127
  89 H :    0.093177
  90 H :   -0.007943
  91 H :    0.009081
  92 H :   -0.007361
  93 H :    0.000609
  94 H :    0.016440
  95 H :    0.098860
  96 H :    0.095651
  97 H :    0.011191
  98 H :   -0.026824
  99 H :    0.024322
 100 H :    0.012733
 101 H :    0.006006
 102 H :    0.004638
Sum of atomic charges:   -0.0000000

LOEWDIN ATOMIC CHARGES
----------------------
   0 C :    0.081394
   1 O :   -0.160093
   2 C :   -0.036115
   3 C :   -0.016121
   4 C :    0.008076
   5 C :   -0.014795
   6 C :   -0.098544
   7 C :   -0.001908
   8 Br:    0.113424
   9 C :    0.077495
  10 C :   -0.147507
  11 C :   -0.019417
  12 N :   -0.054908
  13 C :   -0.020914
  14 N :   -0.055920
  15 C :   -0.119932
  16 C :    0.050969
  17 C :   -0.200410
  18 S :    0.510580
  19 C :   -0.140172
  20 C :   -0.074304
  21 C :   -0.021349
  22 C :    0.016271
  23 N :   -0.088523
  24 C :   -0.023906
  25 C :   -0.040441
  26 C :    0.013574
  27 N :   -0.085716
  28 C :   -0.042680
  29 C :    0.026116
  30 C :   -0.025610
  31 C :   -0.003580
  32 C :    0.026142
  33 C :   -0.048378
  34 C :   -0.058993
  35 C :   -0.051126
  36 N :   -0.027549
  37 O :    0.075006
  38 N :   -0.038875
  39 C :   -0.153479
  40 S :    0.483921
  41 C :   -0.185331
  42 C :   -0.023061
  43 C :   -0.053664
  44 C :    0.015423
  45 N :   -0.085822
  46 C :   -0.037777
  47 C :   -0.031175
  48 C :    0.020450
  49 N :   -0.098144
  50 C :    0.016346
  51 C :   -0.060987
  52 C :    0.071672
  53 C :   -0.102532
  54 C :    0.083200
  55 O :   -0.139206
  56 C :   -0.039276
  57 C :   -0.014072
  58 C :    0.065657
  59 C :   -0.141686
  60 C :   -0.021748
  61 N :   -0.050969
  62 C :   -0.008733
  63 N :   -0.050546
  64 C :    0.006444
  65 C :   -0.012535
  66 C :   -0.099055
  67 C :   -0.000299
  68 Br:    0.114692
  69 H :    0.042771
  70 H :    0.040029
  71 H :    0.043054
  72 H :    0.043323
  73 H :    0.034532
  74 H :    0.052989
  75 H :    0.046866
  76 H :    0.032849
  77 H :    0.021860
  78 H :    0.019796
  79 H :    0.021986
  80 H :    0.026706
  81 H :    0.054517
  82 H :    0.056119
  83 H :    0.025135
  84 H :    0.034656
  85 H :    0.033092
  86 H :    0.035061
  87 H :    0.026135
  88 H :    0.057658
  89 H :    0.055347
  90 H :    0.019801
  91 H :    0.025341
  92 H :    0.022330
  93 H :    0.025597
  94 H :    0.017135
  95 H :    0.055940
  96 H :    0.048459
  97 H :    0.034017
  98 H :    0.024000
  99 H :    0.045961
 100 H :    0.043319
 101 H :    0.040340
 102 H :    0.044317

  Mayer bond orders larger than 0.100000
B(  0-C ,  1-O ) :   2.1566 B(  0-C ,  2-C ) :   0.9512 B(  0-C , 15-C ) :   0.9768
B(  2-C ,  3-C ) :   1.3358 B(  2-C ,  7-C ) :   1.3808 B(  3-C ,  4-C ) :   1.3692
B(  3-C ,  9-C ) :   0.9855 B(  4-C ,  5-C ) :   1.3765 B(  4-C , 69-H ) :   0.9846
B(  5-C ,  6-C ) :   1.3941 B(  5-C , 70-H ) :   0.9850 B(  6-C ,  7-C ) :   1.3312
B(  6-C ,  8-Br) :   0.9913 B(  7-C , 71-H ) :   1.0083 B(  9-C , 10-C ) :   1.6211
B(  9-C , 15-C ) :   1.0929 B( 10-C , 11-C ) :   1.1419 B( 10-C , 13-C ) :   1.1457
B( 11-C , 12-N ) :   2.9746 B( 13-C , 14-N ) :   2.9685 B( 15-C , 16-C ) :   1.4891
B( 16-C , 17-C ) :   1.2943 B( 16-C , 72-H ) :   0.9276 B( 17-C , 18-S ) :   1.0863
B( 17-C , 21-C ) :   1.3389 B( 18-S , 19-C ) :   1.1522 B( 19-C , 20-C ) :   1.3916
B( 19-C , 28-C ) :   1.1312 B( 20-C , 21-C ) :   1.4326 B( 20-C , 26-C ) :   0.9858
B( 21-C , 22-C ) :   0.9857 B( 22-C , 23-N ) :   1.1162 B( 22-C , 24-C ) :   1.0641
B( 22-C , 73-H ) :   0.8721 B( 23-N , 74-H ) :   0.9606 B( 23-N , 75-H ) :   0.9777
B( 24-C , 25-C ) :   1.0706 B( 24-C , 76-H ) :   0.9241 B( 24-C , 77-H ) :   0.9180
B( 25-C , 26-C ) :   1.0654 B( 25-C , 78-H ) :   0.9232 B( 25-C , 79-H ) :   0.9286
B( 26-C , 27-N ) :   1.1130 B( 26-C , 80-H ) :   0.8699 B( 27-N , 81-H ) :   0.9651
B( 27-N , 82-H ) :   0.9687 B( 28-C , 29-C ) :   1.6575 B( 28-C , 83-H ) :   0.9449
B( 29-C , 30-C ) :   1.1451 B( 29-C , 84-H ) :   0.9700 B( 30-C , 31-C ) :   1.4487
B( 30-C , 33-C ) :   0.1084 B( 30-C , 35-C ) :   1.1191 B( 31-C , 32-C ) :   1.2243
B( 31-C , 85-H ) :   0.9912 B( 32-C , 33-C ) :   1.5038 B( 32-C , 86-H ) :   0.9838
B( 33-C , 34-C ) :   1.1556 B( 33-C , 39-C ) :   1.0555 B( 34-C , 35-C ) :   1.1448
B( 34-C , 38-N ) :   1.5947 B( 35-C , 36-N ) :   1.6121 B( 36-N , 37-O ) :   1.0653
B( 36-N , 38-N ) :   0.1839 B( 37-O , 38-N ) :   1.0620 B( 39-C , 40-S ) :   1.1699
B( 39-C , 41-C ) :   0.1061 B( 39-C , 43-C ) :   1.4909 B( 40-S , 41-C ) :   1.1054
B( 41-C , 42-C ) :   1.4561 B( 41-C , 50-C ) :   1.1937 B( 42-C , 43-C ) :   1.3637
B( 42-C , 48-C ) :   1.0276 B( 43-C , 44-C ) :   0.9926 B( 44-C , 45-N ) :   1.1105
B( 44-C , 46-C ) :   1.0634 B( 44-C , 87-H ) :   0.8712 B( 45-N , 88-H ) :   0.9621
B( 45-N , 89-H ) :   0.9671 B( 46-C , 47-C ) :   1.1064 B( 46-C , 90-H ) :   0.9315
B( 46-C , 91-H ) :   0.9230 B( 47-C , 48-C ) :   1.0514 B( 47-C , 92-H ) :   0.9043
B( 47-C , 93-H ) :   0.9216 B( 48-C , 49-N ) :   1.1085 B( 48-C , 94-H ) :   0.8729
B( 49-N , 95-H ) :   0.9677 B( 49-N , 96-H ) :   0.9727 B( 50-C , 51-C ) :   1.6144
B( 50-C , 97-H ) :   0.9381 B( 51-C , 52-C ) :   1.1705 B( 51-C , 98-H ) :   0.9418
B( 52-C , 53-C ) :   1.6389 B( 52-C , 99-H ) :   0.9326 B( 53-C , 54-C ) :   0.9529
B( 53-C , 58-C ) :   1.0433 B( 54-C , 55-O ) :   2.2694 B( 54-C , 56-C ) :   0.9156
B( 56-C , 57-C ) :   1.3342 B( 56-C , 67-C ) :   1.3835 B( 57-C , 58-C ) :   1.0003
B( 57-C , 64-C ) :   1.3707 B( 58-C , 59-C ) :   1.6464 B( 59-C , 60-C ) :   1.1279
B( 59-C , 62-C ) :   1.1683 B( 60-C , 61-N ) :   2.9951 B( 62-C , 63-N ) :   2.9885
B( 64-C , 65-C ) :   1.3815 B( 64-C ,100-H ) :   0.9859 B( 65-C , 66-C ) :   1.3891
B( 65-C ,101-H ) :   0.9855 B( 66-C , 67-C ) :   1.3401 B( 66-C , 68-Br) :   0.9929
B( 67-C ,102-H ) :   1.0065

-----------------------------------------------------------------------------
         ABSORPTION SPECTRUM VIA TRANSITION ELECTRIC DIPOLE MOMENTS
-----------------------------------------------------------------------------
State   Energy  Wavelength   fosc         T2         TX        TY        TZ
        (cm-1)    (nm)                  (au**2)     (au)      (au)      (au)
-----------------------------------------------------------------------------
   0   16386.5    610.3   1.902131930  38.21456   0.87162   5.86557  -1.74640
   1   19490.2    513.1   0.201707313   3.40707   0.09818  -1.75868  -0.55179
   2   23437.9    426.7   0.084635023   1.18880   0.81023  -0.66246   0.30573
   3   24265.5    412.1   0.003012109   0.04087   0.11205   0.01467   0.16762
   4   25051.0    399.2   0.163527073   2.14902  -1.28517   0.41687  -0.56883
   5   25876.5    386.5   0.012382705   0.15754  -0.26298   0.15138   0.25586
   6   26432.9    378.3   0.028694122   0.35737  -0.23739  -0.05888   0.54548
   7   26891.8    371.9   0.153001233   1.87306  -0.42479  -1.29446   0.13033
   8   27371.5    365.3   0.008559338   0.10295   0.26649   0.07492   0.16222
   9   27787.2    359.9   0.017407031   0.20623   0.37177  -0.12427  -0.22930
  10   28562.3    350.1   0.031505118   0.36313   0.59652  -0.08133  -0.02618
  11   29215.6    342.3   0.038889345   0.43822  -0.40076  -0.28411  -0.44372
  12   29222.8    342.2   0.209858700   2.36418  -0.28875  -0.75414   1.30847
  13   30446.3    328.4   0.096873697   1.04748   0.89595   0.14905   0.47174
  14   30830.3    324.4   0.033759864   0.36049  -0.41582   0.02286  -0.43251
  15   31102.7    321.5   0.081689577   0.86466  -0.30922  -0.28422   0.82961
  16   31747.5    315.0   0.075822329   0.78625  -0.77267   0.34841   0.26047
  17   31931.1    313.2   0.011928420   0.12298  -0.20006  -0.24991  -0.14319
  18   32421.6    308.4   0.067179148   0.68214  -0.58008   0.21876  -0.54570
  19   32746.8    305.4   0.072701886   0.73089   0.33075   0.19314  -0.76433
  20   32907.8    303.9   0.045578318   0.45597  -0.64061  -0.14102  -0.16033
  21   33160.9    301.6   0.036135919   0.35875   0.57997  -0.12422  -0.08337
  22   33619.5    297.4   0.161812913   1.58452   1.19645  -0.15801  -0.35785
  23   33955.9    294.5   0.012912015   0.12519   0.07116  -0.21300   0.27341
  24   34282.4    291.7   0.021089756   0.20252  -0.33645   0.10940  -0.27813
  25   34760.5    287.7   0.017347095   0.16429  -0.07691  -0.27296   0.28960
  26   34773.3    287.6   0.176132793   1.66751   1.24132   0.02752   0.35480
  27   34965.1    286.0   0.321847921   3.03034   1.62643  -0.41182   0.46417
  28   35408.7    282.4   0.715294605   6.65044   0.41210  -1.57559   1.99954
  29   35716.1    280.0   0.235746790   2.17299   0.06915  -0.65395  -1.31930
  30   36071.8    277.2   0.010695394   0.09761   0.09367   0.22084  -0.20017
  31   36534.9    273.7   0.009124690   0.08222  -0.17703   0.15147   0.16715
  32   36760.8    272.0   0.007711743   0.06906  -0.00677   0.11467   0.23636
  33   37199.3    268.8   0.003152889   0.02790  -0.09375  -0.04041   0.13222
  34   37711.8    265.2   0.006988885   0.06101   0.04293  -0.24133  -0.03047
  35   38071.3    262.7   0.099336437   0.85899  -0.53931   0.65542  -0.37222
  36   38215.1    261.7   0.020570706   0.17721  -0.37844   0.16665   0.07887
  37   38572.9    259.2   0.158792789   1.35527  -0.88893   0.73167  -0.17241
  38   38858.1    257.3   0.006301838   0.05339   0.02194  -0.22979  -0.01016
  39   39161.2    255.4   0.003069684   0.02581   0.01901   0.10316   0.12166
  40   39535.5    252.9   0.068397931   0.56955  -0.58467   0.33865  -0.33620
  41   39797.0    251.3   0.002748935   0.02274   0.12952  -0.04010  -0.06601
  42   39918.1    250.5   0.014647763   0.12080   0.25686   0.21879   0.08340
  43   40021.5    249.9   0.018857815   0.15512  -0.03473  -0.38586   0.07093
  44   40217.9    248.6   0.010032561   0.08212  -0.06261   0.04606  -0.27583

FINAL SINGLE POINT ENERGY     -8715.551989097679

DIPOLE MOMENT
-------------
                                X             Y             Z
Electronic contribution:     44.31189      10.82173     116.63289
Nuclear contribution   :    -42.72672     -12.22672    -117.36549
                        -----------------------------------------
Total Dipole Moment    :      1.58518      -1.40499      -0.73259
                        -----------------------------------------
Magnitude (a.u.)       :      2.24131
Magnitude (Debye)      :      5.69695

Rotational constants in cm-1:     0.001271     0.000206     0.000202
Rotational constants in MHz :    38.092957     6.187487     6.066413

                             ****ORCA TERMINATED NORMALLY****
TOTAL RUN TIME: 0 days 0 hours 10 minutes 3 seconds 310 msec
