                         Program Version 4.2.0 -  RELEASE  -
|  1> # ORCA input file
|  2> # SCF done       -226.470992728773          0.000433612325
|  3> ! CAM-B3LYP def2-SVP def2/J RIJCOSX Grid4 TightSCF
|  4> %maxcore 5000
|  5> %tddft
|  6>     Mode sTDDFT
|  7>     Ethresh 5.0
|  8>     maxcore 5000
|  9> end
| 10>
| 11> %pal
| 12>   nprocs 6
| 13>   end
| 14> * xyz 0 1
| 15>    C       -7.71118        -3.68350        -1.86877
| 16>    O       -7.52646        -4.76340        -1.34005
| 17>    C       -8.93925        -3.25900        -2.57677
| 18>    C       -8.78678        -1.93591        -3.02695
| 19>    C       -9.81702        -1.33235        -3.73341
| 20>    C      -10.97537        -2.05584        -3.97597
| 21>    C      -11.10374        -3.36020        -3.51839
| 22>    C      -10.08727        -3.98657        -2.80964
| 23>   Br      -12.70948        -4.31167        -3.87490
| 24>    C       -7.46995        -1.45058        -2.61652
| 25>    C       -7.01061        -0.17026        -2.78698
| 26>    C       -7.74155         0.84816        -3.43462
| 27>    N       -8.28106         1.71917        -3.95272
| 28>    C       -5.77964         0.33976        -2.32169
| 29>    N       -4.81973         0.86084        -1.96535
| 30>    C       -6.78771        -2.54761        -1.95777
| 31>    C       -5.47262        -2.52292        -1.56701
| 32>    C       -4.69399        -3.48529        -0.91178
| 33>    S       -5.25394        -5.02865        -0.32927
| 34>    C       -3.70059        -5.38363         0.34652
| 35>    C       -2.79105        -4.34200         0.13913
| 36>    C       -3.33754        -3.29124        -0.59084
| 37>    C       -2.55855        -2.06355        -0.99171
| 38>    N       -2.84385        -1.71254        -2.37733
| 39>    C       -1.05964        -2.27891        -0.72641
| 40>    C       -0.83129        -2.90219         0.64118
| 41>    C       -1.38355        -4.33701         0.67696
| 42>    N       -1.34841        -4.93437         2.00317
| 43>    C       -3.42864        -6.62621         0.97565
| 44>    C       -4.37847        -7.54835         1.25927
| 45>    C       -4.11522        -8.81022         1.87436
| 46>    C       -5.13965        -9.65607         2.27169
| 47>    C       -4.93243       -10.88935         2.90125
| 48>    C       -3.67601       -11.39444         3.16938
| 49>    C       -2.59141       -10.59380         2.72952
| 50>    C       -2.80062        -9.30757         2.11118
| 51>    N       -1.60862        -8.81739         1.83772
| 52>    O       -0.72346        -9.71802         2.25027
| 53>    N       -1.28945       -10.79600         2.79089
| 54>    C       -3.42518       -12.66316         3.83375
| 55>    C       -2.23984       -13.39830         3.35195
| 56>    C       -2.04389       -13.63353         1.99155
| 57>    C       -0.91453       -14.28409         1.51342
| 58>    C        0.06677       -14.70333         2.40604
| 59>    C       -0.09657       -14.46508         3.76721
| 60>    C       -1.23888       -13.82093         4.22588
| 61>    F       -1.36007       -13.59186         5.53470
| 62>    F        0.84491       -14.85649         4.62735
| 63>    F        1.15385       -15.33217         1.95976
| 64>    F       -0.77078       -14.51223         0.20599
| 65>    F       -2.98469       -13.25079         1.11822
| 66>    C       -4.18461       -13.15145         4.84946
| 67>    C       -5.18365       -12.32541         5.54545
| 68>    C       -6.45939       -12.82411         5.82095
| 69>    C       -7.39694       -12.09058         6.53821
| 70>    C       -7.06859       -10.82333         7.01096
| 71>    C       -5.80189       -10.30477         6.75540
| 72>    C       -4.87844       -11.05326         6.03663
| 73>    F       -3.66541       -10.53291         5.83048
| 74>    F       -5.47623        -9.09174         7.20562
| 75>    F       -7.95915       -10.11149         7.70004
| 76>    F       -8.60952       -12.59505         6.77114
| 77>    F       -6.81260       -14.02482         5.35174
| 78>    C       -4.04591       -14.52737         5.33364
| 79>    C       -3.90294       -15.57251         4.41404
| 80>    C       -3.77464       -16.86121         4.87207
| 81>    C       -3.73980       -17.12208         6.25268
| 82>    C       -3.89504       -16.09265         7.16795
| 83>    C       -4.06454       -14.80305         6.70202
| 84>    C       -3.49925       -18.53962         6.44736
| 85>    C       -3.38621       -19.14639         5.18757
| 86>    C       -3.62376       -18.13965         4.08199
| 87>    C       -4.94397       -18.53934         3.38132
| 88>    C       -5.48371       -17.54634         2.36044
| 89>    C       -2.45108       -18.06522         3.09237
| 90>    C       -1.11415       -17.87185         3.79925
| 91>    C       -3.13078       -20.49735         5.08659
| 92>    C       -2.98297       -21.23902         6.25103
| 93>    C       -3.09721       -20.63935         7.49642
| 94>    C       -3.35659       -19.28366         7.60775
| 95>    H       -9.73834        -0.32246        -4.10053
| 96>    H      -11.78481        -1.60189        -4.52671
| 97>    H      -10.18110        -5.00053        -2.45303
| 98>    H       -4.90694        -1.63690        -1.82479
| 99>    H       -2.91323        -1.22255        -0.37855
|100>    H       -2.44120        -2.39930        -3.00625
|101>    H       -2.44918        -0.80629        -2.59934
|102>    H       -0.54206        -1.32014        -0.80035
|103>    H       -0.65400        -2.94246        -1.49624
|104>    H       -1.33895        -2.30458         1.40398
|105>    H        0.23503        -2.91848         0.87770
|106>    H       -0.76333        -4.97523         0.03084
|107>    H       -1.89407        -4.38162         2.65567
|108>    H       -0.39554        -4.97612         2.34528
|109>    H       -2.40101        -6.81184         1.25163
|110>    H       -5.41617        -7.33653         1.03243
|111>    H       -6.15814        -9.34571         2.09040
|112>    H       -5.79886       -11.47947         3.16123
|113>    H       -3.92035       -15.35496         3.35775
|114>    H       -3.87647       -16.28976         8.22874
|115>    H       -4.16797       -13.98818         7.40392
|116>    H       -5.70088       -18.68964         4.15565
|117>    H       -4.77816       -19.50170         2.89184
|118>    H       -5.77577       -16.61616         2.84017
|119>    H       -6.36588       -17.96821         1.88357
|120>    H       -4.75249       -17.33406         1.58461
|121>    H       -2.61785       -17.23489         2.40349
|122>    H       -2.42070       -18.98558         2.50620
|123>    H       -1.14285       -16.99295         4.44029
|124>    H       -0.31475       -17.74907         3.07211
|125>    H       -0.88042       -18.73317         4.42026
|126>    H       -3.03988       -20.97634         4.12273
|127>    H       -2.77727       -22.29727         6.18609
|128>    H       -2.98056       -21.23742         8.38805
|129>    H       -3.44359       -18.81743         8.57762
|130> *
|131>
|132>                          ****END OF INPUT****

CARTESIAN COORDINATES (ANGSTROEM)
---------------------------------
  C     -7.711180   -3.683500   -1.868770
  O     -7.526460   -4.763400   -1.340050
  C     -8.939250   -3.259000   -2.576770
  C     -8.786780   -1.935910   -3.026950
  C     -9.817020   -1.332350   -3.733410
  C    -10.975370   -2.055840   -3.975970
  C    -11.103740   -3.360200   -3.518390
  C    -10.087270   -3.986570   -2.809640
  Br   -12.709480   -4.311670   -3.874900
  C     -7.469950   -1.450580   -2.616520
  C     -7.010610   -0.170260   -2.786980
  C     -7.741550    0.848160   -3.434620
  N     -8.281060    1.719170   -3.952720
  C     -5.779640    0.339760   -2.321690
  N     -4.819730    0.860840   -1.965350
  C     -6.787710   -2.547610   -1.957770
  C     -5.472620   -2.522920   -1.567010
  C     -4.693990   -3.485290   -0.911780
  S     -5.253940   -5.028650   -0.329270
  C     -3.700590   -5.383630    0.346520
  C     -2.791050   -4.342000    0.139130
  C     -3.337540   -3.291240   -0.590840
  C     -2.558550   -2.063550   -0.991710
  N     -2.843850   -1.712540   -2.377330
  C     -1.059640   -2.278910   -0.726410
  C     -0.831290   -2.902190    0.641180
  C     -1.383550   -4.337010    0.676960
  N     -1.348410   -4.934370    2.003170
  C     -3.428640   -6.626210    0.975650
  C     -4.378470   -7.548350    1.259270
  C     -4.115220   -8.810220    1.874360
  C     -5.139650   -9.656070    2.271690
  C     -4.932430  -10.889350    2.901250
  C     -3.676010  -11.394440    3.169380
  C     -2.591410  -10.593800    2.729520
  C     -2.800620   -9.307570    2.111180
  N     -1.608620   -8.817390    1.837720
  O     -0.723460   -9.718020    2.250270
  N     -1.289450  -10.796000    2.790890
  C     -3.425180  -12.663160    3.833750
  C     -2.239840  -13.398300    3.351950
  C     -2.043890  -13.633530    1.991550
  C     -0.914530  -14.284090    1.513420
  C      0.066770  -14.703330    2.406040
  C     -0.096570  -14.465080    3.767210
  C     -1.238880  -13.820930    4.225880
  F     -1.360070  -13.591860    5.534700
  F      0.844910  -14.856490    4.627350
  F      1.153850  -15.332170    1.959760
  F     -0.770780  -14.512230    0.205990
  F     -2.984690  -13.250790    1.118220
  C     -4.184610  -13.151450    4.849460
  C     -5.183650  -12.325410    5.545450
  C     -6.459390  -12.824110    5.820950
  C     -7.396940  -12.090580    6.538210
  C     -7.068590  -10.823330    7.010960
  C     -5.801890  -10.304770    6.755400
  C     -4.878440  -11.053260    6.036630
  F     -3.665410  -10.532910    5.830480
  F     -5.476230   -9.091740    7.205620
  F     -7.959150  -10.111490    7.700040
  F     -8.609520  -12.595050    6.771140
  F     -6.812600  -14.024820    5.351740
  C     -4.045910  -14.527370    5.333640
  C     -3.902940  -15.572510    4.414040
  C     -3.774640  -16.861210    4.872070
  C     -3.739800  -17.122080    6.252680
  C     -3.895040  -16.092650    7.167950
  C     -4.064540  -14.803050    6.702020
  C     -3.499250  -18.539620    6.447360
  C     -3.386210  -19.146390    5.187570
  C     -3.623760  -18.139650    4.081990
  C     -4.943970  -18.539340    3.381320
  C     -5.483710  -17.546340    2.360440
  C     -2.451080  -18.065220    3.092370
  C     -1.114150  -17.871850    3.799250
  C     -3.130780  -20.497350    5.086590
  C     -2.982970  -21.239020    6.251030
  C     -3.097210  -20.639350    7.496420
  C     -3.356590  -19.283660    7.607750
  H     -9.738340   -0.322460   -4.100530
  H    -11.784810   -1.601890   -4.526710
  H    -10.181100   -5.000530   -2.453030
  H     -4.906940   -1.636900   -1.824790
  H     -2.913230   -1.222550   -0.378550
  H     -2.441200   -2.399300   -3.006250
  H     -2.449180   -0.806290   -2.599340
  H     -0.542060   -1.320140   -0.800350
  H     -0.654000   -2.942460   -1.496240
  H     -1.338950   -2.304580    1.403980
  H      0.235030   -2.918480    0.877700
  H     -0.763330   -4.975230    0.030840
  H     -1.894070   -4.381620    2.655670
  H     -0.395540   -4.976120    2.345280
  H     -2.401010   -6.811840    1.251630
  H     -5.416170   -7.336530    1.032430
  H     -6.158140   -9.345710    2.090400
  H     -5.798860  -11.479470    3.161230
  H     -3.920350  -15.354960    3.357750
  H     -3.876470  -16.289760    8.228740
  H     -4.167970  -13.988180    7.403920
  H     -5.700880  -18.689640    4.155650
  H     -4.778160  -19.501700    2.891840
  H     -5.775770  -16.616160    2.840170
  H     -6.365880  -17.968210    1.883570
  H     -4.752490  -17.334060    1.584610
  H     -2.617850  -17.234890    2.403490
  H     -2.420700  -18.985580    2.506200
  H     -1.142850  -16.992950    4.440290
  H     -0.314750  -17.749070    3.072110
  H     -0.880420  -18.733170    4.420260
  H     -3.039880  -20.976340    4.122730
  H     -2.777270  -22.297270    6.186090
  H     -2.980560  -21.237420    8.388050
  H     -3.443590  -18.817430    8.577620

 Total Charge           Charge          ....    0
 Multiplicity           Mult            ....    1
 Number of Electrons    NEL             ....  594
 Basis Dimension        Dim             .... 1317

ORBITAL ENERGIES
----------------

  NO   OCC          E(Eh)            E(eV)
   0   2.0000    -482.868963    -13139.5325
   1   2.0000     -88.956642     -2420.6333
   2   2.0000     -62.546661     -1701.9812
   3   2.0000     -56.380488     -1534.1911
   4   2.0000     -56.377986     -1534.1230
   5   2.0000     -56.377972     -1534.1226
   6   2.0000     -24.814807      -675.2452
   7   2.0000     -24.811316      -675.1502
   8   2.0000     -24.809987      -675.1141
   9   2.0000     -24.809840      -675.1101
  10   2.0000     -24.809579      -675.1030
  11   2.0000     -24.806921      -675.0306
  12   2.0000     -24.805958      -675.0044
  13   2.0000     -24.801760      -674.8902
  14   2.0000     -24.801359      -674.8793
  15   2.0000     -24.800792      -674.8639
  16   2.0000     -19.355630      -526.6935
  17   2.0000     -19.216964      -522.9202
  18   2.0000     -14.481101      -394.0508
  19   2.0000     -14.480403      -394.0318
  20   2.0000     -14.412290      -392.1784
  21   2.0000     -14.409254      -392.0957
  22   2.0000     -14.393572      -391.6690
  23   2.0000     -14.392021      -391.6268
  24   2.0000     -10.397321      -282.9255
  25   2.0000     -10.392710      -282.8000
  26   2.0000     -10.392313      -282.7892
  27   2.0000     -10.390921      -282.7513
  28   2.0000     -10.390675      -282.7447
  29   2.0000     -10.386795      -282.6391
  30   2.0000     -10.381710      -282.5007
  31   2.0000     -10.381455      -282.4937
  32   2.0000     -10.380952      -282.4801
  33   2.0000     -10.379622      -282.4439
  34   2.0000     -10.365397      -282.0568
  35   2.0000     -10.340717      -281.3852
  36   2.0000     -10.336376      -281.2671
  37   2.0000     -10.335801      -281.2515
  38   2.0000     -10.325878      -280.9814
  39   2.0000     -10.325633      -280.9748
  40   2.0000     -10.323288      -280.9110
  41   2.0000     -10.315928      -280.7107
  42   2.0000     -10.312923      -280.6289
  43   2.0000     -10.312803      -280.6256
  44   2.0000     -10.312527      -280.6181
  45   2.0000     -10.311286      -280.5843
  46   2.0000     -10.309402      -280.5331
  47   2.0000     -10.308915      -280.5198
  48   2.0000     -10.308385      -280.5054
  49   2.0000     -10.307541      -280.4824
  50   2.0000     -10.307260      -280.4748
  51   2.0000     -10.305842      -280.4362
  52   2.0000     -10.305289      -280.4212
  53   2.0000     -10.304825      -280.4085
  54   2.0000     -10.299902      -280.2746
  55   2.0000     -10.299132      -280.2536
  56   2.0000     -10.299047      -280.2513
  57   2.0000     -10.297585      -280.2115
  58   2.0000     -10.296399      -280.1793
  59   2.0000     -10.293931      -280.1121
  60   2.0000     -10.291841      -280.0552
  61   2.0000     -10.287330      -279.9325
  62   2.0000     -10.284691      -279.8607
  63   2.0000     -10.284525      -279.8561
  64   2.0000     -10.281526      -279.7746
  65   2.0000     -10.278653      -279.6964
  66   2.0000     -10.278173      -279.6833
  67   2.0000     -10.275283      -279.6047
  68   2.0000     -10.273972      -279.5690
  69   2.0000     -10.273865      -279.5661
  70   2.0000     -10.273194      -279.5478
  71   2.0000     -10.270759      -279.4816
  72   2.0000     -10.270110      -279.4639
  73   2.0000     -10.270008      -279.4611
  74   2.0000     -10.268451      -279.4187
  75   2.0000     -10.267646      -279.3969
  76   2.0000     -10.266911      -279.3769
  77   2.0000     -10.266397      -279.3629
  78   2.0000     -10.265806      -279.3468
  79   2.0000     -10.265382      -279.3353
  80   2.0000     -10.264019      -279.2982
  81   2.0000     -10.263392      -279.2811
  82   2.0000     -10.251662      -278.9619
  83   2.0000     -10.247514      -278.8490
  84   2.0000      -8.775929      -238.8052
  85   2.0000      -8.050335      -219.0608
  86   2.0000      -6.611745      -179.9147
  87   2.0000      -6.598056      -179.5422
  88   2.0000      -6.597619      -179.5303
  89   2.0000      -6.019482      -163.7984
  90   2.0000      -6.015176      -163.6813
  91   2.0000      -6.012858      -163.6182
  92   2.0000      -2.727662       -74.2235
  93   2.0000      -2.723909       -74.1213
  94   2.0000      -2.723654       -74.1144
  95   2.0000      -2.712738       -73.8174
  96   2.0000      -2.712727       -73.8171
  97   2.0000      -1.341521       -36.5047
  98   2.0000      -1.334034       -36.3009
  99   2.0000      -1.332846       -36.2686
 100   2.0000      -1.328467       -36.1494
 101   2.0000      -1.325770       -36.0760
 102   2.0000      -1.320456       -35.9314
 103   2.0000      -1.318518       -35.8787
 104   2.0000      -1.314691       -35.7746
 105   2.0000      -1.310502       -35.6606
 106   2.0000      -1.309444       -35.6318
 107   2.0000      -1.306043       -35.5392
 108   2.0000      -1.132241       -30.8098
 109   2.0000      -1.015771       -27.6405
 110   2.0000      -1.015155       -27.6238
 111   2.0000      -1.009755       -27.4768
 112   2.0000      -1.007804       -27.4237
 113   2.0000      -1.000605       -27.2279
 114   2.0000      -0.997217       -27.1357
 115   2.0000      -0.990169       -26.9439
 116   2.0000      -0.989148       -26.9161
 117   2.0000      -0.986507       -26.8442
 118   2.0000      -0.980976       -26.6937
 119   2.0000      -0.970138       -26.3988
 120   2.0000      -0.958445       -26.0806
 121   2.0000      -0.957354       -26.0509
 122   2.0000      -0.933181       -25.3931
 123   2.0000      -0.922960       -25.1150
 124   2.0000      -0.913138       -24.8477
 125   2.0000      -0.907138       -24.6845
 126   2.0000      -0.903835       -24.5946
 127   2.0000      -0.897666       -24.4267
 128   2.0000      -0.892714       -24.2920
 129   2.0000      -0.885258       -24.0891
 130   2.0000      -0.876269       -23.8445
 131   2.0000      -0.869734       -23.6667
 132   2.0000      -0.867967       -23.6186
 133   2.0000      -0.858123       -23.3507
 134   2.0000      -0.856700       -23.3120
 135   2.0000      -0.847073       -23.0500
 136   2.0000      -0.840027       -22.8583
 137   2.0000      -0.836683       -22.7673
 138   2.0000      -0.832367       -22.6499
 139   2.0000      -0.829075       -22.5603
 140   2.0000      -0.828350       -22.5406
 141   2.0000      -0.817286       -22.2395
 142   2.0000      -0.798360       -21.7245
 143   2.0000      -0.784494       -21.3472
 144   2.0000      -0.780505       -21.2386
 145   2.0000      -0.769511       -20.9395
 146   2.0000      -0.764007       -20.7897
 147   2.0000      -0.762960       -20.7612
 148   2.0000      -0.755869       -20.5682
 149   2.0000      -0.753517       -20.5042
 150   2.0000      -0.749763       -20.4021
 151   2.0000      -0.743853       -20.2413
 152   2.0000      -0.740802       -20.1583
 153   2.0000      -0.730314       -19.8728
 154   2.0000      -0.719866       -19.5886
 155   2.0000      -0.710615       -19.3368
 156   2.0000      -0.706016       -19.2117
 157   2.0000      -0.697300       -18.9745
 158   2.0000      -0.692113       -18.8333
 159   2.0000      -0.690667       -18.7940
 160   2.0000      -0.687748       -18.7146
 161   2.0000      -0.686549       -18.6820
 162   2.0000      -0.682942       -18.5838
 163   2.0000      -0.681321       -18.5397
 164   2.0000      -0.676318       -18.4035
 165   2.0000      -0.673398       -18.3241
 166   2.0000      -0.669466       -18.2171
 167   2.0000      -0.663318       -18.0498
 168   2.0000      -0.660244       -17.9662
 169   2.0000      -0.658536       -17.9197
 170   2.0000      -0.653504       -17.7827
 171   2.0000      -0.645788       -17.5728
 172   2.0000      -0.640046       -17.4165
 173   2.0000      -0.637857       -17.3570
 174   2.0000      -0.632484       -17.2108
 175   2.0000      -0.630809       -17.1652
 176   2.0000      -0.624101       -16.9826
 177   2.0000      -0.623663       -16.9707
 178   2.0000      -0.621788       -16.9197
 179   2.0000      -0.619554       -16.8589
 180   2.0000      -0.615345       -16.7444
 181   2.0000      -0.614939       -16.7333
 182   2.0000      -0.612279       -16.6610
 183   2.0000      -0.610304       -16.6072
 184   2.0000      -0.609206       -16.5773
 185   2.0000      -0.606443       -16.5021
 186   2.0000      -0.605599       -16.4792
 187   2.0000      -0.599653       -16.3174
 188   2.0000      -0.591834       -16.1046
 189   2.0000      -0.587562       -15.9884
 190   2.0000      -0.586500       -15.9595
 191   2.0000      -0.582425       -15.8486
 192   2.0000      -0.580358       -15.7924
 193   2.0000      -0.578843       -15.7511
 194   2.0000      -0.578217       -15.7341
 195   2.0000      -0.573484       -15.6053
 196   2.0000      -0.569811       -15.5053
 197   2.0000      -0.567930       -15.4541
 198   2.0000      -0.566140       -15.4054
 199   2.0000      -0.559538       -15.2258
 200   2.0000      -0.555651       -15.1200
 201   2.0000      -0.550068       -14.9681
 202   2.0000      -0.548454       -14.9242
 203   2.0000      -0.547279       -14.8922
 204   2.0000      -0.543960       -14.8019
 205   2.0000      -0.542870       -14.7722
 206   2.0000      -0.542567       -14.7640
 207   2.0000      -0.541442       -14.7334
 208   2.0000      -0.540239       -14.7006
 209   2.0000      -0.538506       -14.6535
 210   2.0000      -0.536084       -14.5876
 211   2.0000      -0.533991       -14.5306
 212   2.0000      -0.531548       -14.4642
 213   2.0000      -0.531406       -14.4603
 214   2.0000      -0.530341       -14.4313
 215   2.0000      -0.528316       -14.3762
 216   2.0000      -0.525156       -14.2902
 217   2.0000      -0.522679       -14.2228
 218   2.0000      -0.520987       -14.1768
 219   2.0000      -0.519459       -14.1352
 220   2.0000      -0.516688       -14.0598
 221   2.0000      -0.515688       -14.0326
 222   2.0000      -0.512901       -13.9567
 223   2.0000      -0.506373       -13.7791
 224   2.0000      -0.504912       -13.7394
 225   2.0000      -0.504265       -13.7217
 226   2.0000      -0.499525       -13.5928
 227   2.0000      -0.498247       -13.5580
 228   2.0000      -0.495517       -13.4837
 229   2.0000      -0.494634       -13.4597
 230   2.0000      -0.492056       -13.3895
 231   2.0000      -0.490556       -13.3487
 232   2.0000      -0.489195       -13.3117
 233   2.0000      -0.488747       -13.2995
 234   2.0000      -0.483873       -13.1668
 235   2.0000      -0.479577       -13.0500
 236   2.0000      -0.476982       -12.9793
 237   2.0000      -0.476452       -12.9649
 238   2.0000      -0.474243       -12.9048
 239   2.0000      -0.472461       -12.8563
 240   2.0000      -0.469812       -12.7842
 241   2.0000      -0.468630       -12.7521
 242   2.0000      -0.465955       -12.6793
 243   2.0000      -0.462297       -12.5797
 244   2.0000      -0.461549       -12.5594
 245   2.0000      -0.460415       -12.5285
 246   2.0000      -0.458208       -12.4685
 247   2.0000      -0.454165       -12.3585
 248   2.0000      -0.451447       -12.2845
 249   2.0000      -0.449347       -12.2274
 250   2.0000      -0.447071       -12.1654
 251   2.0000      -0.444857       -12.1052
 252   2.0000      -0.443945       -12.0804
 253   2.0000      -0.442460       -12.0399
 254   2.0000      -0.439740       -11.9659
 255   2.0000      -0.439230       -11.9520
 256   2.0000      -0.438478       -11.9316
 257   2.0000      -0.434960       -11.8359
 258   2.0000      -0.432897       -11.7797
 259   2.0000      -0.430807       -11.7228
 260   2.0000      -0.424032       -11.5385
 261   2.0000      -0.423665       -11.5285
 262   2.0000      -0.423395       -11.5212
 263   2.0000      -0.420739       -11.4489
 264   2.0000      -0.418126       -11.3778
 265   2.0000      -0.416905       -11.3446
 266   2.0000      -0.416434       -11.3318
 267   2.0000      -0.411963       -11.2101
 268   2.0000      -0.406381       -11.0582
 269   2.0000      -0.402504       -10.9527
 270   2.0000      -0.400874       -10.9083
 271   2.0000      -0.395983       -10.7752
 272   2.0000      -0.394420       -10.7327
 273   2.0000      -0.391424       -10.6512
 274   2.0000      -0.388844       -10.5810
 275   2.0000      -0.382153       -10.3989
 276   2.0000      -0.380114       -10.3434
 277   2.0000      -0.374820       -10.1994
 278   2.0000      -0.367502       -10.0002
 279   2.0000      -0.363577        -9.8934
 280   2.0000      -0.354794        -9.6544
 281   2.0000      -0.349778        -9.5180
 282   2.0000      -0.347590        -9.4584
 283   2.0000      -0.340930        -9.2772
 284   2.0000      -0.334054        -9.0901
 285   2.0000      -0.330347        -8.9892
 286   2.0000      -0.325019        -8.8442
 287   2.0000      -0.322468        -8.7748
 288   2.0000      -0.318559        -8.6684
 289   2.0000      -0.315591        -8.5877
 290   2.0000      -0.311515        -8.4768
 291   2.0000      -0.310798        -8.4572
 292   2.0000      -0.307022        -8.3545
 293   2.0000      -0.304482        -8.2854
 294   2.0000      -0.295550        -8.0423
 295   2.0000      -0.271337        -7.3834
 296   2.0000      -0.248916        -6.7734
 297   0.0000      -0.095979        -2.6117
 298   0.0000      -0.070475        -1.9177
 299   0.0000      -0.056469        -1.5366
 300   0.0000      -0.036356        -0.9893
 301   0.0000      -0.011556        -0.3145

MULLIKEN ATOMIC CHARGES
-----------------------
   0 C :    0.152692
   1 O :   -0.170386
   2 C :   -0.017141
   3 C :    0.026781
   4 C :   -0.025589
   5 C :    0.047723
   6 C :   -0.003748
   7 C :   -0.015392
   8 Br:   -0.025413
   9 C :    0.315966
  10 C :   -0.356600
  11 C :   -0.195951
  12 N :    0.149026
  13 C :   -0.179217
  14 N :    0.138489
  15 C :   -0.090229
  16 C :   -0.037331
  17 C :   -0.103771
  18 S :    0.173775
  19 C :   -0.084554
  20 C :   -0.037655
  21 C :   -0.020275
  22 C :    0.066125
  23 N :   -0.188314
  24 C :    0.073574
  25 C :    0.058860
  26 C :    0.081693
  27 N :   -0.178395
  28 C :    0.016399
  29 C :   -0.047677
  30 C :    0.099676
  31 C :   -0.046277
  32 C :   -0.005944
  33 C :    0.006296
  34 C :   -0.045905
  35 C :    0.005093
  36 N :    0.043016
  37 O :   -0.091510
  38 N :    0.048790
  39 C :    0.073449
  40 C :   -0.197181
  41 C :    0.198918
  42 C :    0.173829
  43 C :    0.134902
  44 C :    0.158263
  45 C :    0.251067
  46 F :   -0.153671
  47 F :   -0.159939
  48 F :   -0.156207
  49 F :   -0.160761
  50 F :   -0.167060
  51 C :    0.055834
  52 C :   -0.199145
  53 C :    0.199355
  54 C :    0.164951
  55 C :    0.134106
  56 C :    0.162815
  57 C :    0.226767
  58 F :   -0.153958
  59 F :   -0.156310
  60 F :   -0.152284
  61 F :   -0.156466
  62 F :   -0.155758
  63 C :    0.021493
  64 C :   -0.066180
  65 C :    0.019350
  66 C :    0.115175
  67 C :   -0.059995
  68 C :    0.015072
  69 C :    0.106478
  70 C :   -0.002352
  71 C :   -0.137734
  72 C :    0.081453
  73 C :    0.029605
  74 C :    0.048887
  75 C :    0.014838
  76 C :   -0.044241
  77 C :    0.026679
  78 C :    0.034349
  79 C :   -0.054042
  80 H :    0.006345
  81 H :    0.003239
  82 H :   -0.001551
  83 H :    0.033682
  84 H :    0.022302
  85 H :    0.093101
  86 H :    0.108423
  87 H :    0.000082
  88 H :   -0.010370
  89 H :   -0.007383
  90 H :   -0.003876
  91 H :    0.009002
  92 H :    0.093386
  93 H :    0.097784
  94 H :    0.031581
  95 H :   -0.011750
  96 H :   -0.013386
  97 H :   -0.009878
  98 H :   -0.034136
  99 H :   -0.033354
 100 H :   -0.024077
 101 H :    0.006176
 102 H :   -0.003627
 103 H :    0.022707
 104 H :    0.011939
 105 H :    0.004783
 106 H :    0.001642
 107 H :   -0.000017
 108 H :    0.027011
 109 H :    0.015663
 110 H :    0.021863
 111 H :   -0.035313
 112 H :   -0.017443
 113 H :   -0.019098
 114 H :   -0.036500
Sum of atomic charges:   -0.0000000

LOEWDIN ATOMIC CHARGES
----------------------
   0 C :    0.080858
   1 O :   -0.162753
   2 C :   -0.036071
   3 C :   -0.015846
   4 C :    0.007608
   5 C :   -0.016097
   6 C :   -0.099299
   7 C :   -0.002897
   8 Br:    0.110893
   9 C :    0.079161
  10 C :   -0.144690
  11 C :   -0.018920
  12 N :   -0.058659
  13 C :   -0.014996
  14 N :   -0.063001
  15 C :   -0.120000
  16 C :    0.065562
  17 C :   -0.187609
  18 S :    0.510410
  19 C :   -0.148465
  20 C :   -0.066710
  21 C :   -0.021439
  22 C :    0.017470
  23 N :   -0.080898
  24 C :   -0.039347
  25 C :   -0.041540
  26 C :    0.017822
  27 N :   -0.080256
  28 C :   -0.016605
  29 C :   -0.023736
  30 C :   -0.014732
  31 C :   -0.011340
  32 C :    0.000047
  33 C :   -0.032385
  34 C :   -0.047167
  35 C :   -0.041804
  36 N :   -0.016822
  37 O :    0.075385
  38 N :   -0.028755
  39 C :   -0.008162
  40 C :   -0.074871
  41 C :    0.061868
  42 C :    0.026459
  43 C :    0.042754
  44 C :    0.028912
  45 C :    0.076390
  46 F :   -0.029584
  47 F :   -0.036372
  48 F :   -0.031924
  49 F :   -0.040225
  50 F :   -0.042177
  51 C :    0.009747
  52 C :   -0.078573
  53 C :    0.065079
  54 C :    0.024808
  55 C :    0.040518
  56 C :    0.025649
  57 C :    0.066418
  58 F :   -0.030720
  59 F :   -0.037004
  60 F :   -0.030464
  61 F :   -0.036640
  62 F :   -0.033646
  63 C :   -0.034305
  64 C :   -0.013429
  65 C :    0.001424
  66 C :   -0.005726
  67 C :   -0.018131
  68 C :   -0.012645
  69 C :   -0.022038
  70 C :    0.005406
  71 C :   -0.035229
  72 C :   -0.008947
  73 C :   -0.059545
  74 C :   -0.015351
  75 C :   -0.058733
  76 C :   -0.027610
  77 C :   -0.020450
  78 C :   -0.025806
  79 C :   -0.018558
  80 H :    0.042478
  81 H :    0.039383
  82 H :    0.042302
  83 H :    0.046876
  84 H :    0.036396
  85 H :    0.054564
  86 H :    0.061070
  87 H :    0.024917
  88 H :    0.018711
  89 H :    0.019424
  90 H :    0.022279
  91 H :    0.030192
  92 H :    0.055150
  93 H :    0.057755
  94 H :    0.034143
  95 H :    0.024468
  96 H :    0.035470
  97 H :    0.036410
  98 H :    0.026378
  99 H :    0.027986
 100 H :    0.027153
 101 H :    0.027192
 102 H :    0.019974
 103 H :    0.024400
 104 H :    0.027930
 105 H :    0.020240
 106 H :    0.017254
 107 H :    0.021183
 108 H :    0.022293
 109 H :    0.022954
 110 H :    0.027484
 111 H :    0.024780
 112 H :    0.027255
 113 H :    0.027193
 114 H :    0.025416

  Mayer bond orders larger than 0.100000
B(  0-C ,  1-O ) :   2.1593 B(  0-C ,  2-C ) :   0.9497 B(  0-C , 15-C ) :   0.9715
B(  2-C ,  3-C ) :   1.3395 B(  2-C ,  7-C ) :   1.3793 B(  3-C ,  4-C ) :   1.3683
B(  3-C ,  9-C ) :   0.9837 B(  4-C ,  5-C ) :   1.3786 B(  4-C , 80-H ) :   0.9834
B(  5-C ,  6-C ) :   1.3954 B(  5-C , 81-H ) :   0.9838 B(  6-C ,  7-C ) :   1.3330
B(  6-C ,  8-Br) :   0.9889 B(  7-C , 82-H ) :   1.0073 B(  9-C , 10-C ) :   1.6237
B(  9-C , 15-C ) :   1.0913 B( 10-C , 11-C ) :   1.1436 B( 10-C , 13-C ) :   1.1502
B( 11-C , 12-N ) :   2.9758 B( 13-C , 14-N ) :   2.9635 B( 15-C , 16-C ) :   1.4847
B( 16-C , 17-C ) :   1.2805 B( 16-C , 83-H ) :   0.9088 B( 17-C , 18-S ) :   1.0945
B( 17-C , 21-C ) :   1.3706 B( 18-S , 19-C ) :   1.1313 B( 19-C , 20-C ) :   1.3948
B( 19-C , 28-C ) :   1.1607 B( 20-C , 21-C ) :   1.4163 B( 20-C , 26-C ) :   0.9816
B( 21-C , 22-C ) :   0.9877 B( 22-C , 23-N ) :   1.0705 B( 22-C , 24-C ) :   1.0686
B( 22-C , 84-H ) :   0.8745 B( 23-N , 83-H ) :   0.1024 B( 23-N , 85-H ) :   0.9668
B( 23-N , 86-H ) :   0.9615 B( 24-C , 25-C ) :   1.0579 B( 24-C , 87-H ) :   0.9255
B( 24-C , 88-H ) :   0.9256 B( 25-C , 26-C ) :   1.0684 B( 25-C , 89-H ) :   0.9286
B( 25-C , 90-H ) :   0.9260 B( 26-C , 27-N ) :   1.0868 B( 26-C , 91-H ) :   0.8765
B( 27-N , 92-H ) :   0.9665 B( 27-N , 93-H ) :   0.9680 B( 28-C , 29-C ) :   1.6159
B( 28-C , 94-H ) :   0.9359 B( 29-C , 30-C ) :   1.1310 B( 29-C , 95-H ) :   0.9757
B( 30-C , 31-C ) :   1.4475 B( 30-C , 33-C ) :   0.1122 B( 30-C , 35-C ) :   1.0976
B( 31-C , 32-C ) :   1.1848 B( 31-C , 96-H ) :   1.0047 B( 32-C , 33-C ) :   1.5043
B( 32-C , 97-H ) :   0.9911 B( 33-C , 34-C ) :   1.1704 B( 33-C , 39-C ) :   1.0320
B( 34-C , 35-C ) :   1.1511 B( 34-C , 38-N ) :   1.6042 B( 35-C , 36-N ) :   1.5925
B( 36-N , 37-O ) :   1.0644 B( 36-N , 38-N ) :   0.1808 B( 37-O , 38-N ) :   1.0601
B( 39-C , 40-C ) :   0.9551 B( 39-C , 51-C ) :   1.7802 B( 40-C , 41-C ) :   1.3257
B( 40-C , 43-C ) :   0.1134 B( 40-C , 45-C ) :   1.3371 B( 41-C , 42-C ) :   1.2822
B( 41-C , 50-F ) :   1.1637 B( 42-C , 43-C ) :   1.2807 B( 42-C , 49-F ) :   1.1728
B( 43-C , 44-C ) :   1.2760 B( 43-C , 48-F ) :   1.1645 B( 44-C , 45-C ) :   1.2947
B( 44-C , 47-F ) :   1.1640 B( 45-C , 46-F ) :   1.1781 B( 51-C , 52-C ) :   0.9588
B( 51-C , 63-C ) :   1.0054 B( 52-C , 53-C ) :   1.3189 B( 52-C , 55-C ) :   0.1116
B( 52-C , 57-C ) :   1.3227 B( 53-C , 54-C ) :   1.2768 B( 53-C , 62-F ) :   1.1758
B( 54-C , 55-C ) :   1.2764 B( 54-C , 61-F ) :   1.1744 B( 55-C , 56-C ) :   1.2740
B( 55-C , 60-F ) :   1.1783 B( 56-C , 57-C ) :   1.2934 B( 56-C , 59-F ) :   1.1757
B( 57-C , 58-F ) :   1.1659 B( 63-C , 64-C ) :   1.3078 B( 63-C , 68-C ) :   1.3747
B( 64-C , 65-C ) :   1.3883 B( 64-C , 98-H ) :   0.9976 B( 65-C , 66-C ) :   1.3850
B( 65-C , 71-C ) :   0.9181 B( 66-C , 67-C ) :   1.3401 B( 66-C , 69-C ) :   0.9877
B( 67-C , 68-C ) :   1.3702 B( 67-C , 99-H ) :   0.9944 B( 68-C ,100-H ) :   0.9842
B( 69-C , 70-C ) :   1.3854 B( 69-C , 79-C ) :   1.3568 B( 70-C , 71-C ) :   0.9313
B( 70-C , 76-C ) :   1.4019 B( 71-C , 72-C ) :   1.0155 B( 71-C , 74-C ) :   1.0312
B( 72-C , 73-C ) :   1.1151 B( 72-C ,101-H ) :   0.9386 B( 72-C ,102-H ) :   0.9367
B( 73-C ,103-H ) :   0.9600 B( 73-C ,104-H ) :   0.9586 B( 73-C ,105-H ) :   0.9630
B( 74-C , 75-C ) :   1.1058 B( 74-C ,106-H ) :   0.9382 B( 74-C ,107-H ) :   0.9375
B( 75-C ,108-H ) :   0.9645 B( 75-C ,109-H ) :   0.9624 B( 75-C ,110-H ) :   0.9549
B( 76-C , 77-C ) :   1.3579 B( 76-C ,111-H ) :   1.0017 B( 77-C , 78-C ) :   1.3886
B( 77-C ,112-H ) :   0.9859 B( 78-C , 79-C ) :   1.3767 B( 78-C ,113-H ) :   0.9858
B( 79-C ,114-H ) :   0.9915

-----------------------------------------------------------------------------
         ABSORPTION SPECTRUM VIA TRANSITION ELECTRIC DIPOLE MOMENTS
-----------------------------------------------------------------------------
State   Energy  Wavelength   fosc         T2         TX        TY        TZ
        (cm-1)    (nm)                  (au**2)     (au)      (au)      (au)
-----------------------------------------------------------------------------
   0   17973.3    556.4   1.613731091  29.55829  -1.51960   4.39755  -2.81259
   1   23432.0    426.8   0.087559064   1.23017  -0.97404  -0.42921   0.31177
   2   24989.5    400.2   0.073593135   0.96952   0.93502   0.30852  -0.00861
   3   25798.7    387.6   0.042361605   0.54057   0.68312   0.26106   0.07592
   4   27020.7    370.1   0.013909582   0.16947  -0.25270   0.29067  -0.14535
   5   27895.1    358.5   0.011184395   0.13200   0.10898   0.33770   0.07794
   6   28849.7    346.6   0.008014746   0.09146  -0.04839  -0.28886  -0.07535
   7   29869.1    334.8   0.191040512   2.10561  -0.64427  -0.88106   0.95617
   8   29972.4    333.6   0.023315776   0.25610   0.25249   0.37408   0.22893
   9   31083.2    321.7   0.005468484   0.05792   0.19012  -0.14544   0.02493
  10   31376.0    318.7   0.164018294   1.72096   1.30997  -0.03120   0.06305
  11   31810.4    314.4   0.019948333   0.20645  -0.15435  -0.23370  -0.35778
  12   32704.7    305.8   0.038926978   0.39185  -0.55782  -0.18126   0.21870
  13   32840.2    304.5   0.043053798   0.43160  -0.32723  -0.51957  -0.23360
  14   33568.2    297.9   0.062044353   0.60849   0.10405   0.75493  -0.16656
  15   34373.9    290.9   0.334648464   3.20506   1.31489   1.19555   0.21629
  16   34563.6    289.3   0.120450724   1.14727  -0.79320  -0.68530  -0.22016
  17   35206.3    284.0   0.011226826   0.10498  -0.14692  -0.28837   0.01540
  18   35275.3    283.5   0.091617776   0.85504  -0.72328  -0.54839   0.17653
  19   35507.8    281.6   0.145137344   1.34565  -0.81259  -0.79536  -0.22966
  20   35986.8    277.9   0.091548924   0.83750   0.27844   0.63088  -0.60164
  21   36350.1    275.1   0.148035335   1.34071   0.07201  -1.14200   0.17708
  22   36685.1    272.6   0.014167572   0.12714   0.20566  -0.27232  -0.10337
  23   37238.3    268.5   0.390132796   3.44904  -0.39473   1.81466  -0.01587
  24   37529.1    266.5   0.025650354   0.22501  -0.10926  -0.30894   0.34297
  25   37611.9    265.9   0.203902576   1.78473  -0.41947  -1.25733   0.16706
  26   38229.7    261.6   0.010550631   0.09086   0.20562  -0.04060   0.21663
  27   38382.0    260.5   0.028470688   0.24420   0.34651   0.35208  -0.01297
  28   38687.2    258.5   0.054517750   0.46392   0.13431   0.62826  -0.22623
  29   38796.7    257.8   0.006632838   0.05628  -0.04995  -0.20619   0.10617
  30   39583.8    252.6   0.045422907   0.37777   0.08661   0.60589   0.05632
  31   39756.5    251.5   0.026941711   0.22310   0.37599  -0.26989   0.09428
  32   40025.8    249.8   0.116623522   0.95923  -0.79091   0.57345   0.06957

FINAL SINGLE POINT ENERGY     -6752.152625753326

DIPOLE MOMENT
-------------
                                X             Y             Z
Electronic contribution:    -98.80597      60.01419     -31.13654
Nuclear contribution   :     99.35990     -61.65231      31.83345
                        -----------------------------------------
Total Dipole Moment    :      0.55393      -1.63811       0.69692
                        -----------------------------------------
Magnitude (a.u.)       :      1.86439
Magnitude (Debye)      :      4.73890

Rotational constants in cm-1:     0.001179     0.000271     0.000249
Rotational constants in MHz :    35.356310     8.113181     7.453516

                             ****ORCA TERMINATED NORMALLY****
TOTAL RUN TIME: 0 days 0 hours 13 minutes 56 seconds 615 msec
