                         Program Version 4.2.0 -  RELEASE  -
|  1> # ORCA input file
|  2> # SCF done       -149.885174178185          0.000463831047
|  3> ! CAM-B3LYP def2-SVP def2/J RIJCOSX Grid4 TightSCF
|  4> %maxcore 5000
|  5> %tddft
|  6>     Mode sTDDFT
|  7>     Ethresh 5.0
|  8>     maxcore 5000
|  9> end
| 10>
| 11> %pal
| 12>   nprocs 6
| 13>   end
| 14> * xyz 0 1
| 15>    C        1.98752        -8.34751         3.30413
| 16>    O        1.25842        -7.45035         2.89116
| 17>    C        3.06578        -8.15100         4.29934
| 18>    C        3.80483        -9.33798         4.42365
| 19>    C        4.87529        -9.38603         5.30124
| 20>    C        5.18155        -8.25520         6.04986
| 21>    C        4.42898        -7.10056         5.91668
| 22>    C        3.36149        -7.02240         5.03209
| 23>   Br        4.85334        -5.57490         6.97215
| 24>    C        3.20356       -10.34197         3.54119
| 25>    C        3.61943       -11.65130         3.45206
| 26>    C        4.74319       -12.16516         4.12644
| 27>    N        5.65220       -12.64102         4.64421
| 28>    C        2.98462       -12.66770         2.71166
| 29>    N        2.51862       -13.56513         2.16480
| 30>    C        2.07487        -9.73770         2.88104
| 31>    C        1.31878       -10.37668         1.89696
| 32>    C        0.05001       -10.06555         1.41494
| 33>    C       -0.86170        -9.21102         2.03218
| 34>    C       -2.13468        -8.94388         1.58398
| 35>    C       -2.73802        -9.70768         0.48325
| 36>    C       -2.05930       -10.59809        -0.27248
| 37>    S       -0.39365       -10.95451        -0.05981
| 38>    C       -4.10645        -9.32274         0.46866
| 39>    C       -4.34823        -8.36868         1.46346
| 40>    C       -5.69683        -7.94336         1.47707
| 41>    C       -6.42776        -8.57161         0.52239
| 42>    S       -5.51629        -9.69569        -0.43630
| 43>    C       -3.12286        -8.07515         2.14246
| 44>    C       -2.92338        -7.08245         3.11780
| 45>    C       -1.68573        -6.55685         3.37366
| 46>    C       -1.27968        -5.69982         4.40689
| 47>    N        0.06030        -5.36659         4.47250
| 48>    C        0.26682        -4.61760         5.57772
| 49>    C        1.23728        -3.96026         6.32345
| 50>    C        0.56925        -3.37937         7.40902
| 51>    N       -0.77875        -3.67076         7.32636
| 52>    C       -0.99434        -4.43242         6.21844
| 53>    C       -1.95916        -5.11038         5.49312
| 54>    C        1.08531        -2.59556         8.47046
| 55>    C        2.40101        -2.30071         8.63170
| 56>    C        2.93909        -1.49531         9.66431
| 57>    C        2.31384        -0.85339        10.72194
| 58>    C        3.17597        -0.11826        11.53233
| 59>    C        4.49917        -0.20369        11.07531
| 60>    S        4.66256        -1.18325         9.67588
| 61>    C        5.45474         0.52681        11.82156
| 62>    C        4.95840         1.23841        12.92069
| 63>   Si        3.11193         0.96496        13.05886
| 64>    C        2.10406         2.52761        12.82736
| 65>    C        2.61254         0.02900        14.60375
| 66>    C        5.97618         1.93478        13.57504
| 67>    C        7.22606         1.77391        13.00719
| 68>    S        7.14829         0.71890        11.61304
| 69>    C        8.48619         2.32321        13.38143
| 70>    C        8.69231         3.16702        14.41347
| 71>    C        9.96184         3.73167        14.79728
| 72>    C       11.13429         3.54562        14.18997
| 73>    H        5.47478       -10.27331         5.41923
| 74>    H        6.01121        -8.27976         6.73982
| 75>    H        2.78280        -6.11796         4.93239
| 76>    H        1.78156       -11.23861         1.43121
| 77>    H       -0.54469        -8.78578         2.96998
| 78>    H       -2.51894       -11.14292        -1.08191
| 79>    H       -6.10409        -7.21629         2.15582
| 80>    H       -7.47041        -8.44866         0.30345
| 81>    H       -3.79308        -6.70825         3.64057
| 82>    H       -0.88525        -6.82451         2.69908
| 83>    H        0.73953        -5.78240         3.84566
| 84>    H        2.28780        -3.88656         6.13137
| 85>    H       -1.46824        -3.36726         7.99184
| 86>    H       -3.01023        -5.18633         5.68682
| 87>    H        0.36286        -2.21616         9.18103
| 88>    H        3.11684        -2.69733         7.92623
| 89>    H        1.25475        -0.91962        10.89577
| 90>    H        2.39008         3.07271        11.93016
| 91>    H        2.22388         3.20909        13.66699
| 92>    H        1.04080         2.31162        12.74524
| 93>    H        3.19063        -0.88345        14.73497
| 94>    H        1.56333        -0.25823        14.57837
| 95>    H        2.75451         0.62886        15.50023
| 96>    H        5.80826         2.54472        14.44439
| 97>    H        9.32084         2.02006        12.76513
| 98>    H        7.84846         3.46095        15.02229
| 99>    H        9.92894         4.37092        15.67108
|100>    H       11.24282         2.92779        13.31558
|101>    H       12.03246         4.01365        14.55333
|102> *
|103>
|104>                          ****END OF INPUT****

CARTESIAN COORDINATES (ANGSTROEM)
---------------------------------
  C      1.987520   -8.347510    3.304130
  O      1.258420   -7.450350    2.891160
  C      3.065780   -8.151000    4.299340
  C      3.804830   -9.337980    4.423650
  C      4.875290   -9.386030    5.301240
  C      5.181550   -8.255200    6.049860
  C      4.428980   -7.100560    5.916680
  C      3.361490   -7.022400    5.032090
  Br     4.853340   -5.574900    6.972150
  C      3.203560  -10.341970    3.541190
  C      3.619430  -11.651300    3.452060
  C      4.743190  -12.165160    4.126440
  N      5.652200  -12.641020    4.644210
  C      2.984620  -12.667700    2.711660
  N      2.518620  -13.565130    2.164800
  C      2.074870   -9.737700    2.881040
  C      1.318780  -10.376680    1.896960
  C      0.050010  -10.065550    1.414940
  C     -0.861700   -9.211020    2.032180
  C     -2.134680   -8.943880    1.583980
  C     -2.738020   -9.707680    0.483250
  C     -2.059300  -10.598090   -0.272480
  S     -0.393650  -10.954510   -0.059810
  C     -4.106450   -9.322740    0.468660
  C     -4.348230   -8.368680    1.463460
  C     -5.696830   -7.943360    1.477070
  C     -6.427760   -8.571610    0.522390
  S     -5.516290   -9.695690   -0.436300
  C     -3.122860   -8.075150    2.142460
  C     -2.923380   -7.082450    3.117800
  C     -1.685730   -6.556850    3.373660
  C     -1.279680   -5.699820    4.406890
  N      0.060300   -5.366590    4.472500
  C      0.266820   -4.617600    5.577720
  C      1.237280   -3.960260    6.323450
  C      0.569250   -3.379370    7.409020
  N     -0.778750   -3.670760    7.326360
  C     -0.994340   -4.432420    6.218440
  C     -1.959160   -5.110380    5.493120
  C      1.085310   -2.595560    8.470460
  C      2.401010   -2.300710    8.631700
  C      2.939090   -1.495310    9.664310
  C      2.313840   -0.853390   10.721940
  C      3.175970   -0.118260   11.532330
  C      4.499170   -0.203690   11.075310
  S      4.662560   -1.183250    9.675880
  C      5.454740    0.526810   11.821560
  C      4.958400    1.238410   12.920690
  Si     3.111930    0.964960   13.058860
  C      2.104060    2.527610   12.827360
  C      2.612540    0.029000   14.603750
  C      5.976180    1.934780   13.575040
  C      7.226060    1.773910   13.007190
  S      7.148290    0.718900   11.613040
  C      8.486190    2.323210   13.381430
  C      8.692310    3.167020   14.413470
  C      9.961840    3.731670   14.797280
  C     11.134290    3.545620   14.189970
  H      5.474780  -10.273310    5.419230
  H      6.011210   -8.279760    6.739820
  H      2.782800   -6.117960    4.932390
  H      1.781560  -11.238610    1.431210
  H     -0.544690   -8.785780    2.969980
  H     -2.518940  -11.142920   -1.081910
  H     -6.104090   -7.216290    2.155820
  H     -7.470410   -8.448660    0.303450
  H     -3.793080   -6.708250    3.640570
  H     -0.885250   -6.824510    2.699080
  H      0.739530   -5.782400    3.845660
  H      2.287800   -3.886560    6.131370
  H     -1.468240   -3.367260    7.991840
  H     -3.010230   -5.186330    5.686820
  H      0.362860   -2.216160    9.181030
  H      3.116840   -2.697330    7.926230
  H      1.254750   -0.919620   10.895770
  H      2.390080    3.072710   11.930160
  H      2.223880    3.209090   13.666990
  H      1.040800    2.311620   12.745240
  H      3.190630   -0.883450   14.734970
  H      1.563330   -0.258230   14.578370
  H      2.754510    0.628860   15.500230
  H      5.808260    2.544720   14.444390
  H      9.320840    2.020060   12.765130
  H      7.848460    3.460950   15.022290
  H      9.928940    4.370920   15.671080
  H     11.242820    2.927790   13.315580
  H     12.032460    4.013650   14.553330

 Total Charge           Charge          ....    0
 Multiplicity           Mult            ....    1
 Number of Electrons    NEL             ....  460
 Basis Dimension        Dim             ....  995

ORBITAL ENERGIES
----------------

  NO   OCC          E(Eh)            E(eV)
   0   2.0000    -482.869275    -13139.5410
   1   2.0000     -88.964783     -2420.8548
   2   2.0000     -88.959731     -2420.7174
   3   2.0000     -88.956930     -2420.6411
   4   2.0000     -88.954617     -2420.5782
   5   2.0000     -66.192068     -1801.1777
   6   2.0000     -62.546708     -1701.9825
   7   2.0000     -56.380545     -1534.1926
   8   2.0000     -56.378081     -1534.1256
   9   2.0000     -56.377980     -1534.1228
  10   2.0000     -19.213771      -522.8333
  11   2.0000     -14.458382      -393.4326
  12   2.0000     -14.445287      -393.0762
  13   2.0000     -14.399060      -391.8183
  14   2.0000     -14.398422      -391.8010
  15   2.0000     -10.362403      -281.9753
  16   2.0000     -10.336406      -281.2679
  17   2.0000     -10.325485      -280.9707
  18   2.0000     -10.323621      -280.9200
  19   2.0000     -10.323141      -280.9069
  20   2.0000     -10.311343      -280.5859
  21   2.0000     -10.309778      -280.5433
  22   2.0000     -10.305463      -280.4259
  23   2.0000     -10.303187      -280.3640
  24   2.0000     -10.302988      -280.3586
  25   2.0000     -10.302880      -280.3556
  26   2.0000     -10.302752      -280.3521
  27   2.0000     -10.302556      -280.3468
  28   2.0000     -10.302431      -280.3434
  29   2.0000     -10.300726      -280.2970
  30   2.0000     -10.300273      -280.2847
  31   2.0000     -10.297973      -280.2221
  32   2.0000     -10.297361      -280.2054
  33   2.0000     -10.296776      -280.1895
  34   2.0000     -10.296768      -280.1893
  35   2.0000     -10.296731      -280.1883
  36   2.0000     -10.295405      -280.1522
  37   2.0000     -10.294889      -280.1382
  38   2.0000     -10.294147      -280.1180
  39   2.0000     -10.294130      -280.1175
  40   2.0000     -10.291325      -280.0412
  41   2.0000     -10.289102      -279.9807
  42   2.0000     -10.284401      -279.8528
  43   2.0000     -10.283568      -279.8301
  44   2.0000     -10.283240      -279.8212
  45   2.0000     -10.283130      -279.8182
  46   2.0000     -10.280251      -279.7399
  47   2.0000     -10.279610      -279.7224
  48   2.0000     -10.278254      -279.6855
  49   2.0000     -10.275083      -279.5992
  50   2.0000     -10.274615      -279.5865
  51   2.0000     -10.272940      -279.5409
  52   2.0000     -10.270296      -279.4690
  53   2.0000     -10.269153      -279.4379
  54   2.0000     -10.266326      -279.3609
  55   2.0000     -10.266058      -279.3536
  56   2.0000     -10.259091      -279.1641
  57   2.0000     -10.256885      -279.1040
  58   2.0000     -10.251585      -278.9598
  59   2.0000     -10.250430      -278.9284
  60   2.0000     -10.249195      -278.8948
  61   2.0000     -10.248649      -278.8799
  62   2.0000      -8.775903      -238.8045
  63   2.0000      -8.060314      -219.3323
  64   2.0000      -8.055363      -219.1976
  65   2.0000      -8.052483      -219.1192
  66   2.0000      -8.050191      -219.0568
  67   2.0000      -6.611595      -179.9107
  68   2.0000      -6.597955      -179.5395
  69   2.0000      -6.597809      -179.5355
  70   2.0000      -6.029769      -164.0784
  71   2.0000      -6.025438      -163.9605
  72   2.0000      -6.025098      -163.9513
  73   2.0000      -6.022342      -163.8763
  74   2.0000      -6.021568      -163.8552
  75   2.0000      -6.020635      -163.8298
  76   2.0000      -6.019268      -163.7926
  77   2.0000      -6.017696      -163.7498
  78   2.0000      -6.016735      -163.7237
  79   2.0000      -6.015387      -163.6870
  80   2.0000      -6.014784      -163.6706
  81   2.0000      -6.012516      -163.6089
  82   2.0000      -5.358464      -145.8112
  83   2.0000      -3.721819      -101.2758
  84   2.0000      -3.720536      -101.2409
  85   2.0000      -3.719608      -101.2157
  86   2.0000      -2.727544       -74.2202
  87   2.0000      -2.723804       -74.1185
  88   2.0000      -2.723627       -74.1136
  89   2.0000      -2.712829       -73.8198
  90   2.0000      -2.712817       -73.8195
  91   2.0000      -1.124639       -30.6030
  92   2.0000      -1.088268       -29.6133
  93   2.0000      -1.050762       -28.5927
  94   2.0000      -1.010975       -27.5100
  95   2.0000      -1.005491       -27.3608
  96   2.0000      -0.991234       -26.9728
  97   2.0000      -0.988864       -26.9084
  98   2.0000      -0.977692       -26.6044
  99   2.0000      -0.970581       -26.4109
 100   2.0000      -0.966879       -26.3101
 101   2.0000      -0.952824       -25.9277
 102   2.0000      -0.932425       -25.3726
 103   2.0000      -0.906760       -24.6742
 104   2.0000      -0.906634       -24.6708
 105   2.0000      -0.897669       -24.4268
 106   2.0000      -0.895174       -24.3589
 107   2.0000      -0.887223       -24.1426
 108   2.0000      -0.878380       -23.9019
 109   2.0000      -0.868911       -23.6443
 110   2.0000      -0.861779       -23.4502
 111   2.0000      -0.854995       -23.2656
 112   2.0000      -0.851998       -23.1840
 113   2.0000      -0.845917       -23.0186
 114   2.0000      -0.839295       -22.8384
 115   2.0000      -0.835587       -22.7375
 116   2.0000      -0.821470       -22.3533
 117   2.0000      -0.816631       -22.2217
 118   2.0000      -0.809527       -22.0283
 119   2.0000      -0.801726       -21.8161
 120   2.0000      -0.791774       -21.5453
 121   2.0000      -0.780924       -21.2500
 122   2.0000      -0.767601       -20.8875
 123   2.0000      -0.767570       -20.8867
 124   2.0000      -0.756340       -20.5811
 125   2.0000      -0.747201       -20.3324
 126   2.0000      -0.737596       -20.0710
 127   2.0000      -0.720055       -19.5937
 128   2.0000      -0.709269       -19.3002
 129   2.0000      -0.698814       -19.0157
 130   2.0000      -0.693174       -18.8622
 131   2.0000      -0.685047       -18.6411
 132   2.0000      -0.682270       -18.5655
 133   2.0000      -0.677865       -18.4457
 134   2.0000      -0.670829       -18.2542
 135   2.0000      -0.665533       -18.1101
 136   2.0000      -0.659901       -17.9568
 137   2.0000      -0.653809       -17.7910
 138   2.0000      -0.641070       -17.4444
 139   2.0000      -0.636111       -17.3095
 140   2.0000      -0.628774       -17.1098
 141   2.0000      -0.619528       -16.8582
 142   2.0000      -0.615134       -16.7387
 143   2.0000      -0.608601       -16.5609
 144   2.0000      -0.606101       -16.4929
 145   2.0000      -0.603485       -16.4217
 146   2.0000      -0.599523       -16.3139
 147   2.0000      -0.590056       -16.0562
 148   2.0000      -0.581326       -15.8187
 149   2.0000      -0.576468       -15.6865
 150   2.0000      -0.569843       -15.5062
 151   2.0000      -0.564819       -15.3695
 152   2.0000      -0.563327       -15.3289
 153   2.0000      -0.558446       -15.1961
 154   2.0000      -0.548786       -14.9332
 155   2.0000      -0.545571       -14.8457
 156   2.0000      -0.540966       -14.7204
 157   2.0000      -0.537822       -14.6349
 158   2.0000      -0.535839       -14.5809
 159   2.0000      -0.531543       -14.4640
 160   2.0000      -0.525937       -14.3115
 161   2.0000      -0.523871       -14.2552
 162   2.0000      -0.522918       -14.2293
 163   2.0000      -0.521478       -14.1901
 164   2.0000      -0.516150       -14.0452
 165   2.0000      -0.512796       -13.9539
 166   2.0000      -0.511358       -13.9148
 167   2.0000      -0.508484       -13.8365
 168   2.0000      -0.505752       -13.7622
 169   2.0000      -0.498522       -13.5655
 170   2.0000      -0.498036       -13.5523
 171   2.0000      -0.497597       -13.5403
 172   2.0000      -0.490427       -13.3452
 173   2.0000      -0.486296       -13.2328
 174   2.0000      -0.485109       -13.2005
 175   2.0000      -0.482924       -13.1410
 176   2.0000      -0.481223       -13.0947
 177   2.0000      -0.474328       -12.9071
 178   2.0000      -0.471510       -12.8304
 179   2.0000      -0.471166       -12.8211
 180   2.0000      -0.467840       -12.7306
 181   2.0000      -0.466418       -12.6919
 182   2.0000      -0.463449       -12.6111
 183   2.0000      -0.461844       -12.5674
 184   2.0000      -0.459554       -12.5051
 185   2.0000      -0.459354       -12.4997
 186   2.0000      -0.457206       -12.4412
 187   2.0000      -0.452711       -12.3189
 188   2.0000      -0.444237       -12.0883
 189   2.0000      -0.443305       -12.0629
 190   2.0000      -0.442731       -12.0473
 191   2.0000      -0.441558       -12.0154
 192   2.0000      -0.440999       -12.0002
 193   2.0000      -0.433582       -11.7984
 194   2.0000      -0.430757       -11.7215
 195   2.0000      -0.428540       -11.6612
 196   2.0000      -0.428255       -11.6534
 197   2.0000      -0.427655       -11.6371
 198   2.0000      -0.422113       -11.4863
 199   2.0000      -0.418760       -11.3950
 200   2.0000      -0.414151       -11.2696
 201   2.0000      -0.413274       -11.2458
 202   2.0000      -0.412838       -11.2339
 203   2.0000      -0.411831       -11.2065
 204   2.0000      -0.408888       -11.1264
 205   2.0000      -0.403980       -10.9928
 206   2.0000      -0.399967       -10.8836
 207   2.0000      -0.392723       -10.6865
 208   2.0000      -0.392235       -10.6733
 209   2.0000      -0.388203       -10.5635
 210   2.0000      -0.381554       -10.3826
 211   2.0000      -0.373819       -10.1721
 212   2.0000      -0.371587       -10.1114
 213   2.0000      -0.368590       -10.0298
 214   2.0000      -0.364409        -9.9161
 215   2.0000      -0.355148        -9.6641
 216   2.0000      -0.344022        -9.3613
 217   2.0000      -0.341713        -9.2985
 218   2.0000      -0.340228        -9.2581
 219   2.0000      -0.326101        -8.8736
 220   2.0000      -0.322343        -8.7714
 221   2.0000      -0.318611        -8.6699
 222   2.0000      -0.317821        -8.6484
 223   2.0000      -0.298208        -8.1146
 224   2.0000      -0.295935        -8.0528
 225   2.0000      -0.287515        -7.8237
 226   2.0000      -0.278794        -7.5864
 227   2.0000      -0.255915        -6.9638
 228   2.0000      -0.231497        -6.2994
 229   2.0000      -0.202451        -5.5090
 230   0.0000      -0.094757        -2.5785
 231   0.0000      -0.060778        -1.6539
 232   0.0000      -0.051502        -1.4014
 233   0.0000      -0.038557        -1.0492
 234   0.0000      -0.018661        -0.5078

MULLIKEN ATOMIC CHARGES
-----------------------
   0 C :    0.170780
   1 O :   -0.235809
   2 C :    0.001146
   3 C :    0.032906
   4 C :   -0.031513
   5 C :    0.037302
   6 C :    0.000680
   7 C :   -0.013800
   8 Br:   -0.031267
   9 C :    0.304738
  10 C :   -0.359066
  11 C :   -0.190403
  12 N :    0.139110
  13 C :   -0.212476
  14 N :    0.151352
  15 C :   -0.126284
  16 C :    0.047068
  17 C :   -0.118828
  18 C :    0.016615
  19 C :   -0.002617
  20 C :    0.063867
  21 C :   -0.124508
  22 S :    0.128125
  23 C :   -0.090744
  24 C :    0.043560
  25 C :    0.021808
  26 C :   -0.071853
  27 S :    0.141239
  28 C :    0.112687
  29 C :   -0.048262
  30 C :   -0.015085
  31 C :    0.089838
  32 N :   -0.040874
  33 C :    0.129953
  34 C :   -0.179437
  35 C :    0.112340
  36 N :   -0.042758
  37 C :    0.115220
  38 C :   -0.159326
  39 C :   -0.004753
  40 C :    0.056652
  41 C :   -0.071020
  42 C :   -0.037251
  43 C :   -0.120220
  44 C :   -0.087028
  45 S :    0.142830
  46 C :   -0.091821
  47 C :   -0.123144
  48 Si:    0.515136
  49 C :   -0.198280
  50 C :   -0.196136
  51 C :   -0.033521
  52 C :   -0.081531
  53 S :    0.140882
  54 C :    0.082386
  55 C :   -0.008204
  56 C :   -0.000215
  57 C :   -0.018642
  58 H :    0.006827
  59 H :    0.002962
  60 H :   -0.043390
  61 H :    0.023672
  62 H :    0.009304
  63 H :    0.035457
  64 H :   -0.014566
  65 H :    0.030730
  66 H :   -0.025852
  67 H :    0.024333
  68 H :    0.134267
  69 H :   -0.031569
  70 H :    0.119906
  71 H :   -0.035553
  72 H :   -0.037442
  73 H :   -0.023001
  74 H :   -0.029041
  75 H :    0.053495
  76 H :    0.042016
  77 H :    0.039795
  78 H :    0.054082
  79 H :    0.038489
  80 H :    0.040799
  81 H :   -0.026169
  82 H :   -0.026252
  83 H :   -0.019439
  84 H :   -0.009458
  85 H :    0.013001
  86 H :    0.021049
Sum of atomic charges:    0.0000000

LOEWDIN ATOMIC CHARGES
----------------------
   0 C :    0.087122
   1 O :   -0.190851
   2 C :   -0.034130
   3 C :   -0.011050
   4 C :    0.006091
   5 C :   -0.018482
   6 C :   -0.100596
   7 C :   -0.014110
   8 Br:    0.110546
   9 C :    0.074148
  10 C :   -0.155622
  11 C :   -0.019155
  12 N :   -0.067626
  13 C :   -0.026869
  14 N :   -0.061658
  15 C :   -0.135892
  16 C :    0.036410
  17 C :   -0.194623
  18 C :    0.049784
  19 C :   -0.044150
  20 C :   -0.067859
  21 C :   -0.134072
  22 S :    0.432097
  23 C :   -0.170014
  24 C :   -0.054683
  25 C :   -0.054624
  26 C :   -0.163984
  27 S :    0.432225
  28 C :    0.016059
  29 C :   -0.053178
  30 C :    0.005638
  31 C :   -0.010989
  32 N :    0.077473
  33 C :   -0.001803
  34 C :   -0.106270
  35 C :    0.020266
  36 N :    0.062944
  37 C :   -0.019706
  38 C :   -0.076382
  39 C :   -0.046682
  40 C :   -0.029654
  41 C :   -0.176587
  42 C :   -0.053501
  43 C :   -0.203447
  44 C :   -0.192704
  45 S :    0.436492
  46 C :   -0.197761
  47 C :   -0.202758
  48 Si:    0.663943
  49 C :   -0.243875
  50 C :   -0.243129
  51 C :   -0.053877
  52 C :   -0.171518
  53 S :    0.435569
  54 C :   -0.031116
  55 C :   -0.036312
  56 C :   -0.033041
  57 C :   -0.042645
  58 H :    0.042525
  59 H :    0.039269
  60 H :    0.033530
  61 H :    0.039682
  62 H :    0.044596
  63 H :    0.036029
  64 H :    0.032452
  65 H :    0.024916
  66 H :    0.026483
  67 H :    0.038186
  68 H :    0.071199
  69 H :    0.016978
  70 H :    0.087857
  71 H :    0.024249
  72 H :    0.023816
  73 H :    0.026223
  74 H :    0.023286
  75 H :    0.041161
  76 H :    0.035979
  77 H :    0.035056
  78 H :    0.041388
  79 H :    0.034747
  80 H :    0.035631
  81 H :    0.025080
  82 H :    0.024839
  83 H :    0.024179
  84 H :    0.028235
  85 H :    0.018228
  86 H :    0.024377

  Mayer bond orders larger than 0.100000
B(  0-C ,  1-O ) :   1.9889 B(  0-C ,  2-C ) :   0.9357 B(  0-C , 15-C ) :   1.0675
B(  2-C ,  3-C ) :   1.3313 B(  2-C ,  7-C ) :   1.3880 B(  3-C ,  4-C ) :   1.3854
B(  3-C ,  9-C ) :   0.9683 B(  4-C ,  5-C ) :   1.3610 B(  4-C , 58-H ) :   0.9834
B(  5-C ,  6-C ) :   1.4093 B(  5-C , 59-H ) :   0.9855 B(  6-C ,  7-C ) :   1.3366
B(  6-C ,  8-Br) :   0.9898 B(  7-C , 60-H ) :   1.0051 B(  9-C , 10-C ) :   1.5862
B(  9-C , 15-C ) :   1.1516 B( 10-C , 11-C ) :   1.1524 B( 10-C , 13-C ) :   1.1441
B( 11-C , 12-N ) :   2.9675 B( 13-C , 14-N ) :   2.9896 B( 15-C , 16-C ) :   1.3641
B( 16-C , 17-C ) :   1.3693 B( 16-C , 61-H ) :   0.9269 B( 17-C , 18-C ) :   1.3403
B( 17-C , 22-S ) :   1.0134 B( 18-C , 19-C ) :   1.4261 B( 18-C , 62-H ) :   0.9591
B( 19-C , 20-C ) :   1.0348 B( 19-C , 28-C ) :   1.2249 B( 20-C , 21-C ) :   1.6162
B( 20-C , 23-C ) :   1.1821 B( 21-C , 22-S ) :   1.1433 B( 21-C , 63-H ) :   0.9434
B( 23-C , 24-C ) :   1.4094 B( 23-C , 27-S ) :   1.1013 B( 24-C , 25-C ) :   1.2069
B( 24-C , 28-C ) :   1.1275 B( 25-C , 26-C ) :   1.6071 B( 25-C , 64-H ) :   0.9997
B( 26-C , 27-S ) :   1.1344 B( 26-C , 65-H ) :   0.9663 B( 28-C , 29-C ) :   1.2676
B( 29-C , 30-C ) :   1.5009 B( 29-C , 66-H ) :   0.9658 B( 30-C , 31-C ) :   1.1965
B( 30-C , 67-H ) :   0.9511 B( 31-C , 32-N ) :   1.1746 B( 31-C , 38-C ) :   1.3212
B( 32-N , 33-C ) :   1.2067 B( 32-N , 68-H ) :   0.8917 B( 33-C , 34-C ) :   1.2543
B( 33-C , 37-C ) :   1.2656 B( 34-C , 35-C ) :   1.4026 B( 34-C , 69-H ) :   1.0225
B( 35-C , 36-N ) :   1.1756 B( 35-C , 39-C ) :   1.1217 B( 36-N , 37-C ) :   1.1436
B( 36-N , 70-H ) :   0.9371 B( 37-C , 38-C ) :   1.3207 B( 38-C , 71-H ) :   1.0330
B( 39-C , 40-C ) :   1.6788 B( 39-C , 72-H ) :   0.9621 B( 40-C , 41-C ) :   1.1346
B( 40-C , 73-H ) :   0.9593 B( 41-C , 42-C ) :   1.4646 B( 41-C , 45-S ) :   1.0964
B( 42-C , 43-C ) :   1.2813 B( 42-C , 74-H ) :   0.9943 B( 43-C , 44-C ) :   1.4976
B( 43-C , 48-Si) :   0.8857 B( 44-C , 45-S ) :   1.1224 B( 44-C , 46-C ) :   1.1619
B( 46-C , 47-C ) :   1.5057 B( 46-C , 53-S ) :   1.1180 B( 47-C , 48-Si) :   0.8878
B( 47-C , 51-C ) :   1.2697 B( 48-Si, 49-C ) :   1.0518 B( 48-Si, 50-C ) :   1.0525
B( 49-C , 75-H ) :   0.9519 B( 49-C , 76-H ) :   0.9536 B( 49-C , 77-H ) :   0.9539
B( 50-C , 78-H ) :   0.9510 B( 50-C , 79-H ) :   0.9541 B( 50-C , 80-H ) :   0.9544
B( 51-C , 52-C ) :   1.4900 B( 51-C , 81-H ) :   0.9955 B( 52-C , 53-S ) :   1.1028
B( 52-C , 54-C ) :   1.1205 B( 54-C , 55-C ) :   1.7537 B( 54-C , 82-H ) :   0.9500
B( 55-C , 56-C ) :   1.1123 B( 55-C , 83-H ) :   0.9724 B( 56-C , 57-C ) :   1.9386
B( 56-C , 84-H ) :   0.9634 B( 57-C , 85-H ) :   0.9502 B( 57-C , 86-H ) :   0.9528

-----------------------------------------------------------------------------
         ABSORPTION SPECTRUM VIA TRANSITION ELECTRIC DIPOLE MOMENTS
-----------------------------------------------------------------------------
State   Energy  Wavelength   fosc         T2         TX        TY        TZ
        (cm-1)    (nm)                  (au**2)     (au)      (au)      (au)
-----------------------------------------------------------------------------
   0    8997.9   1111.4   0.549697212  20.11223   0.53039  -3.69606  -2.48395
   1   15481.7    645.9   0.020099087   0.42740  -0.43443   0.37537  -0.31267
   2   17655.7    566.4   1.256507978  23.42915   3.73825   1.43840   2.71765
   3   19149.8    522.2   0.890193785  15.30369   2.06158   2.22922   2.46661
   4   21051.1    475.0   0.695782662  10.88116  -2.59140  -1.31094  -1.56436
   5   22102.3    452.4   0.152960575   2.27834  -1.12328  -0.09627  -1.00365
   6   23707.4    421.8   0.030444372   0.42277   0.37177  -0.51764   0.12883
   7   24335.0    410.9   0.043989579   0.59511   0.67274   0.24041   0.29109
   8   25781.8    387.9   0.016522489   0.21098  -0.07067   0.05247   0.45081
   9   26199.1    381.7   0.144967086   1.82163  -0.76888  -0.37656  -1.04339
  10   26596.2    376.0   0.031443258   0.38921   0.47417   0.40517   0.01459
  11   27844.8    359.1   0.171242098   2.02462   1.00960   0.56079   0.83116
  12   28667.7    348.8   0.047044036   0.54024  -0.62957  -0.27758  -0.25851
  13   29543.7    338.5   0.006615713   0.07372  -0.24483  -0.11583  -0.01896
  14   29620.5    337.6   0.077570835   0.86215  -0.26886   0.85268   0.25059
  15   29847.5    335.0   0.010178746   0.11227   0.32694   0.07322  -0.00429
  16   31505.0    317.4   0.090403836   0.94468   0.63200   0.53067   0.51346
  17   32064.1    311.9   0.048142672   0.49430  -0.58710   0.29158  -0.25416
  18   32527.4    307.4   0.054963241   0.55629  -0.73420   0.02060  -0.12965
  19   32809.6    304.8   0.130362736   1.30806   0.87004   0.55902   0.48845
  20   33468.6    298.8   0.099530488   0.97903  -0.46074  -0.83558  -0.26182
  21   33677.0    296.9   0.158955011   1.55388  -0.69085   1.02585   0.15565
  22   33819.3    295.7   0.106132954   1.03314   0.42979   0.65102   0.65161
  23   34187.9    292.5   0.104139204   1.00281  -0.64522  -0.60791  -0.46578
  24   34562.5    289.3   0.063175920   0.60176   0.64997  -0.41422   0.08784
  25   34719.0    288.0   0.406178269   3.85145   0.58611   1.59470   0.98227
  26   35033.5    285.4   0.043624609   0.40994   0.15655  -0.54935  -0.28922
  27   36003.3    277.8   0.021285813   0.19464  -0.43617  -0.03614   0.05557
  28   36289.6    275.6   0.026894262   0.24398   0.44505  -0.18677   0.10500
  29   36836.0    271.5   0.013764905   0.12302  -0.14388  -0.26856  -0.17377
  30   36885.8    271.1   0.052937176   0.47247  -0.03427   0.65994   0.18916
  31   37215.6    268.7   0.000551469   0.00488   0.06831   0.00770  -0.01234
  32   37873.0    264.0   0.080542559   0.70012  -0.60396   0.50856   0.27698
  33   38578.0    259.2   0.242110058   2.06609   1.33027  -0.53068  -0.12184
  34   38746.5    258.1   0.001678010   0.01426   0.11208   0.01487  -0.03839
  35   38863.8    257.3   0.017352410   0.14699   0.38142   0.03840   0.00558
  36   39080.3    255.9   0.007471013   0.06294   0.14519  -0.04376   0.19985
  37   39533.3    253.0   0.108195243   0.90099   0.94095   0.09491   0.08126
  38   39911.9    250.6   0.029667210   0.24471   0.46159  -0.02020  -0.17674
  39   40120.9    249.2   0.003945072   0.03237  -0.04857   0.00582   0.17314
  40   40199.1    248.8   0.010640029   0.08714  -0.13353   0.09046  -0.24723

FINAL SINGLE POINT ENERGY     -6555.549987898678

DIPOLE MOMENT
-------------
                                X             Y             Z
Electronic contribution:     17.12855     -64.68945     -53.14798
Nuclear contribution   :    -20.23541      68.23812      54.55807
                        -----------------------------------------
Total Dipole Moment    :     -3.10685       3.54868       1.41008
                        -----------------------------------------
Magnitude (a.u.)       :      4.92280
Magnitude (Debye)      :     12.51277

Rotational constants in cm-1:     0.002111     0.000371     0.000323
Rotational constants in MHz :    63.299276    11.115963     9.670792

                             ****ORCA TERMINATED NORMALLY****
TOTAL RUN TIME: 0 days 0 hours 7 minutes 20 seconds 945 msec
