                         Program Version 4.2.0 -  RELEASE  -
|  1> # ORCA input file
|  2> # SCF done       -214.210670926424          0.000693753667
|  3> ! CAM-B3LYP def2-SVP def2/J RIJCOSX Grid4 TightSCF
|  4> %maxcore 5000
|  5> %tddft
|  6>     Mode sTDDFT
|  7>     Ethresh 5.0
|  8>     maxcore 5000
|  9> end
| 10>
| 11> %pal
| 12>   nprocs 6
| 13>   end
| 14> * xyz 0 1
| 15>    C        3.56309        -2.64083         0.47179
| 16>    O        2.88465        -3.38820         1.15278
| 17>    C        4.05307        -1.32964         0.93796
| 18>    C        4.78595        -0.70257        -0.07937
| 19>    C        5.33683         0.54872         0.15934
| 20>    C        5.14512         1.13849         1.40132
| 21>    C        4.41492         0.49265         2.38937
| 22>    C        3.85198        -0.75709         2.17585
| 23>   Br        4.17800         1.33576         4.07751
| 24>    C        4.79647        -1.58441        -1.24777
| 25>    C        5.39328        -1.26573        -2.44210
| 26>    C        6.08623        -0.05877        -2.67717
| 27>    N        6.66618         0.89621        -2.94179
| 28>    C        5.41810        -2.04305        -3.61962
| 29>    N        5.49510        -2.58437        -4.63065
| 30>    C        4.06271        -2.79455        -0.90784
| 31>    C        3.93876        -3.85346        -1.78503
| 32>    C        3.28682        -5.09758        -1.70053
| 33>    C        2.54309        -5.57174        -0.63630
| 34>    C        1.90953        -6.79595        -0.58814
| 35>    C        1.95138        -7.74735        -1.70006
| 36>    C        2.61849        -7.51036        -2.85454
| 37>    S        3.49718        -6.07492        -3.16999
| 38>    C        1.17684        -8.85366        -1.26467
| 39>    C        0.67902        -8.61935         0.02802
| 40>    C       -0.09015        -9.71218         0.49337
| 41>    C       -0.15735       -10.70956        -0.42418
| 42>    S        0.70412       -10.37896        -1.89148
| 43>    C        1.12909        -7.33310         0.46959
| 44>    C        0.90910        -6.64694         1.68356
| 45>    C        0.12027        -7.01398         2.72533
| 46>    C       -0.01236        -6.21475         3.89219
| 47>    C       -0.82828        -6.47246         4.96743
| 48>    C       -0.76418        -5.49886         5.99316
| 49>    C        0.16104        -4.47528         5.65033
| 50>    S        0.89485        -4.73204         4.09604
| 51>    C        0.48917        -3.37305         6.43058
| 52>    O        1.40112        -2.54763         5.86542
| 53>    C        1.82606        -1.36318         6.49958
| 54>    C       -0.15848        -3.26846         7.67970
| 55>    C       -1.09951        -4.28153         8.01185
| 56>    C       -1.42844        -5.37948         7.23166
| 57>    O       -2.36155        -6.19131         7.79752
| 58>    C       -2.83655        -7.34051         7.14495
| 59>    S       -1.83336        -4.02350         9.56642
| 60>    C       -0.87484        -2.57623         9.79344
| 61>    C       -0.05565        -2.31967         8.72355
| 62>    C       -0.97466        -1.80495        10.99079
| 63>    C       -1.87942        -2.09516        12.00119
| 64>    C       -1.95976        -1.37004        13.19133
| 65>    C       -1.10142        -0.32679        13.50419
| 66>    C       -0.20045         0.04984        12.47174
| 67>    C       -0.14410        -0.67097        11.22438
| 68>    N        0.73229        -0.05063        10.45910
| 69>    O        1.17819         0.98637        11.16660
| 70>    N        0.62914         1.06819        12.37141
| 71>    C       -1.16211         0.35407        14.76218
| 72>    C       -0.08779         0.84419        15.43630
| 73>    C       -0.10546         1.68730        16.61815
| 74>    C       -1.20067         2.28570        17.18047
| 75>    C       -1.16091         3.10641        18.32895
| 76>    N       -1.20839         3.77180        19.26277
| 77>    C       -2.52376         2.17025        16.70164
| 78>    N       -3.62282         2.12930        16.37244
| 79>    C        1.27463         1.83775        17.07520
| 80>    C        2.12212         1.11115        16.21939
| 81>    C        1.31948         0.43188        15.17949
| 82>    O        1.71670        -0.38770        14.38366
| 83>    C        3.48591         1.06062        16.41748
| 84>    C        4.02096         1.76240        17.49589
| 85>    C        3.18534         2.49444        18.34658
| 86>    C        1.81104         2.53915        18.14513
| 87>    C        3.79481         3.30579        19.45920
| 88>    O        4.27366         4.39460        19.29412
| 89>    O        3.65382         2.69247        20.62858
| 90>    C        4.24548         3.34606        21.74567
| 91>    C        5.47348         1.72620        17.81236
| 92>    O        5.92961         2.02546        18.88861
| 93>    O        6.21049         1.31334        16.78153
| 94>    C        7.61266         1.25635        17.00471
| 95>    H        5.90852         1.07335        -0.58764
| 96>    H        5.56951         2.11063         1.60056
| 97>    H        3.28027        -1.27257         2.93234
| 98>    H        4.44345        -3.71524        -2.73413
| 99>    H        2.46237        -4.91670         0.21784
|100>    H        2.64193        -8.21932        -3.66767
|101>    H       -0.56887        -9.77172         1.45322
|102>    H       -0.66979       -11.64774        -0.33706
|103>    H        1.43013        -5.70342         1.78565
|104>    H       -0.45437        -7.92842         2.70104
|105>    H       -1.44599        -7.35001         4.98651
|106>    H        2.51679        -0.89307         5.80059
|107>    H        2.35423        -1.57399         7.43274
|108>    H        0.99035        -0.68414         6.68544
|109>    H       -2.04041        -8.07608         6.99606
|110>    H       -3.30981        -7.09462         6.18984
|111>    H       -3.58586        -7.75932         7.81639
|112>    H        0.58705        -1.46111         8.73677
|113>    H       -2.54978        -2.93020        11.85958
|114>    H       -2.69078        -1.67248        13.92705
|115>    H       -2.15009         0.44708        15.19543
|116>    H        4.11923         0.49044        15.75648
|117>    H        1.19377         3.11070        18.81908
|118>    H        3.94774         2.77785        22.62289
|119>    H        3.89292         4.37715        21.81184
|120>    H        5.33108         3.34495        21.63449
|121>    H        8.05964         0.97386        16.05521
|122>    H        7.84362         0.51654        17.77412
|123>    H        7.98291         2.23002        17.33147
|124> *
|125>
|126>                          ****END OF INPUT****

CARTESIAN COORDINATES (ANGSTROEM)
---------------------------------
  C      3.563090   -2.640830    0.471790
  O      2.884650   -3.388200    1.152780
  C      4.053070   -1.329640    0.937960
  C      4.785950   -0.702570   -0.079370
  C      5.336830    0.548720    0.159340
  C      5.145120    1.138490    1.401320
  C      4.414920    0.492650    2.389370
  C      3.851980   -0.757090    2.175850
  Br     4.178000    1.335760    4.077510
  C      4.796470   -1.584410   -1.247770
  C      5.393280   -1.265730   -2.442100
  C      6.086230   -0.058770   -2.677170
  N      6.666180    0.896210   -2.941790
  C      5.418100   -2.043050   -3.619620
  N      5.495100   -2.584370   -4.630650
  C      4.062710   -2.794550   -0.907840
  C      3.938760   -3.853460   -1.785030
  C      3.286820   -5.097580   -1.700530
  C      2.543090   -5.571740   -0.636300
  C      1.909530   -6.795950   -0.588140
  C      1.951380   -7.747350   -1.700060
  C      2.618490   -7.510360   -2.854540
  S      3.497180   -6.074920   -3.169990
  C      1.176840   -8.853660   -1.264670
  C      0.679020   -8.619350    0.028020
  C     -0.090150   -9.712180    0.493370
  C     -0.157350  -10.709560   -0.424180
  S      0.704120  -10.378960   -1.891480
  C      1.129090   -7.333100    0.469590
  C      0.909100   -6.646940    1.683560
  C      0.120270   -7.013980    2.725330
  C     -0.012360   -6.214750    3.892190
  C     -0.828280   -6.472460    4.967430
  C     -0.764180   -5.498860    5.993160
  C      0.161040   -4.475280    5.650330
  S      0.894850   -4.732040    4.096040
  C      0.489170   -3.373050    6.430580
  O      1.401120   -2.547630    5.865420
  C      1.826060   -1.363180    6.499580
  C     -0.158480   -3.268460    7.679700
  C     -1.099510   -4.281530    8.011850
  C     -1.428440   -5.379480    7.231660
  O     -2.361550   -6.191310    7.797520
  C     -2.836550   -7.340510    7.144950
  S     -1.833360   -4.023500    9.566420
  C     -0.874840   -2.576230    9.793440
  C     -0.055650   -2.319670    8.723550
  C     -0.974660   -1.804950   10.990790
  C     -1.879420   -2.095160   12.001190
  C     -1.959760   -1.370040   13.191330
  C     -1.101420   -0.326790   13.504190
  C     -0.200450    0.049840   12.471740
  C     -0.144100   -0.670970   11.224380
  N      0.732290   -0.050630   10.459100
  O      1.178190    0.986370   11.166600
  N      0.629140    1.068190   12.371410
  C     -1.162110    0.354070   14.762180
  C     -0.087790    0.844190   15.436300
  C     -0.105460    1.687300   16.618150
  C     -1.200670    2.285700   17.180470
  C     -1.160910    3.106410   18.328950
  N     -1.208390    3.771800   19.262770
  C     -2.523760    2.170250   16.701640
  N     -3.622820    2.129300   16.372440
  C      1.274630    1.837750   17.075200
  C      2.122120    1.111150   16.219390
  C      1.319480    0.431880   15.179490
  O      1.716700   -0.387700   14.383660
  C      3.485910    1.060620   16.417480
  C      4.020960    1.762400   17.495890
  C      3.185340    2.494440   18.346580
  C      1.811040    2.539150   18.145130
  C      3.794810    3.305790   19.459200
  O      4.273660    4.394600   19.294120
  O      3.653820    2.692470   20.628580
  C      4.245480    3.346060   21.745670
  C      5.473480    1.726200   17.812360
  O      5.929610    2.025460   18.888610
  O      6.210490    1.313340   16.781530
  C      7.612660    1.256350   17.004710
  H      5.908520    1.073350   -0.587640
  H      5.569510    2.110630    1.600560
  H      3.280270   -1.272570    2.932340
  H      4.443450   -3.715240   -2.734130
  H      2.462370   -4.916700    0.217840
  H      2.641930   -8.219320   -3.667670
  H     -0.568870   -9.771720    1.453220
  H     -0.669790  -11.647740   -0.337060
  H      1.430130   -5.703420    1.785650
  H     -0.454370   -7.928420    2.701040
  H     -1.445990   -7.350010    4.986510
  H      2.516790   -0.893070    5.800590
  H      2.354230   -1.573990    7.432740
  H      0.990350   -0.684140    6.685440
  H     -2.040410   -8.076080    6.996060
  H     -3.309810   -7.094620    6.189840
  H     -3.585860   -7.759320    7.816390
  H      0.587050   -1.461110    8.736770
  H     -2.549780   -2.930200   11.859580
  H     -2.690780   -1.672480   13.927050
  H     -2.150090    0.447080   15.195430
  H      4.119230    0.490440   15.756480
  H      1.193770    3.110700   18.819080
  H      3.947740    2.777850   22.622890
  H      3.892920    4.377150   21.811840
  H      5.331080    3.344950   21.634490
  H      8.059640    0.973860   16.055210
  H      7.843620    0.516540   17.774120
  H      7.982910    2.230020   17.331470

 Total Charge           Charge          ....    0
 Multiplicity           Mult            ....    1
 Number of Electrons    NEL             ....  602
 Basis Dimension        Dim             .... 1299

ORBITAL ENERGIES
----------------

  NO   OCC          E(Eh)            E(eV)
   0   2.0000    -482.876908    -13139.7487
   1   2.0000     -88.978969     -2421.2408
   2   2.0000     -88.969729     -2420.9894
   3   2.0000     -88.950680     -2420.4711
   4   2.0000     -88.945723     -2420.3362
   5   2.0000     -62.554379     -1702.1912
   6   2.0000     -56.388229     -1534.4017
   7   2.0000     -56.385761     -1534.3346
   8   2.0000     -56.385634     -1534.3311
   9   2.0000     -19.359117      -526.7883
  10   2.0000     -19.272588      -524.4338
  11   2.0000     -19.254414      -523.9392
  12   2.0000     -19.254298      -523.9361
  13   2.0000     -19.253736      -523.9208
  14   2.0000     -19.226241      -523.1726
  15   2.0000     -19.220542      -523.0176
  16   2.0000     -19.216565      -522.9093
  17   2.0000     -19.197208      -522.3826
  18   2.0000     -14.485962      -394.1831
  19   2.0000     -14.481072      -394.0500
  20   2.0000     -14.423551      -392.4848
  21   2.0000     -14.420718      -392.4077
  22   2.0000     -14.418635      -392.3510
  23   2.0000     -14.414245      -392.2315
  24   2.0000     -10.412495      -283.3384
  25   2.0000     -10.398408      -282.9551
  26   2.0000     -10.376327      -282.3542
  27   2.0000     -10.371760      -282.2299
  28   2.0000     -10.352396      -281.7030
  29   2.0000     -10.347865      -281.5797
  30   2.0000     -10.346421      -281.5404
  31   2.0000     -10.344153      -281.4787
  32   2.0000     -10.343205      -281.4529
  33   2.0000     -10.342899      -281.4446
  34   2.0000     -10.340664      -281.3838
  35   2.0000     -10.339276      -281.3460
  36   2.0000     -10.332235      -281.1544
  37   2.0000     -10.331569      -281.1363
  38   2.0000     -10.329514      -281.0804
  39   2.0000     -10.328362      -281.0490
  40   2.0000     -10.327268      -281.0192
  41   2.0000     -10.326472      -280.9976
  42   2.0000     -10.325467      -280.9702
  43   2.0000     -10.324695      -280.9492
  44   2.0000     -10.324570      -280.9458
  45   2.0000     -10.324325      -280.9392
  46   2.0000     -10.322677      -280.8943
  47   2.0000     -10.321308      -280.8571
  48   2.0000     -10.317695      -280.7588
  49   2.0000     -10.317378      -280.7501
  50   2.0000     -10.313411      -280.6422
  51   2.0000     -10.312956      -280.6298
  52   2.0000     -10.312836      -280.6265
  53   2.0000     -10.312346      -280.6132
  54   2.0000     -10.311602      -280.5930
  55   2.0000     -10.310786      -280.5708
  56   2.0000     -10.309746      -280.5425
  57   2.0000     -10.309420      -280.5336
  58   2.0000     -10.306291      -280.4484
  59   2.0000     -10.306042      -280.4416
  60   2.0000     -10.305876      -280.4371
  61   2.0000     -10.305534      -280.4278
  62   2.0000     -10.305433      -280.4251
  63   2.0000     -10.304937      -280.4116
  64   2.0000     -10.304881      -280.4101
  65   2.0000     -10.304683      -280.4047
  66   2.0000     -10.303539      -280.3736
  67   2.0000     -10.302969      -280.3581
  68   2.0000     -10.301823      -280.3269
  69   2.0000     -10.301515      -280.3185
  70   2.0000     -10.299881      -280.2740
  71   2.0000     -10.299105      -280.2529
  72   2.0000     -10.298725      -280.2425
  73   2.0000     -10.296745      -280.1887
  74   2.0000     -10.296511      -280.1823
  75   2.0000     -10.293733      -280.1067
  76   2.0000     -10.292216      -280.0654
  77   2.0000     -10.292095      -280.0621
  78   2.0000     -10.290736      -280.0252
  79   2.0000     -10.289353      -279.9875
  80   2.0000     -10.288717      -279.9702
  81   2.0000     -10.285677      -279.8875
  82   2.0000     -10.284903      -279.8664
  83   2.0000     -10.281911      -279.7850
  84   2.0000      -8.783561      -239.0129
  85   2.0000      -8.074257      -219.7117
  86   2.0000      -8.065307      -219.4682
  87   2.0000      -8.045744      -218.9358
  88   2.0000      -8.040587      -218.7955
  89   2.0000      -6.619305      -180.1204
  90   2.0000      -6.605635      -179.7485
  91   2.0000      -6.605379      -179.7415
  92   2.0000      -6.043751      -164.4588
  93   2.0000      -6.039322      -164.3383
  94   2.0000      -6.036117      -164.2511
  95   2.0000      -6.034760      -164.2142
  96   2.0000      -6.030445      -164.0967
  97   2.0000      -6.027325      -164.0119
  98   2.0000      -6.015440      -163.6884
  99   2.0000      -6.011347      -163.5771
 100   2.0000      -6.010173      -163.5451
 101   2.0000      -6.007020      -163.4593
 102   2.0000      -6.006189      -163.4367
 103   2.0000      -6.001949      -163.3213
 104   2.0000      -2.735240       -74.4297
 105   2.0000      -2.731451       -74.3265
 106   2.0000      -2.731318       -74.3229
 107   2.0000      -2.720430       -74.0267
 108   2.0000      -2.720425       -74.0265
 109   2.0000      -1.312880       -35.7253
 110   2.0000      -1.205725       -32.8094
 111   2.0000      -1.187194       -32.3052
 112   2.0000      -1.158344       -31.5201
 113   2.0000      -1.156954       -31.4823
 114   2.0000      -1.140609       -31.0375
 115   2.0000      -1.136665       -30.9302
 116   2.0000      -1.110510       -30.2185
 117   2.0000      -1.092962       -29.7410
 118   2.0000      -1.025364       -27.9016
 119   2.0000      -1.021706       -27.8020
 120   2.0000      -1.017857       -27.6973
 121   2.0000      -1.017486       -27.6872
 122   2.0000      -1.010223       -27.4896
 123   2.0000      -1.004818       -27.3425
 124   2.0000      -1.003633       -27.3102
 125   2.0000      -0.999739       -27.2043
 126   2.0000      -0.996029       -27.1033
 127   2.0000      -0.994567       -27.0635
 128   2.0000      -0.982562       -26.7369
 129   2.0000      -0.978368       -26.6227
 130   2.0000      -0.965241       -26.2656
 131   2.0000      -0.963184       -26.2096
 132   2.0000      -0.941245       -25.6126
 133   2.0000      -0.929878       -25.3033
 134   2.0000      -0.926207       -25.2034
 135   2.0000      -0.916702       -24.9447
 136   2.0000      -0.911318       -24.7982
 137   2.0000      -0.909670       -24.7534
 138   2.0000      -0.903951       -24.5978
 139   2.0000      -0.892252       -24.2794
 140   2.0000      -0.883645       -24.0452
 141   2.0000      -0.880798       -23.9677
 142   2.0000      -0.878316       -23.9002
 143   2.0000      -0.865888       -23.5620
 144   2.0000      -0.863167       -23.4880
 145   2.0000      -0.852921       -23.2092
 146   2.0000      -0.849628       -23.1195
 147   2.0000      -0.845143       -22.9975
 148   2.0000      -0.832101       -22.6426
 149   2.0000      -0.824518       -22.4363
 150   2.0000      -0.819795       -22.3078
 151   2.0000      -0.816047       -22.2058
 152   2.0000      -0.811046       -22.0697
 153   2.0000      -0.805075       -21.9072
 154   2.0000      -0.793053       -21.5801
 155   2.0000      -0.784967       -21.3600
 156   2.0000      -0.774744       -21.0819
 157   2.0000      -0.771645       -20.9975
 158   2.0000      -0.769941       -20.9512
 159   2.0000      -0.767156       -20.8754
 160   2.0000      -0.757646       -20.6166
 161   2.0000      -0.743886       -20.2422
 162   2.0000      -0.741569       -20.1791
 163   2.0000      -0.731632       -19.9087
 164   2.0000      -0.725573       -19.7439
 165   2.0000      -0.713848       -19.4248
 166   2.0000      -0.700985       -19.0748
 167   2.0000      -0.696927       -18.9644
 168   2.0000      -0.693776       -18.8786
 169   2.0000      -0.690653       -18.7936
 170   2.0000      -0.680657       -18.5216
 171   2.0000      -0.674135       -18.3441
 172   2.0000      -0.673150       -18.3173
 173   2.0000      -0.671029       -18.2596
 174   2.0000      -0.670562       -18.2469
 175   2.0000      -0.661036       -17.9877
 176   2.0000      -0.654068       -17.7981
 177   2.0000      -0.647788       -17.6272
 178   2.0000      -0.645031       -17.5522
 179   2.0000      -0.641987       -17.4693
 180   2.0000      -0.639286       -17.3958
 181   2.0000      -0.632082       -17.1998
 182   2.0000      -0.629433       -17.1277
 183   2.0000      -0.626396       -17.0451
 184   2.0000      -0.619822       -16.8662
 185   2.0000      -0.619131       -16.8474
 186   2.0000      -0.614310       -16.7162
 187   2.0000      -0.610781       -16.6202
 188   2.0000      -0.606219       -16.4961
 189   2.0000      -0.596910       -16.2427
 190   2.0000      -0.594258       -16.1706
 191   2.0000      -0.591585       -16.0978
 192   2.0000      -0.590315       -16.0633
 193   2.0000      -0.587419       -15.9845
 194   2.0000      -0.582159       -15.8413
 195   2.0000      -0.581315       -15.8184
 196   2.0000      -0.575529       -15.6609
 197   2.0000      -0.574842       -15.6423
 198   2.0000      -0.570471       -15.5233
 199   2.0000      -0.566415       -15.4129
 200   2.0000      -0.564014       -15.3476
 201   2.0000      -0.559861       -15.2346
 202   2.0000      -0.558277       -15.1915
 203   2.0000      -0.554464       -15.0877
 204   2.0000      -0.551058       -14.9951
 205   2.0000      -0.547670       -14.9029
 206   2.0000      -0.545835       -14.8529
 207   2.0000      -0.543462       -14.7883
 208   2.0000      -0.542045       -14.7498
 209   2.0000      -0.541245       -14.7280
 210   2.0000      -0.540110       -14.6971
 211   2.0000      -0.538379       -14.6500
 212   2.0000      -0.537175       -14.6173
 213   2.0000      -0.536195       -14.5906
 214   2.0000      -0.530370       -14.4321
 215   2.0000      -0.528797       -14.3893
 216   2.0000      -0.524161       -14.2631
 217   2.0000      -0.523493       -14.2450
 218   2.0000      -0.521805       -14.1990
 219   2.0000      -0.520282       -14.1576
 220   2.0000      -0.517060       -14.0699
 221   2.0000      -0.512182       -13.9372
 222   2.0000      -0.507124       -13.7996
 223   2.0000      -0.506401       -13.7799
 224   2.0000      -0.504393       -13.7252
 225   2.0000      -0.503162       -13.6917
 226   2.0000      -0.501528       -13.6473
 227   2.0000      -0.499302       -13.5867
 228   2.0000      -0.497304       -13.5323
 229   2.0000      -0.493918       -13.4402
 230   2.0000      -0.491642       -13.3782
 231   2.0000      -0.490265       -13.3408
 232   2.0000      -0.486529       -13.2391
 233   2.0000      -0.483807       -13.1651
 234   2.0000      -0.481618       -13.1055
 235   2.0000      -0.478999       -13.0342
 236   2.0000      -0.476084       -12.9549
 237   2.0000      -0.472099       -12.8465
 238   2.0000      -0.469484       -12.7753
 239   2.0000      -0.467775       -12.7288
 240   2.0000      -0.466896       -12.7049
 241   2.0000      -0.466636       -12.6978
 242   2.0000      -0.463639       -12.6163
 243   2.0000      -0.460798       -12.5390
 244   2.0000      -0.458776       -12.4839
 245   2.0000      -0.455027       -12.3819
 246   2.0000      -0.454421       -12.3654
 247   2.0000      -0.454334       -12.3631
 248   2.0000      -0.450914       -12.2700
 249   2.0000      -0.449659       -12.2358
 250   2.0000      -0.449015       -12.2183
 251   2.0000      -0.444957       -12.1079
 252   2.0000      -0.444186       -12.0869
 253   2.0000      -0.442588       -12.0434
 254   2.0000      -0.442451       -12.0397
 255   2.0000      -0.441471       -12.0130
 256   2.0000      -0.433846       -11.8055
 257   2.0000      -0.432983       -11.7821
 258   2.0000      -0.432163       -11.7598
 259   2.0000      -0.431587       -11.7441
 260   2.0000      -0.429758       -11.6943
 261   2.0000      -0.428496       -11.6600
 262   2.0000      -0.428407       -11.6575
 263   2.0000      -0.425633       -11.5821
 264   2.0000      -0.424592       -11.5537
 265   2.0000      -0.418991       -11.4013
 266   2.0000      -0.417872       -11.3709
 267   2.0000      -0.416462       -11.3325
 268   2.0000      -0.415813       -11.3148
 269   2.0000      -0.413797       -11.2600
 270   2.0000      -0.411178       -11.1887
 271   2.0000      -0.407583       -11.0909
 272   2.0000      -0.406198       -11.0532
 273   2.0000      -0.403178       -10.9710
 274   2.0000      -0.396004       -10.7758
 275   2.0000      -0.394384       -10.7317
 276   2.0000      -0.390506       -10.6262
 277   2.0000      -0.382064       -10.3965
 278   2.0000      -0.379039       -10.3142
 279   2.0000      -0.374140       -10.1809
 280   2.0000      -0.370882       -10.0922
 281   2.0000      -0.369534       -10.0555
 282   2.0000      -0.368491       -10.0272
 283   2.0000      -0.365523        -9.9464
 284   2.0000      -0.358945        -9.7674
 285   2.0000      -0.353789        -9.6271
 286   2.0000      -0.351992        -9.5782
 287   2.0000      -0.345057        -9.3895
 288   2.0000      -0.344158        -9.3650
 289   2.0000      -0.339835        -9.2474
 290   2.0000      -0.339182        -9.2296
 291   2.0000      -0.336240        -9.1495
 292   2.0000      -0.333939        -9.0870
 293   2.0000      -0.328506        -8.9391
 294   2.0000      -0.319476        -8.6934
 295   2.0000      -0.310271        -8.4429
 296   2.0000      -0.307012        -8.3542
 297   2.0000      -0.287750        -7.8301
 298   2.0000      -0.275208        -7.4888
 299   2.0000      -0.246736        -6.7140
 300   2.0000      -0.229189        -6.2365
 301   0.0000      -0.109097        -2.9687
 302   0.0000      -0.101487        -2.7616
 303   0.0000      -0.077943        -2.1209
 304   0.0000      -0.070777        -1.9259
 305   0.0000      -0.049855        -1.3566

MULLIKEN ATOMIC CHARGES
-----------------------
   0 C :    0.161719
   1 O :   -0.169770
   2 C :   -0.007036
   3 C :    0.032748
   4 C :   -0.031748
   5 C :    0.050311
   6 C :   -0.001647
   7 C :   -0.015349
   8 Br:   -0.016843
   9 C :    0.314766
  10 C :   -0.368007
  11 C :   -0.186629
  12 N :    0.151738
  13 C :   -0.180430
  14 N :    0.147798
  15 C :   -0.080317
  16 C :    0.050445
  17 C :   -0.121266
  18 C :   -0.008844
  19 C :    0.029001
  20 C :    0.063902
  21 C :   -0.117222
  22 S :    0.149220
  23 C :   -0.101537
  24 C :    0.040320
  25 C :    0.005419
  26 C :   -0.064227
  27 S :    0.139826
  28 C :    0.127268
  29 C :   -0.045664
  30 C :    0.015117
  31 C :   -0.001180
  32 C :   -0.110584
  33 C :    0.092131
  34 C :   -0.149765
  35 S :    0.132375
  36 C :    0.152004
  37 O :   -0.309043
  38 C :    0.183198
  39 C :    0.070728
  40 C :   -0.125630
  41 C :    0.131926
  42 O :   -0.314457
  43 C :    0.183782
  44 S :    0.124822
  45 C :   -0.076983
  46 C :   -0.114137
  47 C :    0.158640
  48 C :   -0.073800
  49 C :   -0.007049
  50 C :    0.073602
  51 C :   -0.000870
  52 C :   -0.028415
  53 N :    0.032385
  54 O :   -0.090632
  55 N :    0.054786
  56 C :   -0.053375
  57 C :   -0.067506
  58 C :    0.305655
  59 C :   -0.335387
  60 C :   -0.182629
  61 N :    0.162531
  62 C :   -0.197110
  63 N :    0.163910
  64 C :    0.047291
  65 C :    0.002158
  66 C :    0.154345
  67 O :   -0.137508
  68 C :   -0.052340
  69 C :    0.024435
  70 C :    0.030290
  71 C :   -0.043635
  72 C :    0.183734
  73 O :   -0.209248
  74 O :   -0.293089
  75 C :    0.188934
  76 C :    0.201326
  77 O :   -0.206206
  78 O :   -0.290485
  79 C :    0.187833
  80 H :    0.009440
  81 H :    0.004496
  82 H :    0.005414
  83 H :   -0.000917
  84 H :   -0.006220
  85 H :    0.041422
  86 H :   -0.014298
  87 H :    0.029638
  88 H :    0.014026
  89 H :   -0.034192
  90 H :   -0.040895
  91 H :    0.027741
  92 H :    0.037884
  93 H :    0.036078
  94 H :    0.030792
  95 H :    0.030218
  96 H :    0.037980
  97 H :   -0.014539
  98 H :    0.003950
  99 H :   -0.002066
 100 H :    0.031976
 101 H :    0.006253
 102 H :    0.006397
 103 H :    0.032999
 104 H :    0.035214
 105 H :    0.039559
 106 H :    0.039897
 107 H :    0.035670
 108 H :    0.041265
Sum of atomic charges:   -0.0000000

LOEWDIN ATOMIC CHARGES
----------------------
   0 C :    0.091286
   1 O :   -0.143937
   2 C :   -0.035394
   3 C :   -0.015024
   4 C :    0.008148
   5 C :   -0.013624
   6 C :   -0.098858
   7 C :   -0.001125
   8 Br:    0.116775
   9 C :    0.076388
  10 C :   -0.142799
  11 C :   -0.017763
  12 N :   -0.054183
  13 C :   -0.025425
  14 N :   -0.050100
  15 C :   -0.107889
  16 C :    0.045475
  17 C :   -0.191950
  18 C :    0.035057
  19 C :   -0.032263
  20 C :   -0.063366
  21 C :   -0.128078
  22 S :    0.459845
  23 C :   -0.180439
  24 C :   -0.043017
  25 C :   -0.060984
  26 C :   -0.159823
  27 S :    0.431355
  28 C :   -0.010599
  29 C :   -0.023731
  30 C :   -0.029785
  31 C :   -0.148436
  32 C :   -0.064817
  33 C :   -0.067145
  34 C :   -0.174400
  35 S :    0.427718
  36 C :    0.029877
  37 O :   -0.102410
  38 C :    0.080145
  39 C :   -0.077438
  40 C :   -0.167116
  41 C :    0.019284
  42 O :   -0.108437
  43 C :    0.078527
  44 S :    0.411465
  45 C :   -0.166869
  46 C :   -0.029396
  47 C :   -0.006075
  48 C :   -0.027477
  49 C :    0.029363
  50 C :   -0.044820
  51 C :   -0.038813
  52 C :   -0.041559
  53 N :   -0.027190
  54 O :    0.080710
  55 N :   -0.014553
  56 C :    0.075105
  57 C :   -0.080055
  58 C :    0.073533
  59 C :   -0.124764
  60 C :   -0.019273
  61 N :   -0.040603
  62 C :   -0.020364
  63 N :   -0.042811
  64 C :    0.000282
  65 C :   -0.040384
  66 C :    0.084771
  67 O :   -0.129429
  68 C :    0.041138
  69 C :   -0.041307
  70 C :    0.004178
  71 C :    0.013604
  72 C :    0.076687
  73 O :   -0.163112
  74 O :   -0.078792
  75 C :    0.084729
  76 C :    0.093274
  77 O :   -0.158020
  78 O :   -0.079447
  79 C :    0.085034
  80 H :    0.043036
  81 H :    0.040380
  82 H :    0.044586
  83 H :    0.040232
  84 H :    0.034978
  85 H :    0.038951
  86 H :    0.029645
  87 H :    0.025594
  88 H :    0.029468
  89 H :    0.028754
  90 H :    0.023616
  91 H :    0.022189
  92 H :    0.020585
  93 H :    0.020606
  94 H :    0.016418
  95 H :    0.016939
  96 H :    0.031051
  97 H :    0.027480
  98 H :    0.031197
  99 H :    0.040733
 100 H :    0.047651
 101 H :    0.044833
 102 H :    0.043873
 103 H :    0.025737
 104 H :    0.023867
 105 H :    0.027559
 106 H :    0.028511
 107 H :    0.025491
 108 H :    0.027760

  Mayer bond orders larger than 0.100000
B(  0-C ,  1-O ) :   2.0967 B(  0-C ,  2-C ) :   0.9650 B(  0-C , 15-C ) :   0.9578
B(  1-O , 84-H ) :   0.1298 B(  2-C ,  3-C ) :   1.3350 B(  2-C ,  7-C ) :   1.3875
B(  3-C ,  4-C ) :   1.3667 B(  3-C ,  9-C ) :   0.9764 B(  4-C ,  5-C ) :   1.3838
B(  4-C , 80-H ) :   0.9828 B(  5-C ,  6-C ) :   1.3921 B(  5-C , 81-H ) :   0.9844
B(  6-C ,  7-C ) :   1.3254 B(  6-C ,  8-Br) :   0.9982 B(  7-C , 82-H ) :   1.0078
B(  9-C , 10-C ) :   1.6063 B(  9-C , 15-C ) :   1.1058 B( 10-C , 11-C ) :   1.1532
B( 10-C , 13-C ) :   1.1375 B( 11-C , 12-N ) :   2.9688 B( 13-C , 14-N ) :   2.9560
B( 15-C , 16-C ) :   1.5290 B( 16-C , 17-C ) :   1.2730 B( 16-C , 83-H ) :   0.9033
B( 17-C , 18-C ) :   1.4307 B( 17-C , 22-S ) :   1.0329 B( 18-C , 19-C ) :   1.3306
B( 18-C , 84-H ) :   0.9271 B( 19-C , 20-C ) :   1.0298 B( 19-C , 28-C ) :   1.3101
B( 20-C , 21-C ) :   1.5795 B( 20-C , 23-C ) :   1.1986 B( 21-C , 22-S ) :   1.1710
B( 21-C , 85-H ) :   0.9412 B( 23-C , 24-C ) :   1.4118 B( 23-C , 27-S ) :   1.0915
B( 24-C , 25-C ) :   1.2043 B( 24-C , 28-C ) :   1.1172 B( 25-C , 26-C ) :   1.6034
B( 25-C , 86-H ) :   0.9999 B( 26-C , 27-S ) :   1.1417 B( 26-C , 87-H ) :   0.9644
B( 28-C , 29-C ) :   1.1915 B( 29-C , 30-C ) :   1.5900 B( 29-C , 88-H ) :   0.9565
B( 30-C , 31-C ) :   1.1514 B( 30-C , 89-H ) :   0.9877 B( 31-C , 32-C ) :   1.5210
B( 31-C , 35-S ) :   1.0662 B( 32-C , 33-C ) :   1.1519 B( 32-C , 90-H ) :   1.0036
B( 33-C , 34-C ) :   1.3138 B( 33-C , 41-C ) :   1.1989 B( 34-C , 35-S ) :   1.0437
B( 34-C , 36-C ) :   1.4152 B( 36-C , 37-O ) :   1.2641 B( 36-C , 39-C ) :   1.1967
B( 37-O , 38-C ) :   0.9439 B( 38-C , 91-H ) :   0.9671 B( 38-C , 92-H ) :   0.9676
B( 38-C , 93-H ) :   0.9679 B( 39-C , 40-C ) :   1.3160 B( 39-C , 46-C ) :   1.1398
B( 40-C , 41-C ) :   1.4236 B( 40-C , 44-S ) :   1.0401 B( 41-C , 42-O ) :   1.2516
B( 42-O , 43-C ) :   0.9532 B( 43-C , 94-H ) :   0.9686 B( 43-C , 95-H ) :   0.9685
B( 43-C , 96-H ) :   0.9744 B( 44-S , 45-C ) :   1.0476 B( 45-C , 46-C ) :   1.5716
B( 45-C , 47-C ) :   1.1397 B( 46-C , 97-H ) :   0.9774 B( 47-C , 48-C ) :   1.4628
B( 47-C , 50-C ) :   0.1042 B( 47-C , 52-C ) :   1.1324 B( 48-C , 49-C ) :   1.2264
B( 48-C , 98-H ) :   0.9910 B( 49-C , 50-C ) :   1.4426 B( 49-C , 99-H ) :   0.9943
B( 50-C , 51-C ) :   1.1360 B( 50-C , 56-C ) :   1.0962 B( 51-C , 52-C ) :   1.1573
B( 51-C , 55-N ) :   1.5964 B( 52-C , 53-N ) :   1.5887 B( 53-N , 54-O ) :   1.0629
B( 53-N , 55-N ) :   0.1812 B( 54-O , 55-N ) :   1.0722 B( 56-C , 57-C ) :   1.6533
B( 56-C ,100-H ) :   0.9426 B( 57-C , 58-C ) :   1.0641 B( 57-C , 66-C ) :   0.9308
B( 58-C , 59-C ) :   1.6556 B( 58-C , 64-C ) :   0.9877 B( 59-C , 60-C ) :   1.1410
B( 59-C , 62-C ) :   1.1440 B( 60-C , 61-N ) :   2.9666 B( 62-C , 63-N ) :   2.9768
B( 64-C , 65-C ) :   1.3346 B( 64-C , 71-C ) :   1.3419 B( 65-C , 66-C ) :   0.9393
B( 65-C , 68-C ) :   1.3443 B( 66-C , 67-O ) :   2.2308 B( 68-C , 69-C ) :   1.3127
B( 68-C ,101-H ) :   1.0178 B( 69-C , 70-C ) :   1.4519 B( 69-C , 76-C ) :   0.9029
B( 70-C , 71-C ) :   1.4130 B( 70-C , 72-C ) :   0.8452 B( 71-C ,102-H ) :   0.9857
B( 72-C , 73-O ) :   2.1122 B( 72-C , 74-O ) :   1.2278 B( 74-O , 75-C ) :   0.9164
B( 75-C ,103-H ) :   0.9809 B( 75-C ,104-H ) :   0.9727 B( 75-C ,105-H ) :   0.9763
B( 76-C , 77-O ) :   2.0482 B( 76-C , 78-O ) :   1.2575 B( 78-O , 79-C ) :   0.9142
B( 79-C ,106-H ) :   0.9810 B( 79-C ,107-H ) :   0.9771 B( 79-C ,108-H ) :   0.9750

-----------------------------------------------------------------------------
         ABSORPTION SPECTRUM VIA TRANSITION ELECTRIC DIPOLE MOMENTS
-----------------------------------------------------------------------------
State   Energy  Wavelength   fosc         T2         TX        TY        TZ
        (cm-1)    (nm)                  (au**2)     (au)      (au)      (au)
-----------------------------------------------------------------------------
   0   12782.8    782.3   0.902828618  23.25176  -2.10815  -0.61412   4.29306
   1   14881.0    672.0   0.388270825   8.58972  -0.88476  -2.43472  -1.37080
   2   17173.3    582.3   0.043327020   0.83058   0.28856   0.26608  -0.82250
   3   19510.5    512.5   0.538124641   9.08007   0.35684   2.03569   2.19288
   4   20063.0    498.4   0.107694129   1.76714  -0.25739  -0.87196  -0.96984
   5   21988.6    454.8   0.186670361   2.79482  -0.75293  -1.37826  -0.57300
   6   22248.3    449.5   0.345493020   5.11232  -0.00362  -1.23237  -1.89567
   7   22756.7    439.4   0.165743437   2.39774  -0.27566  -1.04274  -1.11105
   8   23353.5    428.2   0.222943553   3.14281  -0.69468  -1.59795   0.32676
   9   24854.6    402.3   0.013067441   0.17309   0.13420  -0.15549  -0.36180
  10   26319.6    379.9   0.008217237   0.10278   0.09816   0.21712   0.21449
  11   27022.0    370.1   0.085517968   1.04187  -0.24924   0.47486   0.86848
  12   27378.8    365.2   0.036255294   0.43595   0.63956   0.02894  -0.16148
  13   27841.6    359.2   0.377176164   4.45990   0.52343  -1.06872  -1.74464
  14   28505.3    350.8   0.054623251   0.63085   0.03807  -0.02918  -0.79281
  15   28571.0    350.0   0.029264541   0.33720  -0.02371   0.24314   0.52680
  16   28791.2    347.3   0.030368066   0.34724  -0.01475  -0.40070  -0.43181
  17   28859.6    346.5   0.116665097   1.33084   0.09747  -0.59620  -0.98279
  18   29454.1    339.5   0.101173322   1.13082  -0.22326   0.78379   0.68312
  19   29933.4    334.1   0.102742088   1.12997  -0.78629  -0.25470  -0.66846
  20   30508.2    327.8   0.238088326   2.56919   0.95485  -0.45907  -1.20279
  21   31109.5    321.4   0.032011323   0.33876  -0.28984   0.05662   0.50154
  22   31180.8    320.7   0.069210753   0.73074   0.35986   0.44985  -0.63156
  23   31575.9    316.7   0.103159181   1.07554   0.29693   0.33661   0.93492
  24   31818.2    314.3   0.054854024   0.56756  -0.15304  -0.69841  -0.23740
  25   32628.7    306.5   0.000252347   0.00255   0.00718  -0.04133   0.02804
  26   32659.5    306.2   0.004570793   0.04607  -0.09387   0.14681  -0.12534
  27   33102.1    302.1   0.047180820   0.46923  -0.08974  -0.52759   0.42758
  28   33308.4    300.2   0.111978273   1.10677  -0.73654  -0.62704   0.41364
  29   33563.7    297.9   0.072323720   0.70939   0.15795   0.38017   0.73479
  30   34059.9    293.6   0.635661475   6.14411   0.30659  -1.16429  -2.16669
  31   34376.8    290.9   0.088255763   0.84519  -0.79066  -0.21943  -0.41459
  32   34525.2    289.6   0.080388304   0.76654  -0.33994  -0.80522   0.05100
  33   34807.2    287.3   0.068275570   0.64576   0.22475  -0.02222  -0.77120
  34   35207.7    284.0   0.203559261   1.90339   1.11784   0.23008  -0.77517
  35   35294.7    283.3   0.141624299   1.32100  -0.47809   0.37024   0.97742
  36   35353.0    282.9   0.109614868   1.02075  -0.99829  -0.12208  -0.09624
  37   35621.8    280.7   0.366536081   3.38747  -1.56582   0.94929   0.18581
  38   36358.6    275.0   0.024718699   0.22382  -0.23636  -0.05326   0.40634
  39   36441.4    274.4   0.123538626   1.11605   0.19114   0.68919   0.77751
  40   36920.4    270.9   0.013681578   0.12200  -0.30922  -0.05285   0.15357
  41   36994.6    270.3   0.071914909   0.63996   0.29700   0.23083  -0.70603
  42   37003.3    270.2   0.075071640   0.66790  -0.54084  -0.40630   0.45860
  43   37285.3    268.2   0.048417164   0.42750  -0.53388   0.23468   0.29564
  44   37848.7    264.2   0.133605120   1.16211   0.79031   0.44262  -0.58447
  45   38392.9    260.5   0.046884818   0.40203   0.20909   0.59859  -0.00235
  46   38479.1    259.9   0.033934239   0.29033   0.28727  -0.45395   0.04168
  47   38709.6    258.3   0.027094628   0.23043   0.36251   0.03482  -0.31274
  48   38822.0    257.6   0.035085735   0.29753   0.24740  -0.04201  -0.48431
  49   39094.0    255.8   0.134064672   1.12896   0.66148   0.62710   0.54604
  50   39197.0    255.1   0.038226252   0.32106   0.50465   0.12069   0.22765
  51   39311.7    254.4   0.031076729   0.26025  -0.42249  -0.22070   0.18177
  52   39841.0    251.0   0.003533702   0.02920  -0.04558   0.16325   0.02169
  53   39968.1    250.2   0.029556741   0.24345  -0.46896   0.14710   0.04356
  54   40053.1    249.7   0.016054792   0.13196  -0.32522  -0.16151   0.01038
  55   40134.8    249.2   0.051115645   0.41928  -0.21392  -0.41001   0.45322

FINAL SINGLE POINT ENERGY     -7471.321465044562

DIPOLE MOMENT
-------------
                                X             Y             Z
Electronic contribution:     19.32224      38.60966     -67.55906
Nuclear contribution   :    -19.83856     -43.22581      67.17444
                        -----------------------------------------
Total Dipole Moment    :     -0.51633      -4.61616      -0.38462
                        -----------------------------------------
Magnitude (a.u.)       :      4.66084
Magnitude (Debye)      :     11.84691

Rotational constants in cm-1:     0.001035     0.000210     0.000185
Rotational constants in MHz :    31.029923     6.282355     5.536188

                             ****ORCA TERMINATED NORMALLY****
TOTAL RUN TIME: 0 days 0 hours 12 minutes 14 seconds 660 msec
