                         Program Version 4.2.0 -  RELEASE  -
|  1> # ORCA input file
|  2> # SCF done       -176.001883631491          0.000721328867
|  3> ! CAM-B3LYP def2-SVP def2/J RIJCOSX Grid4 TightSCF
|  4> %maxcore 5000
|  5> %tddft
|  6>     Mode sTDDFT
|  7>     Ethresh 5.0
|  8>     maxcore 5000
|  9> end
| 10>
| 11> %pal
| 12>   nprocs 6
| 13>   end
| 14> * xyz 0 1
| 15>    C       -1.16284        -1.55975        -1.18124
| 16>    O       -1.09457        -2.65836        -1.68605
| 17>    C       -0.16897        -0.47366        -1.33587
| 18>    C       -0.61022         0.67956        -0.66535
| 19>    C        0.17008         1.82751        -0.69314
| 20>    C        1.37174         1.80134        -1.38371
| 21>    C        1.78849         0.64853        -2.03742
| 22>    C        1.02382        -0.50977        -2.02812
| 23>   Br        3.44620         0.66025        -2.96583
| 24>    C       -1.89505         0.39232        -0.03660
| 25>    C       -2.57961         1.23531         0.79720
| 26>    C       -2.15952         2.54450         1.11484
| 27>    N       -1.87009         3.61564         1.40823
| 28>    C       -3.77511         0.91465         1.47627
| 29>    N       -4.73318         0.72647         2.08050
| 30>    C       -2.26704        -0.97019        -0.38523
| 31>    C       -3.50195        -1.51733        -0.20870
| 32>    C       -3.91132        -2.87436        -0.42911
| 33>    C       -3.06056        -3.96765        -0.18991
| 34>    C       -3.52776        -5.24289        -0.39217
| 35>    C       -4.85437        -5.45461        -0.81636
| 36>    C       -5.70945        -4.38177        -1.04075
| 37>    C       -5.23875        -3.10588        -0.83003
| 38>    C       -5.10333        -6.87592        -0.87668
| 39>    C       -3.93583        -7.54826        -0.47485
| 40>    C       -2.82355        -6.56473        -0.18150
| 41>    C       -1.71401        -6.81003        -1.23119
| 42>    C       -0.50639        -5.88593        -1.15837
| 43>    C       -2.29240        -6.70899         1.25316
| 44>    C       -3.40058        -6.62632         2.29717
| 45>    C       -3.90427        -8.92054        -0.42193
| 46>    C       -5.05722        -9.63732        -0.77311
| 47>    C       -6.21759        -8.96139        -1.17433
| 48>    C       -6.24649        -7.58382        -1.22713
| 49>    C       -5.04551       -11.04093        -0.72866
| 50>    C       -5.05191       -12.25238        -0.70685
| 51>    C       -5.03470       -13.64029        -0.68110
| 52>    S       -3.60774       -14.50857        -0.18558
| 53>    C       -4.41718       -16.02887        -0.44645
| 54>    C       -5.70837       -15.84475        -0.88981
| 55>    C       -6.05649       -14.49980        -1.02139
| 56>    C       -3.76225       -17.23043        -0.22026
| 57>    C       -3.16859       -18.26653        -0.01589
| 58>    C       -2.47336       -19.46854         0.15770
| 59>    C       -3.00762       -20.66511        -0.11220
| 60>    C       -2.27949       -21.98506        -0.00065
| 61>    C       -0.80001       -21.81943         0.12389
| 62>    N       -0.18353       -21.56381         1.25756
| 63>    S        1.41138       -21.43467         0.98593
| 64>    N        1.35037       -21.70640        -0.60999
| 65>    C        0.10156       -21.90527        -0.96900
| 66>    C       -0.30915       -22.19441        -2.38182
| 67>    C       -1.65529       -22.85375        -2.34387
| 68>    C       -2.54990       -22.77314        -1.24633
| 69>    N       -3.66519       -23.43523        -1.46157
| 70>    S       -3.60817       -24.11618        -2.93403
| 71>    N       -2.13645       -23.57094        -3.33484
| 72>    C       -0.38952       -20.92258        -3.16497
| 73>    C        0.27323       -20.55775        -4.29844
| 74>    C       -0.15481       -19.22389        -4.66345
| 75>    C       -1.13578       -18.78962        -3.67032
| 76>    O       -1.77000       -17.77531        -3.53607
| 77>    N       -1.21519       -19.89010        -2.79983
| 78>    C        0.52135       -18.89683        -5.78626
| 79>    O        1.34141       -19.89089        -6.17658
| 80>    C        1.24096       -20.97842        -5.28564
| 81>    O        1.88079       -21.97860        -5.43362
| 82>    H       -0.13737         2.73442        -0.19914
| 83>    H        1.99013         2.68518        -1.41624
| 84>    H        1.34012        -1.40768        -2.53606
| 85>    H       -4.29943        -0.85160         0.10193
| 86>    H       -2.07287        -3.79325         0.20251
| 87>    H       -6.72910        -4.54647        -1.35462
| 88>    H       -5.88893        -2.25818        -0.99189
| 89>    H       -2.16669        -6.71844        -2.22197
| 90>    H       -1.37805        -7.84383        -1.11724
| 91>    H       -0.78644        -4.85667        -1.35816
| 92>    H        0.21558        -6.18815        -1.91422
| 93>    H       -0.01837        -5.94457        -0.18879
| 94>    H       -1.56627        -5.91829         1.44419
| 95>    H       -1.77873        -7.66842         1.34287
| 96>    H       -3.92184        -5.67354         2.22996
| 97>    H       -2.98062        -6.71780         3.29624
| 98>    H       -4.12643        -7.42423         2.15629
| 99>    H       -3.01985        -9.45836        -0.11341
|100>    H       -7.09053        -9.53843        -1.44168
|101>    H       -7.14232        -7.06673        -1.53668
|102>    H       -6.36770       -16.66571        -1.10872
|103>    H       -7.01828       -14.15225        -1.35434
|104>    H       -1.45830       -19.37527         0.52626
|105>    H       -4.03233       -20.74669        -0.44785
|106>    H       -2.67609       -22.52112         0.87007
|107>    H        0.42488       -22.83907        -2.87452
|108>    H       -1.81966       -19.88913        -1.98416
|109>    H        0.51682       -18.01163        -6.39574
|110> *
|111>
|112>                          ****END OF INPUT****

CARTESIAN COORDINATES (ANGSTROEM)
---------------------------------
  C     -1.162840   -1.559750   -1.181240
  O     -1.094570   -2.658360   -1.686050
  C     -0.168970   -0.473660   -1.335870
  C     -0.610220    0.679560   -0.665350
  C      0.170080    1.827510   -0.693140
  C      1.371740    1.801340   -1.383710
  C      1.788490    0.648530   -2.037420
  C      1.023820   -0.509770   -2.028120
  Br     3.446200    0.660250   -2.965830
  C     -1.895050    0.392320   -0.036600
  C     -2.579610    1.235310    0.797200
  C     -2.159520    2.544500    1.114840
  N     -1.870090    3.615640    1.408230
  C     -3.775110    0.914650    1.476270
  N     -4.733180    0.726470    2.080500
  C     -2.267040   -0.970190   -0.385230
  C     -3.501950   -1.517330   -0.208700
  C     -3.911320   -2.874360   -0.429110
  C     -3.060560   -3.967650   -0.189910
  C     -3.527760   -5.242890   -0.392170
  C     -4.854370   -5.454610   -0.816360
  C     -5.709450   -4.381770   -1.040750
  C     -5.238750   -3.105880   -0.830030
  C     -5.103330   -6.875920   -0.876680
  C     -3.935830   -7.548260   -0.474850
  C     -2.823550   -6.564730   -0.181500
  C     -1.714010   -6.810030   -1.231190
  C     -0.506390   -5.885930   -1.158370
  C     -2.292400   -6.708990    1.253160
  C     -3.400580   -6.626320    2.297170
  C     -3.904270   -8.920540   -0.421930
  C     -5.057220   -9.637320   -0.773110
  C     -6.217590   -8.961390   -1.174330
  C     -6.246490   -7.583820   -1.227130
  C     -5.045510  -11.040930   -0.728660
  C     -5.051910  -12.252380   -0.706850
  C     -5.034700  -13.640290   -0.681100
  S     -3.607740  -14.508570   -0.185580
  C     -4.417180  -16.028870   -0.446450
  C     -5.708370  -15.844750   -0.889810
  C     -6.056490  -14.499800   -1.021390
  C     -3.762250  -17.230430   -0.220260
  C     -3.168590  -18.266530   -0.015890
  C     -2.473360  -19.468540    0.157700
  C     -3.007620  -20.665110   -0.112200
  C     -2.279490  -21.985060   -0.000650
  C     -0.800010  -21.819430    0.123890
  N     -0.183530  -21.563810    1.257560
  S      1.411380  -21.434670    0.985930
  N      1.350370  -21.706400   -0.609990
  C      0.101560  -21.905270   -0.969000
  C     -0.309150  -22.194410   -2.381820
  C     -1.655290  -22.853750   -2.343870
  C     -2.549900  -22.773140   -1.246330
  N     -3.665190  -23.435230   -1.461570
  S     -3.608170  -24.116180   -2.934030
  N     -2.136450  -23.570940   -3.334840
  C     -0.389520  -20.922580   -3.164970
  C      0.273230  -20.557750   -4.298440
  C     -0.154810  -19.223890   -4.663450
  C     -1.135780  -18.789620   -3.670320
  O     -1.770000  -17.775310   -3.536070
  N     -1.215190  -19.890100   -2.799830
  C      0.521350  -18.896830   -5.786260
  O      1.341410  -19.890890   -6.176580
  C      1.240960  -20.978420   -5.285640
  O      1.880790  -21.978600   -5.433620
  H     -0.137370    2.734420   -0.199140
  H      1.990130    2.685180   -1.416240
  H      1.340120   -1.407680   -2.536060
  H     -4.299430   -0.851600    0.101930
  H     -2.072870   -3.793250    0.202510
  H     -6.729100   -4.546470   -1.354620
  H     -5.888930   -2.258180   -0.991890
  H     -2.166690   -6.718440   -2.221970
  H     -1.378050   -7.843830   -1.117240
  H     -0.786440   -4.856670   -1.358160
  H      0.215580   -6.188150   -1.914220
  H     -0.018370   -5.944570   -0.188790
  H     -1.566270   -5.918290    1.444190
  H     -1.778730   -7.668420    1.342870
  H     -3.921840   -5.673540    2.229960
  H     -2.980620   -6.717800    3.296240
  H     -4.126430   -7.424230    2.156290
  H     -3.019850   -9.458360   -0.113410
  H     -7.090530   -9.538430   -1.441680
  H     -7.142320   -7.066730   -1.536680
  H     -6.367700  -16.665710   -1.108720
  H     -7.018280  -14.152250   -1.354340
  H     -1.458300  -19.375270    0.526260
  H     -4.032330  -20.746690   -0.447850
  H     -2.676090  -22.521120    0.870070
  H      0.424880  -22.839070   -2.874520
  H     -1.819660  -19.889130   -1.984160
  H      0.516820  -18.011630   -6.395740

 Total Charge           Charge          ....    0
 Multiplicity           Mult            ....    1
 Number of Electrons    NEL             ....  504
 Basis Dimension        Dim             .... 1108

ORBITAL ENERGIES
----------------

  NO   OCC          E(Eh)            E(eV)
   0   2.0000    -482.875193    -13139.7020
   1   2.0000     -89.024687     -2422.4849
   2   2.0000     -89.023108     -2422.4419
   3   2.0000     -88.962936     -2420.8046
   4   2.0000     -62.552921     -1702.1515
   5   2.0000     -56.386764     -1534.3619
   6   2.0000     -56.384232     -1534.2930
   7   2.0000     -56.384218     -1534.2926
   8   2.0000     -19.277938      -524.5793
   9   2.0000     -19.225635      -523.1561
  10   2.0000     -19.207755      -522.6696
  11   2.0000     -19.199126      -522.4348
  12   2.0000     -14.461036      -393.5048
  13   2.0000     -14.452339      -393.2681
  14   2.0000     -14.452239      -393.2654
  15   2.0000     -14.451117      -393.2349
  16   2.0000     -14.450656      -393.2223
  17   2.0000     -14.419815      -392.3831
  18   2.0000     -14.419355      -392.3706
  19   2.0000     -10.405915      -283.1593
  20   2.0000     -10.389897      -282.7235
  21   2.0000     -10.377349      -282.3820
  22   2.0000     -10.360730      -281.9298
  23   2.0000     -10.359457      -281.8952
  24   2.0000     -10.348748      -281.6038
  25   2.0000     -10.348446      -281.5955
  26   2.0000     -10.346232      -281.5353
  27   2.0000     -10.344423      -281.4860
  28   2.0000     -10.343280      -281.4549
  29   2.0000     -10.342873      -281.4439
  30   2.0000     -10.342234      -281.4265
  31   2.0000     -10.329722      -281.0860
  32   2.0000     -10.323520      -280.9173
  33   2.0000     -10.322251      -280.8827
  34   2.0000     -10.321902      -280.8732
  35   2.0000     -10.321693      -280.8675
  36   2.0000     -10.318954      -280.7930
  37   2.0000     -10.317335      -280.7490
  38   2.0000     -10.314426      -280.6698
  39   2.0000     -10.311355      -280.5862
  40   2.0000     -10.308253      -280.5018
  41   2.0000     -10.307665      -280.4858
  42   2.0000     -10.307490      -280.4811
  43   2.0000     -10.306427      -280.4521
  44   2.0000     -10.303289      -280.3668
  45   2.0000     -10.302780      -280.3529
  46   2.0000     -10.299684      -280.2687
  47   2.0000     -10.291792      -280.0539
  48   2.0000     -10.287507      -279.9373
  49   2.0000     -10.287395      -279.9343
  50   2.0000     -10.285039      -279.8702
  51   2.0000     -10.284066      -279.8437
  52   2.0000     -10.283405      -279.8257
  53   2.0000     -10.283366      -279.8246
  54   2.0000     -10.281682      -279.7788
  55   2.0000     -10.281367      -279.7702
  56   2.0000     -10.281172      -279.7649
  57   2.0000     -10.280298      -279.7411
  58   2.0000     -10.280165      -279.7375
  59   2.0000     -10.279665      -279.7239
  60   2.0000     -10.279614      -279.7225
  61   2.0000     -10.278615      -279.6953
  62   2.0000     -10.278549      -279.6935
  63   2.0000     -10.277229      -279.6576
  64   2.0000     -10.277204      -279.6569
  65   2.0000     -10.277197      -279.6567
  66   2.0000     -10.276054      -279.6256
  67   2.0000     -10.266059      -279.3537
  68   2.0000     -10.262587      -279.2592
  69   2.0000     -10.249658      -278.9074
  70   2.0000     -10.242786      -278.7204
  71   2.0000      -8.782214      -238.9762
  72   2.0000      -8.117421      -220.8863
  73   2.0000      -8.115856      -220.8437
  74   2.0000      -8.058532      -219.2838
  75   2.0000      -6.618097      -180.0876
  76   2.0000      -6.604304      -179.7123
  77   2.0000      -6.603870      -179.7004
  78   2.0000      -6.089002      -165.6902
  79   2.0000      -6.087457      -165.6481
  80   2.0000      -6.081356      -165.4821
  81   2.0000      -6.079780      -165.4392
  82   2.0000      -6.078699      -165.4098
  83   2.0000      -6.077123      -165.3669
  84   2.0000      -6.027869      -164.0266
  85   2.0000      -6.023659      -163.9121
  86   2.0000      -6.020521      -163.8267
  87   2.0000      -2.733975       -74.3953
  88   2.0000      -2.730276       -74.2946
  89   2.0000      -2.729932       -74.2852
  90   2.0000      -2.718971       -73.9870
  91   2.0000      -2.718960       -73.9867
  92   2.0000      -1.207974       -32.8706
  93   2.0000      -1.141496       -31.0617
  94   2.0000      -1.140309       -31.0294
  95   2.0000      -1.137356       -30.9490
  96   2.0000      -1.133635       -30.8478
  97   2.0000      -1.117252       -30.4020
  98   2.0000      -1.068232       -29.0681
  99   2.0000      -1.024237       -27.8709
 100   2.0000      -1.005779       -27.3686
 101   2.0000      -0.999121       -27.1875
 102   2.0000      -0.998060       -27.1586
 103   2.0000      -0.996715       -27.1220
 104   2.0000      -0.990045       -26.9405
 105   2.0000      -0.986724       -26.8501
 106   2.0000      -0.972811       -26.4715
 107   2.0000      -0.969967       -26.3941
 108   2.0000      -0.956776       -26.0352
 109   2.0000      -0.929466       -25.2920
 110   2.0000      -0.922667       -25.1070
 111   2.0000      -0.914639       -24.8886
 112   2.0000      -0.911248       -24.7963
 113   2.0000      -0.904320       -24.6078
 114   2.0000      -0.893145       -24.3037
 115   2.0000      -0.888023       -24.1643
 116   2.0000      -0.878460       -23.9041
 117   2.0000      -0.876819       -23.8595
 118   2.0000      -0.869386       -23.6572
 119   2.0000      -0.857812       -23.3423
 120   2.0000      -0.846123       -23.0242
 121   2.0000      -0.842586       -22.9279
 122   2.0000      -0.839957       -22.8564
 123   2.0000      -0.834989       -22.7212
 124   2.0000      -0.834622       -22.7112
 125   2.0000      -0.830253       -22.5923
 126   2.0000      -0.819431       -22.2978
 127   2.0000      -0.808501       -22.0004
 128   2.0000      -0.790988       -21.5239
 129   2.0000      -0.774415       -21.0729
 130   2.0000      -0.771295       -20.9880
 131   2.0000      -0.771212       -20.9858
 132   2.0000      -0.768138       -20.9021
 133   2.0000      -0.759373       -20.6636
 134   2.0000      -0.741101       -20.1664
 135   2.0000      -0.734193       -19.9784
 136   2.0000      -0.714569       -19.4444
 137   2.0000      -0.708778       -19.2868
 138   2.0000      -0.706810       -19.2333
 139   2.0000      -0.700183       -19.0530
 140   2.0000      -0.697145       -18.9703
 141   2.0000      -0.692476       -18.8432
 142   2.0000      -0.692204       -18.8358
 143   2.0000      -0.687885       -18.7183
 144   2.0000      -0.681730       -18.5508
 145   2.0000      -0.679890       -18.5008
 146   2.0000      -0.678546       -18.4642
 147   2.0000      -0.668833       -18.1999
 148   2.0000      -0.662301       -18.0221
 149   2.0000      -0.643245       -17.5036
 150   2.0000      -0.642287       -17.4775
 151   2.0000      -0.630495       -17.1566
 152   2.0000      -0.630313       -17.1517
 153   2.0000      -0.620658       -16.8890
 154   2.0000      -0.617708       -16.8087
 155   2.0000      -0.616081       -16.7644
 156   2.0000      -0.606554       -16.5052
 157   2.0000      -0.602111       -16.3843
 158   2.0000      -0.599862       -16.3231
 159   2.0000      -0.597006       -16.2454
 160   2.0000      -0.590931       -16.0800
 161   2.0000      -0.589780       -16.0487
 162   2.0000      -0.583335       -15.8734
 163   2.0000      -0.571385       -15.5482
 164   2.0000      -0.571304       -15.5460
 165   2.0000      -0.567105       -15.4317
 166   2.0000      -0.564057       -15.3488
 167   2.0000      -0.556229       -15.1358
 168   2.0000      -0.551096       -14.9961
 169   2.0000      -0.549126       -14.9425
 170   2.0000      -0.546061       -14.8591
 171   2.0000      -0.545749       -14.8506
 172   2.0000      -0.542595       -14.7648
 173   2.0000      -0.541591       -14.7374
 174   2.0000      -0.538625       -14.6567
 175   2.0000      -0.536375       -14.5955
 176   2.0000      -0.532548       -14.4914
 177   2.0000      -0.529799       -14.4166
 178   2.0000      -0.528576       -14.3833
 179   2.0000      -0.524057       -14.2603
 180   2.0000      -0.522501       -14.2180
 181   2.0000      -0.521163       -14.1816
 182   2.0000      -0.518944       -14.1212
 183   2.0000      -0.517035       -14.0692
 184   2.0000      -0.510661       -13.8958
 185   2.0000      -0.509549       -13.8655
 186   2.0000      -0.507279       -13.8038
 187   2.0000      -0.505313       -13.7503
 188   2.0000      -0.504172       -13.7192
 189   2.0000      -0.500362       -13.6155
 190   2.0000      -0.496710       -13.5162
 191   2.0000      -0.492604       -13.4044
 192   2.0000      -0.491277       -13.3683
 193   2.0000      -0.486000       -13.2247
 194   2.0000      -0.485310       -13.2060
 195   2.0000      -0.480742       -13.0816
 196   2.0000      -0.478861       -13.0305
 197   2.0000      -0.476045       -12.9538
 198   2.0000      -0.473153       -12.8751
 199   2.0000      -0.469816       -12.7843
 200   2.0000      -0.469285       -12.7699
 201   2.0000      -0.464990       -12.6530
 202   2.0000      -0.463596       -12.6151
 203   2.0000      -0.460135       -12.5209
 204   2.0000      -0.457422       -12.4471
 205   2.0000      -0.452029       -12.3003
 206   2.0000      -0.450777       -12.2663
 207   2.0000      -0.447045       -12.1647
 208   2.0000      -0.445259       -12.1161
 209   2.0000      -0.443546       -12.0695
 210   2.0000      -0.439039       -11.9468
 211   2.0000      -0.436678       -11.8826
 212   2.0000      -0.434090       -11.8122
 213   2.0000      -0.432782       -11.7766
 214   2.0000      -0.431253       -11.7350
 215   2.0000      -0.430979       -11.7275
 216   2.0000      -0.428378       -11.6567
 217   2.0000      -0.427486       -11.6325
 218   2.0000      -0.423911       -11.5352
 219   2.0000      -0.415525       -11.3070
 220   2.0000      -0.413945       -11.2640
 221   2.0000      -0.413167       -11.2429
 222   2.0000      -0.410643       -11.1742
 223   2.0000      -0.405400       -11.0315
 224   2.0000      -0.400981       -10.9112
 225   2.0000      -0.395392       -10.7592
 226   2.0000      -0.394184       -10.7263
 227   2.0000      -0.392107       -10.6698
 228   2.0000      -0.390151       -10.6166
 229   2.0000      -0.383091       -10.4244
 230   2.0000      -0.379437       -10.3250
 231   2.0000      -0.377099       -10.2614
 232   2.0000      -0.372842       -10.1455
 233   2.0000      -0.369814       -10.0632
 234   2.0000      -0.363059        -9.8793
 235   2.0000      -0.362404        -9.8615
 236   2.0000      -0.358011        -9.7420
 237   2.0000      -0.355180        -9.6649
 238   2.0000      -0.351640        -9.5686
 239   2.0000      -0.350631        -9.5412
 240   2.0000      -0.350128        -9.5275
 241   2.0000      -0.348076        -9.4716
 242   2.0000      -0.343599        -9.3498
 243   2.0000      -0.338760        -9.2181
 244   2.0000      -0.329488        -8.9658
 245   2.0000      -0.327539        -8.9128
 246   2.0000      -0.322387        -8.7726
 247   2.0000      -0.320652        -8.7254
 248   2.0000      -0.310861        -8.4590
 249   2.0000      -0.286355        -7.7921
 250   2.0000      -0.279622        -7.6089
 251   2.0000      -0.252284        -6.8650
 252   0.0000      -0.091776        -2.4973
 253   0.0000      -0.069799        -1.8993
 254   0.0000      -0.054151        -1.4735
 255   0.0000      -0.053000        -1.4422
 256   0.0000      -0.042041        -1.1440

MULLIKEN ATOMIC CHARGES
-----------------------
   0 C :    0.151651
   1 O :   -0.130959
   2 C :   -0.029955
   3 C :    0.040115
   4 C :   -0.025829
   5 C :    0.050639
   6 C :   -0.003476
   7 C :   -0.010765
   8 Br:   -0.017399
   9 C :    0.292052
  10 C :   -0.336336
  11 C :   -0.186745
  12 N :    0.157857
  13 C :   -0.204365
  14 N :    0.162545
  15 C :   -0.084822
  16 C :   -0.029543
  17 C :    0.082070
  18 C :   -0.006671
  19 C :   -0.005186
  20 C :    0.113472
  21 C :   -0.048419
  22 C :    0.001426
  23 C :    0.093885
  24 C :    0.028093
  25 C :   -0.131766
  26 C :    0.077063
  27 C :    0.024534
  28 C :    0.045734
  29 C :    0.023488
  30 C :   -0.071409
  31 C :    0.001546
  32 C :    0.021231
  33 C :   -0.041325
  34 C :   -0.011062
  35 C :    0.025563
  36 C :   -0.146806
  37 S :    0.196055
  38 C :   -0.158367
  39 C :    0.053003
  40 C :    0.043791
  41 C :    0.077133
  42 C :   -0.004404
  43 C :   -0.041244
  44 C :   -0.107749
  45 C :    0.331499
  46 C :   -0.151493
  47 N :   -0.269603
  48 S :    0.474060
  49 N :   -0.248911
  50 C :   -0.097957
  51 C :    0.303276
  52 C :   -0.109816
  53 C :   -0.109221
  54 N :   -0.278172
  55 S :    0.475094
  56 N :   -0.249610
  57 C :    0.011578
  58 C :   -0.117996
  59 C :   -0.029479
  60 C :    0.174878
  61 O :   -0.148723
  62 N :   -0.127515
  63 C :    0.098755
  64 O :   -0.245499
  65 C :    0.216939
  66 O :   -0.129143
  67 H :    0.008442
  68 H :    0.007381
  69 H :    0.002458
  70 H :    0.033523
  71 H :   -0.027776
  72 H :   -0.028462
  73 H :   -0.014525
  74 H :    0.004275
  75 H :   -0.005899
  76 H :    0.031244
  77 H :    0.007856
  78 H :   -0.001765
  79 H :    0.011410
  80 H :    0.001561
  81 H :    0.019324
  82 H :    0.011475
  83 H :    0.022565
  84 H :   -0.025488
  85 H :   -0.017679
  86 H :   -0.029494
  87 H :   -0.006953
  88 H :   -0.007838
  89 H :    0.048082
  90 H :    0.028875
  91 H :    0.043527
  92 H :    0.030940
  93 H :    0.116942
  94 H :    0.034711
Sum of atomic charges:   -0.0000000

LOEWDIN ATOMIC CHARGES
----------------------
   0 C :    0.088411
   1 O :   -0.127593
   2 C :   -0.037874
   3 C :   -0.016318
   4 C :    0.009013
   5 C :   -0.011991
   6 C :   -0.097462
   7 C :    0.000514
   8 Br:    0.116927
   9 C :    0.074977
  10 C :   -0.134711
  11 C :   -0.018748
  12 N :   -0.048403
  13 C :   -0.025038
  14 N :   -0.045644
  15 C :   -0.101634
  16 C :    0.090590
  17 C :   -0.044910
  18 C :    0.022233
  19 C :    0.000304
  20 C :    0.009684
  21 C :   -0.024225
  22 C :    0.006922
  23 C :   -0.020369
  24 C :    0.012679
  25 C :   -0.034284
  26 C :   -0.008872
  27 C :   -0.064941
  28 C :   -0.014523
  29 C :   -0.056770
  30 C :   -0.004830
  31 C :   -0.034635
  32 C :   -0.003635
  33 C :   -0.011735
  34 C :   -0.013389
  35 C :   -0.059520
  36 C :   -0.180070
  37 S :    0.471542
  38 C :   -0.187150
  39 C :   -0.029907
  40 C :   -0.038296
  41 C :   -0.031455
  42 C :   -0.040367
  43 C :   -0.040731
  44 C :   -0.001528
  45 C :   -0.025568
  46 C :   -0.055947
  47 N :   -0.266461
  48 S :    0.603821
  49 N :   -0.255872
  50 C :   -0.057410
  51 C :   -0.019361
  52 C :   -0.058276
  53 C :   -0.055033
  54 N :   -0.270125
  55 S :    0.604988
  56 N :   -0.255901
  57 C :    0.095940
  58 C :   -0.139734
  59 C :   -0.125178
  60 C :    0.082687
  61 O :   -0.163331
  62 N :    0.020447
  63 C :    0.129484
  64 O :   -0.053957
  65 C :    0.106629
  66 O :   -0.134298
  67 H :    0.043140
  68 H :    0.040969
  69 H :    0.043924
  70 H :    0.046630
  71 H :    0.028578
  72 H :    0.029643
  73 H :    0.031982
  74 H :    0.026553
  75 H :    0.018909
  76 H :    0.024974
  77 H :    0.027358
  78 H :    0.017740
  79 H :    0.021445
  80 H :    0.021707
  81 H :    0.024800
  82 H :    0.025248
  83 H :    0.025090
  84 H :    0.031412
  85 H :    0.033528
  86 H :    0.029189
  87 H :    0.036302
  88 H :    0.035728
  89 H :    0.045002
  90 H :    0.038669
  91 H :    0.065467
  92 H :    0.073061
  93 H :    0.076445
  94 H :    0.036728

  Mayer bond orders larger than 0.100000
B(  0-C ,  1-O ) :   2.1742 B(  0-C ,  2-C ) :   0.9435 B(  0-C , 15-C ) :   0.9471
B(  2-C ,  3-C ) :   1.3300 B(  2-C ,  7-C ) :   1.3786 B(  3-C ,  4-C ) :   1.3585
B(  3-C ,  9-C ) :   0.9994 B(  4-C ,  5-C ) :   1.3871 B(  4-C , 67-H ) :   0.9843
B(  5-C ,  6-C ) :   1.3863 B(  5-C , 68-H ) :   0.9840 B(  6-C ,  7-C ) :   1.3391
B(  6-C ,  8-Br) :   0.9930 B(  7-C , 69-H ) :   1.0074 B(  9-C , 10-C ) :   1.6532
B(  9-C , 15-C ) :   1.0545 B( 10-C , 11-C ) :   1.1380 B( 10-C , 13-C ) :   1.1385
B( 11-C , 12-N ) :   2.9791 B( 13-C , 14-N ) :   2.9925 B( 15-C , 16-C ) :   1.6122
B( 16-C , 17-C ) :   1.0953 B( 16-C , 70-H ) :   0.9501 B( 17-C , 18-C ) :   1.2942
B( 17-C , 22-C ) :   1.2986 B( 18-C , 19-C ) :   1.4396 B( 18-C , 71-H ) :   0.9865
B( 19-C , 20-C ) :   1.3621 B( 19-C , 25-C ) :   0.9173 B( 20-C , 21-C ) :   1.3289
B( 20-C , 23-C ) :   1.0066 B( 21-C , 22-C ) :   1.3932 B( 21-C , 72-H ) :   0.9928
B( 22-C , 73-H ) :   0.9947 B( 23-C , 24-C ) :   1.3692 B( 23-C , 33-C ) :   1.3326
B( 24-C , 25-C ) :   0.9249 B( 24-C , 30-C ) :   1.3814 B( 25-C , 26-C ) :   1.0153
B( 25-C , 28-C ) :   1.0295 B( 26-C , 27-C ) :   1.1122 B( 26-C , 74-H ) :   0.9384
B( 26-C , 75-H ) :   0.9365 B( 27-C , 76-H ) :   0.9528 B( 27-C , 77-H ) :   0.9546
B( 27-C , 78-H ) :   0.9587 B( 28-C , 29-C ) :   1.1020 B( 28-C , 79-H ) :   0.9395
B( 28-C , 80-H ) :   0.9402 B( 29-C , 81-H ) :   0.9658 B( 29-C , 82-H ) :   0.9648
B( 29-C , 83-H ) :   0.9630 B( 30-C , 31-C ) :   1.3120 B( 30-C , 84-H ) :   1.0097
B( 31-C , 32-C ) :   1.3530 B( 31-C , 34-C ) :   0.8974 B( 32-C , 33-C ) :   1.3824
B( 32-C , 85-H ) :   0.9919 B( 33-C , 86-H ) :   0.9913 B( 34-C , 35-C ) :   2.3677
B( 35-C , 36-C ) :   0.9526 B( 36-C , 37-S ) :   1.1196 B( 36-C , 38-C ) :   0.1083
B( 36-C , 40-C ) :   1.5082 B( 37-S , 38-C ) :   1.1106 B( 38-C , 39-C ) :   1.5049
B( 38-C , 41-C ) :   0.9612 B( 39-C , 40-C ) :   1.2666 B( 39-C , 87-H ) :   1.0006
B( 40-C , 88-H ) :   1.0002 B( 41-C , 42-C ) :   2.2988 B( 42-C , 43-C ) :   0.9655
B( 43-C , 44-C ) :   1.7868 B( 43-C , 89-H ) :   0.9354 B( 44-C , 45-C ) :   1.0140
B( 44-C , 90-H ) :   0.9868 B( 45-C , 46-C ) :   0.9689 B( 45-C , 53-C ) :   0.9763
B( 45-C , 91-H ) :   0.8076 B( 46-C , 47-N ) :   1.6539 B( 46-C , 50-C ) :   1.2206
B( 47-N , 48-S ) :   1.2091 B( 47-N , 49-N ) :   0.1233 B( 48-S , 49-N ) :   1.2209
B( 49-N , 50-C ) :   1.6945 B( 50-C , 51-C ) :   0.9808 B( 51-C , 52-C ) :   0.9796
B( 51-C , 57-C ) :   1.0266 B( 51-C , 92-H ) :   0.8305 B( 52-C , 53-C ) :   1.2280
B( 52-C , 56-N ) :   1.6955 B( 53-C , 54-N ) :   1.6632 B( 54-N , 55-S ) :   1.2113
B( 54-N , 56-N ) :   0.1235 B( 55-S , 56-N ) :   1.2218 B( 57-C , 58-C ) :   1.5687
B( 57-C , 62-N ) :   1.2220 B( 58-C , 59-C ) :   1.1289 B( 58-C , 65-C ) :   0.9699
B( 59-C , 60-C ) :   0.9101 B( 59-C , 63-C ) :   1.5734 B( 60-C , 61-O ) :   2.2419
B( 60-C , 62-N ) :   1.0421 B( 62-N , 93-H ) :   0.8931 B( 63-C , 64-O ) :   1.1457
B( 63-C , 94-H ) :   1.0007 B( 64-O , 65-C ) :   0.9905 B( 65-C , 66-O ) :   2.2587

-----------------------------------------------------------------------------
         ABSORPTION SPECTRUM VIA TRANSITION ELECTRIC DIPOLE MOMENTS
-----------------------------------------------------------------------------
State   Energy  Wavelength   fosc         T2         TX        TY        TZ
        (cm-1)    (nm)                  (au**2)     (au)      (au)      (au)
-----------------------------------------------------------------------------
   0   21938.3    455.8   1.574815212  23.63210   1.07879   4.73135   0.28746
   1   26498.6    377.4   0.114105602   1.41762  -0.19962  -1.13506   0.29902
   2   27795.3    359.8   0.342731296   4.05937  -0.62385   1.90184  -0.23064
   3   29486.1    339.1   0.796626858   8.89432  -1.00648   2.80241   0.16677
   4   30444.7    328.5   0.086408982   0.93438   0.51741   0.70954   0.40399
   5   30461.8    328.3   0.000624152   0.00675  -0.04532  -0.05998  -0.03307
   6   31168.9    320.8   0.188288186   1.98874  -1.22693  -0.17822   0.67203
   7   31444.7    318.0   0.023556093   0.24662  -0.30498  -0.01502   0.39164
   8   31576.2    316.7   0.064409913   0.67153  -0.74013  -0.34396   0.07374
   9   32251.6    310.1   0.322273119   3.28964  -1.16394   0.29065   1.36030
  10   32794.5    304.9   0.103010226   1.03408  -0.19194  -0.91264   0.40537
  11   34051.8    293.7   0.183003735   1.76927   0.95043  -0.76987  -0.52273
  12   34246.6    292.0   0.418223774   4.02038   1.55106  -0.15773  -1.26084
  13   34356.2    291.1   0.000325150   0.00312  -0.01328  -0.03787   0.03880
  14   34653.9    288.6   0.004469892   0.04246  -0.20442   0.01409  -0.02187
  15   34670.4    288.4   0.055804600   0.52989  -0.46210   0.37044   0.42324
  16   35945.0    278.2   0.075556837   0.69201  -0.78780  -0.23834   0.12074
  17   36218.4    276.1   0.005560228   0.05054  -0.14763  -0.04530   0.16339
  18   37159.3    269.1   0.058667955   0.51977  -0.37815  -0.61229   0.04325
  19   37964.6    263.4   0.100055120   0.86763  -0.83958  -0.18505   0.35846
  20   38221.6    261.6   0.045318270   0.39034  -0.07353   0.42788   0.44927
  21   38330.5    260.9   0.037834618   0.32495   0.34894  -0.23001  -0.38767
  22   38477.2    259.9   0.123308698   1.05503   0.08385  -1.00028  -0.21780
  23   38734.0    258.2   0.010211045   0.08679  -0.18427   0.03157  -0.22767
  24   39190.0    255.2   0.045444919   0.38176   0.32136   0.48738   0.20235

FINAL SINGLE POINT ENERGY     -6447.187884070095

DIPOLE MOMENT
-------------
                                X             Y             Z
Electronic contribution:     70.78149      56.92779     -31.86688
Nuclear contribution   :    -71.44724     -58.05183      31.92045
                        -----------------------------------------
Total Dipole Moment    :     -0.66575      -1.12404       0.05357
                        -----------------------------------------
Magnitude (a.u.)       :      1.30750
Magnitude (Debye)      :      3.32340

Rotational constants in cm-1:     0.001671     0.000193     0.000181
Rotational constants in MHz :    50.093300     5.782354     5.412462

                             ****ORCA TERMINATED NORMALLY****
TOTAL RUN TIME: 0 days 0 hours 8 minutes 28 seconds 637 msec
