                         Program Version 4.2.0 -  RELEASE  -
|  1> # ORCA input file
|  2> # SCF done       -199.531701435180          0.000617278679
|  3> ! CAM-B3LYP def2-SVP def2/J RIJCOSX Grid4 TightSCF
|  4> %maxcore 5000
|  5> %tddft
|  6>     Mode sTDDFT
|  7>     Ethresh 5.0
|  8>     maxcore 5000
|  9> end
| 10>
| 11> %pal
| 12>   nprocs 6
| 13>   end
| 14> * xyz 0 1
| 15>    C       -6.78211        -0.49748        -0.59842
| 16>    O       -7.32981        -1.57520        -0.57280
| 17>    C       -7.32386         0.74805        -1.18653
| 18>    C       -6.52480         1.83974        -0.80473
| 19>    C       -6.85903         3.11631        -1.23782
| 20>    C       -7.97736         3.27874        -2.04009
| 21>    C       -8.75492         2.18525        -2.40029
| 22>    C       -8.44509         0.90072        -1.97535
| 23>   Br      -10.27730         2.45788        -3.50235
| 24>    C       -5.42670         1.35763         0.02846
| 25>    C       -4.48158         2.14531         0.62822
| 26>    C       -4.44272         3.55316         0.52869
| 27>    N       -4.35316         4.69659         0.48806
| 28>    C       -3.42767         1.68408         1.44619
| 29>    N       -2.54606         1.39325         2.12204
| 30>    C       -5.51887        -0.09373         0.07468
| 31>    C       -4.65647        -0.94627         0.68437
| 32>    C       -4.64234        -2.37308         0.52946
| 33>    C       -4.28326        -3.20407         1.58019
| 34>    C       -4.27971        -4.59307         1.47149
| 35>    C       -4.58257        -5.25998         0.29476
| 36>    C       -4.88314        -4.44263        -0.82474
| 37>    C       -4.91648        -3.00815        -0.70836
| 38>    N       -5.16069        -2.41661        -1.87528
| 39>    S       -5.38720        -3.54747        -2.99127
| 40>    N       -5.15150        -4.83795        -2.07050
| 41>    C       -4.54410        -6.71607         0.21288
| 42>    C       -4.87820        -7.49123         1.33212
| 43>    C       -4.77647        -8.85948         1.26290
| 44>    C       -4.33530        -9.48293         0.08464
| 45>    C       -4.02215        -8.72580        -1.03447
| 46>    C       -4.13191        -7.35135        -0.96313
| 47>    C       -4.30667       -10.91267         0.30590
| 48>    C       -4.73350       -11.17521         1.62014
| 49>    C       -5.02392        -9.88319         2.35172
| 50>    C       -3.99064        -9.60566         3.46977
| 51>    C       -3.93010       -10.62710         4.59772
| 52>    C       -6.46384        -9.82835         2.88316
| 53>    C       -7.49764        -9.96322         1.77103
| 54>    C       -4.84249       -12.46997         2.06849
| 55>    C       -4.46811       -13.52779         1.22585
| 56>    C       -4.02541       -13.24665        -0.07144
| 57>    C       -3.95554       -11.95207        -0.54252
| 58>    C       -4.50078       -14.89380         1.69997
| 59>    C       -5.03704       -15.38166         2.85808
| 60>    C       -4.83286       -16.76922         3.04051
| 61>    C       -4.11616       -17.33991         1.97278
| 62>    S       -3.72977       -16.16033         0.76078
| 63>    C       -3.76649       -18.68102         1.91059
| 64>    O       -3.10173       -19.05829         0.79089
| 65>    C       -3.14937       -20.38564         0.31645
| 66>    C       -4.11316       -19.46863         3.02919
| 67>    C       -4.87601       -18.89657         4.10279
| 68>    C       -5.26339       -17.56789         4.12339
| 69>    O       -5.99029       -16.90162         5.05560
| 70>    C       -6.61486       -17.59162         6.11316
| 71>    S       -5.15056       -20.09324         5.35382
| 72>    C       -4.25489       -21.31021         4.47390
| 73>    C       -3.77925       -20.81269         3.28396
| 74>    C       -4.02953       -22.56212         5.08357
| 75>    C       -3.53658       -23.72334         4.56005
| 76>    C       -2.96677       -24.73111         5.49340
| 77>    O       -3.07912       -24.75678         6.69617
| 78>    C       -2.19203       -25.65688         4.63495
| 79>    C       -2.38239       -25.31184         3.28462
| 80>    C       -3.33047       -24.20037         3.21332
| 81>    C       -4.05763       -23.86168         2.09932
| 82>    C       -3.83041       -24.39220         0.81442
| 83>    N       -3.66436       -24.75844        -0.26110
| 84>    C       -5.15943       -22.98534         2.12756
| 85>    N       -6.07467       -22.29240         2.10444
| 86>    C       -1.72702       -26.02569         2.29285
| 87>    C       -0.89761       -27.07363         2.66377
| 88>    C       -0.73361       -27.40612         4.00202
| 89>    C       -1.37700       -26.70312         5.01273
| 90>   Br        0.40443       -28.85652         4.46002
| 91>    H       -6.27255         3.97897        -0.96801
| 92>    H       -8.24905         4.26363        -2.38777
| 93>    H       -9.04722         0.04827        -2.24903
| 94>    H       -3.89727        -0.54723         1.34520
| 95>    H       -4.03372        -2.75536         2.53093
| 96>    H       -3.99850        -5.16988         2.33955
| 97>    H       -5.24063        -7.01183         2.22933
| 98>    H       -3.68959        -9.19964        -1.94552
| 99>    H       -3.88155        -6.74813        -1.82060
|100>    H       -4.22004        -8.62475         3.89241
|101>    H       -3.00366        -9.54093         3.00387
|102>    H       -4.89829       -10.74934         5.07597
|103>    H       -3.22404       -10.28552         5.35179
|104>    H       -3.58929       -11.59149         4.23179
|105>    H       -6.61173        -8.88009         3.40432
|106>    H       -6.60981       -10.63425         3.60350
|107>    H       -7.39669        -9.15475         1.05045
|108>    H       -8.50191        -9.92979         2.18711
|109>    H       -7.37364       -10.90765         1.24556
|110>    H       -5.20570       -12.68274         3.06039
|111>    H       -3.74328       -14.06817        -0.71360
|112>    H       -3.62951       -11.75382        -1.55212
|113>    H       -5.57115       -14.79269         3.57963
|114>    H       -4.10151       -20.86680         0.55011
|115>    H       -2.31780       -20.97768         0.71169
|116>    H       -3.03819       -20.31649        -0.76619
|117>    H       -7.26240       -18.39182         5.74678
|118>    H       -7.22189       -16.84361         6.62191
|119>    H       -5.88693       -18.00135         6.81811
|120>    H       -3.12543       -21.39124         2.65965
|121>    H       -4.19290       -22.59236         6.15712
|122>    H       -1.83898       -25.77939         1.24935
|123>    H       -0.37508       -27.63762         1.90651
|124>    H       -1.25096       -26.95807         6.05347
|125> *
|126>
|127>                          ****END OF INPUT****

CARTESIAN COORDINATES (ANGSTROEM)
---------------------------------
  C     -6.782110   -0.497480   -0.598420
  O     -7.329810   -1.575200   -0.572800
  C     -7.323860    0.748050   -1.186530
  C     -6.524800    1.839740   -0.804730
  C     -6.859030    3.116310   -1.237820
  C     -7.977360    3.278740   -2.040090
  C     -8.754920    2.185250   -2.400290
  C     -8.445090    0.900720   -1.975350
  Br   -10.277300    2.457880   -3.502350
  C     -5.426700    1.357630    0.028460
  C     -4.481580    2.145310    0.628220
  C     -4.442720    3.553160    0.528690
  N     -4.353160    4.696590    0.488060
  C     -3.427670    1.684080    1.446190
  N     -2.546060    1.393250    2.122040
  C     -5.518870   -0.093730    0.074680
  C     -4.656470   -0.946270    0.684370
  C     -4.642340   -2.373080    0.529460
  C     -4.283260   -3.204070    1.580190
  C     -4.279710   -4.593070    1.471490
  C     -4.582570   -5.259980    0.294760
  C     -4.883140   -4.442630   -0.824740
  C     -4.916480   -3.008150   -0.708360
  N     -5.160690   -2.416610   -1.875280
  S     -5.387200   -3.547470   -2.991270
  N     -5.151500   -4.837950   -2.070500
  C     -4.544100   -6.716070    0.212880
  C     -4.878200   -7.491230    1.332120
  C     -4.776470   -8.859480    1.262900
  C     -4.335300   -9.482930    0.084640
  C     -4.022150   -8.725800   -1.034470
  C     -4.131910   -7.351350   -0.963130
  C     -4.306670  -10.912670    0.305900
  C     -4.733500  -11.175210    1.620140
  C     -5.023920   -9.883190    2.351720
  C     -3.990640   -9.605660    3.469770
  C     -3.930100  -10.627100    4.597720
  C     -6.463840   -9.828350    2.883160
  C     -7.497640   -9.963220    1.771030
  C     -4.842490  -12.469970    2.068490
  C     -4.468110  -13.527790    1.225850
  C     -4.025410  -13.246650   -0.071440
  C     -3.955540  -11.952070   -0.542520
  C     -4.500780  -14.893800    1.699970
  C     -5.037040  -15.381660    2.858080
  C     -4.832860  -16.769220    3.040510
  C     -4.116160  -17.339910    1.972780
  S     -3.729770  -16.160330    0.760780
  C     -3.766490  -18.681020    1.910590
  O     -3.101730  -19.058290    0.790890
  C     -3.149370  -20.385640    0.316450
  C     -4.113160  -19.468630    3.029190
  C     -4.876010  -18.896570    4.102790
  C     -5.263390  -17.567890    4.123390
  O     -5.990290  -16.901620    5.055600
  C     -6.614860  -17.591620    6.113160
  S     -5.150560  -20.093240    5.353820
  C     -4.254890  -21.310210    4.473900
  C     -3.779250  -20.812690    3.283960
  C     -4.029530  -22.562120    5.083570
  C     -3.536580  -23.723340    4.560050
  C     -2.966770  -24.731110    5.493400
  O     -3.079120  -24.756780    6.696170
  C     -2.192030  -25.656880    4.634950
  C     -2.382390  -25.311840    3.284620
  C     -3.330470  -24.200370    3.213320
  C     -4.057630  -23.861680    2.099320
  C     -3.830410  -24.392200    0.814420
  N     -3.664360  -24.758440   -0.261100
  C     -5.159430  -22.985340    2.127560
  N     -6.074670  -22.292400    2.104440
  C     -1.727020  -26.025690    2.292850
  C     -0.897610  -27.073630    2.663770
  C     -0.733610  -27.406120    4.002020
  C     -1.377000  -26.703120    5.012730
  Br     0.404430  -28.856520    4.460020
  H     -6.272550    3.978970   -0.968010
  H     -8.249050    4.263630   -2.387770
  H     -9.047220    0.048270   -2.249030
  H     -3.897270   -0.547230    1.345200
  H     -4.033720   -2.755360    2.530930
  H     -3.998500   -5.169880    2.339550
  H     -5.240630   -7.011830    2.229330
  H     -3.689590   -9.199640   -1.945520
  H     -3.881550   -6.748130   -1.820600
  H     -4.220040   -8.624750    3.892410
  H     -3.003660   -9.540930    3.003870
  H     -4.898290  -10.749340    5.075970
  H     -3.224040  -10.285520    5.351790
  H     -3.589290  -11.591490    4.231790
  H     -6.611730   -8.880090    3.404320
  H     -6.609810  -10.634250    3.603500
  H     -7.396690   -9.154750    1.050450
  H     -8.501910   -9.929790    2.187110
  H     -7.373640  -10.907650    1.245560
  H     -5.205700  -12.682740    3.060390
  H     -3.743280  -14.068170   -0.713600
  H     -3.629510  -11.753820   -1.552120
  H     -5.571150  -14.792690    3.579630
  H     -4.101510  -20.866800    0.550110
  H     -2.317800  -20.977680    0.711690
  H     -3.038190  -20.316490   -0.766190
  H     -7.262400  -18.391820    5.746780
  H     -7.221890  -16.843610    6.621910
  H     -5.886930  -18.001350    6.818110
  H     -3.125430  -21.391240    2.659650
  H     -4.192900  -22.592360    6.157120
  H     -1.838980  -25.779390    1.249350
  H     -0.375080  -27.637620    1.906510
  H     -1.250960  -26.958070    6.053470

 Total Charge           Charge          ....    0
 Multiplicity           Mult            ....    1
 Number of Electrons    NEL             ....  592
 Basis Dimension        Dim             .... 1282

ORBITAL ENERGIES
----------------

  NO   OCC          E(Eh)            E(eV)
   0   2.0000    -482.874493    -13139.6830
   1   2.0000    -482.873671    -13139.6606
   2   2.0000     -89.026749     -2422.5410
   3   2.0000     -88.956891     -2420.6401
   4   2.0000     -88.948363     -2420.4080
   5   2.0000     -62.552202     -1702.1320
   6   2.0000     -62.551405     -1702.1103
   7   2.0000     -56.386044     -1534.3423
   8   2.0000     -56.385241     -1534.3204
   9   2.0000     -56.383510     -1534.2733
  10   2.0000     -56.383507     -1534.2732
  11   2.0000     -56.382720     -1534.2518
  12   2.0000     -56.382710     -1534.2515
  13   2.0000     -19.254718      -523.9475
  14   2.0000     -19.251905      -523.8710
  15   2.0000     -19.221302      -523.0382
  16   2.0000     -19.218083      -522.9506
  17   2.0000     -14.440577      -392.9481
  18   2.0000     -14.437900      -392.8752
  19   2.0000     -14.422582      -392.4584
  20   2.0000     -14.421942      -392.4410
  21   2.0000     -14.421189      -392.4205
  22   2.0000     -14.418560      -392.3490
  23   2.0000     -10.372039      -282.2375
  24   2.0000     -10.369525      -282.1691
  25   2.0000     -10.349234      -281.6170
  26   2.0000     -10.348651      -281.6011
  27   2.0000     -10.347940      -281.5817
  28   2.0000     -10.347796      -281.5778
  29   2.0000     -10.347035      -281.5571
  30   2.0000     -10.346674      -281.5473
  31   2.0000     -10.345870      -281.5254
  32   2.0000     -10.342117      -281.4233
  33   2.0000     -10.328568      -281.0546
  34   2.0000     -10.326945      -281.0104
  35   2.0000     -10.326066      -280.9865
  36   2.0000     -10.325771      -280.9785
  37   2.0000     -10.325454      -280.9699
  38   2.0000     -10.325291      -280.9654
  39   2.0000     -10.323522      -280.9173
  40   2.0000     -10.322579      -280.8917
  41   2.0000     -10.321213      -280.8545
  42   2.0000     -10.318576      -280.7827
  43   2.0000     -10.314908      -280.6829
  44   2.0000     -10.314722      -280.6779
  45   2.0000     -10.313378      -280.6413
  46   2.0000     -10.312004      -280.6039
  47   2.0000     -10.307741      -280.4879
  48   2.0000     -10.307426      -280.4793
  49   2.0000     -10.306717      -280.4600
  50   2.0000     -10.306673      -280.4588
  51   2.0000     -10.305513      -280.4273
  52   2.0000     -10.305145      -280.4173
  53   2.0000     -10.305032      -280.4142
  54   2.0000     -10.304037      -280.3871
  55   2.0000     -10.303167      -280.3634
  56   2.0000     -10.302953      -280.3576
  57   2.0000     -10.302023      -280.3323
  58   2.0000     -10.301849      -280.3276
  59   2.0000     -10.301337      -280.3136
  60   2.0000     -10.301092      -280.3070
  61   2.0000     -10.300111      -280.2803
  62   2.0000     -10.296931      -280.1937
  63   2.0000     -10.296878      -280.1923
  64   2.0000     -10.290656      -280.0230
  65   2.0000     -10.287632      -279.9407
  66   2.0000     -10.285086      -279.8714
  67   2.0000     -10.284895      -279.8662
  68   2.0000     -10.282681      -279.8060
  69   2.0000     -10.275608      -279.6135
  70   2.0000     -10.275364      -279.6069
  71   2.0000     -10.275097      -279.5996
  72   2.0000     -10.274828      -279.5923
  73   2.0000     -10.274579      -279.5855
  74   2.0000     -10.274417      -279.5811
  75   2.0000     -10.273324      -279.5513
  76   2.0000     -10.272644      -279.5328
  77   2.0000     -10.271842      -279.5110
  78   2.0000     -10.271381      -279.4985
  79   2.0000     -10.269928      -279.4590
  80   2.0000     -10.267658      -279.3972
  81   2.0000     -10.266198      -279.3574
  82   2.0000     -10.255062      -279.0544
  83   2.0000     -10.248681      -278.8808
  84   2.0000      -8.781483      -238.9563
  85   2.0000      -8.780698      -238.9349
  86   2.0000      -8.118530      -220.9164
  87   2.0000      -8.052116      -219.1092
  88   2.0000      -8.043436      -218.8730
  89   2.0000      -6.617361      -180.0676
  90   2.0000      -6.616543      -180.0453
  91   2.0000      -6.603574      -179.6924
  92   2.0000      -6.603142      -179.6806
  93   2.0000      -6.602809      -179.6716
  94   2.0000      -6.602372      -179.6597
  95   2.0000      -6.089705      -165.7093
  96   2.0000      -6.081924      -165.4976
  97   2.0000      -6.081053      -165.4739
  98   2.0000      -6.022015      -163.8674
  99   2.0000      -6.017769      -163.7518
 100   2.0000      -6.013078      -163.6242
 101   2.0000      -6.013049      -163.6234
 102   2.0000      -6.008942      -163.5116
 103   2.0000      -6.004871      -163.4008
 104   2.0000      -2.733251       -74.3755
 105   2.0000      -2.732462       -74.3541
 106   2.0000      -2.729517       -74.2739
 107   2.0000      -2.729213       -74.2657
 108   2.0000      -2.728746       -74.2530
 109   2.0000      -2.728376       -74.2429
 110   2.0000      -2.718247       -73.9673
 111   2.0000      -2.718231       -73.9668
 112   2.0000      -2.717477       -73.9463
 113   2.0000      -2.717467       -73.9460
 114   2.0000      -1.158423       -31.5223
 115   2.0000      -1.156132       -31.4600
 116   2.0000      -1.136826       -30.9346
 117   2.0000      -1.135094       -30.8875
 118   2.0000      -1.125536       -30.6274
 119   2.0000      -1.026227       -27.9251
 120   2.0000      -1.023141       -27.8411
 121   2.0000      -1.006434       -27.3865
 122   2.0000      -1.004336       -27.3294
 123   2.0000      -1.003687       -27.3117
 124   2.0000      -0.999387       -27.1947
 125   2.0000      -0.998039       -27.1580
 126   2.0000      -0.992741       -27.0139
 127   2.0000      -0.983860       -26.7722
 128   2.0000      -0.982079       -26.7237
 129   2.0000      -0.975294       -26.5391
 130   2.0000      -0.967545       -26.3282
 131   2.0000      -0.964161       -26.2362
 132   2.0000      -0.946054       -25.7434
 133   2.0000      -0.926094       -25.2003
 134   2.0000      -0.915998       -24.9256
 135   2.0000      -0.914343       -24.8805
 136   2.0000      -0.913127       -24.8474
 137   2.0000      -0.905853       -24.6495
 138   2.0000      -0.898506       -24.4496
 139   2.0000      -0.888333       -24.1728
 140   2.0000      -0.880342       -23.9553
 141   2.0000      -0.878483       -23.9047
 142   2.0000      -0.871993       -23.7281
 143   2.0000      -0.864557       -23.5258
 144   2.0000      -0.859972       -23.4010
 145   2.0000      -0.856328       -23.3019
 146   2.0000      -0.848188       -23.0804
 147   2.0000      -0.842109       -22.9149
 148   2.0000      -0.839422       -22.8418
 149   2.0000      -0.837178       -22.7808
 150   2.0000      -0.834226       -22.7004
 151   2.0000      -0.822074       -22.3698
 152   2.0000      -0.813078       -22.1250
 153   2.0000      -0.806477       -21.9454
 154   2.0000      -0.795650       -21.6507
 155   2.0000      -0.782394       -21.2900
 156   2.0000      -0.772199       -21.0126
 157   2.0000      -0.770839       -20.9756
 158   2.0000      -0.768508       -20.9122
 159   2.0000      -0.767452       -20.8834
 160   2.0000      -0.750478       -20.4215
 161   2.0000      -0.745700       -20.2915
 162   2.0000      -0.733727       -19.9657
 163   2.0000      -0.720697       -19.6112
 164   2.0000      -0.713473       -19.4146
 165   2.0000      -0.711238       -19.3538
 166   2.0000      -0.706903       -19.2358
 167   2.0000      -0.698746       -19.0139
 168   2.0000      -0.695292       -18.9199
 169   2.0000      -0.693449       -18.8697
 170   2.0000      -0.688884       -18.7455
 171   2.0000      -0.688061       -18.7231
 172   2.0000      -0.680534       -18.5183
 173   2.0000      -0.677587       -18.4381
 174   2.0000      -0.672214       -18.2919
 175   2.0000      -0.665734       -18.1156
 176   2.0000      -0.658892       -17.9294
 177   2.0000      -0.654527       -17.8106
 178   2.0000      -0.643427       -17.5085
 179   2.0000      -0.637207       -17.3393
 180   2.0000      -0.630479       -17.1562
 181   2.0000      -0.623021       -16.9533
 182   2.0000      -0.619969       -16.8702
 183   2.0000      -0.616470       -16.7750
 184   2.0000      -0.611233       -16.6325
 185   2.0000      -0.607006       -16.5175
 186   2.0000      -0.602336       -16.3904
 187   2.0000      -0.597660       -16.2632
 188   2.0000      -0.593988       -16.1632
 189   2.0000      -0.591247       -16.0886
 190   2.0000      -0.589481       -16.0406
 191   2.0000      -0.579620       -15.7723
 192   2.0000      -0.576944       -15.6994
 193   2.0000      -0.573847       -15.6152
 194   2.0000      -0.567041       -15.4300
 195   2.0000      -0.566256       -15.4086
 196   2.0000      -0.563038       -15.3211
 197   2.0000      -0.558675       -15.2023
 198   2.0000      -0.555368       -15.1123
 199   2.0000      -0.551916       -15.0184
 200   2.0000      -0.550262       -14.9734
 201   2.0000      -0.548684       -14.9304
 202   2.0000      -0.545930       -14.8555
 203   2.0000      -0.543505       -14.7895
 204   2.0000      -0.542322       -14.7573
 205   2.0000      -0.538619       -14.6566
 206   2.0000      -0.538336       -14.6489
 207   2.0000      -0.535726       -14.5778
 208   2.0000      -0.534139       -14.5347
 209   2.0000      -0.532904       -14.5011
 210   2.0000      -0.529208       -14.4005
 211   2.0000      -0.525937       -14.3115
 212   2.0000      -0.525085       -14.2883
 213   2.0000      -0.522027       -14.2051
 214   2.0000      -0.521605       -14.1936
 215   2.0000      -0.518448       -14.1077
 216   2.0000      -0.516258       -14.0481
 217   2.0000      -0.513264       -13.9666
 218   2.0000      -0.510537       -13.8924
 219   2.0000      -0.505273       -13.7492
 220   2.0000      -0.502373       -13.6703
 221   2.0000      -0.500583       -13.6216
 222   2.0000      -0.500010       -13.6060
 223   2.0000      -0.496171       -13.5015
 224   2.0000      -0.490104       -13.3364
 225   2.0000      -0.488731       -13.2990
 226   2.0000      -0.485536       -13.2121
 227   2.0000      -0.482294       -13.1239
 228   2.0000      -0.478222       -13.0131
 229   2.0000      -0.477830       -13.0024
 230   2.0000      -0.475650       -12.9431
 231   2.0000      -0.472513       -12.8577
 232   2.0000      -0.469656       -12.7800
 233   2.0000      -0.467698       -12.7267
 234   2.0000      -0.467377       -12.7180
 235   2.0000      -0.466660       -12.6985
 236   2.0000      -0.464877       -12.6499
 237   2.0000      -0.461836       -12.5672
 238   2.0000      -0.460455       -12.5296
 239   2.0000      -0.458295       -12.4708
 240   2.0000      -0.456057       -12.4100
 241   2.0000      -0.454271       -12.3613
 242   2.0000      -0.453825       -12.3492
 243   2.0000      -0.452529       -12.3139
 244   2.0000      -0.452277       -12.3071
 245   2.0000      -0.449446       -12.2301
 246   2.0000      -0.448368       -12.2007
 247   2.0000      -0.447418       -12.1749
 248   2.0000      -0.443470       -12.0674
 249   2.0000      -0.442848       -12.0505
 250   2.0000      -0.437012       -11.8917
 251   2.0000      -0.434406       -11.8208
 252   2.0000      -0.433261       -11.7896
 253   2.0000      -0.432685       -11.7739
 254   2.0000      -0.431335       -11.7372
 255   2.0000      -0.429717       -11.6932
 256   2.0000      -0.429312       -11.6822
 257   2.0000      -0.428002       -11.6465
 258   2.0000      -0.425797       -11.5865
 259   2.0000      -0.425692       -11.5837
 260   2.0000      -0.422035       -11.4842
 261   2.0000      -0.420851       -11.4519
 262   2.0000      -0.417354       -11.3568
 263   2.0000      -0.414746       -11.2858
 264   2.0000      -0.413401       -11.2492
 265   2.0000      -0.410785       -11.1780
 266   2.0000      -0.404729       -11.0132
 267   2.0000      -0.401987       -10.9386
 268   2.0000      -0.397771       -10.8239
 269   2.0000      -0.395479       -10.7615
 270   2.0000      -0.391475       -10.6526
 271   2.0000      -0.387244       -10.5374
 272   2.0000      -0.386285       -10.5114
 273   2.0000      -0.382672       -10.4130
 274   2.0000      -0.372192       -10.1279
 275   2.0000      -0.369532       -10.0555
 276   2.0000      -0.368339       -10.0230
 277   2.0000      -0.368113       -10.0169
 278   2.0000      -0.364590        -9.9210
 279   2.0000      -0.354622        -9.6498
 280   2.0000      -0.352322        -9.5872
 281   2.0000      -0.347957        -9.4684
 282   2.0000      -0.345099        -9.3906
 283   2.0000      -0.343218        -9.3394
 284   2.0000      -0.342526        -9.3206
 285   2.0000      -0.331917        -9.0319
 286   2.0000      -0.331554        -9.0220
 287   2.0000      -0.328051        -8.9267
 288   2.0000      -0.319816        -8.7026
 289   2.0000      -0.316680        -8.6173
 290   2.0000      -0.313608        -8.5337
 291   2.0000      -0.310563        -8.4509
 292   2.0000      -0.301249        -8.1974
 293   2.0000      -0.285402        -7.7662
 294   2.0000      -0.261105        -7.1050
 295   2.0000      -0.236688        -6.4406
 296   0.0000      -0.098195        -2.6720
 297   0.0000      -0.095563        -2.6004
 298   0.0000      -0.069709        -1.8969
 299   0.0000      -0.067083        -1.8254
 300   0.0000      -0.045619        -1.2413

MULLIKEN ATOMIC CHARGES
-----------------------
   0 C :    0.155855
   1 O :   -0.139939
   2 C :   -0.021883
   3 C :    0.038408
   4 C :   -0.026875
   5 C :    0.049357
   6 C :   -0.003514
   7 C :   -0.011827
   8 Br:   -0.019066
   9 C :    0.299386
  10 C :   -0.346071
  11 C :   -0.187895
  12 N :    0.156810
  13 C :   -0.179977
  14 N :    0.150573
  15 C :   -0.053745
  16 C :   -0.055750
  17 C :    0.073880
  18 C :   -0.009062
  19 C :   -0.045827
  20 C :    0.089240
  21 C :    0.021287
  22 C :    0.046508
  23 N :   -0.280170
  24 S :    0.516515
  25 N :   -0.279140
  26 C :    0.060588
  27 C :   -0.101721
  28 C :    0.015587
  29 C :    0.109777
  30 C :   -0.056459
  31 C :    0.017155
  32 C :    0.103497
  33 C :    0.024555
  34 C :   -0.130839
  35 C :    0.074384
  36 C :    0.030994
  37 C :    0.054439
  38 C :    0.022441
  39 C :   -0.113560
  40 C :    0.160782
  41 C :   -0.045057
  42 C :   -0.049891
  43 C :   -0.030168
  44 C :   -0.075175
  45 C :    0.080182
  46 C :   -0.112443
  47 S :    0.125595
  48 C :    0.138013
  49 O :   -0.310809
  50 C :    0.172334
  51 C :    0.032804
  52 C :   -0.104505
  53 C :    0.106352
  54 O :   -0.312319
  55 C :    0.165252
  56 S :    0.090262
  57 C :   -0.056854
  58 C :   -0.033523
  59 C :    0.088815
  60 C :   -0.139646
  61 C :    0.137471
  62 O :   -0.137722
  63 C :   -0.005053
  64 C :    0.018155
  65 C :    0.271787
  66 C :   -0.357138
  67 C :   -0.177411
  68 N :    0.157276
  69 C :   -0.200103
  70 N :    0.175473
  71 C :   -0.028667
  72 C :    0.049382
  73 C :   -0.006115
  74 C :   -0.011618
  75 Br:   -0.018171
  76 H :    0.009048
  77 H :    0.005410
  78 H :    0.001416
  79 H :    0.026034
  80 H :   -0.007458
  81 H :   -0.012665
  82 H :   -0.036403
  83 H :   -0.034712
  84 H :   -0.014834
  85 H :   -0.008300
  86 H :    0.006268
  87 H :    0.002848
  88 H :    0.012999
  89 H :    0.024002
  90 H :   -0.002398
  91 H :    0.006247
  92 H :    0.024183
  93 H :    0.009879
  94 H :    0.021616
  95 H :   -0.036829
  96 H :   -0.010797
  97 H :   -0.032878
  98 H :   -0.021366
  99 H :    0.039796
 100 H :    0.032586
 101 H :    0.044173
 102 H :    0.040619
 103 H :    0.039349
 104 H :    0.037416
 105 H :   -0.014807
 106 H :    0.023602
 107 H :    0.009082
 108 H :    0.006412
 109 H :    0.004999
Sum of atomic charges:   -0.0000000

LOEWDIN ATOMIC CHARGES
----------------------
   0 C :    0.085390
   1 O :   -0.130672
   2 C :   -0.032557
   3 C :   -0.016889
   4 C :    0.008786
   5 C :   -0.013800
   6 C :   -0.096854
   7 C :   -0.001472
   8 Br:    0.116227
   9 C :    0.077394
  10 C :   -0.133546
  11 C :   -0.018497
  12 N :   -0.048312
  13 C :   -0.019276
  14 N :   -0.047739
  15 C :   -0.078903
  16 C :    0.078097
  17 C :   -0.045221
  18 C :    0.019787
  19 C :   -0.023340
  20 C :    0.010237
  21 C :   -0.042803
  22 C :   -0.032841
  23 N :   -0.280887
  24 S :    0.652641
  25 N :   -0.278328
  26 C :   -0.022685
  27 C :   -0.015925
  28 C :    0.004134
  29 C :   -0.011001
  30 C :   -0.018707
  31 C :   -0.001131
  32 C :   -0.014932
  33 C :    0.005580
  34 C :   -0.034320
  35 C :   -0.010017
  36 C :   -0.059197
  37 C :   -0.015205
  38 C :   -0.056263
  39 C :   -0.012991
  40 C :   -0.036404
  41 C :   -0.022926
  42 C :   -0.014839
  43 C :   -0.132945
  44 C :   -0.053894
  45 C :   -0.045453
  46 C :   -0.177197
  47 S :    0.422125
  48 C :    0.038644
  49 O :   -0.104078
  50 C :    0.080159
  51 C :   -0.075588
  52 C :   -0.174855
  53 C :    0.022613
  54 O :   -0.103991
  55 C :    0.065511
  56 S :    0.406155
  57 C :   -0.182842
  58 C :    0.004462
  59 C :    0.057622
  60 C :   -0.101070
  61 C :    0.084321
  62 O :   -0.136208
  63 C :   -0.038668
  64 C :   -0.014555
  65 C :    0.067347
  66 C :   -0.147963
  67 C :   -0.024156
  68 N :   -0.052966
  69 C :   -0.020506
  70 N :   -0.038635
  71 C :    0.004113
  72 C :   -0.012482
  73 C :   -0.098879
  74 C :    0.001249
  75 Br:    0.116361
  76 H :    0.042980
  77 H :    0.040313
  78 H :    0.043434
  79 H :    0.046436
  80 H :    0.037752
  81 H :    0.033495
  82 H :    0.023933
  83 H :    0.027492
  84 H :    0.027754
  85 H :    0.018224
  86 H :    0.026872
  87 H :    0.019844
  88 H :    0.028213
  89 H :    0.025274
  90 H :    0.019993
  91 H :    0.019692
  92 H :    0.026058
  93 H :    0.024407
  94 H :    0.025952
  95 H :    0.024807
  96 H :    0.021138
  97 H :    0.028516
  98 H :    0.029776
  99 H :    0.022708
 100 H :    0.014865
 101 H :    0.032656
 102 H :    0.016248
 103 H :    0.031166
 104 H :    0.011371
 105 H :    0.031133
 106 H :    0.046534
 107 H :    0.042199
 108 H :    0.040460
 109 H :    0.044761

  Mayer bond orders larger than 0.100000
B(  0-C ,  1-O ) :   2.2448 B(  0-C ,  2-C ) :   0.9333 B(  0-C , 15-C ) :   0.9285
B(  2-C ,  3-C ) :   1.3328 B(  2-C ,  7-C ) :   1.3820 B(  3-C ,  4-C ) :   1.3541
B(  3-C ,  9-C ) :   1.0006 B(  4-C ,  5-C ) :   1.3922 B(  4-C , 76-H ) :   0.9824
B(  5-C ,  6-C ) :   1.3842 B(  5-C , 77-H ) :   0.9848 B(  6-C ,  7-C ) :   1.3395
B(  6-C ,  8-Br) :   0.9929 B(  7-C , 78-H ) :   1.0064 B(  9-C , 10-C ) :   1.6462
B(  9-C , 15-C ) :   1.0655 B( 10-C , 11-C ) :   1.1381 B( 10-C , 13-C ) :   1.1406
B( 11-C , 12-N ) :   2.9763 B( 13-C , 14-N ) :   2.9631 B( 15-C , 16-C ) :   1.6714
B( 16-C , 17-C ) :   1.0776 B( 16-C , 79-H ) :   0.9382 B( 17-C , 18-C ) :   1.4305
B( 17-C , 20-C ) :   0.1070 B( 17-C , 22-C ) :   1.1894 B( 18-C , 19-C ) :   1.2195
B( 18-C , 80-H ) :   0.9984 B( 19-C , 20-C ) :   1.4803 B( 19-C , 81-H ) :   0.9934
B( 20-C , 21-C ) :   1.1958 B( 20-C , 26-C ) :   0.9930 B( 21-C , 22-C ) :   1.1700
B( 21-C , 25-N ) :   1.5155 B( 22-C , 23-N ) :   1.5221 B( 23-N , 24-S ) :   1.2668
B( 23-N , 25-N ) :   0.1472 B( 24-S , 25-N ) :   1.2783 B( 26-C , 27-C ) :   1.3112
B( 26-C , 31-C ) :   1.3779 B( 27-C , 28-C ) :   1.3913 B( 27-C , 82-H ) :   0.9982
B( 28-C , 29-C ) :   1.3745 B( 28-C , 34-C ) :   0.9231 B( 29-C , 30-C ) :   1.3382
B( 29-C , 32-C ) :   0.9934 B( 30-C , 31-C ) :   1.3824 B( 30-C , 83-H ) :   0.9924
B( 31-C , 84-H ) :   0.9776 B( 32-C , 33-C ) :   1.3740 B( 32-C , 42-C ) :   1.3433
B( 33-C , 34-C ) :   0.9178 B( 33-C , 39-C ) :   1.4038 B( 34-C , 35-C ) :   1.0151
B( 34-C , 37-C ) :   1.0285 B( 35-C , 36-C ) :   1.1166 B( 35-C , 85-H ) :   0.9359
B( 35-C , 86-H ) :   0.9396 B( 36-C , 87-H ) :   0.9626 B( 36-C , 88-H ) :   0.9587
B( 36-C , 89-H ) :   0.9602 B( 37-C , 38-C ) :   1.1022 B( 37-C , 90-H ) :   0.9399
B( 37-C , 91-H ) :   0.9388 B( 38-C , 92-H ) :   0.9636 B( 38-C , 93-H ) :   0.9647
B( 38-C , 94-H ) :   0.9658 B( 39-C , 40-C ) :   1.3131 B( 39-C , 95-H ) :   0.9960
B( 40-C , 41-C ) :   1.3394 B( 40-C , 43-C ) :   1.0471 B( 41-C , 42-C ) :   1.3899
B( 41-C , 96-H ) :   0.9815 B( 42-C , 97-H ) :   0.9905 B( 43-C , 44-C ) :   1.5625
B( 43-C , 47-S ) :   1.0763 B( 44-C , 45-C ) :   1.1724 B( 44-C , 98-H ) :   1.0037
B( 45-C , 46-C ) :   1.3663 B( 45-C , 53-C ) :   1.2708 B( 46-C , 47-S ) :   1.0356
B( 46-C , 48-C ) :   1.3994 B( 48-C , 49-O ) :   1.2727 B( 48-C , 51-C ) :   1.2168
B( 49-O , 50-C ) :   0.9328 B( 50-C , 99-H ) :   0.9674 B( 50-C ,100-H ) :   0.9682
B( 50-C ,101-H ) :   0.9730 B( 51-C , 52-C ) :   1.2517 B( 51-C , 58-C ) :   1.2370
B( 52-C , 53-C ) :   1.3971 B( 52-C , 56-S ) :   1.0156 B( 53-C , 54-O ) :   1.2175
B( 54-O , 55-C ) :   0.9440 B( 55-C ,102-H ) :   0.9684 B( 55-C ,103-H ) :   0.9761
B( 55-C ,104-H ) :   0.9666 B( 56-S , 57-C ) :   1.0453 B( 57-C , 58-C ) :   1.4795
B( 57-C , 59-C ) :   1.1508 B( 58-C ,105-H ) :   0.9830 B( 59-C , 60-C ) :   1.6356
B( 59-C ,106-H ) :   0.9282 B( 60-C , 61-C ) :   0.9516 B( 60-C , 65-C ) :   1.0529
B( 61-C , 62-O ) :   2.2656 B( 61-C , 63-C ) :   0.9158 B( 63-C , 64-C ) :   1.3344
B( 63-C , 74-C ) :   1.3879 B( 64-C , 65-C ) :   1.0072 B( 64-C , 71-C ) :   1.3680
B( 65-C , 66-C ) :   1.6267 B( 66-C , 67-C ) :   1.1276 B( 66-C , 69-C ) :   1.1839
B( 67-C , 68-N ) :   2.9898 B( 69-C , 70-N ) :   2.9489 B( 71-C , 72-C ) :   1.3790
B( 71-C ,107-H ) :   0.9872 B( 72-C , 73-C ) :   1.3934 B( 72-C ,108-H ) :   0.9852
B( 73-C , 74-C ) :   1.3366 B( 73-C , 75-Br) :   0.9933 B( 74-C ,109-H ) :   1.0076

-----------------------------------------------------------------------------
         ABSORPTION SPECTRUM VIA TRANSITION ELECTRIC DIPOLE MOMENTS
-----------------------------------------------------------------------------
State   Energy  Wavelength   fosc         T2         TX        TY        TZ
        (cm-1)    (nm)                  (au**2)     (au)      (au)      (au)
-----------------------------------------------------------------------------
   0   14154.5    706.5   0.392674424   9.13300   0.04031  -2.92687   0.75155
   1   20338.8    491.7   1.433833752  23.20863   0.42994  -4.77333   0.48902
   2   21860.7    457.4   0.104496650   1.57367  -0.33865   0.47630   1.11001
   3   22578.3    442.9   0.389265180   5.67585   0.32337  -2.33989   0.31017
   4   24094.6    415.0   0.114801169   1.56856   0.20907  -1.22728  -0.13649
   5   26760.9    373.7   0.022242162   0.27362  -0.10480   0.36950  -0.35512
   6   27728.2    360.6   0.061037159   0.72468   0.03180   0.35456   0.77328
   7   27893.3    358.5   0.002253480   0.02660   0.10470  -0.08630  -0.09048
   8   29028.5    344.5   0.216697864   2.45757  -0.22641  -1.28161   0.87395
   9   29370.2    340.5   0.058925386   0.66050   0.66178   0.32870   0.33839
  10   29401.9    340.1   0.068458966   0.76653  -0.00824   0.19925  -0.85251
  11   30303.4    330.0   0.154521759   1.67870   1.25138  -0.14058   0.30494
  12   30543.2    327.4   0.074182964   0.79959  -0.27329   0.83291   0.17652
  13   30734.3    325.4   0.400487816   4.28984   0.37649  -1.87215   0.80197
  14   31225.8    320.2   0.138906634   1.46449   0.40337  -1.01289   0.52519
  15   31387.5    318.6   0.295153683   3.09576  -1.00188   1.37907  -0.43607
  16   31980.4    312.7   0.058159436   0.59870  -0.33611   0.45299  -0.52965
  17   32086.5    311.7   0.011828597   0.12136  -0.27032   0.17454  -0.13351
  18   32161.0    310.9   0.021888905   0.22406   0.01025   0.11355  -0.45942
  19   33104.4    302.1   0.017440465   0.17344  -0.28287  -0.21742  -0.21483
  20   34166.4    292.7   0.159840858   1.54015  -0.32489  -1.15878   0.30304
  21   34433.4    290.4   0.117134579   1.11990   0.98134   0.37973   0.11262
  22   34714.0    288.1   0.018468627   0.17515   0.33979  -0.06728   0.23487
  23   34779.0    287.5   0.409523443   3.87647  -1.16934   1.35691  -0.81725
  24   34990.3    285.8   0.518716013   4.88042   1.59892   0.03020   1.52413
  25   35172.5    284.3   0.090080614   0.84315   0.60408   0.28943   0.62806
  26   35333.3    283.0   0.021709555   0.20227   0.01379   0.04248  -0.44753
  27   35605.5    280.9   0.103382344   0.95588  -0.58790   0.73891  -0.25352
  28   35883.5    278.7   0.047822745   0.43875  -0.33587  -0.56876  -0.04948
  29   35963.0    278.1   0.186223777   1.70473   0.12552  -1.28773  -0.17528
  30   36615.7    273.1   0.088141001   0.79248   0.07523   0.88703   0.00170
  31   37028.5    270.1   0.065776476   0.58480   0.07167   0.62967  -0.42800
  32   37222.0    268.7   0.098156549   0.86815  -0.59538  -0.68380  -0.21469
  33   37944.7    263.5   0.057083852   0.49527   0.29814   0.58490   0.25353
  34   38023.4    263.0   0.163618421   1.41663  -0.38099   0.64220  -0.92685
  35   38339.6    260.8   0.050891807   0.43699  -0.46408  -0.31682  -0.34820
  36   38579.9    259.2   0.007345456   0.06268  -0.15051   0.17908  -0.08921
  37   38911.1    257.0   0.150187504   1.27068   0.35362  -1.02549   0.30660
  38   39074.3    255.9   0.026207441   0.22081  -0.04831  -0.35211  -0.30740
  39   39537.4    252.9   0.053785132   0.44785  -0.02240   0.54565  -0.38680
  40   39738.0    251.6   0.009900433   0.08202  -0.19493   0.20968   0.00752
  41   40101.7    249.4   0.001640166   0.01346  -0.07928   0.07888   0.03093

FINAL SINGLE POINT ENERGY     -9312.665186297485

DIPOLE MOMENT
-------------
                                X             Y             Z
Electronic contribution:     -1.26416     -16.03545     -42.08966
Nuclear contribution   :      1.20915      15.05405      42.24858
                        -----------------------------------------
Total Dipole Moment    :     -0.05501      -0.98139       0.15892
                        -----------------------------------------
Magnitude (a.u.)       :      0.99570
Magnitude (Debye)      :      2.53086

Rotational constants in cm-1:     0.002560     0.000117     0.000116
Rotational constants in MHz :    76.732555     3.519877     3.491676

                             ****ORCA TERMINATED NORMALLY****
TOTAL RUN TIME: 0 days 0 hours 11 minutes 47 seconds 32 msec
