                         Program Version 4.2.0 -  RELEASE  -
|  1> # ORCA input file
|  2> # SCF done       -212.465198230041          0.000476486242
|  3> ! CAM-B3LYP def2-SVP def2/J RIJCOSX Grid4 TightSCF
|  4> %maxcore 5000
|  5> %tddft
|  6>     Mode sTDDFT
|  7>     Ethresh 5.0
|  8>     maxcore 5000
|  9> end
| 10>
| 11> %pal
| 12>   nprocs 6
| 13>   end
| 14> * xyz 0 1
| 15>    C       -3.92043        -1.09594        -2.86045
| 16>    C       -4.41595        -2.18750        -2.16123
| 17>    C       -3.53799        -3.22007        -1.66911
| 18>    N       -4.04028        -4.26304        -1.00895
| 19>    C       -5.33400        -4.34739        -0.80205
| 20>    C       -6.20666        -3.31231        -1.28381
| 21>    N       -5.74560        -2.28186        -1.93764
| 22>    C       -7.60399        -3.41721        -1.04957
| 23>    N       -8.72355        -3.53525        -0.84283
| 24>    C       -5.85233        -5.46928        -0.11371
| 25>    N       -6.29713        -6.37072         0.43600
| 26>    C       -2.12944        -3.18788        -1.86489
| 27>    C       -1.64592        -2.07075        -2.58767
| 28>    C       -2.54702        -1.04197        -3.07133
| 29>    N       -1.88867        -0.07504        -3.72195
| 30>    S       -0.33003        -0.40888        -3.73102
| 31>    N       -0.38063        -1.79685        -2.91375
| 32>    C       -1.33075        -4.23171        -1.34878
| 33>    S       -2.02983        -5.53684        -0.41952
| 34>    C       -0.49815        -6.34362        -0.17668
| 35>    C        0.52520        -5.63271        -0.81029
| 36>    C        0.04829        -4.45168        -1.44942
| 37>    N        1.12253        -3.86115        -2.00599
| 38>    N        2.23704        -4.56329        -1.77830
| 39>    C        1.91908        -5.62108        -1.07276
| 40>    C       -0.46949        -7.52731         0.58511
| 41>    C        0.64779        -8.27563         0.77539
| 42>    C        0.71691        -9.50047         1.50885
| 43>    C       -0.03582        -9.84563         2.65786
| 44>    C       -0.81688        -8.87428         3.45621
| 45>    O       -0.89370        -7.68996         3.32313
| 46>    S       -1.62005        -9.73214         4.81270
| 47>    C       -0.81714       -11.28400         4.43130
| 48>    O       -0.94943       -12.25984         5.10842
| 49>    C        0.01319       -11.11966         3.21692
| 50>    C        0.83284       -12.16266         2.72532
| 51>    C        1.64955       -11.78572         1.64455
| 52>    C        1.59459       -10.51603         1.08237
| 53>    C        2.54493       -10.48777        -0.05174
| 54>    O        2.84517        -9.59505        -0.78438
| 55>    O        3.09176       -11.74103        -0.15146
| 56>    C        2.58941       -12.58366         0.81262
| 57>    O        2.89654       -13.73270         0.86279
| 58>    C        0.77396       -13.48165         3.29205
| 59>    C        1.82809       -14.30708         3.46582
| 60>    C        1.76635       -15.62982         4.00639
| 61>    C        0.58344       -16.35877         4.29124
| 62>    C        0.63205       -17.66082         4.90730
| 63>    N       -0.50719       -18.30381         5.22144
| 64>    C       -1.65520       -17.74566         4.94226
| 65>    C       -1.70721       -16.47381         4.27903
| 66>    N       -0.60979       -15.83197         3.97313
| 67>    C       -2.95436       -15.90014         3.92117
| 68>    N       -3.97073       -15.45478         3.63945
| 69>    C       -2.85840       -18.41614         5.28339
| 70>    N       -3.85077       -18.92003         5.55106
| 71>    C        1.84927       -18.29202         5.24848
| 72>    C        3.02206       -17.62210         4.86351
| 73>    C        2.97495       -16.30377         4.27517
| 74>    N        4.20238       -15.84141         4.01520
| 75>    S        5.27360       -16.95379         4.41994
| 76>    N        4.27391       -18.07882         4.95497
| 77>    C        1.84419       -19.56900         5.89430
| 78>    C        2.73604       -19.97608         6.83243
| 79>    C        2.86565       -21.31906         7.37613
| 80>    C        2.29459       -22.45326         6.86504
| 81>    C        2.47489       -23.74306         7.40970
| 82>    N        2.58394       -24.81185         7.81270
| 83>    C        1.48345       -22.50028         5.70994
| 84>    N        0.84115       -22.62430         4.76695
| 85>    C        3.79028       -21.25664         8.49905
| 86>    C        4.25470       -19.92462         8.63711
| 87>    C        3.61301       -19.06648         7.62518
| 88>    O        3.70267       -17.86180         7.54159
| 89>    C        5.15255       -19.55119         9.60839
| 90>    C        5.62028       -20.53883        10.48076
| 91>    C        5.14683       -21.86646        10.33850
| 92>    C        4.23541       -22.24317         9.36057
| 93>    S        5.84681       -22.92494        11.52396
| 94>    C        6.75628       -21.59150        12.18393
| 95>    C        6.54666       -20.41207        11.55107
| 96>   Br        7.89608       -21.88154        13.64341
| 97>    H       -4.57853        -0.32519        -3.22117
| 98>    H        1.11663        -2.99054        -2.52381
| 99>    H        2.67558        -6.32437        -0.79130
|100>    H       -1.41909        -7.83704         0.99760
|101>    H        1.54803        -8.00374         0.24515
|102>    H       -0.19776       -13.79964         3.64205
|103>    H        2.83245       -13.97980         3.23701
|104>    H        1.02480       -20.21776         5.61139
|105>    H        5.48561       -18.52846         9.69054
|106>    H        3.89934       -23.26460         9.29715
|107>    H        7.02459       -19.49013        11.82765
|108> *
|109>
|110>                          ****END OF INPUT****

CARTESIAN COORDINATES (ANGSTROEM)
---------------------------------
  C     -3.920430   -1.095940   -2.860450
  C     -4.415950   -2.187500   -2.161230
  C     -3.537990   -3.220070   -1.669110
  N     -4.040280   -4.263040   -1.008950
  C     -5.334000   -4.347390   -0.802050
  C     -6.206660   -3.312310   -1.283810
  N     -5.745600   -2.281860   -1.937640
  C     -7.603990   -3.417210   -1.049570
  N     -8.723550   -3.535250   -0.842830
  C     -5.852330   -5.469280   -0.113710
  N     -6.297130   -6.370720    0.436000
  C     -2.129440   -3.187880   -1.864890
  C     -1.645920   -2.070750   -2.587670
  C     -2.547020   -1.041970   -3.071330
  N     -1.888670   -0.075040   -3.721950
  S     -0.330030   -0.408880   -3.731020
  N     -0.380630   -1.796850   -2.913750
  C     -1.330750   -4.231710   -1.348780
  S     -2.029830   -5.536840   -0.419520
  C     -0.498150   -6.343620   -0.176680
  C      0.525200   -5.632710   -0.810290
  C      0.048290   -4.451680   -1.449420
  N      1.122530   -3.861150   -2.005990
  N      2.237040   -4.563290   -1.778300
  C      1.919080   -5.621080   -1.072760
  C     -0.469490   -7.527310    0.585110
  C      0.647790   -8.275630    0.775390
  C      0.716910   -9.500470    1.508850
  C     -0.035820   -9.845630    2.657860
  C     -0.816880   -8.874280    3.456210
  O     -0.893700   -7.689960    3.323130
  S     -1.620050   -9.732140    4.812700
  C     -0.817140  -11.284000    4.431300
  O     -0.949430  -12.259840    5.108420
  C      0.013190  -11.119660    3.216920
  C      0.832840  -12.162660    2.725320
  C      1.649550  -11.785720    1.644550
  C      1.594590  -10.516030    1.082370
  C      2.544930  -10.487770   -0.051740
  O      2.845170   -9.595050   -0.784380
  O      3.091760  -11.741030   -0.151460
  C      2.589410  -12.583660    0.812620
  O      2.896540  -13.732700    0.862790
  C      0.773960  -13.481650    3.292050
  C      1.828090  -14.307080    3.465820
  C      1.766350  -15.629820    4.006390
  C      0.583440  -16.358770    4.291240
  C      0.632050  -17.660820    4.907300
  N     -0.507190  -18.303810    5.221440
  C     -1.655200  -17.745660    4.942260
  C     -1.707210  -16.473810    4.279030
  N     -0.609790  -15.831970    3.973130
  C     -2.954360  -15.900140    3.921170
  N     -3.970730  -15.454780    3.639450
  C     -2.858400  -18.416140    5.283390
  N     -3.850770  -18.920030    5.551060
  C      1.849270  -18.292020    5.248480
  C      3.022060  -17.622100    4.863510
  C      2.974950  -16.303770    4.275170
  N      4.202380  -15.841410    4.015200
  S      5.273600  -16.953790    4.419940
  N      4.273910  -18.078820    4.954970
  C      1.844190  -19.569000    5.894300
  C      2.736040  -19.976080    6.832430
  C      2.865650  -21.319060    7.376130
  C      2.294590  -22.453260    6.865040
  C      2.474890  -23.743060    7.409700
  N      2.583940  -24.811850    7.812700
  C      1.483450  -22.500280    5.709940
  N      0.841150  -22.624300    4.766950
  C      3.790280  -21.256640    8.499050
  C      4.254700  -19.924620    8.637110
  C      3.613010  -19.066480    7.625180
  O      3.702670  -17.861800    7.541590
  C      5.152550  -19.551190    9.608390
  C      5.620280  -20.538830   10.480760
  C      5.146830  -21.866460   10.338500
  C      4.235410  -22.243170    9.360570
  S      5.846810  -22.924940   11.523960
  C      6.756280  -21.591500   12.183930
  C      6.546660  -20.412070   11.551070
  Br     7.896080  -21.881540   13.643410
  H     -4.578530   -0.325190   -3.221170
  H      1.116630   -2.990540   -2.523810
  H      2.675580   -6.324370   -0.791300
  H     -1.419090   -7.837040    0.997600
  H      1.548030   -8.003740    0.245150
  H     -0.197760  -13.799640    3.642050
  H      2.832450  -13.979800    3.237010
  H      1.024800  -20.217760    5.611390
  H      5.485610  -18.528460    9.690540
  H      3.899340  -23.264600    9.297150
  H      7.024590  -19.490130   11.827650

 Total Charge           Charge          ....    0
 Multiplicity           Mult            ....    1
 Number of Electrons    NEL             ....  610
 Basis Dimension        Dim             .... 1241

ORBITAL ENERGIES
----------------

  NO   OCC          E(Eh)            E(eV)
   0   2.0000    -482.891604    -13140.1486
   1   2.0000     -89.058097     -2423.3940
   2   2.0000     -89.057511     -2423.3781
   3   2.0000     -88.982451     -2421.3356
   4   2.0000     -88.982051     -2421.3247
   5   2.0000     -88.963236     -2420.8127
   6   2.0000     -62.569318     -1702.5977
   7   2.0000     -56.403277     -1534.8112
   8   2.0000     -56.400544     -1534.7368
   9   2.0000     -56.400518     -1534.7361
  10   2.0000     -19.305953      -525.3417
  11   2.0000     -19.256669      -524.0006
  12   2.0000     -19.254868      -523.9516
  13   2.0000     -19.254644      -523.9455
  14   2.0000     -19.253219      -523.9067
  15   2.0000     -19.225977      -523.1654
  16   2.0000     -14.488811      -394.2606
  17   2.0000     -14.474315      -393.8661
  18   2.0000     -14.474127      -393.8610
  19   2.0000     -14.473942      -393.8560
  20   2.0000     -14.473734      -393.8503
  21   2.0000     -14.464214      -393.5913
  22   2.0000     -14.463075      -393.5603
  23   2.0000     -14.461751      -393.5243
  24   2.0000     -14.459187      -393.4545
  25   2.0000     -14.446768      -393.1165
  26   2.0000     -14.437357      -392.8605
  27   2.0000     -14.437179      -392.8556
  28   2.0000     -14.433754      -392.7624
  29   2.0000     -14.433142      -392.7458
  30   2.0000     -14.423435      -392.4816
  31   2.0000     -14.422081      -392.4448
  32   2.0000     -10.448254      -284.3114
  33   2.0000     -10.447582      -284.2932
  34   2.0000     -10.419187      -283.5205
  35   2.0000     -10.418534      -283.5027
  36   2.0000     -10.394739      -282.8552
  37   2.0000     -10.393083      -282.8102
  38   2.0000     -10.388628      -282.6889
  39   2.0000     -10.386670      -282.6357
  40   2.0000     -10.377073      -282.3745
  41   2.0000     -10.366050      -282.0746
  42   2.0000     -10.363570      -282.0071
  43   2.0000     -10.362143      -281.9683
  44   2.0000     -10.360567      -281.9254
  45   2.0000     -10.353894      -281.7438
  46   2.0000     -10.353139      -281.7232
  47   2.0000     -10.352934      -281.7177
  48   2.0000     -10.352718      -281.7118
  49   2.0000     -10.352460      -281.7048
  50   2.0000     -10.352356      -281.7019
  51   2.0000     -10.350873      -281.6616
  52   2.0000     -10.349113      -281.6137
  53   2.0000     -10.348341      -281.5927
  54   2.0000     -10.344198      -281.4799
  55   2.0000     -10.343817      -281.4696
  56   2.0000     -10.343325      -281.4562
  57   2.0000     -10.342430      -281.4318
  58   2.0000     -10.340636      -281.3830
  59   2.0000     -10.336346      -281.2663
  60   2.0000     -10.336132      -281.2604
  61   2.0000     -10.333833      -281.1979
  62   2.0000     -10.333462      -281.1878
  63   2.0000     -10.330315      -281.1022
  64   2.0000     -10.330063      -281.0953
  65   2.0000     -10.329564      -281.0817
  66   2.0000     -10.327804      -281.0338
  67   2.0000     -10.327206      -281.0176
  68   2.0000     -10.325921      -280.9826
  69   2.0000     -10.325590      -280.9736
  70   2.0000     -10.325434      -280.9693
  71   2.0000     -10.324029      -280.9311
  72   2.0000     -10.316814      -280.7348
  73   2.0000     -10.316651      -280.7304
  74   2.0000     -10.315660      -280.7034
  75   2.0000     -10.313387      -280.6415
  76   2.0000     -10.313047      -280.6323
  77   2.0000     -10.309248      -280.5289
  78   2.0000     -10.307554      -280.4828
  79   2.0000     -10.307295      -280.4758
  80   2.0000     -10.306638      -280.4579
  81   2.0000     -10.303792      -280.3804
  82   2.0000     -10.303487      -280.3721
  83   2.0000     -10.301831      -280.3271
  84   2.0000     -10.300976      -280.3038
  85   2.0000     -10.295244      -280.1478
  86   2.0000      -8.798752      -239.4262
  87   2.0000      -8.149462      -221.7581
  88   2.0000      -8.148673      -221.7367
  89   2.0000      -8.078481      -219.8266
  90   2.0000      -8.074641      -219.7222
  91   2.0000      -8.062580      -219.3940
  92   2.0000      -6.635089      -180.5499
  93   2.0000      -6.620488      -180.1526
  94   2.0000      -6.620245      -180.1460
  95   2.0000      -6.120483      -166.5468
  96   2.0000      -6.119515      -166.5205
  97   2.0000      -6.112738      -166.3361
  98   2.0000      -6.112275      -166.3235
  99   2.0000      -6.111968      -166.3151
 100   2.0000      -6.111699      -166.3078
 101   2.0000      -6.048176      -164.5792
 102   2.0000      -6.044298      -164.4737
 103   2.0000      -6.043875      -164.4622
 104   2.0000      -6.039690      -164.3483
 105   2.0000      -6.039413      -164.3408
 106   2.0000      -6.036908      -164.2726
 107   2.0000      -6.031440      -164.1238
 108   2.0000      -6.028157      -164.0345
 109   2.0000      -6.023591      -163.9102
 110   2.0000      -2.750947       -74.8571
 111   2.0000      -2.746854       -74.7457
 112   2.0000      -2.746702       -74.7415
 113   2.0000      -2.735083       -74.4254
 114   2.0000      -2.735059       -74.4248
 115   2.0000      -1.256525       -34.1918
 116   2.0000      -1.182047       -32.1651
 117   2.0000      -1.181890       -32.1609
 118   2.0000      -1.177691       -32.0466
 119   2.0000      -1.157826       -31.5060
 120   2.0000      -1.154094       -31.4045
 121   2.0000      -1.153906       -31.3994
 122   2.0000      -1.143819       -31.1249
 123   2.0000      -1.140590       -31.0370
 124   2.0000      -1.133240       -30.8370
 125   2.0000      -1.128444       -30.7065
 126   2.0000      -1.059732       -28.8368
 127   2.0000      -1.055802       -28.7298
 128   2.0000      -1.031141       -28.0588
 129   2.0000      -1.030778       -28.0489
 130   2.0000      -1.022170       -27.8147
 131   2.0000      -1.020610       -27.7722
 132   2.0000      -1.019523       -27.7426
 133   2.0000      -1.012180       -27.5428
 134   2.0000      -1.011899       -27.5352
 135   2.0000      -1.007015       -27.4023
 136   2.0000      -1.006003       -27.3747
 137   2.0000      -1.001570       -27.2541
 138   2.0000      -1.001137       -27.2423
 139   2.0000      -0.998166       -27.1615
 140   2.0000      -0.991043       -26.9677
 141   2.0000      -0.980635       -26.6844
 142   2.0000      -0.966944       -26.3119
 143   2.0000      -0.953804       -25.9543
 144   2.0000      -0.950308       -25.8592
 145   2.0000      -0.934246       -25.4221
 146   2.0000      -0.925812       -25.1926
 147   2.0000      -0.919195       -25.0126
 148   2.0000      -0.916039       -24.9267
 149   2.0000      -0.915150       -24.9025
 150   2.0000      -0.910795       -24.7840
 151   2.0000      -0.900373       -24.5004
 152   2.0000      -0.893901       -24.3243
 153   2.0000      -0.893235       -24.3062
 154   2.0000      -0.883675       -24.0460
 155   2.0000      -0.871354       -23.7107
 156   2.0000      -0.861671       -23.4472
 157   2.0000      -0.847405       -23.0591
 158   2.0000      -0.843092       -22.9417
 159   2.0000      -0.841612       -22.9014
 160   2.0000      -0.836387       -22.7592
 161   2.0000      -0.824543       -22.4370
 162   2.0000      -0.814478       -22.1631
 163   2.0000      -0.810820       -22.0635
 164   2.0000      -0.804144       -21.8819
 165   2.0000      -0.791350       -21.5337
 166   2.0000      -0.782735       -21.2993
 167   2.0000      -0.774724       -21.0813
 168   2.0000      -0.767544       -20.8859
 169   2.0000      -0.755235       -20.5510
 170   2.0000      -0.751772       -20.4568
 171   2.0000      -0.743320       -20.2268
 172   2.0000      -0.736939       -20.0531
 173   2.0000      -0.727247       -19.7894
 174   2.0000      -0.723450       -19.6861
 175   2.0000      -0.719960       -19.5911
 176   2.0000      -0.712521       -19.3887
 177   2.0000      -0.710316       -19.3287
 178   2.0000      -0.706102       -19.2140
 179   2.0000      -0.704509       -19.1707
 180   2.0000      -0.700995       -19.0750
 181   2.0000      -0.696982       -18.9658
 182   2.0000      -0.684114       -18.6157
 183   2.0000      -0.679121       -18.4798
 184   2.0000      -0.672812       -18.3082
 185   2.0000      -0.666950       -18.1486
 186   2.0000      -0.663404       -18.0521
 187   2.0000      -0.658575       -17.9207
 188   2.0000      -0.655916       -17.8484
 189   2.0000      -0.647647       -17.6234
 190   2.0000      -0.644554       -17.5392
 191   2.0000      -0.642159       -17.4740
 192   2.0000      -0.640381       -17.4256
 193   2.0000      -0.632811       -17.2197
 194   2.0000      -0.630758       -17.1638
 195   2.0000      -0.629061       -17.1176
 196   2.0000      -0.620423       -16.8826
 197   2.0000      -0.618968       -16.8430
 198   2.0000      -0.614372       -16.7179
 199   2.0000      -0.606893       -16.5144
 200   2.0000      -0.602595       -16.3975
 201   2.0000      -0.601943       -16.3797
 202   2.0000      -0.591323       -16.0907
 203   2.0000      -0.588870       -16.0240
 204   2.0000      -0.586344       -15.9552
 205   2.0000      -0.584378       -15.9017
 206   2.0000      -0.579364       -15.7653
 207   2.0000      -0.574264       -15.6265
 208   2.0000      -0.569696       -15.5022
 209   2.0000      -0.568844       -15.4790
 210   2.0000      -0.567761       -15.4496
 211   2.0000      -0.567284       -15.4366
 212   2.0000      -0.559942       -15.2368
 213   2.0000      -0.557844       -15.1797
 214   2.0000      -0.555873       -15.1261
 215   2.0000      -0.554701       -15.0942
 216   2.0000      -0.551694       -15.0124
 217   2.0000      -0.549565       -14.9544
 218   2.0000      -0.547172       -14.8893
 219   2.0000      -0.544381       -14.8134
 220   2.0000      -0.542520       -14.7627
 221   2.0000      -0.539866       -14.6905
 222   2.0000      -0.537740       -14.6326
 223   2.0000      -0.534767       -14.5518
 224   2.0000      -0.531168       -14.4538
 225   2.0000      -0.527082       -14.3426
 226   2.0000      -0.522456       -14.2167
 227   2.0000      -0.521625       -14.1941
 228   2.0000      -0.520573       -14.1655
 229   2.0000      -0.517342       -14.0776
 230   2.0000      -0.515648       -14.0315
 231   2.0000      -0.514556       -14.0018
 232   2.0000      -0.506180       -13.7739
 233   2.0000      -0.503207       -13.6930
 234   2.0000      -0.500603       -13.6221
 235   2.0000      -0.500041       -13.6068
 236   2.0000      -0.498828       -13.5738
 237   2.0000      -0.496472       -13.5097
 238   2.0000      -0.494908       -13.4671
 239   2.0000      -0.492616       -13.4048
 240   2.0000      -0.488928       -13.3044
 241   2.0000      -0.487217       -13.2578
 242   2.0000      -0.485414       -13.2088
 243   2.0000      -0.484127       -13.1738
 244   2.0000      -0.483379       -13.1534
 245   2.0000      -0.481422       -13.1002
 246   2.0000      -0.480492       -13.0749
 247   2.0000      -0.471315       -12.8251
 248   2.0000      -0.466259       -12.6875
 249   2.0000      -0.465337       -12.6625
 250   2.0000      -0.461957       -12.5705
 251   2.0000      -0.460114       -12.5203
 252   2.0000      -0.459034       -12.4910
 253   2.0000      -0.458888       -12.4870
 254   2.0000      -0.457118       -12.4388
 255   2.0000      -0.455624       -12.3981
 256   2.0000      -0.455067       -12.3830
 257   2.0000      -0.453512       -12.3407
 258   2.0000      -0.451058       -12.2739
 259   2.0000      -0.450219       -12.2511
 260   2.0000      -0.448117       -12.1939
 261   2.0000      -0.446209       -12.1420
 262   2.0000      -0.444175       -12.0866
 263   2.0000      -0.435934       -11.8624
 264   2.0000      -0.435134       -11.8406
 265   2.0000      -0.433374       -11.7927
 266   2.0000      -0.432829       -11.7779
 267   2.0000      -0.432575       -11.7710
 268   2.0000      -0.429466       -11.6864
 269   2.0000      -0.428759       -11.6671
 270   2.0000      -0.428342       -11.6558
 271   2.0000      -0.425255       -11.5718
 272   2.0000      -0.423317       -11.5190
 273   2.0000      -0.420456       -11.4412
 274   2.0000      -0.419144       -11.4055
 275   2.0000      -0.416216       -11.3258
 276   2.0000      -0.414096       -11.2681
 277   2.0000      -0.410257       -11.1636
 278   2.0000      -0.405979       -11.0473
 279   2.0000      -0.400636       -10.9018
 280   2.0000      -0.399775       -10.8784
 281   2.0000      -0.397374       -10.8131
 282   2.0000      -0.390035       -10.6134
 283   2.0000      -0.389788       -10.6067
 284   2.0000      -0.385040       -10.4775
 285   2.0000      -0.383703       -10.4411
 286   2.0000      -0.381121       -10.3708
 287   2.0000      -0.380806       -10.3623
 288   2.0000      -0.377435       -10.2705
 289   2.0000      -0.371998       -10.1226
 290   2.0000      -0.367142        -9.9904
 291   2.0000      -0.359583        -9.7848
 292   2.0000      -0.359086        -9.7712
 293   2.0000      -0.356905        -9.7119
 294   2.0000      -0.355431        -9.6718
 295   2.0000      -0.353450        -9.6179
 296   2.0000      -0.348234        -9.4759
 297   2.0000      -0.344832        -9.3834
 298   2.0000      -0.338299        -9.2056
 299   2.0000      -0.330370        -8.9898
 300   2.0000      -0.324475        -8.8294
 301   2.0000      -0.322414        -8.7733
 302   2.0000      -0.300953        -8.1893
 303   2.0000      -0.285797        -7.7769
 304   2.0000      -0.253734        -6.9045
 305   0.0000      -0.143486        -3.9044
 306   0.0000      -0.131976        -3.5912
 307   0.0000      -0.108067        -2.9407
 308   0.0000      -0.090316        -2.4576
 309   0.0000      -0.085432        -2.3247

MULLIKEN ATOMIC CHARGES
-----------------------
   0 C :   -0.103704
   1 C :    0.034876
   2 C :   -0.070800
   3 N :   -0.006273
   4 C :   -0.098139
   5 C :   -0.147311
   6 N :    0.058784
   7 C :   -0.207640
   8 N :    0.238496
   9 C :   -0.232169
  10 N :    0.243817
  11 C :    0.218180
  12 C :   -0.020551
  13 C :    0.106293
  14 N :   -0.263917
  15 S :    0.552627
  16 N :   -0.355074
  17 C :   -0.287678
  18 S :    0.209786
  19 C :   -0.114100
  20 C :    0.001118
  21 C :    0.160683
  22 N :   -0.007770
  23 N :   -0.046411
  24 C :   -0.012535
  25 C :    0.130396
  26 C :   -0.062869
  27 C :    0.064562
  28 C :    0.003776
  29 C :    0.030622
  30 O :   -0.117699
  31 S :    0.041746
  32 C :    0.040800
  33 O :   -0.124762
  34 C :    0.044151
  35 C :    0.049559
  36 C :   -0.078526
  37 C :   -0.072512
  38 C :    0.241789
  39 O :   -0.108554
  40 O :   -0.226403
  41 C :    0.233322
  42 O :   -0.089103
  43 C :   -0.015752
  44 C :   -0.019146
  45 C :    0.071206
  46 C :   -0.039525
  47 C :   -0.024310
  48 N :    0.056947
  49 C :   -0.132360
  50 C :   -0.115111
  51 N :    0.034343
  52 C :   -0.213949
  53 N :    0.248912
  54 C :   -0.203546
  55 N :    0.250090
  56 C :    0.065289
  57 C :    0.035096
  58 C :    0.021100
  59 N :   -0.277424
  60 S :    0.572425
  61 N :   -0.270987
  62 C :   -0.077562
  63 C :   -0.046098
  64 C :    0.297300
  65 C :   -0.332137
  66 C :   -0.185493
  67 N :    0.156903
  68 C :   -0.195687
  69 N :    0.170922
  70 C :    0.019064
  71 C :   -0.021644
  72 C :    0.156492
  73 O :   -0.151828
  74 C :   -0.067426
  75 C :    0.117395
  76 C :   -0.089842
  77 C :   -0.017463
  78 S :    0.192243
  79 C :   -0.124678
  80 C :    0.040629
  81 Br:    0.029558
  82 H :   -0.020361
  83 H :    0.137813
  84 H :    0.018529
  85 H :   -0.007747
  86 H :    0.017051
  87 H :    0.051879
  88 H :    0.007945
  89 H :    0.047964
  90 H :   -0.011225
  91 H :   -0.004333
  92 H :   -0.002344
Sum of atomic charges:   -0.0000000

LOEWDIN ATOMIC CHARGES
----------------------
   0 C :   -0.034452
   1 C :   -0.003672
   2 C :   -0.024402
   3 N :   -0.017298
   4 C :   -0.033201
   5 C :   -0.020112
   6 N :   -0.001839
   7 C :   -0.034544
   8 N :    0.000318
   9 C :   -0.041251
  10 N :   -0.005466
  11 C :   -0.018545
  12 C :   -0.038520
  13 C :   -0.039767
  14 N :   -0.281301
  15 S :    0.679057
  16 N :   -0.286951
  17 C :   -0.198393
  18 S :    0.516034
  19 C :   -0.146931
  20 C :   -0.091629
  21 C :   -0.001123
  22 N :    0.110923
  23 N :   -0.048685
  24 C :   -0.032540
  25 C :    0.010691
  26 C :   -0.025670
  27 C :    0.029201
  28 C :   -0.054362
  29 C :   -0.046391
  30 O :   -0.105476
  31 S :    0.321601
  32 C :   -0.044272
  33 O :   -0.105262
  34 C :   -0.043130
  35 C :    0.020871
  36 C :   -0.041566
  37 C :   -0.045236
  38 C :    0.108526
  39 O :   -0.100721
  40 O :   -0.052151
  41 C :    0.109150
  42 O :   -0.086876
  43 C :    0.005221
  44 C :    0.011907
  45 C :    0.008610
  46 C :   -0.004231
  47 C :    0.010949
  48 N :    0.002813
  49 C :   -0.015849
  50 C :   -0.021343
  51 N :    0.014545
  52 C :   -0.037682
  53 N :    0.002252
  54 C :   -0.035756
  55 N :    0.008220
  56 C :   -0.027514
  57 C :   -0.028065
  58 C :   -0.037327
  59 N :   -0.279072
  60 S :    0.711387
  61 N :   -0.274820
  62 C :    0.074600
  63 C :   -0.062963
  64 C :    0.072250
  65 C :   -0.126044
  66 C :   -0.017444
  67 N :   -0.044517
  68 C :   -0.023251
  69 N :   -0.039178
  70 C :   -0.020527
  71 C :   -0.049852
  72 C :    0.085464
  73 O :   -0.143103
  74 C :    0.022532
  75 C :   -0.030911
  76 C :   -0.142396
  77 C :   -0.008019
  78 S :    0.437023
  79 C :   -0.269697
  80 C :   -0.070592
  81 Br:    0.141607
  82 H :    0.047563
  83 H :    0.061249
  84 H :    0.026508
  85 H :    0.031731
  86 H :    0.038167
  87 H :    0.034134
  88 H :    0.035114
  89 H :    0.049955
  90 H :    0.040685
  91 H :    0.041782
  92 H :    0.039254

  Mayer bond orders larger than 0.100000
B(  0-C ,  1-C ) :   1.3111 B(  0-C , 11-C ) :   0.1124 B(  0-C , 13-C ) :   1.1682
B(  0-C , 82-H ) :   1.0608 B(  1-C ,  2-C ) :   1.1338 B(  1-C ,  6-N ) :   1.3357
B(  2-C ,  3-N ) :   1.4182 B(  2-C , 11-C ) :   1.2117 B(  3-N ,  4-C ) :   1.6717
B(  4-C ,  5-C ) :   1.2011 B(  4-C ,  9-C ) :   1.1603 B(  5-C ,  6-N ) :   1.7805
B(  5-C ,  7-C ) :   1.1584 B(  7-C ,  8-N ) :   3.0534 B(  9-C , 10-N ) :   3.0367
B( 11-C , 12-C ) :   1.1850 B( 11-C , 17-C ) :   1.2619 B( 12-C , 13-C ) :   1.1265
B( 12-C , 16-N ) :   1.4620 B( 13-C , 14-N ) :   1.4674 B( 14-N , 15-S ) :   1.3078
B( 14-N , 16-N ) :   0.1500 B( 15-S , 16-N ) :   1.2516 B( 17-C , 18-S ) :   1.1191
B( 17-C , 21-C ) :   1.3090 B( 18-S , 19-C ) :   1.0989 B( 19-C , 20-C ) :   1.2860
B( 19-C , 25-C ) :   1.2178 B( 20-C , 21-C ) :   1.2610 B( 20-C , 24-C ) :   1.1671
B( 21-C , 22-N ) :   1.2299 B( 22-N , 23-N ) :   1.1319 B( 22-N , 83-H ) :   0.9024
B( 23-N , 24-C ) :   1.7253 B( 24-C , 84-H ) :   0.9915 B( 25-C , 26-C ) :   1.6303
B( 25-C , 85-H ) :   0.9442 B( 26-C , 27-C ) :   1.1470 B( 26-C , 86-H ) :   0.9441
B( 27-C , 28-C ) :   1.3115 B( 27-C , 37-C ) :   1.3140 B( 28-C , 29-C ) :   0.8410
B( 28-C , 34-C ) :   1.3403 B( 29-C , 30-O ) :   2.1884 B( 29-C , 31-S ) :   1.0283
B( 30-O , 31-S ) :   0.1056 B( 31-S , 32-C ) :   1.0408 B( 31-S , 33-O ) :   0.1057
B( 32-C , 33-O ) :   2.1535 B( 32-C , 34-C ) :   0.8472 B( 34-C , 35-C ) :   1.3519
B( 35-C , 36-C ) :   1.3259 B( 35-C , 43-C ) :   1.0839 B( 36-C , 37-C ) :   1.3656
B( 36-C , 41-C ) :   0.8980 B( 37-C , 38-C ) :   0.9168 B( 38-C , 39-O ) :   2.2188
B( 38-C , 40-O ) :   1.0637 B( 40-O , 41-C ) :   1.0486 B( 41-C , 42-O ) :   2.2611
B( 43-C , 44-C ) :   1.6470 B( 43-C , 87-H ) :   0.9146 B( 44-C , 45-C ) :   1.2207
B( 44-C , 88-H ) :   0.9520 B( 45-C , 46-C ) :   1.2233 B( 45-C , 56-C ) :   0.1347
B( 45-C , 58-C ) :   1.2044 B( 46-C , 47-C ) :   1.1249 B( 46-C , 51-N ) :   1.4151
B( 47-C , 48-N ) :   1.4438 B( 47-C , 56-C ) :   1.2700 B( 48-N , 49-C ) :   1.7498
B( 49-C , 50-C ) :   1.2000 B( 49-C , 54-C ) :   1.1562 B( 50-C , 51-N ) :   1.7307
B( 50-C , 52-C ) :   1.1479 B( 52-C , 53-N ) :   3.0504 B( 54-C , 55-N ) :   3.0475
B( 56-C , 57-C ) :   1.2361 B( 56-C , 62-C ) :   1.1281 B( 57-C , 58-C ) :   1.1059
B( 57-C , 61-N ) :   1.4836 B( 58-C , 59-N ) :   1.5007 B( 59-N , 60-S ) :   1.3128
B( 59-N , 61-N ) :   0.1573 B( 60-S , 61-N ) :   1.3045 B( 62-C , 63-C ) :   1.6528
B( 62-C , 89-H ) :   0.9250 B( 63-C , 64-C ) :   1.0475 B( 63-C , 72-C ) :   0.9300
B( 64-C , 65-C ) :   1.6578 B( 64-C , 70-C ) :   1.0120 B( 65-C , 66-C ) :   1.1390
B( 65-C , 68-C ) :   1.1420 B( 66-C , 67-N ) :   2.9723 B( 68-C , 69-N ) :   2.9843
B( 70-C , 71-C ) :   1.2703 B( 70-C , 77-C ) :   1.4042 B( 71-C , 72-C ) :   0.9510
B( 71-C , 74-C ) :   1.4214 B( 72-C , 73-O ) :   2.2211 B( 74-C , 75-C ) :   1.2495
B( 74-C , 90-H ) :   1.0166 B( 75-C , 76-C ) :   1.2997 B( 75-C , 80-C ) :   1.1627
B( 76-C , 77-C ) :   1.3366 B( 76-C , 78-S ) :   1.0875 B( 77-C , 91-H ) :   0.9796
B( 78-S , 79-C ) :   1.0876 B( 79-C , 80-C ) :   1.6170 B( 79-C , 81-Br) :   1.0227
B( 80-C , 92-H ) :   1.0002

-----------------------------------------------------------------------------
         ABSORPTION SPECTRUM VIA TRANSITION ELECTRIC DIPOLE MOMENTS
-----------------------------------------------------------------------------
State   Energy  Wavelength   fosc         T2         TX        TY        TZ
        (cm-1)    (nm)                  (au**2)     (au)      (au)      (au)
-----------------------------------------------------------------------------
   0   10284.8    972.3   0.838621608  26.84391  -2.40348   4.10370  -2.05592
   1   13981.6    715.2   0.469760469  11.06100  -0.17414   2.95771  -1.51084
   2   16633.0    601.2   0.031909154   0.63157  -0.42172  -0.10943   0.66464
   3   16977.8    589.0   0.047613947   0.92327  -0.24620   0.83876  -0.39890
   4   21237.7    470.9   0.070595058   1.09432   0.48916  -0.43955   0.81353
   5   21606.0    462.8   0.348462595   5.30953  -0.67367   1.97703  -0.97316
   6   22175.7    450.9   0.026083110   0.38722  -0.28467  -0.41751   0.36313
   7   22668.7    441.1   0.014950467   0.21712  -0.28943   0.34053   0.13190
   8   23080.4    433.3   0.051820858   0.73916   0.33425   0.74642  -0.26512
   9   23389.1    427.5   0.046758929   0.65815  -0.34264   0.72084  -0.14542
  10   24505.2    408.1   0.173302850   2.32822  -0.59854   1.14191  -0.81609
  11   24774.6    403.6   0.001256167   0.01669   0.09718   0.05548   0.06458
  12   24963.2    400.6   0.025290881   0.33353   0.01976  -0.57584  -0.03943
  13   25339.6    394.6   0.039999848   0.51968  -0.35821   0.52062  -0.34688
  14   25643.3    390.0   0.044761940   0.57466   0.13785   0.65424  -0.35724
  15   26116.1    382.9   0.039212833   0.49431   0.44151  -0.26226   0.48020
  16   26428.7    378.4   0.039934382   0.49745  -0.64190  -0.13321  -0.26014
  17   27006.4    370.3   0.041677921   0.50806   0.66671   0.21522   0.13131
  18   27389.6    365.1   0.011043565   0.13274  -0.33736  -0.10166  -0.09270
  19   27747.4    360.4   0.039931148   0.47377   0.41145  -0.54652  -0.07609
  20   28786.9    347.4   0.078785717   0.90101   0.31158  -0.52526   0.72666
  21   28939.1    345.6   0.066529094   0.75684  -0.42951  -0.56116   0.50740
  22   29634.3    337.4   0.019105875   0.21225   0.04319  -0.38630   0.24729
  23   29682.8    336.9   0.064147805   0.71146   0.46416  -0.39887  -0.58045
  24   29834.6    335.2   0.066113821   0.72954  -0.46187   0.28951  -0.65757
  25   30041.4    332.9   0.055434744   0.60749   0.38860   0.24698  -0.62887
  26   30184.4    331.3   0.511588754   5.57974  -1.84926  -0.20996  -1.45462
  27   30534.6    327.5   0.270731731   2.91892  -1.45989   0.22686  -0.85801
  28   30913.9    323.5   0.026086019   0.27780  -0.00728   0.23464  -0.47190
  29   30976.8    322.8   0.009760546   0.10373  -0.01996   0.27144   0.17221
  30   31235.7    320.1   0.033437671   0.35242   0.37890   0.39376   0.23197
  31   31616.7    316.3   0.021509214   0.22397   0.45749  -0.12028   0.01417
  32   32040.8    312.1   0.459331834   4.71953  -1.54728  -1.20511   0.93442
  33   32076.8    311.8   0.034971585   0.35892   0.25882   0.42438   0.33442
  34   32231.6    310.3   0.106085762   1.08356  -0.78936  -0.67703   0.04581
  35   32331.1    309.3   0.001606601   0.01636   0.05393  -0.05938  -0.09963
  36   32485.0    307.8   0.032904856   0.33347   0.23872  -0.42506   0.30952
  37   32783.5    305.0   0.039561091   0.39727  -0.03368  -0.62255   0.09255
  38   32942.1    303.6   0.253290092   2.53130  -0.87395  -0.98175   0.89648
  39   33205.4    301.2   0.150812290   1.49521   1.19131   0.05782  -0.26954
  40   33370.9    299.7   0.026781012   0.26420   0.03583  -0.50162   0.10626
  41   33423.3    299.2   0.109441384   1.07797  -0.23462  -0.87353   0.50978
  42   33454.5    298.9   0.013627488   0.13410  -0.30339   0.07273  -0.19175
  43   33780.8    296.0   0.155909712   1.51943   1.21857  -0.03385  -0.18265
  44   34014.3    294.0   0.046003038   0.44525   0.21922   0.11053  -0.62046
  45   34289.7    291.6   0.014522282   0.13943  -0.22650   0.22375  -0.19509
  46   34325.5    291.3   0.039636412   0.38015  -0.46136   0.01960  -0.40855
  47   34651.8    288.6   0.049868479   0.47378  -0.68253  -0.08754  -0.01653
  48   34776.9    287.5   0.244696501   2.31639   0.31295   1.28176   0.75865
  49   34976.8    285.9   0.228696011   2.15255   1.33768   0.35536   0.48671
  50   35167.9    284.4   0.012959025   0.12131   0.34354   0.01910   0.05408
  51   35309.1    283.2   0.167273279   1.55961   1.24518   0.09007  -0.03199
  52   35648.7    280.5   0.009238911   0.08532  -0.10182  -0.26969  -0.04711
  53   35735.9    279.8   0.001151682   0.01061  -0.00140   0.05077  -0.08961
  54   36363.7    275.0   0.003034895   0.02748   0.03285   0.14543  -0.07243
  55   36454.4    274.3   0.008930517   0.08065  -0.02312   0.13638  -0.24803
  56   36795.5    271.8   0.002450595   0.02193  -0.10766  -0.07440  -0.06928
  57   36959.7    270.6   0.186365342   1.66002   1.20278   0.22300  -0.40449
  58   37046.9    269.9   0.012768855   0.11347  -0.27309  -0.17404   0.09274
  59   37165.6    269.1   0.053276689   0.47192   0.43543   0.03158   0.53040
  60   37211.0    268.7   0.002170353   0.01920  -0.07228   0.04871   0.10773
  61   37442.3    267.1   0.060362448   0.53074  -0.66923   0.25797  -0.12777
  62   37494.3    266.7   0.012406290   0.10893  -0.24525   0.14161  -0.16950
  63   37577.6    266.1   0.002078964   0.01821  -0.12613   0.04800  -0.00028
  64   37723.9    265.1   0.024343775   0.21244   0.45939  -0.02526   0.02772
  65   38267.7    261.3   0.014977361   0.12885  -0.23892  -0.19807   0.18037
  66   38393.6    260.5   0.019459747   0.16686  -0.13274   0.31402  -0.22502
  67   38425.9    260.2   0.009202385   0.07884   0.11317   0.11529   0.22965
  68   38481.1    259.9   0.024202466   0.20706  -0.10526   0.33434   0.29016
  69   38506.5    259.7   0.042515070   0.36348   0.49710  -0.14237  -0.31000
  70   38643.6    258.8   0.003569279   0.03041   0.10795  -0.03053  -0.13350
  71   38863.8    257.3   0.019194956   0.16260  -0.25393   0.30811  -0.05644
  72   39012.3    256.3   0.034304469   0.28948  -0.09899  -0.44627   0.28377
  73   39163.1    255.3   0.002782548   0.02339  -0.03569   0.14166   0.04526
  74   39457.3    253.4   0.003143412   0.02623  -0.07339  -0.08502   0.11668
  75   39656.2    252.2   0.000596658   0.00495  -0.02290  -0.01836  -0.06397
  76   39852.5    250.9   0.003434857   0.02837  -0.16173   0.00695   0.04659
  77   39968.8    250.2   0.015400714   0.12685   0.33059  -0.09401  -0.09339
  78   40017.8    249.9   0.035700406   0.29369   0.49865  -0.20839   0.04017
  79   40067.0    249.6   0.014390595   0.11824   0.28478  -0.02698  -0.19082
  80   40116.2    249.3   0.074036385   0.60758   0.59035   0.43817  -0.25898
  81   40240.7    248.5   0.004412803   0.03610   0.08931   0.16661   0.01916

FINAL SINGLE POINT ENERGY     -7951.706887452944

DIPOLE MOMENT
-------------
                                X             Y             Z
Electronic contribution:     61.17471     -86.86644      95.26443
Nuclear contribution   :    -56.23549      89.97598     -95.02249
                        -----------------------------------------
Total Dipole Moment    :      4.93921       3.10954       0.24193
                        -----------------------------------------
Magnitude (a.u.)       :      5.84154
Magnitude (Debye)      :     14.84802

Rotational constants in cm-1:     0.001515     0.000163     0.000156
Rotational constants in MHz :    45.423409     4.882431     4.687937

                             ****ORCA TERMINATED NORMALLY****
TOTAL RUN TIME: 0 days 0 hours 11 minutes 17 seconds 121 msec
