                         Program Version 4.2.0 -  RELEASE  -
|  1> # ORCA input file
|  2> # SCF done       -176.018464341877          0.000447258909
|  3> ! CAM-B3LYP def2-SVP def2/J RIJCOSX Grid4 TightSCF
|  4> %maxcore 5000
|  5> %tddft
|  6>     Mode sTDDFT
|  7>     Ethresh 5.0
|  8>     maxcore 5000
|  9> end
| 10>
| 11> %pal
| 12>   nprocs 6
| 13>   end
| 14> * xyz 0 1
| 15>    C        8.31272        -5.06120        -1.53010
| 16>    C        7.56914        -5.85669        -2.38541
| 17>    C        6.12582        -5.87801        -2.31573
| 18>    N        5.44907        -6.72819        -3.08040
| 19>    C        6.07828        -7.51403        -3.92970
| 20>    C        7.50288        -7.43214        -4.05099
| 21>    N        8.20459        -6.63549        -3.28962
| 22>    C        8.16378        -8.23927        -5.01372
| 23>    N        8.65479        -8.90525        -5.80517
| 24>    C        5.30020        -8.41932        -4.68296
| 25>    N        4.64024        -9.14523        -5.27694
| 26>    C        5.37457        -5.02606        -1.45510
| 27>    C        6.16056        -4.31411        -0.51479
| 28>    C        7.61236        -4.33276        -0.57353
| 29>    N        8.15999        -3.61600         0.41281
| 30>    S        6.99720        -3.02511         1.34112
| 31>    N        5.73395        -3.61863         0.53920
| 32>    C        3.95715        -5.01498        -1.57619
| 33>    S        3.20194        -6.38703        -2.34478
| 34>    C        2.99428        -4.06136        -1.21448
| 35>    C        3.34969        -2.67899        -0.77421
| 36>    C        4.03808        -1.89954        -1.90486
| 37>    N        4.23753        -0.52990        -1.47164
| 38>    C        1.67617        -4.47425        -1.45602
| 39>    C        0.46638        -3.67569        -1.10072
| 40>    C       -0.02890        -4.02531         0.32765
| 41>    N        0.86993        -3.67834         1.40126
| 42>    C        1.60341        -5.75584        -2.01387
| 43>    C        0.50573        -6.54961        -2.37498
| 44>    S       -1.17614        -6.16110        -2.05792
| 45>    C       -1.80264        -7.65090        -2.72319
| 46>    C       -0.73543        -8.42177        -3.19629
| 47>    C        0.53184        -7.80274        -3.00308
| 48>    N        1.44992        -8.65281        -3.51712
| 49>    N        0.86763        -9.74543        -4.02270
| 50>    C       -0.42480        -9.64237        -3.84692
| 51>    C       -3.18987        -7.87289        -2.70300
| 52>    C       -3.76583        -9.05760        -3.05695
| 53>    C       -5.13310        -9.41707        -3.09763
| 54>    S       -5.45136       -11.11195        -3.33139
| 55>    C       -6.32821        -8.69989        -3.01256
| 56>    C       -6.39557        -7.24258        -2.68711
| 57>    C       -6.28096        -7.01702        -1.16951
| 58>    N       -6.35211        -5.59489        -0.89176
| 59>    C       -7.47009        -9.50492        -3.18885
| 60>    C       -8.85238        -8.93883        -3.15142
| 61>    C       -9.20397        -8.20426        -4.45727
| 62>    N      -10.50491        -7.57446        -4.31196
| 63>    C       -7.16714       -10.85521        -3.34851
| 64>    C       -7.99190       -12.03303        -3.39398
| 65>    C       -9.20600       -12.16532        -4.10653
| 66>    C       -9.99311       -13.38087        -4.04186
| 67>    N      -11.17614       -13.45368        -4.69210
| 68>    C      -11.55648       -12.44825        -5.42949
| 69>    C      -10.72236       -11.28694        -5.58124
| 70>    N       -9.59923       -11.17174        -4.91583
| 71>    C      -11.12451       -10.24087        -6.44588
| 72>    N      -11.49319        -9.40041        -7.13315
| 73>    C      -12.80703       -12.49950        -6.09790
| 74>    N      -13.80935       -12.49425        -6.65169
| 75>    C       -9.57321       -14.49336        -3.32697
| 76>    C       -8.35263       -14.40612        -2.67137
| 77>    C       -7.56490       -13.19185        -2.70895
| 78>    N       -6.44239       -13.31698        -1.99580
| 79>    S       -6.37819       -14.78963        -1.36930
| 80>    N       -7.75828       -15.35930        -1.94258
| 81>    H        9.38722        -5.04646        -1.57724
| 82>    H        4.01968        -2.71837         0.08420
| 83>    H        2.46383        -2.11739        -0.48736
| 84>    H        3.38630        -1.88012        -2.78402
| 85>    H        4.97117        -2.41469        -2.19178
| 86>    H        4.61817         0.03470        -2.22221
| 87>    H        4.88842        -0.49778        -0.69378
| 88>    H       -0.33724        -3.88023        -1.80902
| 89>    H        0.68146        -2.60782        -1.15091
| 90>    H       -0.21404        -5.10096         0.38808
| 91>    H       -0.97504        -3.50729         0.50255
| 92>    H        1.03467        -2.67844         1.43095
| 93>    H        1.76529        -4.14120         1.28962
| 94>    H        2.44803        -8.54077        -3.60298
| 95>    H       -1.07599       -10.42048        -4.18833
| 96>    H       -3.78082        -7.04534        -2.34757
| 97>    H       -3.09493        -9.86412        -3.32040
| 98>    H       -7.34038        -6.81196        -3.00839
| 99>    H       -5.59728        -6.70623        -3.20192
|100>    H       -5.36493        -7.50117        -0.78878
|101>    H       -7.13170        -7.49461        -0.67593
|102>    H       -5.53359        -5.11499        -1.25114
|103>    H       -6.40303        -5.42286         0.10522
|104>    H       -8.94438        -8.22897        -2.32824
|105>    H       -9.58049        -9.73357        -2.98997
|106>    H       -9.14484        -8.91726        -5.29166
|107>    H       -8.47727        -7.41145        -4.64928
|108>    H      -11.22805        -8.27895        -4.20503
|109>    H      -10.72982        -7.04122        -5.14464
|110>    H      -10.17616       -15.38419        -3.29611
|111> *
|112>
|113>                          ****END OF INPUT****

CARTESIAN COORDINATES (ANGSTROEM)
---------------------------------
  C      8.312720   -5.061200   -1.530100
  C      7.569140   -5.856690   -2.385410
  C      6.125820   -5.878010   -2.315730
  N      5.449070   -6.728190   -3.080400
  C      6.078280   -7.514030   -3.929700
  C      7.502880   -7.432140   -4.050990
  N      8.204590   -6.635490   -3.289620
  C      8.163780   -8.239270   -5.013720
  N      8.654790   -8.905250   -5.805170
  C      5.300200   -8.419320   -4.682960
  N      4.640240   -9.145230   -5.276940
  C      5.374570   -5.026060   -1.455100
  C      6.160560   -4.314110   -0.514790
  C      7.612360   -4.332760   -0.573530
  N      8.159990   -3.616000    0.412810
  S      6.997200   -3.025110    1.341120
  N      5.733950   -3.618630    0.539200
  C      3.957150   -5.014980   -1.576190
  S      3.201940   -6.387030   -2.344780
  C      2.994280   -4.061360   -1.214480
  C      3.349690   -2.678990   -0.774210
  C      4.038080   -1.899540   -1.904860
  N      4.237530   -0.529900   -1.471640
  C      1.676170   -4.474250   -1.456020
  C      0.466380   -3.675690   -1.100720
  C     -0.028900   -4.025310    0.327650
  N      0.869930   -3.678340    1.401260
  C      1.603410   -5.755840   -2.013870
  C      0.505730   -6.549610   -2.374980
  S     -1.176140   -6.161100   -2.057920
  C     -1.802640   -7.650900   -2.723190
  C     -0.735430   -8.421770   -3.196290
  C      0.531840   -7.802740   -3.003080
  N      1.449920   -8.652810   -3.517120
  N      0.867630   -9.745430   -4.022700
  C     -0.424800   -9.642370   -3.846920
  C     -3.189870   -7.872890   -2.703000
  C     -3.765830   -9.057600   -3.056950
  C     -5.133100   -9.417070   -3.097630
  S     -5.451360  -11.111950   -3.331390
  C     -6.328210   -8.699890   -3.012560
  C     -6.395570   -7.242580   -2.687110
  C     -6.280960   -7.017020   -1.169510
  N     -6.352110   -5.594890   -0.891760
  C     -7.470090   -9.504920   -3.188850
  C     -8.852380   -8.938830   -3.151420
  C     -9.203970   -8.204260   -4.457270
  N    -10.504910   -7.574460   -4.311960
  C     -7.167140  -10.855210   -3.348510
  C     -7.991900  -12.033030   -3.393980
  C     -9.206000  -12.165320   -4.106530
  C     -9.993110  -13.380870   -4.041860
  N    -11.176140  -13.453680   -4.692100
  C    -11.556480  -12.448250   -5.429490
  C    -10.722360  -11.286940   -5.581240
  N     -9.599230  -11.171740   -4.915830
  C    -11.124510  -10.240870   -6.445880
  N    -11.493190   -9.400410   -7.133150
  C    -12.807030  -12.499500   -6.097900
  N    -13.809350  -12.494250   -6.651690
  C     -9.573210  -14.493360   -3.326970
  C     -8.352630  -14.406120   -2.671370
  C     -7.564900  -13.191850   -2.708950
  N     -6.442390  -13.316980   -1.995800
  S     -6.378190  -14.789630   -1.369300
  N     -7.758280  -15.359300   -1.942580
  H      9.387220   -5.046460   -1.577240
  H      4.019680   -2.718370    0.084200
  H      2.463830   -2.117390   -0.487360
  H      3.386300   -1.880120   -2.784020
  H      4.971170   -2.414690   -2.191780
  H      4.618170    0.034700   -2.222210
  H      4.888420   -0.497780   -0.693780
  H     -0.337240   -3.880230   -1.809020
  H      0.681460   -2.607820   -1.150910
  H     -0.214040   -5.100960    0.388080
  H     -0.975040   -3.507290    0.502550
  H      1.034670   -2.678440    1.430950
  H      1.765290   -4.141200    1.289620
  H      2.448030   -8.540770   -3.602980
  H     -1.075990  -10.420480   -4.188330
  H     -3.780820   -7.045340   -2.347570
  H     -3.094930   -9.864120   -3.320400
  H     -7.340380   -6.811960   -3.008390
  H     -5.597280   -6.706230   -3.201920
  H     -5.364930   -7.501170   -0.788780
  H     -7.131700   -7.494610   -0.675930
  H     -5.533590   -5.114990   -1.251140
  H     -6.403030   -5.422860    0.105220
  H     -8.944380   -8.228970   -2.328240
  H     -9.580490   -9.733570   -2.989970
  H     -9.144840   -8.917260   -5.291660
  H     -8.477270   -7.411450   -4.649280
  H    -11.228050   -8.278950   -4.205030
  H    -10.729820   -7.041220   -5.144640
  H    -10.176160  -15.384190   -3.296110

 Total Charge           Charge          ....    0
 Multiplicity           Mult            ....    1
 Number of Electrons    NEL             ....  494
 Basis Dimension        Dim             .... 1094

ORBITAL ENERGIES
----------------

  NO   OCC          E(Eh)            E(eV)
   0   2.0000     -89.051902     -2423.2255
   1   2.0000     -89.045072     -2423.0396
   2   2.0000     -88.979527     -2421.2560
   3   2.0000     -88.961913     -2420.7767
   4   2.0000     -88.959552     -2420.7125
   5   2.0000     -14.488477      -394.2515
   6   2.0000     -14.467323      -393.6759
   7   2.0000     -14.466181      -393.6448
   8   2.0000     -14.463684      -393.5768
   9   2.0000     -14.458713      -393.4416
  10   2.0000     -14.457382      -393.4054
  11   2.0000     -14.456177      -393.3726
  12   2.0000     -14.455611      -393.3572
  13   2.0000     -14.449371      -393.1874
  14   2.0000     -14.441242      -392.9662
  15   2.0000     -14.435226      -392.8025
  16   2.0000     -14.433297      -392.7500
  17   2.0000     -14.432972      -392.7411
  18   2.0000     -14.429077      -392.6351
  19   2.0000     -14.387293      -391.4982
  20   2.0000     -14.386439      -391.4749
  21   2.0000     -14.381385      -391.3374
  22   2.0000     -14.373240      -391.1158
  23   2.0000     -10.385881      -282.6142
  24   2.0000     -10.383659      -282.5537
  25   2.0000     -10.381902      -282.5059
  26   2.0000     -10.378023      -282.4004
  27   2.0000     -10.353131      -281.7230
  28   2.0000     -10.350931      -281.6632
  29   2.0000     -10.348789      -281.6049
  30   2.0000     -10.346749      -281.5493
  31   2.0000     -10.346598      -281.5452
  32   2.0000     -10.346169      -281.5336
  33   2.0000     -10.344784      -281.4959
  34   2.0000     -10.341531      -281.4074
  35   2.0000     -10.333946      -281.2010
  36   2.0000     -10.331882      -281.1448
  37   2.0000     -10.329077      -281.0685
  38   2.0000     -10.328988      -281.0661
  39   2.0000     -10.328809      -281.0612
  40   2.0000     -10.328325      -281.0480
  41   2.0000     -10.325774      -280.9786
  42   2.0000     -10.324207      -280.9360
  43   2.0000     -10.322081      -280.8781
  44   2.0000     -10.317455      -280.7522
  45   2.0000     -10.315381      -280.6958
  46   2.0000     -10.313631      -280.6482
  47   2.0000     -10.311500      -280.5902
  48   2.0000     -10.306618      -280.4573
  49   2.0000     -10.303160      -280.3632
  50   2.0000     -10.302293      -280.3396
  51   2.0000     -10.300599      -280.2936
  52   2.0000     -10.298948      -280.2486
  53   2.0000     -10.294142      -280.1178
  54   2.0000     -10.293728      -280.1066
  55   2.0000     -10.292604      -280.0760
  56   2.0000     -10.291500      -280.0460
  57   2.0000     -10.290284      -280.0129
  58   2.0000     -10.289312      -279.9864
  59   2.0000     -10.286723      -279.9160
  60   2.0000     -10.285224      -279.8752
  61   2.0000     -10.278240      -279.6851
  62   2.0000     -10.272377      -279.5256
  63   2.0000     -10.271955      -279.5141
  64   2.0000     -10.267996      -279.4064
  65   2.0000     -10.262453      -279.2555
  66   2.0000      -8.143191      -221.5875
  67   2.0000      -8.136581      -221.4076
  68   2.0000      -8.073319      -219.6862
  69   2.0000      -8.055207      -219.1933
  70   2.0000      -8.055110      -219.1907
  71   2.0000      -6.114062      -166.3721
  72   2.0000      -6.107604      -166.1964
  73   2.0000      -6.106397      -166.1635
  74   2.0000      -6.106273      -166.1601
  75   2.0000      -6.099863      -165.9857
  76   2.0000      -6.099404      -165.9732
  77   2.0000      -6.042827      -164.4337
  78   2.0000      -6.038433      -164.3141
  79   2.0000      -6.035507      -164.2345
  80   2.0000      -6.025193      -163.9538
  81   2.0000      -6.024327      -163.9303
  82   2.0000      -6.020297      -163.8206
  83   2.0000      -6.020124      -163.8159
  84   2.0000      -6.017272      -163.7383
  85   2.0000      -6.016809      -163.7257
  86   2.0000      -1.151716       -31.3398
  87   2.0000      -1.147617       -31.2282
  88   2.0000      -1.141539       -31.0629
  89   2.0000      -1.123572       -30.5739
  90   2.0000      -1.121118       -30.5072
  91   2.0000      -1.050626       -28.5890
  92   2.0000      -1.048392       -28.5282
  93   2.0000      -1.018899       -27.7257
  94   2.0000      -1.017021       -27.6746
  95   2.0000      -1.009151       -27.4604
  96   2.0000      -1.007960       -27.4280
  97   2.0000      -1.006174       -27.3794
  98   2.0000      -1.004579       -27.3360
  99   2.0000      -0.996552       -27.1176
 100   2.0000      -0.993012       -27.0212
 101   2.0000      -0.987427       -26.8693
 102   2.0000      -0.977061       -26.5872
 103   2.0000      -0.972583       -26.4653
 104   2.0000      -0.967751       -26.3338
 105   2.0000      -0.966554       -26.3013
 106   2.0000      -0.962900       -26.2018
 107   2.0000      -0.954928       -25.9849
 108   2.0000      -0.931461       -25.3463
 109   2.0000      -0.913632       -24.8612
 110   2.0000      -0.909746       -24.7555
 111   2.0000      -0.907179       -24.6856
 112   2.0000      -0.898224       -24.4419
 113   2.0000      -0.891284       -24.2531
 114   2.0000      -0.881348       -23.9827
 115   2.0000      -0.875417       -23.8213
 116   2.0000      -0.865265       -23.5451
 117   2.0000      -0.857081       -23.3224
 118   2.0000      -0.846907       -23.0455
 119   2.0000      -0.837555       -22.7910
 120   2.0000      -0.833523       -22.6813
 121   2.0000      -0.827771       -22.5248
 122   2.0000      -0.811098       -22.0711
 123   2.0000      -0.802613       -21.8402
 124   2.0000      -0.793119       -21.5819
 125   2.0000      -0.786675       -21.4065
 126   2.0000      -0.781547       -21.2670
 127   2.0000      -0.770586       -20.9687
 128   2.0000      -0.750077       -20.4106
 129   2.0000      -0.741277       -20.1712
 130   2.0000      -0.732560       -19.9340
 131   2.0000      -0.722754       -19.6671
 132   2.0000      -0.717189       -19.5157
 133   2.0000      -0.715828       -19.4787
 134   2.0000      -0.708806       -19.2876
 135   2.0000      -0.705688       -19.2027
 136   2.0000      -0.704818       -19.1791
 137   2.0000      -0.698778       -19.0147
 138   2.0000      -0.694903       -18.9093
 139   2.0000      -0.689440       -18.7606
 140   2.0000      -0.685372       -18.6499
 141   2.0000      -0.685164       -18.6443
 142   2.0000      -0.678497       -18.4629
 143   2.0000      -0.661104       -17.9895
 144   2.0000      -0.656429       -17.8623
 145   2.0000      -0.651598       -17.7309
 146   2.0000      -0.647283       -17.6135
 147   2.0000      -0.642394       -17.4804
 148   2.0000      -0.631924       -17.1955
 149   2.0000      -0.628578       -17.1045
 150   2.0000      -0.616821       -16.7846
 151   2.0000      -0.611789       -16.6476
 152   2.0000      -0.607772       -16.5383
 153   2.0000      -0.600183       -16.3318
 154   2.0000      -0.593127       -16.1398
 155   2.0000      -0.590095       -16.0573
 156   2.0000      -0.582188       -15.8421
 157   2.0000      -0.581940       -15.8354
 158   2.0000      -0.576139       -15.6775
 159   2.0000      -0.573920       -15.6171
 160   2.0000      -0.566272       -15.4090
 161   2.0000      -0.564171       -15.3519
 162   2.0000      -0.561908       -15.2903
 163   2.0000      -0.558142       -15.1878
 164   2.0000      -0.557679       -15.1752
 165   2.0000      -0.556608       -15.1461
 166   2.0000      -0.554452       -15.0874
 167   2.0000      -0.551724       -15.0132
 168   2.0000      -0.545164       -14.8347
 169   2.0000      -0.541533       -14.7359
 170   2.0000      -0.539755       -14.6875
 171   2.0000      -0.535868       -14.5817
 172   2.0000      -0.534033       -14.5318
 173   2.0000      -0.532765       -14.4973
 174   2.0000      -0.528494       -14.3811
 175   2.0000      -0.523721       -14.2512
 176   2.0000      -0.519684       -14.1413
 177   2.0000      -0.516306       -14.0494
 178   2.0000      -0.509725       -13.8703
 179   2.0000      -0.505474       -13.7546
 180   2.0000      -0.501426       -13.6445
 181   2.0000      -0.496592       -13.5129
 182   2.0000      -0.493943       -13.4409
 183   2.0000      -0.490374       -13.3438
 184   2.0000      -0.489622       -13.3233
 185   2.0000      -0.486630       -13.2419
 186   2.0000      -0.486152       -13.2289
 187   2.0000      -0.482914       -13.1407
 188   2.0000      -0.481426       -13.1003
 189   2.0000      -0.480147       -13.0655
 190   2.0000      -0.479535       -13.0488
 191   2.0000      -0.474185       -12.9032
 192   2.0000      -0.474143       -12.9021
 193   2.0000      -0.468265       -12.7421
 194   2.0000      -0.461371       -12.5545
 195   2.0000      -0.460983       -12.5440
 196   2.0000      -0.459196       -12.4954
 197   2.0000      -0.457981       -12.4623
 198   2.0000      -0.457326       -12.4445
 199   2.0000      -0.454024       -12.3546
 200   2.0000      -0.452388       -12.3101
 201   2.0000      -0.451900       -12.2968
 202   2.0000      -0.451156       -12.2766
 203   2.0000      -0.446557       -12.1514
 204   2.0000      -0.445856       -12.1324
 205   2.0000      -0.443661       -12.0726
 206   2.0000      -0.441392       -12.0109
 207   2.0000      -0.440898       -11.9974
 208   2.0000      -0.437925       -11.9165
 209   2.0000      -0.436934       -11.8896
 210   2.0000      -0.434697       -11.8287
 211   2.0000      -0.434184       -11.8147
 212   2.0000      -0.429851       -11.6968
 213   2.0000      -0.427283       -11.6270
 214   2.0000      -0.426105       -11.5949
 215   2.0000      -0.423992       -11.5374
 216   2.0000      -0.421811       -11.4781
 217   2.0000      -0.420487       -11.4420
 218   2.0000      -0.419852       -11.4248
 219   2.0000      -0.417508       -11.3610
 220   2.0000      -0.414759       -11.2862
 221   2.0000      -0.414276       -11.2730
 222   2.0000      -0.411842       -11.2068
 223   2.0000      -0.406658       -11.0657
 224   2.0000      -0.405843       -11.0436
 225   2.0000      -0.400658       -10.9025
 226   2.0000      -0.389494       -10.5987
 227   2.0000      -0.383089       -10.4244
 228   2.0000      -0.374529       -10.1914
 229   2.0000      -0.369540       -10.0557
 230   2.0000      -0.367316        -9.9952
 231   2.0000      -0.364683        -9.9235
 232   2.0000      -0.351762        -9.5719
 233   2.0000      -0.348902        -9.4941
 234   2.0000      -0.347886        -9.4664
 235   2.0000      -0.344702        -9.3798
 236   2.0000      -0.329283        -8.9602
 237   2.0000      -0.325699        -8.8627
 238   2.0000      -0.318050        -8.6546
 239   2.0000      -0.314009        -8.5446
 240   2.0000      -0.312225        -8.4961
 241   2.0000      -0.306274        -8.3342
 242   2.0000      -0.300860        -8.1868
 243   2.0000      -0.296982        -8.0813
 244   2.0000      -0.295394        -8.0381
 245   2.0000      -0.273456        -7.4411
 246   2.0000      -0.227426        -6.1886
 247   0.0000      -0.127763        -3.4766
 248   0.0000      -0.118258        -3.2180
 249   0.0000      -0.069805        -1.8995
 250   0.0000      -0.052470        -1.4278
 251   0.0000      -0.049094        -1.3359

MULLIKEN ATOMIC CHARGES
-----------------------
   0 C :   -0.102762
   1 C :    0.041008
   2 C :   -0.056311
   3 N :   -0.025170
   4 C :   -0.103583
   5 C :   -0.130865
   6 N :    0.053297
   7 C :   -0.222066
   8 N :    0.234153
   9 C :   -0.227393
  10 N :    0.223056
  11 C :    0.184107
  12 C :   -0.047374
  13 C :    0.102021
  14 N :   -0.271850
  15 S :    0.526929
  16 N :   -0.289680
  17 C :   -0.192854
  18 S :    0.092606
  19 C :   -0.026872
  20 C :    0.084103
  21 C :    0.089511
  22 N :   -0.216326
  23 C :   -0.126270
  24 C :    0.059508
  25 C :    0.113941
  26 N :   -0.227442
  27 C :   -0.029526
  28 C :   -0.169349
  29 S :    0.133320
  30 C :   -0.107157
  31 C :    0.010066
  32 C :    0.133420
  33 N :   -0.036743
  34 N :   -0.038577
  35 C :   -0.015453
  36 C :    0.049771
  37 C :    0.064798
  38 C :   -0.105726
  39 S :    0.172718
  40 C :   -0.098056
  41 C :    0.084589
  42 C :    0.093972
  43 N :   -0.212046
  44 C :    0.008579
  45 C :    0.132378
  46 C :    0.073554
  47 N :   -0.212721
  48 C :   -0.229353
  49 C :    0.154151
  50 C :   -0.079738
  51 C :    0.028095
  52 N :    0.054639
  53 C :   -0.146312
  54 C :   -0.142900
  55 N :    0.057681
  56 C :   -0.218749
  57 N :    0.234147
  58 C :   -0.199047
  59 N :    0.235915
  60 C :   -0.085697
  61 C :    0.106067
  62 C :   -0.049615
  63 N :   -0.282167
  64 S :    0.552270
  65 N :   -0.265731
  66 H :   -0.023001
  67 H :    0.019956
  68 H :   -0.024736
  69 H :    0.002104
  70 H :   -0.005686
  71 H :    0.094076
  72 H :    0.085469
  73 H :    0.004505
  74 H :    0.010540
  75 H :    0.002313
  76 H :    0.006416
  77 H :    0.092593
  78 H :    0.100101
  79 H :    0.149785
  80 H :    0.008316
  81 H :   -0.038814
  82 H :   -0.025937
  83 H :    0.014987
  84 H :    0.001608
  85 H :   -0.006218
  86 H :   -0.001447
  87 H :    0.086931
  88 H :    0.096297
  89 H :    0.006532
  90 H :   -0.023009
  91 H :    0.007706
  92 H :   -0.002897
  93 H :    0.085785
  94 H :    0.098524
  95 H :   -0.015692
Sum of atomic charges:   -0.0000000

LOEWDIN ATOMIC CHARGES
----------------------
   0 C :   -0.041529
   1 C :   -0.004236
   2 C :   -0.022485
   3 N :   -0.020957
   4 C :   -0.046452
   5 C :   -0.022950
   6 N :   -0.008054
   7 C :   -0.034017
   8 N :   -0.005319
   9 C :   -0.038883
  10 N :   -0.019206
  11 C :   -0.020365
  12 C :   -0.049764
  13 C :   -0.041127
  14 N :   -0.289994
  15 S :    0.662505
  16 N :   -0.270627
  17 C :   -0.181116
  18 S :    0.460053
  19 C :   -0.010748
  20 C :   -0.048754
  21 C :    0.024830
  22 N :   -0.118801
  23 C :   -0.072143
  24 C :   -0.057508
  25 C :    0.018640
  26 N :   -0.104520
  27 C :   -0.157965
  28 C :   -0.224751
  29 S :    0.477110
  30 C :   -0.147993
  31 C :   -0.095548
  32 C :   -0.011137
  33 N :    0.101924
  34 N :   -0.037605
  35 C :   -0.040621
  36 C :   -0.049892
  37 C :   -0.026194
  38 C :   -0.164870
  39 S :    0.479736
  40 C :   -0.044299
  41 C :   -0.033812
  42 C :    0.022110
  43 N :   -0.117691
  44 C :   -0.019271
  45 C :   -0.032163
  46 C :    0.021360
  47 N :   -0.117196
  48 C :   -0.172803
  49 C :   -0.018715
  50 C :   -0.020323
  51 C :   -0.008435
  52 N :    0.000047
  53 C :   -0.026229
  54 C :   -0.040159
  55 N :    0.016042
  56 C :   -0.038942
  57 N :   -0.011515
  58 C :   -0.035297
  59 N :   -0.001450
  60 C :   -0.010542
  61 C :   -0.046808
  62 C :   -0.051716
  63 N :   -0.293143
  64 S :    0.690977
  65 N :   -0.286255
  66 H :    0.045195
  67 H :    0.020149
  68 H :    0.018625
  69 H :    0.019824
  70 H :   -0.002319
  71 H :    0.056312
  72 H :    0.049281
  73 H :    0.012965
  74 H :    0.029332
  75 H :    0.011050
  76 H :    0.018887
  77 H :    0.050506
  78 H :    0.052446
  79 H :    0.073116
  80 H :    0.022358
  81 H :    0.025809
  82 H :    0.030857
  83 H :    0.035257
  84 H :    0.025029
  85 H :   -0.001978
  86 H :    0.020960
  87 H :    0.049595
  88 H :    0.057005
  89 H :    0.031203
  90 H :    0.019212
  91 H :   -0.001538
  92 H :    0.014586
  93 H :    0.046230
  94 H :    0.058965
  95 H :    0.048641

  Mayer bond orders larger than 0.100000
B(  0-C ,  1-C ) :   1.3281 B(  0-C , 11-C ) :   0.1060 B(  0-C , 13-C ) :   1.1726
B(  0-C , 66-H ) :   1.0536 B(  1-C ,  2-C ) :   1.1240 B(  1-C ,  6-N ) :   1.3348
B(  2-C ,  3-N ) :   1.4189 B(  2-C , 11-C ) :   1.2161 B(  3-N ,  4-C ) :   1.6370
B(  4-C ,  5-C ) :   1.2081 B(  4-C ,  9-C ) :   1.1752 B(  5-C ,  6-N ) :   1.7728
B(  5-C ,  7-C ) :   1.1646 B(  7-C ,  8-N ) :   3.0493 B(  9-C , 10-N ) :   2.9781
B( 11-C , 12-C ) :   1.1889 B( 11-C , 17-C ) :   1.2215 B( 12-C , 13-C ) :   1.1108
B( 12-C , 16-N ) :   1.4966 B( 13-C , 14-N ) :   1.4831 B( 14-N , 15-S ) :   1.2837
B( 14-N , 16-N ) :   0.1497 B( 15-S , 16-N ) :   1.2619 B( 17-C , 18-S ) :   1.0936
B( 17-C , 19-C ) :   1.3825 B( 18-S , 27-C ) :   1.0590 B( 19-C , 20-C ) :   1.0787
B( 19-C , 23-C ) :   1.3765 B( 20-C , 21-C ) :   1.0795 B( 20-C , 67-H ) :   0.8697
B( 20-C , 68-H ) :   0.8911 B( 21-C , 22-N ) :   1.0955 B( 21-C , 69-H ) :   0.9392
B( 21-C , 70-H ) :   0.9415 B( 22-N , 71-H ) :   0.9685 B( 22-N , 72-H ) :   0.9713
B( 23-C , 24-C ) :   1.0780 B( 23-C , 27-C ) :   1.3937 B( 24-C , 25-C ) :   1.0401
B( 24-C , 73-H ) :   0.8907 B( 24-C , 74-H ) :   0.9071 B( 25-C , 26-N ) :   1.1246
B( 25-C , 75-H ) :   0.9473 B( 25-C , 76-H ) :   0.9519 B( 26-N , 77-H ) :   0.9802
B( 26-N , 78-H ) :   0.9823 B( 27-C , 28-C ) :   1.2841 B( 28-C , 29-S ) :   1.0839
B( 28-C , 30-C ) :   0.1010 B( 28-C , 32-C ) :   1.3230 B( 29-S , 30-C ) :   1.1437
B( 30-C , 31-C ) :   1.2771 B( 30-C , 36-C ) :   1.2039 B( 31-C , 32-C ) :   1.2700
B( 31-C , 35-C ) :   1.1607 B( 32-C , 33-N ) :   1.1810 B( 33-N , 34-N ) :   1.1465
B( 33-N , 79-H ) :   0.9297 B( 34-N , 35-C ) :   1.7367 B( 35-C , 80-H ) :   0.9950
B( 36-C , 37-C ) :   1.6208 B( 36-C , 81-H ) :   0.9480 B( 37-C , 38-C ) :   1.1709
B( 37-C , 82-H ) :   0.9386 B( 38-C , 39-S ) :   1.1352 B( 38-C , 40-C ) :   1.4320
B( 38-C , 48-C ) :   0.1069 B( 39-S , 48-C ) :   1.1425 B( 40-C , 41-C ) :   1.0640
B( 40-C , 44-C ) :   1.3421 B( 41-C , 42-C ) :   1.0892 B( 41-C , 83-H ) :   0.8914
B( 41-C , 84-H ) :   0.9076 B( 42-C , 43-N ) :   1.1002 B( 42-C , 85-H ) :   0.9448
B( 42-C , 86-H ) :   0.9333 B( 43-N , 87-H ) :   0.9760 B( 43-N , 88-H ) :   0.9676
B( 44-C , 45-C ) :   1.0872 B( 44-C , 48-C ) :   1.4666 B( 45-C , 46-C ) :   1.0790
B( 45-C , 89-H ) :   0.8906 B( 45-C , 90-H ) :   0.8933 B( 46-C , 47-N ) :   1.0989
B( 46-C , 91-H ) :   0.9237 B( 46-C , 92-H ) :   0.9369 B( 47-N , 93-H ) :   0.9753
B( 47-N , 94-H ) :   0.9680 B( 48-C , 49-C ) :   1.0650 B( 49-C , 50-C ) :   1.2955
B( 49-C , 60-C ) :   0.1311 B( 49-C , 62-C ) :   1.2368 B( 50-C , 51-C ) :   1.1064
B( 50-C , 55-N ) :   1.4436 B( 51-C , 52-N ) :   1.3297 B( 51-C , 60-C ) :   1.3166
B( 52-N , 53-C ) :   1.7922 B( 53-C , 54-C ) :   1.1771 B( 53-C , 58-C ) :   1.1501
B( 54-C , 55-N ) :   1.7410 B( 54-C , 56-C ) :   1.1522 B( 56-C , 57-N ) :   3.0104
B( 58-C , 59-N ) :   3.0513 B( 60-C , 61-C ) :   1.1714 B( 60-C , 95-H ) :   1.0598
B( 61-C , 62-C ) :   1.1263 B( 61-C , 65-N ) :   1.4662 B( 62-C , 63-N ) :   1.4871
B( 63-N , 64-S ) :   1.2942 B( 63-N , 65-N ) :   0.1575 B( 64-S , 65-N ) :   1.3049

-----------------------------------------------------------------------------
         ABSORPTION SPECTRUM VIA TRANSITION ELECTRIC DIPOLE MOMENTS
-----------------------------------------------------------------------------
State   Energy  Wavelength   fosc         T2         TX        TY        TZ
        (cm-1)    (nm)                  (au**2)     (au)      (au)      (au)
-----------------------------------------------------------------------------
   0    8082.5   1237.2   0.820090809  33.40332  -5.44852  -1.86690  -0.48126
   1   11520.7    868.0   0.157426045   4.49855   1.19167   1.72786   0.30490
   2   18120.4    551.9   0.115746326   2.10288  -0.73306  -1.20119  -0.35020
   3   19149.8    522.2   0.013119507   0.22554   0.42710   0.20172   0.04940
   4   19858.5    503.6   0.009744751   0.16155  -0.28455  -0.24214   0.14813
   5   20277.1    493.2   0.424404127   6.89049   2.20647   1.36956   0.38246
   6   20480.4    488.3   0.220746345   3.54838  -1.80852  -0.45211  -0.27061
   7   21754.8    459.7   0.004323906   0.06543  -0.02273  -0.25335  -0.02705
   8   22946.2    435.8   0.004834433   0.06936   0.24447   0.06336   0.07470
   9   23581.4    424.1   0.124267685   1.73486   0.91497   0.81514   0.48294
  10   23664.9    422.6   0.041460705   0.57678   0.65159   0.23731   0.30967
  11   25356.7    394.4   0.013675754   0.17756   0.39565  -0.01346  -0.14436
  12   25394.4    393.8   0.013943004   0.18076  -0.06130  -0.16548  -0.38680
  13   25982.2    384.9   0.002103773   0.02666  -0.00488   0.07725   0.14375
  14   26246.9    381.0   0.004173345   0.05235  -0.19021   0.10871   0.06594
  15   26480.8    377.6   0.008289089   0.10305  -0.14049  -0.25313   0.13870
  16   27111.9    368.8   0.005907323   0.07173  -0.16540  -0.19505  -0.07955
  17   27489.6    363.8   0.005150755   0.06168   0.12739  -0.01206  -0.21286
  18   28255.7    353.9   0.026260864   0.30597   0.30557  -0.44002   0.13775
  19   28607.4    349.6   0.010818286   0.12450   0.27483  -0.14675  -0.16561
  20   28923.2    345.7   0.005693796   0.06481  -0.01173  -0.24525  -0.06724
  21   29681.6    336.9   0.009476444   0.10511   0.02934   0.31118  -0.08610
  22   29720.0    336.5   0.008415407   0.09322  -0.11200   0.09754  -0.26676
  23   29972.8    333.6   0.019893559   0.21850  -0.30644   0.03619   0.35113
  24   30264.4    330.4   0.088558275   0.96332   0.30259   0.66492   0.65547
  25   30714.5    325.6   0.014811336   0.15875   0.16143   0.02574  -0.36336
  26   30864.8    324.0   0.231833452   2.47279   0.08168  -1.35884  -0.78720
  27   31021.2    322.4   0.212885338   2.25924  -1.11877   0.27481  -0.96544
  28   31267.4    319.8   0.128690882   1.35497   0.75114  -0.04907   0.88789
  29   31693.5    315.5   0.018873514   0.19605  -0.23850  -0.11691  -0.35426
  30   32031.5    312.2   0.029456062   0.30274   0.32285  -0.11816   0.42959
  31   32615.8    306.6   0.009108342   0.09194  -0.29530  -0.06846  -0.00683
  32   33258.4    300.7   0.010882336   0.10772   0.08560   0.23851   0.20858
  33   33321.4    300.1   0.004679109   0.04623   0.12438  -0.04787   0.16872
  34   33723.0    296.5   0.003927503   0.03834  -0.04010  -0.19140  -0.01000
  35   33974.1    294.3   0.011633980   0.11273   0.24279   0.13414  -0.18920
  36   34589.4    289.1   0.033280275   0.31675   0.28105  -0.47384  -0.11505
  37   34809.7    287.3   0.032690962   0.30917  -0.25787   0.43634   0.22867
  38   34891.2    286.6   0.012553672   0.11845   0.19233  -0.19353  -0.20978
  39   35051.6    285.3   0.018125344   0.17024   0.20104   0.31388  -0.17693
  40   35580.4    281.1   0.240657477   2.22671   0.82221  -0.99794  -0.74486
  41   35725.8    279.9   0.070282314   0.64765  -0.30948   0.58300  -0.46042
  42   36099.0    277.0   0.046565231   0.42466  -0.32675   0.15123  -0.54316
  43   36238.3    276.0   0.365536487   3.32077   1.31208   0.54183   1.14264
  44   36348.7    275.1   0.155919694   1.41217  -0.86234   0.08899  -0.81279
  45   36393.4    274.8   0.008570299   0.07753   0.18561   0.07721   0.19265
  46   36627.9    273.0   0.433378448   3.89521   1.08693  -1.02914   1.28633
  47   36972.5    270.5   0.538858010   4.79813   0.50614   1.30872   1.68202
  48   37973.1    263.3   0.029065487   0.25199   0.14497   0.36967   0.30710
  49   38165.1    262.0   0.046569242   0.40171   0.06509  -0.20330  -0.59677
  50   38217.1    261.7   0.081574189   0.70270  -0.02476   0.70261   0.45654
  51   38601.2    259.1   0.004587632   0.03913   0.07845  -0.05406  -0.17334
  52   38674.1    258.6   0.008202277   0.06982  -0.10195   0.24253   0.02460
  53   38891.6    257.1   0.006327256   0.05356  -0.00368   0.21907   0.07454
  54   39241.3    254.8   0.003950285   0.03314  -0.11020   0.07741  -0.12249
  55   39389.6    253.9   0.013496693   0.11280  -0.27190  -0.06026  -0.18772
  56   39627.0    252.4   0.010696980   0.08887   0.04612   0.24006   0.17062
  57   39768.0    251.5   0.013231296   0.10953  -0.23865   0.22565  -0.04078
  58   40001.6    250.0   0.005658625   0.04657  -0.09635  -0.15040  -0.12110
  59   40155.8    249.0   0.008436968   0.06917   0.07348  -0.15556  -0.19893
  60   40242.2    248.5   0.028447279   0.23272  -0.14238  -0.37488  -0.26817

FINAL SINGLE POINT ENERGY     -4628.995935081807

DIPOLE MOMENT
-------------
                                X             Y             Z
Electronic contribution:     27.63512     -60.94067     -17.30649
Nuclear contribution   :    -26.59764      62.37024      20.44995
                        -----------------------------------------
Total Dipole Moment    :      1.03747       1.42957       3.14346
                        -----------------------------------------
Magnitude (a.u.)       :      3.60574
Magnitude (Debye)      :      9.16506

Rotational constants in cm-1:     0.002195     0.000321     0.000301
Rotational constants in MHz :    65.791146     9.612470     9.011229

                             ****ORCA TERMINATED NORMALLY****
TOTAL RUN TIME: 0 days 0 hours 8 minutes 45 seconds 912 msec
