                         Program Version 4.2.0 -  RELEASE  -
|  1> # ORCA input file
|  2> # SCF done       -200.765198884951          0.000830749098
|  3> ! CAM-B3LYP def2-SVP def2/J RIJCOSX Grid4 TightSCF
|  4> %maxcore 5000
|  5> %tddft
|  6>     Mode sTDDFT
|  7>     Ethresh 5.0
|  8>     maxcore 5000
|  9> end
| 10>
| 11> %pal
| 12>   nprocs 6
| 13>   end
| 14> * xyz 0 1
| 15>    C        0.56315         0.98094        -1.29025
| 16>    C       -0.33795         0.39516        -0.40478
| 17>    C       -0.34995        -1.02967        -0.18137
| 18>    N       -1.18211        -1.56758         0.73257
| 19>    C       -2.02728        -0.78568         1.34577
| 20>    C       -2.06483         0.63042         1.07171
| 21>    N       -1.22168         1.18151         0.24506
| 22>    C       -3.02281         1.43911         1.73720
| 23>    N       -3.80964         2.05675         2.29433
| 24>    C       -2.91065        -1.34380         2.30504
| 25>    N       -3.63923        -1.76807         3.07966
| 26>    C        0.51291        -1.88168        -0.88557
| 27>    C        1.40143        -1.29317        -1.78421
| 28>    C        1.43376         0.14495        -1.97328
| 29>    N        2.36576         0.49499        -2.87338
| 30>    S        3.08880        -0.82020        -3.40603
| 31>    N        2.28775        -1.91876        -2.56998
| 32>    C        0.49605        -3.31758        -0.63777
| 33>    C       -0.67241        -4.08777        -0.69395
| 34>    C       -1.96759        -3.53477        -1.14495
| 35>    O       -2.17131        -2.49628        -1.70400
| 36>    S       -3.24924        -4.72370        -0.79641
| 37>    C       -2.07575        -6.00209        -0.30679
| 38>    O       -2.43996        -7.08960         0.01914
| 39>    C       -0.70545        -5.44630        -0.36273
| 40>    C        0.46375        -6.15180        -0.00880
| 41>    C        1.62286        -5.36562         0.04766
| 42>    C        1.64166        -4.00515        -0.24338
| 43>    C        3.01617        -3.51562         0.01222
| 44>    O        3.46777        -2.41326        -0.03922
| 45>    O        3.76532        -4.60532         0.38380
| 46>    C        2.99991        -5.74883         0.42810
| 47>    O        3.44942        -6.81094         0.73157
| 48>    C        0.53642        -7.55231         0.33310
| 49>    C       -0.13394        -8.52936        -0.29253
| 50>    C       -0.06550        -9.92946         0.05169
| 51>    C       -0.10145       -10.47373         1.35102
| 52>    C       -0.39077        -9.65160         2.55171
| 53>    O       -0.45305        -8.46407         2.65512
| 54>    S       -0.67801       -10.73305         3.94453
| 55>    C       -0.34131       -12.21445         2.98717
| 56>    O       -0.45103       -13.30155         3.47964
| 57>    C       -0.00956       -11.84561         1.60261
| 58>    C        0.22074       -12.80276         0.56460
| 59>    C        0.09383       -12.24876        -0.73331
| 60>    C       -0.04570       -10.89220        -0.96775
| 61>    C       -0.10914       -10.69633        -2.43517
| 62>    O       -0.20827        -9.69289        -3.07251
| 63>    O       -0.02378       -11.93672        -3.01013
| 64>    C        0.11122       -12.91854        -2.04953
| 65>    O        0.21526       -14.07209        -2.33810
| 66>    C        0.53064       -14.17563         0.68997
| 67>    C        1.07502       -14.81794         1.76820
| 68>    C        1.35978       -16.18348         1.79329
| 69>    S        1.10417       -17.27312         0.44146
| 70>    C        1.67391       -18.68875         1.30126
| 71>    C        2.04542       -18.32011         2.60891
| 72>    C        1.86580       -16.93593         2.85999
| 73>    N        2.24325       -16.72342         4.13798
| 74>    N        2.64692       -17.86258         4.71887
| 75>    C        2.54360       -18.82449         3.83427
| 76>    C        1.69090       -19.92208         0.65429
| 77>    C        2.10343       -21.10635         1.22555
| 78>    C        2.10430       -22.31306         0.53284
| 79>    C        2.50419       -23.53001         1.05320
| 80>    C        2.97850       -23.84406         2.34769
| 81>    C        3.28915       -25.15894         2.52531
| 82>    C        3.07834       -25.95908         1.37909
| 83>    S        2.46711       -24.97532         0.06635
| 84>    C        3.30016       -27.31375         1.24000
| 85>    C        3.78877       -28.21032         2.23128
| 86>    C        3.90887       -29.48973         1.81148
| 87>    C        3.52200       -29.70208         0.44648
| 88>    S        2.99743       -28.16232        -0.25538
| 89>    C        3.53372       -30.85161        -0.24235
| 90>    H        0.56191         2.04729        -1.44179
| 91>    H        1.25690        -7.78978         1.10328
| 92>    H       -0.71267        -8.31389        -1.18003
| 93>    H        0.38402       -14.76060        -0.20902
| 94>    H        1.33067       -14.27558         2.66560
| 95>    H        2.21745       -15.86977         4.67117
| 96>    H        2.82265       -19.82231         4.10396
| 97>    H        1.35058       -19.93436        -0.37260
| 98>    H        2.43837       -21.09316         2.25076
| 99>    H        1.76801       -22.30329        -0.49548
|100>    H        3.07870       -23.09879         3.11560
|101>    H        3.66271       -25.56974         3.44591
|102>    H        4.03323       -27.87192         3.22223
|103>    H        4.25988       -30.30663         2.41630
|104>    H        3.86092       -31.76588         0.22065
|105>    H        3.22157       -30.89882        -1.26955
|106> *
|107>
|108>                          ****END OF INPUT****

CARTESIAN COORDINATES (ANGSTROEM)
---------------------------------
  C      0.563150    0.980940   -1.290250
  C     -0.337950    0.395160   -0.404780
  C     -0.349950   -1.029670   -0.181370
  N     -1.182110   -1.567580    0.732570
  C     -2.027280   -0.785680    1.345770
  C     -2.064830    0.630420    1.071710
  N     -1.221680    1.181510    0.245060
  C     -3.022810    1.439110    1.737200
  N     -3.809640    2.056750    2.294330
  C     -2.910650   -1.343800    2.305040
  N     -3.639230   -1.768070    3.079660
  C      0.512910   -1.881680   -0.885570
  C      1.401430   -1.293170   -1.784210
  C      1.433760    0.144950   -1.973280
  N      2.365760    0.494990   -2.873380
  S      3.088800   -0.820200   -3.406030
  N      2.287750   -1.918760   -2.569980
  C      0.496050   -3.317580   -0.637770
  C     -0.672410   -4.087770   -0.693950
  C     -1.967590   -3.534770   -1.144950
  O     -2.171310   -2.496280   -1.704000
  S     -3.249240   -4.723700   -0.796410
  C     -2.075750   -6.002090   -0.306790
  O     -2.439960   -7.089600    0.019140
  C     -0.705450   -5.446300   -0.362730
  C      0.463750   -6.151800   -0.008800
  C      1.622860   -5.365620    0.047660
  C      1.641660   -4.005150   -0.243380
  C      3.016170   -3.515620    0.012220
  O      3.467770   -2.413260   -0.039220
  O      3.765320   -4.605320    0.383800
  C      2.999910   -5.748830    0.428100
  O      3.449420   -6.810940    0.731570
  C      0.536420   -7.552310    0.333100
  C     -0.133940   -8.529360   -0.292530
  C     -0.065500   -9.929460    0.051690
  C     -0.101450  -10.473730    1.351020
  C     -0.390770   -9.651600    2.551710
  O     -0.453050   -8.464070    2.655120
  S     -0.678010  -10.733050    3.944530
  C     -0.341310  -12.214450    2.987170
  O     -0.451030  -13.301550    3.479640
  C     -0.009560  -11.845610    1.602610
  C      0.220740  -12.802760    0.564600
  C      0.093830  -12.248760   -0.733310
  C     -0.045700  -10.892200   -0.967750
  C     -0.109140  -10.696330   -2.435170
  O     -0.208270   -9.692890   -3.072510
  O     -0.023780  -11.936720   -3.010130
  C      0.111220  -12.918540   -2.049530
  O      0.215260  -14.072090   -2.338100
  C      0.530640  -14.175630    0.689970
  C      1.075020  -14.817940    1.768200
  C      1.359780  -16.183480    1.793290
  S      1.104170  -17.273120    0.441460
  C      1.673910  -18.688750    1.301260
  C      2.045420  -18.320110    2.608910
  C      1.865800  -16.935930    2.859990
  N      2.243250  -16.723420    4.137980
  N      2.646920  -17.862580    4.718870
  C      2.543600  -18.824490    3.834270
  C      1.690900  -19.922080    0.654290
  C      2.103430  -21.106350    1.225550
  C      2.104300  -22.313060    0.532840
  C      2.504190  -23.530010    1.053200
  C      2.978500  -23.844060    2.347690
  C      3.289150  -25.158940    2.525310
  C      3.078340  -25.959080    1.379090
  S      2.467110  -24.975320    0.066350
  C      3.300160  -27.313750    1.240000
  C      3.788770  -28.210320    2.231280
  C      3.908870  -29.489730    1.811480
  C      3.522000  -29.702080    0.446480
  S      2.997430  -28.162320   -0.255380
  C      3.533720  -30.851610   -0.242350
  H      0.561910    2.047290   -1.441790
  H      1.256900   -7.789780    1.103280
  H     -0.712670   -8.313890   -1.180030
  H      0.384020  -14.760600   -0.209020
  H      1.330670  -14.275580    2.665600
  H      2.217450  -15.869770    4.671170
  H      2.822650  -19.822310    4.103960
  H      1.350580  -19.934360   -0.372600
  H      2.438370  -21.093160    2.250760
  H      1.768010  -22.303290   -0.495480
  H      3.078700  -23.098790    3.115600
  H      3.662710  -25.569740    3.445910
  H      4.033230  -27.871920    3.222230
  H      4.259880  -30.306630    2.416300
  H      3.860920  -31.765880    0.220650
  H      3.221570  -30.898820   -1.269550

 Total Charge           Charge          ....    0
 Multiplicity           Mult            ....    1
 Number of Electrons    NEL             ....  554
 Basis Dimension        Dim             .... 1154

ORBITAL ENERGIES
----------------

  NO   OCC          E(Eh)            E(eV)
   0   2.0000     -89.055820     -2423.3321
   1   2.0000     -88.967088     -2420.9175
   2   2.0000     -88.956521     -2420.6300
   3   2.0000     -88.955651     -2420.6063
   4   2.0000     -88.954427     -2420.5730
   5   2.0000     -88.946411     -2420.3549
   6   2.0000     -19.298149      -525.1293
   7   2.0000     -19.288406      -524.8642
   8   2.0000     -19.247544      -523.7523
   9   2.0000     -19.247054      -523.7390
  10   2.0000     -19.246119      -523.7135
  11   2.0000     -19.245829      -523.7056
  12   2.0000     -19.238527      -523.5069
  13   2.0000     -19.238309      -523.5010
  14   2.0000     -19.236545      -523.4530
  15   2.0000     -19.236366      -523.4481
  16   2.0000     -14.491013      -394.3205
  17   2.0000     -14.469607      -393.7380
  18   2.0000     -14.466899      -393.6643
  19   2.0000     -14.458027      -393.4229
  20   2.0000     -14.457727      -393.4148
  21   2.0000     -14.441352      -392.9692
  22   2.0000     -14.434234      -392.7755
  23   2.0000     -14.431337      -392.6966
  24   2.0000     -10.440381      -284.0972
  25   2.0000     -10.439051      -284.0610
  26   2.0000     -10.431148      -283.8460
  27   2.0000     -10.429100      -283.7902
  28   2.0000     -10.411746      -283.3180
  29   2.0000     -10.411606      -283.3142
  30   2.0000     -10.402597      -283.0691
  31   2.0000     -10.401389      -283.0362
  32   2.0000     -10.389492      -282.7124
  33   2.0000     -10.386548      -282.6323
  34   2.0000     -10.355830      -281.7965
  35   2.0000     -10.352868      -281.7159
  36   2.0000     -10.349711      -281.6300
  37   2.0000     -10.347965      -281.5824
  38   2.0000     -10.344340      -281.4838
  39   2.0000     -10.342525      -281.4344
  40   2.0000     -10.338097      -281.3139
  41   2.0000     -10.336093      -281.2594
  42   2.0000     -10.335662      -281.2477
  43   2.0000     -10.330889      -281.1178
  44   2.0000     -10.330258      -281.1006
  45   2.0000     -10.329138      -281.0701
  46   2.0000     -10.329040      -281.0675
  47   2.0000     -10.328597      -281.0554
  48   2.0000     -10.326912      -281.0096
  49   2.0000     -10.326778      -281.0059
  50   2.0000     -10.326178      -280.9896
  51   2.0000     -10.324257      -280.9373
  52   2.0000     -10.324026      -280.9310
  53   2.0000     -10.323801      -280.9249
  54   2.0000     -10.321585      -280.8646
  55   2.0000     -10.321020      -280.8492
  56   2.0000     -10.320792      -280.8430
  57   2.0000     -10.319611      -280.8109
  58   2.0000     -10.316846      -280.7357
  59   2.0000     -10.316618      -280.7294
  60   2.0000     -10.307142      -280.4716
  61   2.0000     -10.304422      -280.3976
  62   2.0000     -10.304176      -280.3909
  63   2.0000     -10.303342      -280.3682
  64   2.0000     -10.301823      -280.3269
  65   2.0000     -10.300462      -280.2898
  66   2.0000     -10.297486      -280.2088
  67   2.0000     -10.296334      -280.1775
  68   2.0000     -10.296107      -280.1713
  69   2.0000     -10.292477      -280.0725
  70   2.0000     -10.289937      -280.0034
  71   2.0000     -10.288739      -279.9708
  72   2.0000     -10.286799      -279.9180
  73   2.0000     -10.284385      -279.8524
  74   2.0000     -10.272820      -279.5377
  75   2.0000      -8.146832      -221.6866
  76   2.0000      -8.061773      -219.3720
  77   2.0000      -8.054958      -219.1866
  78   2.0000      -8.053161      -219.1377
  79   2.0000      -8.051147      -219.0828
  80   2.0000      -8.045891      -218.9398
  81   2.0000      -6.117547      -166.4669
  82   2.0000      -6.110427      -166.2732
  83   2.0000      -6.109748      -166.2547
  84   2.0000      -6.031177      -164.1167
  85   2.0000      -6.026976      -164.0023
  86   2.0000      -6.023827      -163.9167
  87   2.0000      -6.023788      -163.9156
  88   2.0000      -6.022870      -163.8906
  89   2.0000      -6.020922      -163.8376
  90   2.0000      -6.020536      -163.8271
  91   2.0000      -6.018864      -163.7816
  92   2.0000      -6.017002      -163.7310
  93   2.0000      -6.016017      -163.7042
  94   2.0000      -6.014737      -163.6693
  95   2.0000      -6.014014      -163.6496
  96   2.0000      -6.011763      -163.5884
  97   2.0000      -6.011517      -163.5817
  98   2.0000      -6.006895      -163.4559
  99   2.0000      -1.247202       -33.9381
 100   2.0000      -1.238244       -33.6943
 101   2.0000      -1.173733       -31.9389
 102   2.0000      -1.173095       -31.9215
 103   2.0000      -1.169626       -31.8271
 104   2.0000      -1.164733       -31.6940
 105   2.0000      -1.164631       -31.6912
 106   2.0000      -1.159604       -31.5544
 107   2.0000      -1.151829       -31.3429
 108   2.0000      -1.149381       -31.2762
 109   2.0000      -1.135133       -30.8885
 110   2.0000      -1.126467       -30.6527
 111   2.0000      -1.125981       -30.6395
 112   2.0000      -1.053907       -28.6783
 113   2.0000      -1.027080       -27.9483
 114   2.0000      -1.016633       -27.6640
 115   2.0000      -1.009686       -27.4750
 116   2.0000      -1.007419       -27.4133
 117   2.0000      -1.006556       -27.3898
 118   2.0000      -1.000185       -27.2164
 119   2.0000      -0.990898       -26.9637
 120   2.0000      -0.984484       -26.7892
 121   2.0000      -0.983981       -26.7755
 122   2.0000      -0.958874       -26.0923
 123   2.0000      -0.948496       -25.8099
 124   2.0000      -0.941064       -25.6076
 125   2.0000      -0.934353       -25.4250
 126   2.0000      -0.922905       -25.1135
 127   2.0000      -0.916907       -24.9503
 128   2.0000      -0.911299       -24.7977
 129   2.0000      -0.901436       -24.5293
 130   2.0000      -0.891415       -24.2566
 131   2.0000      -0.885208       -24.0877
 132   2.0000      -0.872787       -23.7497
 133   2.0000      -0.871408       -23.7122
 134   2.0000      -0.862681       -23.4747
 135   2.0000      -0.858842       -23.3703
 136   2.0000      -0.851043       -23.1581
 137   2.0000      -0.844709       -22.9857
 138   2.0000      -0.838063       -22.8048
 139   2.0000      -0.831478       -22.6257
 140   2.0000      -0.813089       -22.1253
 141   2.0000      -0.807340       -21.9688
 142   2.0000      -0.804520       -21.8921
 143   2.0000      -0.794028       -21.6066
 144   2.0000      -0.793184       -21.5836
 145   2.0000      -0.781452       -21.2644
 146   2.0000      -0.771007       -20.9802
 147   2.0000      -0.765889       -20.8409
 148   2.0000      -0.759810       -20.6755
 149   2.0000      -0.751607       -20.4523
 150   2.0000      -0.742443       -20.2029
 151   2.0000      -0.733312       -19.9544
 152   2.0000      -0.723260       -19.6809
 153   2.0000      -0.713452       -19.4140
 154   2.0000      -0.708725       -19.2854
 155   2.0000      -0.707374       -19.2486
 156   2.0000      -0.704785       -19.1782
 157   2.0000      -0.695234       -18.9183
 158   2.0000      -0.695072       -18.9139
 159   2.0000      -0.689930       -18.7739
 160   2.0000      -0.686200       -18.6724
 161   2.0000      -0.676603       -18.4113
 162   2.0000      -0.658114       -17.9082
 163   2.0000      -0.650506       -17.7012
 164   2.0000      -0.649952       -17.6861
 165   2.0000      -0.644969       -17.5505
 166   2.0000      -0.642959       -17.4958
 167   2.0000      -0.637026       -17.3344
 168   2.0000      -0.635832       -17.3019
 169   2.0000      -0.633423       -17.2363
 170   2.0000      -0.630048       -17.1445
 171   2.0000      -0.627806       -17.0835
 172   2.0000      -0.626179       -17.0392
 173   2.0000      -0.622718       -16.9450
 174   2.0000      -0.614439       -16.7197
 175   2.0000      -0.611536       -16.6407
 176   2.0000      -0.610574       -16.6146
 177   2.0000      -0.603560       -16.4237
 178   2.0000      -0.601870       -16.3777
 179   2.0000      -0.598578       -16.2881
 180   2.0000      -0.591919       -16.1069
 181   2.0000      -0.585530       -15.9331
 182   2.0000      -0.580658       -15.8005
 183   2.0000      -0.577881       -15.7249
 184   2.0000      -0.575705       -15.6657
 185   2.0000      -0.567097       -15.4315
 186   2.0000      -0.566454       -15.4140
 187   2.0000      -0.563496       -15.3335
 188   2.0000      -0.559362       -15.2210
 189   2.0000      -0.557817       -15.1790
 190   2.0000      -0.554877       -15.0990
 191   2.0000      -0.552612       -15.0373
 192   2.0000      -0.551854       -15.0167
 193   2.0000      -0.550378       -14.9765
 194   2.0000      -0.548903       -14.9364
 195   2.0000      -0.544964       -14.8292
 196   2.0000      -0.543337       -14.7850
 197   2.0000      -0.541443       -14.7334
 198   2.0000      -0.538968       -14.6661
 199   2.0000      -0.538550       -14.6547
 200   2.0000      -0.535366       -14.5681
 201   2.0000      -0.534201       -14.5364
 202   2.0000      -0.530561       -14.4373
 203   2.0000      -0.527308       -14.3488
 204   2.0000      -0.521918       -14.2021
 205   2.0000      -0.516404       -14.0521
 206   2.0000      -0.515823       -14.0362
 207   2.0000      -0.514375       -13.9969
 208   2.0000      -0.512110       -13.9352
 209   2.0000      -0.509205       -13.8562
 210   2.0000      -0.507097       -13.7988
 211   2.0000      -0.504354       -13.7242
 212   2.0000      -0.502677       -13.6785
 213   2.0000      -0.502135       -13.6638
 214   2.0000      -0.499364       -13.5884
 215   2.0000      -0.497934       -13.5495
 216   2.0000      -0.494173       -13.4471
 217   2.0000      -0.492900       -13.4125
 218   2.0000      -0.489527       -13.3207
 219   2.0000      -0.487713       -13.2713
 220   2.0000      -0.486447       -13.2369
 221   2.0000      -0.483590       -13.1592
 222   2.0000      -0.480674       -13.0798
 223   2.0000      -0.478383       -13.0175
 224   2.0000      -0.475467       -12.9381
 225   2.0000      -0.474535       -12.9127
 226   2.0000      -0.470520       -12.8035
 227   2.0000      -0.468206       -12.7405
 228   2.0000      -0.465344       -12.6627
 229   2.0000      -0.458595       -12.4790
 230   2.0000      -0.458253       -12.4697
 231   2.0000      -0.456072       -12.4104
 232   2.0000      -0.455507       -12.3950
 233   2.0000      -0.452726       -12.3193
 234   2.0000      -0.447316       -12.1721
 235   2.0000      -0.444143       -12.0857
 236   2.0000      -0.441714       -12.0196
 237   2.0000      -0.438789       -11.9401
 238   2.0000      -0.436257       -11.8712
 239   2.0000      -0.436109       -11.8671
 240   2.0000      -0.431760       -11.7488
 241   2.0000      -0.426871       -11.6157
 242   2.0000      -0.422744       -11.5035
 243   2.0000      -0.421694       -11.4749
 244   2.0000      -0.419103       -11.4044
 245   2.0000      -0.415923       -11.3178
 246   2.0000      -0.413651       -11.2560
 247   2.0000      -0.413467       -11.2510
 248   2.0000      -0.412016       -11.2115
 249   2.0000      -0.405173       -11.0253
 250   2.0000      -0.402109       -10.9419
 251   2.0000      -0.391654       -10.6574
 252   2.0000      -0.390810       -10.6345
 253   2.0000      -0.385070       -10.4783
 254   2.0000      -0.380833       -10.3630
 255   2.0000      -0.376949       -10.2573
 256   2.0000      -0.374633       -10.1943
 257   2.0000      -0.370721       -10.0878
 258   2.0000      -0.370067       -10.0700
 259   2.0000      -0.369539       -10.0557
 260   2.0000      -0.367897       -10.0110
 261   2.0000      -0.366450        -9.9716
 262   2.0000      -0.365720        -9.9518
 263   2.0000      -0.357387        -9.7250
 264   2.0000      -0.351779        -9.5724
 265   2.0000      -0.350904        -9.5486
 266   2.0000      -0.347146        -9.4463
 267   2.0000      -0.344187        -9.3658
 268   2.0000      -0.342599        -9.3226
 269   2.0000      -0.341595        -9.2953
 270   2.0000      -0.337405        -9.1813
 271   2.0000      -0.322241        -8.7686
 272   2.0000      -0.319334        -8.6895
 273   2.0000      -0.308954        -8.4071
 274   2.0000      -0.297961        -8.1079
 275   2.0000      -0.259916        -7.0727
 276   2.0000      -0.214793        -5.8448
 277   0.0000      -0.122783        -3.3411
 278   0.0000      -0.104908        -2.8547
 279   0.0000      -0.098909        -2.6915
 280   0.0000      -0.090535        -2.4636
 281   0.0000      -0.076918        -2.0930

MULLIKEN ATOMIC CHARGES
-----------------------
   0 C :   -0.081171
   1 C :    0.015684
   2 C :   -0.034889
   3 N :    0.041637
   4 C :   -0.114010
   5 C :   -0.144594
   6 N :    0.063155
   7 C :   -0.198707
   8 N :    0.236467
   9 C :   -0.208226
  10 N :    0.246782
  11 C :    0.056793
  12 C :   -0.013094
  13 C :    0.119275
  14 N :   -0.263554
  15 S :    0.572249
  16 N :   -0.266950
  17 C :   -0.009965
  18 C :    0.058902
  19 C :    0.043385
  20 O :   -0.138382
  21 S :    0.037561
  22 C :    0.035591
  23 O :   -0.105977
  24 C :    0.020322
  25 C :    0.027234
  26 C :   -0.069983
  27 C :   -0.043336
  28 C :    0.243010
  29 O :   -0.104722
  30 O :   -0.231695
  31 C :    0.231538
  32 O :   -0.102628
  33 C :    0.018909
  34 C :    0.020505
  35 C :   -0.004746
  36 C :    0.030948
  37 C :    0.040637
  38 O :   -0.121311
  39 S :    0.017903
  40 C :    0.021013
  41 O :   -0.145726
  42 C :    0.000910
  43 C :    0.105804
  44 C :   -0.087260
  45 C :   -0.069211
  46 C :    0.236111
  47 O :   -0.110799
  48 O :   -0.232754
  49 C :    0.236469
  50 O :   -0.108249
  51 C :   -0.125337
  52 C :    0.079613
  53 C :   -0.180429
  54 S :    0.149829
  55 C :   -0.076578
  56 C :    0.012227
  57 C :    0.157781
  58 N :   -0.032122
  59 N :   -0.059613
  60 C :   -0.017990
  61 C :    0.017526
  62 C :    0.029374
  63 C :    0.029821
  64 C :   -0.042850
  65 C :    0.023602
  66 C :    0.029005
  67 C :   -0.055305
  68 S :    0.106365
  69 C :   -0.058689
  70 C :    0.029265
  71 C :    0.061343
  72 C :   -0.073115
  73 S :    0.096178
  74 C :   -0.015333
  75 H :   -0.010213
  76 H :    0.025186
  77 H :    0.026065
  78 H :    0.011121
  79 H :   -0.013940
  80 H :    0.143674
  81 H :   -0.000820
  82 H :   -0.018518
  83 H :   -0.022262
  84 H :   -0.014685
  85 H :   -0.011041
  86 H :   -0.009984
  87 H :   -0.007375
  88 H :   -0.004926
  89 H :    0.027060
  90 H :    0.029232
Sum of atomic charges:   -0.0000000

LOEWDIN ATOMIC CHARGES
----------------------
   0 C :    0.019794
   1 C :   -0.008858
   2 C :    0.005861
   3 N :   -0.004093
   4 C :   -0.017795
   5 C :   -0.025491
   6 N :    0.007762
   7 C :   -0.035638
   8 N :    0.000404
   9 C :   -0.038126
  10 N :    0.004089
  11 C :   -0.016030
  12 C :   -0.033403
  13 C :   -0.043527
  14 N :   -0.282360
  15 S :    0.718770
  16 N :   -0.291048
  17 C :    0.030904
  18 C :   -0.030651
  19 C :   -0.048048
  20 O :   -0.123842
  21 S :    0.321180
  22 C :   -0.037488
  23 O :   -0.095817
  24 C :   -0.050772
  25 C :    0.043389
  26 C :   -0.045402
  27 C :   -0.029365
  28 C :    0.110831
  29 O :   -0.101521
  30 O :   -0.054729
  31 C :    0.110356
  32 O :   -0.095976
  33 C :   -0.007417
  34 C :    0.016989
  35 C :    0.001027
  36 C :   -0.040601
  37 C :   -0.044135
  38 O :   -0.106515
  39 S :    0.304976
  40 C :   -0.046645
  41 O :   -0.129403
  42 C :   -0.075870
  43 C :    0.037742
  44 C :   -0.057693
  45 C :   -0.036885
  46 C :    0.108018
  47 O :   -0.103449
  48 O :   -0.057734
  49 C :    0.111593
  50 O :   -0.103137
  51 C :   -0.089682
  52 C :    0.024994
  53 C :   -0.221882
  54 S :    0.462982
  55 C :   -0.127010
  56 C :   -0.107102
  57 C :    0.001547
  58 N :    0.100707
  59 N :   -0.058071
  60 C :   -0.037712
  61 C :   -0.062444
  62 C :    0.005313
  63 C :   -0.065303
  64 C :   -0.131487
  65 C :   -0.045083
  66 C :   -0.015058
  67 C :   -0.189510
  68 S :    0.387287
  69 C :   -0.163963
  70 C :   -0.027607
  71 C :   -0.020525
  72 C :   -0.141280
  73 S :    0.366779
  74 C :   -0.058334
  75 H :    0.052057
  76 H :    0.036151
  77 H :    0.034943
  78 H :    0.026078
  79 H :    0.029567
  80 H :    0.091881
  81 H :    0.019116
  82 H :    0.030922
  83 H :    0.028107
  84 H :    0.031199
  85 H :    0.032151
  86 H :    0.033777
  87 H :    0.034019
  88 H :    0.036407
  89 H :    0.032054
  90 H :    0.029799

  Mayer bond orders larger than 0.100000
B(  0-C ,  1-C ) :   1.2799 B(  0-C , 11-C ) :   0.1499 B(  0-C , 13-C ) :   1.1777
B(  0-C , 75-H ) :   1.0642 B(  1-C ,  2-C ) :   1.1340 B(  1-C ,  6-N ) :   1.3420
B(  2-C ,  3-N ) :   1.4171 B(  2-C , 11-C ) :   1.3696 B(  3-N ,  4-C ) :   1.7422
B(  4-C ,  5-C ) :   1.1767 B(  4-C ,  9-C ) :   1.1481 B(  5-C ,  6-N ) :   1.7908
B(  5-C ,  7-C ) :   1.1493 B(  7-C ,  8-N ) :   3.0509 B(  9-C , 10-N ) :   3.0508
B( 11-C , 12-C ) :   1.3325 B( 11-C , 17-C ) :   0.9287 B( 12-C , 13-C ) :   1.1124
B( 12-C , 16-N ) :   1.4894 B( 13-C , 14-N ) :   1.4360 B( 14-N , 15-S ) :   1.3391
B( 14-N , 16-N ) :   0.1641 B( 15-S , 16-N ) :   1.3092 B( 17-C , 18-C ) :   1.4405
B( 17-C , 27-C ) :   1.4161 B( 18-C , 19-C ) :   0.8246 B( 18-C , 24-C ) :   1.3271
B( 19-C , 20-O ) :   2.1665 B( 19-C , 21-S ) :   1.0441 B( 20-O , 21-S ) :   0.1102
B( 21-S , 22-C ) :   1.0221 B( 21-S , 23-O ) :   0.1040 B( 22-C , 23-O ) :   2.1990
B( 22-C , 24-C ) :   0.8386 B( 24-C , 25-C ) :   1.3467 B( 25-C , 26-C ) :   1.3290
B( 25-C , 33-C ) :   1.1240 B( 26-C , 27-C ) :   1.3479 B( 26-C , 31-C ) :   0.9109
B( 27-C , 28-C ) :   0.8874 B( 28-C , 29-O ) :   2.2545 B( 28-C , 30-O ) :   1.0595
B( 30-O , 31-C ) :   1.0528 B( 31-C , 32-O ) :   2.2385 B( 33-C , 34-C ) :   1.7327
B( 33-C , 76-H ) :   0.9330 B( 34-C , 35-C ) :   1.1102 B( 34-C , 77-H ) :   0.9361
B( 35-C , 36-C ) :   1.3666 B( 35-C , 45-C ) :   1.3255 B( 36-C , 37-C ) :   0.8372
B( 36-C , 42-C ) :   1.3361 B( 37-C , 38-O ) :   2.1749 B( 37-C , 39-S ) :   1.0346
B( 38-O , 39-S ) :   0.1051 B( 39-S , 40-C ) :   1.0251 B( 40-C , 41-O ) :   2.1493
B( 40-C , 42-C ) :   0.8700 B( 42-C , 43-C ) :   1.2435 B( 43-C , 44-C ) :   1.2600
B( 43-C , 51-C ) :   1.2427 B( 44-C , 45-C ) :   1.3823 B( 44-C , 49-C ) :   0.9280
B( 45-C , 46-C ) :   0.9089 B( 46-C , 47-O ) :   2.2276 B( 46-C , 48-O ) :   1.0690
B( 48-O , 49-C ) :   1.0449 B( 49-C , 50-O ) :   2.2126 B( 51-C , 52-C ) :   1.4837
B( 51-C , 78-H ) :   0.9538 B( 52-C , 53-C ) :   1.3197 B( 52-C , 79-H ) :   0.9580
B( 53-C , 54-S ) :   1.0503 B( 53-C , 57-C ) :   1.2845 B( 54-S , 55-C ) :   1.1586
B( 55-C , 56-C ) :   1.2490 B( 55-C , 61-C ) :   1.2253 B( 56-C , 57-C ) :   1.2798
B( 56-C , 60-C ) :   1.1704 B( 57-C , 58-N ) :   1.1910 B( 58-N , 59-N ) :   1.1327
B( 58-N , 80-H ) :   0.9467 B( 59-N , 60-C ) :   1.7381 B( 60-C , 81-H ) :   0.9946
B( 61-C , 62-C ) :   1.5357 B( 61-C , 82-H ) :   0.9667 B( 62-C , 63-C ) :   1.2696
B( 62-C , 83-H ) :   0.9680 B( 63-C , 64-C ) :   1.4670 B( 63-C , 84-H ) :   0.9697
B( 64-C , 65-C ) :   1.1749 B( 64-C , 68-S ) :   1.0620 B( 65-C , 66-C ) :   1.5918
B( 65-C , 85-H ) :   0.9904 B( 66-C , 67-C ) :   1.1942 B( 66-C , 86-H ) :   0.9915
B( 67-C , 68-S ) :   1.0415 B( 67-C , 69-C ) :   1.5205 B( 69-C , 70-C ) :   1.1590
B( 69-C , 73-S ) :   1.0643 B( 70-C , 71-C ) :   1.6575 B( 70-C , 87-H ) :   0.9916
B( 71-C , 72-C ) :   1.0814 B( 71-C , 88-H ) :   0.9925 B( 72-C , 73-S ) :   1.0053
B( 72-C , 74-C ) :   1.8624 B( 74-C , 89-H ) :   0.9510 B( 74-C , 90-H ) :   0.9413

-----------------------------------------------------------------------------
         ABSORPTION SPECTRUM VIA TRANSITION ELECTRIC DIPOLE MOMENTS
-----------------------------------------------------------------------------
State   Energy  Wavelength   fosc         T2         TX        TY        TZ
        (cm-1)    (nm)                  (au**2)     (au)      (au)      (au)
-----------------------------------------------------------------------------
   0   11254.9    888.5   2.323128048  67.95298   1.46179  -8.11221  -0.09084
   1   13031.8    767.4   0.144549300   3.65165  -0.17833   1.75586  -0.73267
   2   13910.5    718.9   0.061597401   1.45780   0.28291  -1.17075   0.08428
   3   16555.3    604.0   0.003634218   0.07227  -0.19668  -0.14275  -0.11492
   4   19522.6    512.2   0.015033318   0.25351   0.08349   0.19694  -0.45580
   5   20321.1    492.1   0.051325396   0.83150  -0.08332   0.60958  -0.67303
   6   21730.9    460.2   0.147023687   2.22734  -0.00512   1.49235  -0.01445
   7   22816.1    438.3   0.010572230   0.15255   0.10713   0.15734  -0.34105
   8   23217.7    430.7   0.064259970   0.91117  -0.19530  -0.70882  -0.60876
   9   23366.3    428.0   0.027450319   0.38675  -0.23241   0.32446  -0.47693
  10   23594.0    423.8   0.016637185   0.23214  -0.46117   0.10048   0.09679
  11   24959.2    400.7   0.008380332   0.11054   0.24349   0.19725   0.11108
  12   26662.4    375.1   0.028164359   0.34776  -0.11983  -0.56269  -0.12953
  13   26964.1    370.9   0.010442634   0.12750  -0.18654  -0.27458   0.13155
  14   27322.5    366.0   0.003335836   0.04019   0.05428  -0.19204  -0.01917
  15   27414.1    364.8   0.025414897   0.30520   0.35817   0.18499   0.37775
  16   28160.2    355.1   0.100181579   1.17119  -0.05946   1.07614  -0.09784
  17   28352.6    352.7   0.033369509   0.38747   0.15038   0.59600   0.09814
  18   28775.7    347.5   0.103546731   1.18464   0.10179   1.00790  -0.39802
  19   29398.5    340.2   0.248133066   2.77866  -1.27066   0.14167   1.06959
  20   29905.2    334.4   0.035079268   0.38617   0.33745   0.08878  -0.51422
  21   30129.3    331.9   0.007531829   0.08230  -0.02340  -0.05989   0.27958
  22   30326.3    329.7   0.025816866   0.28026   0.06462  -0.41903  -0.31701
  23   30969.6    322.9   0.010189738   0.10832  -0.03156  -0.25257  -0.20864
  24   31216.2    320.3   0.023132764   0.24396   0.23650  -0.40885   0.14447
  25   31272.2    319.8   0.004278015   0.04504   0.13208   0.08781   0.14099
  26   31641.4    316.0   0.041204750   0.42871   0.37723  -0.53228  -0.05558
  27   31808.0    314.4   0.060735447   0.62861  -0.46510   0.64156  -0.02618
  28   31906.9    313.4   0.081650271   0.84246  -0.00685  -0.10273  -0.91206
  29   32187.6    310.7   0.002122398   0.02171   0.04044  -0.07476   0.12034
  30   32404.7    308.6   0.035522582   0.36089  -0.36017  -0.48018  -0.02429
  31   32703.9    305.8   0.004134525   0.04162  -0.03077   0.19656   0.04512
  32   32774.4    305.1   0.007798807   0.07834  -0.21396  -0.15617   0.09040
  33   32982.3    303.2   0.014667877   0.14641   0.02611  -0.37907   0.04508
  34   33009.8    302.9   0.013897421   0.13860  -0.04870  -0.01212  -0.36889
  35   33066.1    302.4   0.012998712   0.12942  -0.11386  -0.18435   0.28717
  36   33283.4    300.4   0.010307736   0.10196   0.15863   0.21680  -0.17260
  37   33860.0    295.3   0.013363608   0.12993  -0.12783  -0.20073  -0.27074
  38   34147.9    292.8   0.007782492   0.07503  -0.11935   0.23499   0.07458
  39   34228.1    292.2   0.000063378   0.00061  -0.02236   0.00454   0.00944
  40   34381.1    290.9   0.013055076   0.12501   0.23095  -0.26346   0.04757
  41   34928.6    286.3   0.016009209   0.15089  -0.01984  -0.37580  -0.09628
  42   35135.8    284.6   0.007672345   0.07189  -0.05053   0.20860  -0.16068
  43   35356.8    282.8   0.006921948   0.06445   0.03280  -0.20535  -0.14562
  44   35801.8    279.3   0.008122456   0.07469   0.18740  -0.19767  -0.02229
  45   35883.2    278.7   0.025938377   0.23797  -0.21534   0.26218  -0.35052
  46   36096.6    277.0   0.059842786   0.54578  -0.15210  -0.54373   0.47645
  47   36225.9    276.0   0.003497073   0.03178   0.08267  -0.15231  -0.04181
  48   36419.3    274.6   0.010346158   0.09352  -0.25449   0.04309   0.16402
  49   36557.3    273.5   0.008879916   0.07997  -0.19574  -0.14357   0.14505
  50   36957.0    270.6   0.005691047   0.05070  -0.06283   0.17962   0.12034
  51   36975.5    270.4   0.006977450   0.06212   0.10507  -0.22536  -0.01724
  52   37080.0    269.7   0.016954228   0.15053   0.06717  -0.11734  -0.36366
  53   37109.5    269.5   0.043376417   0.38481   0.20996  -0.58358   0.01238
  54   37166.9    269.1   0.036595947   0.32415   0.25034  -0.38002   0.34216
  55   37274.3    268.3   0.011069706   0.09777   0.09743   0.29706   0.00568
  56   37424.4    267.2   0.049142090   0.43229  -0.12641   0.60407  -0.22674
  57   37513.5    266.6   0.049694496   0.43611   0.27509  -0.23099  -0.55415
  58   37715.4    265.1   0.015722382   0.13724   0.17074  -0.22306   0.24152
  59   37909.3    263.8   0.070379649   0.61119  -0.57045  -0.09298   0.52643
  60   38246.9    261.5   0.016160543   0.13910   0.13271   0.11757  -0.32813
  61   38465.6    260.0   0.113153474   0.96844   0.82566   0.00974  -0.53538
  62   38670.5    258.6   0.011609794   0.09884  -0.04113   0.30173   0.07813
  63   38921.3    256.9   0.029161721   0.24666   0.11637  -0.40787  -0.25839
  64   39069.2    256.0   0.023287465   0.19623   0.09162  -0.15020  -0.40654
  65   39183.1    255.2   0.008112749   0.06816   0.21624  -0.01878  -0.14508
  66   39275.1    254.6   0.088917001   0.74532  -0.35248  -0.25845   0.74450
  67   39440.6    253.5   0.108119978   0.90248   0.58555   0.05040  -0.74638
  68   39616.4    252.4   0.016397275   0.13626  -0.20470  -0.30204   0.05594
  69   39861.2    250.9   0.325122963   2.68518  -1.14898   0.37430   1.10676
  70   40033.0    249.8   0.026691016   0.21949  -0.34632   0.02978   0.31412
  71   40207.4    248.7   0.402862078   3.29857   1.35448  -0.10834  -1.20508
  72   40277.7    248.3   0.038117651   0.31156  -0.31557   0.02534   0.45970

FINAL SINGLE POINT ENERGY     -5527.814152799596

DIPOLE MOMENT
-------------
                                X             Y             Z
Electronic contribution:    -18.91481     118.55843     -14.60769
Nuclear contribution   :     21.77660    -124.05723      14.36980
                        -----------------------------------------
Total Dipole Moment    :      2.86179      -5.49880      -0.23789
                        -----------------------------------------
Magnitude (a.u.)       :      6.20349
Magnitude (Debye)      :     15.76801

Rotational constants in cm-1:     0.002542     0.000172     0.000169
Rotational constants in MHz :    76.216890     5.151336     5.059920

                             ****ORCA TERMINATED NORMALLY****
TOTAL RUN TIME: 0 days 0 hours 9 minutes 28 seconds 891 msec
