                         Program Version 4.2.0 -  RELEASE  -
|  1> # ORCA input file
|  2> # SCF done       -214.910416618909          0.000626532439
|  3> ! CAM-B3LYP def2-SVP def2/J RIJCOSX Grid4 TightSCF
|  4> %maxcore 5000
|  5> %tddft
|  6>     Mode sTDDFT
|  7>     Ethresh 5.0
|  8>     maxcore 5000
|  9> end
| 10>
| 11> %pal
| 12>   nprocs 6
| 13>   end
| 14> * xyz 0 1
| 15>    C        3.46695        -5.24206         9.44080
| 16>    C        2.18797        -4.94042         8.98185
| 17>    C        1.70729        -5.44095         7.71708
| 18>    N        0.44363        -5.18802         7.31911
| 19>    C       -0.30401        -4.42708         8.06877
| 20>    C        0.19337        -3.87819         9.30820
| 21>    N        1.38993        -4.15814         9.73951
| 22>    C       -0.65271        -3.04206        10.08308
| 23>    N       -1.36777        -2.37462        10.67784
| 24>    C       -1.63558        -4.15758         7.66060
| 25>    N       -2.71379        -3.92824         7.35058
| 26>    C        2.52192        -6.22603         6.89188
| 27>    C        3.81023        -6.51080         7.34610
| 28>    C        4.27530        -6.02661         8.63106
| 29>    N        5.53465        -6.42296         8.87141
| 30>    S        6.05291        -7.28287         7.63660
| 31>    N        4.75417        -7.21496         6.70719
| 32>    C        2.03895        -6.68644         5.59565
| 33>    C        2.02842        -8.02889         5.20649
| 34>    C        2.44106        -9.10576         6.13398
| 35>    O        2.62630        -9.02769         7.31206
| 36>    S        2.56575       -10.62778         5.22096
| 37>    C        1.88559        -9.90057         3.72733
| 38>    O        1.75093       -10.56114         2.73676
| 39>    C        1.60117        -8.46544         3.94749
| 40>    C        1.06635        -7.55946         2.98997
| 41>    C        1.11302        -6.20881         3.39317
| 42>    C        1.57589        -5.79161         4.63209
| 43>    C        1.51386        -4.30948         4.66196
| 44>    O        1.86706        -3.54116         5.50215
| 45>    O        0.97708        -3.91084         3.46749
| 46>    C        0.71196        -4.98932         2.65149
| 47>    O        0.25469        -4.86161         1.55889
| 48>    C        0.52877        -7.87089         1.69913
| 49>    C       -0.06308        -9.03994         1.36152
| 50>    C       -0.56786        -9.33238         0.06027
| 51>    C       -0.91507       -10.61408        -0.32518
| 52>    O       -1.47960       -10.89426        -1.54183
| 53>    C       -1.63269        -9.82174        -2.37615
| 54>    C       -1.21345        -8.51261        -2.00249
| 55>    C       -1.42986        -7.59317        -2.97561
| 56>    S       -2.15161        -8.31382        -4.36401
| 57>    C       -2.16010        -9.86967        -3.62488
| 58>    O       -0.66800        -8.25220        -0.77896
| 59>    C       -0.64390       -11.75282         0.48799
| 60>    C       -1.02250       -13.02150         0.19889
| 61>    C       -0.69495       -14.11510         1.04897
| 62>    S       -1.42442       -15.67891         0.82261
| 63>    C       -0.62632       -16.33542         2.21094
| 64>    C        0.21956       -15.37448         2.79371
| 65>    C        0.15578       -14.13280         2.13242
| 66>    C        1.18751       -15.65955         3.84011
| 67>    O        1.59775       -16.73853         4.18410
| 68>    C        1.78441       -14.39207         4.53154
| 69>    F        0.83943       -13.49182         4.85518
| 70>    F        2.42123       -14.71299         5.65287
| 71>    F        2.66811       -13.75988         3.74043
| 72>    C       -0.97598       -17.64899         2.62161
| 73>    C       -0.92905       -18.10595         3.89882
| 74>    C       -1.31538       -19.42323         4.24261
| 75>    C       -1.39671       -19.87861         5.52613
| 76>    C       -1.70808       -21.22974         5.96061
| 77>    C       -2.15249       -22.26221         5.17650
| 78>    C       -2.45077       -23.55342         5.66209
| 79>    N       -2.71140       -24.62096         5.99314
| 80>    C       -2.40516       -22.18595         3.79041
| 81>    N       -2.64594       -22.20304         2.66787
| 82>    C       -1.49777       -21.29013         7.40216
| 83>    C       -1.14460       -19.99966         7.86898
| 84>    C       -1.11621       -19.05659         6.73616
| 85>    O       -0.92960       -17.86141         6.79772
| 86>    C       -0.88798       -19.73285         9.19207
| 87>    C       -0.97910       -20.79204        10.10043
| 88>    C       -1.32834       -22.08001         9.62561
| 89>    C       -1.59063       -22.34845         8.28821
| 90>    S       -1.38122       -23.24288        10.91490
| 91>    C       -0.94239       -22.00152        12.05849
| 92>    C       -0.76349       -20.77810        11.50513
| 93>   Br       -0.76069       -22.43810        13.87233
| 94>    H        3.80919        -4.86329        10.38919
| 95>    H        0.55851        -7.07068         0.97303
| 96>    H       -0.20852        -9.79881         2.10750
| 97>    H       -1.20920        -6.54662        -2.95122
| 98>    H       -2.54701       -10.72092        -4.14479
| 99>    H       -0.05662       -11.57868         1.37150
|100>    H       -1.61485       -13.22988        -0.67992
|101>    H        0.74907       -13.27911         2.40145
|102>    H       -1.39486       -18.28528         1.85017
|103>    H       -0.61113       -17.45990         4.70138
|104>    H       -1.53033       -20.09874         3.42455
|105>    H       -0.62406       -18.73787         9.51429
|106>    H       -1.84979       -23.34667         7.97755
|107>    H       -0.49028       -19.90110        12.06293
|108> *
|109>
|110>                          ****END OF INPUT****

CARTESIAN COORDINATES (ANGSTROEM)
---------------------------------
  C      3.466950   -5.242060    9.440800
  C      2.187970   -4.940420    8.981850
  C      1.707290   -5.440950    7.717080
  N      0.443630   -5.188020    7.319110
  C     -0.304010   -4.427080    8.068770
  C      0.193370   -3.878190    9.308200
  N      1.389930   -4.158140    9.739510
  C     -0.652710   -3.042060   10.083080
  N     -1.367770   -2.374620   10.677840
  C     -1.635580   -4.157580    7.660600
  N     -2.713790   -3.928240    7.350580
  C      2.521920   -6.226030    6.891880
  C      3.810230   -6.510800    7.346100
  C      4.275300   -6.026610    8.631060
  N      5.534650   -6.422960    8.871410
  S      6.052910   -7.282870    7.636600
  N      4.754170   -7.214960    6.707190
  C      2.038950   -6.686440    5.595650
  C      2.028420   -8.028890    5.206490
  C      2.441060   -9.105760    6.133980
  O      2.626300   -9.027690    7.312060
  S      2.565750  -10.627780    5.220960
  C      1.885590   -9.900570    3.727330
  O      1.750930  -10.561140    2.736760
  C      1.601170   -8.465440    3.947490
  C      1.066350   -7.559460    2.989970
  C      1.113020   -6.208810    3.393170
  C      1.575890   -5.791610    4.632090
  C      1.513860   -4.309480    4.661960
  O      1.867060   -3.541160    5.502150
  O      0.977080   -3.910840    3.467490
  C      0.711960   -4.989320    2.651490
  O      0.254690   -4.861610    1.558890
  C      0.528770   -7.870890    1.699130
  C     -0.063080   -9.039940    1.361520
  C     -0.567860   -9.332380    0.060270
  C     -0.915070  -10.614080   -0.325180
  O     -1.479600  -10.894260   -1.541830
  C     -1.632690   -9.821740   -2.376150
  C     -1.213450   -8.512610   -2.002490
  C     -1.429860   -7.593170   -2.975610
  S     -2.151610   -8.313820   -4.364010
  C     -2.160100   -9.869670   -3.624880
  O     -0.668000   -8.252200   -0.778960
  C     -0.643900  -11.752820    0.487990
  C     -1.022500  -13.021500    0.198890
  C     -0.694950  -14.115100    1.048970
  S     -1.424420  -15.678910    0.822610
  C     -0.626320  -16.335420    2.210940
  C      0.219560  -15.374480    2.793710
  C      0.155780  -14.132800    2.132420
  C      1.187510  -15.659550    3.840110
  O      1.597750  -16.738530    4.184100
  C      1.784410  -14.392070    4.531540
  F      0.839430  -13.491820    4.855180
  F      2.421230  -14.712990    5.652870
  F      2.668110  -13.759880    3.740430
  C     -0.975980  -17.648990    2.621610
  C     -0.929050  -18.105950    3.898820
  C     -1.315380  -19.423230    4.242610
  C     -1.396710  -19.878610    5.526130
  C     -1.708080  -21.229740    5.960610
  C     -2.152490  -22.262210    5.176500
  C     -2.450770  -23.553420    5.662090
  N     -2.711400  -24.620960    5.993140
  C     -2.405160  -22.185950    3.790410
  N     -2.645940  -22.203040    2.667870
  C     -1.497770  -21.290130    7.402160
  C     -1.144600  -19.999660    7.868980
  C     -1.116210  -19.056590    6.736160
  O     -0.929600  -17.861410    6.797720
  C     -0.887980  -19.732850    9.192070
  C     -0.979100  -20.792040   10.100430
  C     -1.328340  -22.080010    9.625610
  C     -1.590630  -22.348450    8.288210
  S     -1.381220  -23.242880   10.914900
  C     -0.942390  -22.001520   12.058490
  C     -0.763490  -20.778100   11.505130
  Br    -0.760690  -22.438100   13.872330
  H      3.809190   -4.863290   10.389190
  H      0.558510   -7.070680    0.973030
  H     -0.208520   -9.798810    2.107500
  H     -1.209200   -6.546620   -2.951220
  H     -2.547010  -10.720920   -4.144790
  H     -0.056620  -11.578680    1.371500
  H     -1.614850  -13.229880   -0.679920
  H      0.749070  -13.279110    2.401450
  H     -1.394860  -18.285280    1.850170
  H     -0.611130  -17.459900    4.701380
  H     -1.530330  -20.098740    3.424550
  H     -0.624060  -18.737870    9.514290
  H     -1.849790  -23.346670    7.977550
  H     -0.490280  -19.901100   12.062930

 Total Charge           Charge          ....    0
 Multiplicity           Mult            ....    1
 Number of Electrons    NEL             ....  602
 Basis Dimension        Dim             .... 1214

ORBITAL ENERGIES
----------------

  NO   OCC          E(Eh)            E(eV)
   0   2.0000    -482.887797    -13140.0450
   1   2.0000     -89.059979     -2423.4452
   2   2.0000     -88.987133     -2421.4630
   3   2.0000     -88.978300     -2421.2226
   4   2.0000     -88.967861     -2420.9386
   5   2.0000     -88.966007     -2420.8881
   6   2.0000     -62.565542     -1702.4950
   7   2.0000     -56.399493     -1534.7082
   8   2.0000     -56.396771     -1534.6342
   9   2.0000     -56.396741     -1534.6334
  10   2.0000     -24.815326      -675.2594
  11   2.0000     -24.814681      -675.2418
  12   2.0000     -24.807859      -675.0562
  13   2.0000     -19.303042      -525.2625
  14   2.0000     -19.292934      -524.9874
  15   2.0000     -19.287930      -524.8513
  16   2.0000     -19.259967      -524.0903
  17   2.0000     -19.255502      -523.9688
  18   2.0000     -19.251129      -523.8498
  19   2.0000     -19.250382      -523.8295
  20   2.0000     -19.243433      -523.6404
  21   2.0000     -19.221444      -523.0421
  22   2.0000     -14.472235      -393.8095
  23   2.0000     -14.469670      -393.7397
  24   2.0000     -14.463278      -393.5658
  25   2.0000     -14.462719      -393.5506
  26   2.0000     -14.437188      -392.8559
  27   2.0000     -14.433926      -392.7671
  28   2.0000     -14.420209      -392.3938
  29   2.0000     -14.418371      -392.3438
  30   2.0000     -10.523316      -286.3540
  31   2.0000     -10.445441      -284.2349
  32   2.0000     -10.443909      -284.1932
  33   2.0000     -10.424436      -283.6633
  34   2.0000     -10.418026      -283.4889
  35   2.0000     -10.396035      -282.8905
  36   2.0000     -10.392084      -282.7830
  37   2.0000     -10.389433      -282.7108
  38   2.0000     -10.371858      -282.2326
  39   2.0000     -10.369069      -282.1567
  40   2.0000     -10.362378      -281.9746
  41   2.0000     -10.361688      -281.9559
  42   2.0000     -10.358836      -281.8782
  43   2.0000     -10.356032      -281.8019
  44   2.0000     -10.354077      -281.7488
  45   2.0000     -10.352515      -281.7063
  46   2.0000     -10.352014      -281.6926
  47   2.0000     -10.351515      -281.6791
  48   2.0000     -10.351263      -281.6722
  49   2.0000     -10.347790      -281.5777
  50   2.0000     -10.346674      -281.5473
  51   2.0000     -10.345227      -281.5079
  52   2.0000     -10.344056      -281.4761
  53   2.0000     -10.342753      -281.4406
  54   2.0000     -10.341350      -281.4024
  55   2.0000     -10.339768      -281.3594
  56   2.0000     -10.336206      -281.2625
  57   2.0000     -10.333005      -281.1754
  58   2.0000     -10.329775      -281.0875
  59   2.0000     -10.328838      -281.0620
  60   2.0000     -10.328833      -281.0618
  61   2.0000     -10.326743      -281.0050
  62   2.0000     -10.322829      -280.8984
  63   2.0000     -10.321043      -280.8499
  64   2.0000     -10.320558      -280.8367
  65   2.0000     -10.317484      -280.7530
  66   2.0000     -10.314753      -280.6787
  67   2.0000     -10.311903      -280.6011
  68   2.0000     -10.311784      -280.5979
  69   2.0000     -10.310751      -280.5698
  70   2.0000     -10.310165      -280.5539
  71   2.0000     -10.308784      -280.5163
  72   2.0000     -10.306672      -280.4588
  73   2.0000     -10.305655      -280.4311
  74   2.0000     -10.304004      -280.3862
  75   2.0000     -10.303890      -280.3831
  76   2.0000     -10.303863      -280.3824
  77   2.0000     -10.302340      -280.3409
  78   2.0000     -10.301784      -280.3258
  79   2.0000     -10.299214      -280.2559
  80   2.0000     -10.295727      -280.1610
  81   2.0000     -10.295485      -280.1544
  82   2.0000     -10.293246      -280.0935
  83   2.0000      -8.795000      -239.3241
  84   2.0000      -8.151141      -221.8038
  85   2.0000      -8.083081      -219.9518
  86   2.0000      -8.074282      -219.7124
  87   2.0000      -8.065129      -219.4633
  88   2.0000      -8.063694      -219.4243
  89   2.0000      -6.631321      -180.4474
  90   2.0000      -6.616723      -180.0502
  91   2.0000      -6.616519      -180.0446
  92   2.0000      -6.121903      -166.5854
  93   2.0000      -6.114626      -166.3874
  94   2.0000      -6.114070      -166.3723
  95   2.0000      -6.052036      -164.6843
  96   2.0000      -6.048005      -164.5746
  97   2.0000      -6.045636      -164.5101
  98   2.0000      -6.043970      -164.4648
  99   2.0000      -6.039692      -164.3484
 100   2.0000      -6.035515      -164.2347
 101   2.0000      -6.033992      -164.1933
 102   2.0000      -6.033172      -164.1710
 103   2.0000      -6.030648      -164.1023
 104   2.0000      -6.028996      -164.0573
 105   2.0000      -6.026215      -163.9817
 106   2.0000      -6.025392      -163.9592
 107   2.0000      -2.747186       -74.7547
 108   2.0000      -2.743119       -74.6441
 109   2.0000      -2.742922       -74.6387
 110   2.0000      -2.731341       -74.3236
 111   2.0000      -2.731324       -74.3231
 112   2.0000      -1.402264       -38.1575
 113   2.0000      -1.305500       -35.5245
 114   2.0000      -1.303906       -35.4811
 115   2.0000      -1.252936       -34.0941
 116   2.0000      -1.217791       -33.1378
 117   2.0000      -1.184260       -32.2254
 118   2.0000      -1.180938       -32.1349
 119   2.0000      -1.178846       -32.0780
 120   2.0000      -1.178563       -32.0703
 121   2.0000      -1.160749       -31.5856
 122   2.0000      -1.153810       -31.3968
 123   2.0000      -1.141048       -31.0495
 124   2.0000      -1.136725       -30.9319
 125   2.0000      -1.128680       -30.7129
 126   2.0000      -1.056815       -28.7574
 127   2.0000      -1.032005       -28.0823
 128   2.0000      -1.026129       -27.9224
 129   2.0000      -1.019614       -27.7451
 130   2.0000      -1.016877       -27.6706
 131   2.0000      -1.015847       -27.6426
 132   2.0000      -1.009422       -27.4678
 133   2.0000      -1.004869       -27.3439
 134   2.0000      -0.998460       -27.1695
 135   2.0000      -0.997957       -27.1558
 136   2.0000      -0.992939       -27.0192
 137   2.0000      -0.987800       -26.8794
 138   2.0000      -0.966820       -26.3085
 139   2.0000      -0.949413       -25.8348
 140   2.0000      -0.947543       -25.7840
 141   2.0000      -0.938017       -25.5247
 142   2.0000      -0.927940       -25.2505
 143   2.0000      -0.915469       -24.9112
 144   2.0000      -0.911880       -24.8135
 145   2.0000      -0.911405       -24.8006
 146   2.0000      -0.898315       -24.4444
 147   2.0000      -0.891488       -24.2586
 148   2.0000      -0.889013       -24.1913
 149   2.0000      -0.886217       -24.1152
 150   2.0000      -0.878080       -23.8938
 151   2.0000      -0.867362       -23.6021
 152   2.0000      -0.847073       -23.0500
 153   2.0000      -0.843195       -22.9445
 154   2.0000      -0.837872       -22.7997
 155   2.0000      -0.832322       -22.6486
 156   2.0000      -0.827445       -22.5159
 157   2.0000      -0.822676       -22.3861
 158   2.0000      -0.814366       -22.1600
 159   2.0000      -0.809939       -22.0396
 160   2.0000      -0.804391       -21.8886
 161   2.0000      -0.793176       -21.5834
 162   2.0000      -0.778029       -21.1713
 163   2.0000      -0.774928       -21.0869
 164   2.0000      -0.762678       -20.7535
 165   2.0000      -0.758991       -20.6532
 166   2.0000      -0.753882       -20.5142
 167   2.0000      -0.742827       -20.2134
 168   2.0000      -0.735564       -20.0157
 169   2.0000      -0.724323       -19.7098
 170   2.0000      -0.722714       -19.6660
 171   2.0000      -0.712572       -19.3901
 172   2.0000      -0.706512       -19.2252
 173   2.0000      -0.704424       -19.1683
 174   2.0000      -0.699324       -19.0296
 175   2.0000      -0.696690       -18.9579
 176   2.0000      -0.693943       -18.8832
 177   2.0000      -0.688455       -18.7338
 178   2.0000      -0.687221       -18.7002
 179   2.0000      -0.685567       -18.6552
 180   2.0000      -0.681476       -18.5439
 181   2.0000      -0.671109       -18.2618
 182   2.0000      -0.660898       -17.9840
 183   2.0000      -0.660550       -17.9745
 184   2.0000      -0.654470       -17.8090
 185   2.0000      -0.651870       -17.7383
 186   2.0000      -0.649902       -17.6847
 187   2.0000      -0.639508       -17.4019
 188   2.0000      -0.635927       -17.3045
 189   2.0000      -0.634464       -17.2647
 190   2.0000      -0.630758       -17.1638
 191   2.0000      -0.629519       -17.1301
 192   2.0000      -0.626511       -17.0482
 193   2.0000      -0.614723       -16.7275
 194   2.0000      -0.609920       -16.5968
 195   2.0000      -0.607449       -16.5295
 196   2.0000      -0.600154       -16.3310
 197   2.0000      -0.599269       -16.3069
 198   2.0000      -0.589449       -16.0397
 199   2.0000      -0.588459       -16.0128
 200   2.0000      -0.585255       -15.9256
 201   2.0000      -0.583195       -15.8695
 202   2.0000      -0.582600       -15.8534
 203   2.0000      -0.575937       -15.6720
 204   2.0000      -0.572431       -15.5767
 205   2.0000      -0.568474       -15.4690
 206   2.0000      -0.567142       -15.4327
 207   2.0000      -0.564467       -15.3599
 208   2.0000      -0.562419       -15.3042
 209   2.0000      -0.561795       -15.2872
 210   2.0000      -0.560253       -15.2453
 211   2.0000      -0.555999       -15.1295
 212   2.0000      -0.552651       -15.0384
 213   2.0000      -0.552518       -15.0348
 214   2.0000      -0.548886       -14.9359
 215   2.0000      -0.545765       -14.8510
 216   2.0000      -0.544456       -14.8154
 217   2.0000      -0.543473       -14.7886
 218   2.0000      -0.541913       -14.7462
 219   2.0000      -0.538842       -14.6626
 220   2.0000      -0.536886       -14.6094
 221   2.0000      -0.534199       -14.5363
 222   2.0000      -0.532637       -14.4938
 223   2.0000      -0.527929       -14.3657
 224   2.0000      -0.523541       -14.2463
 225   2.0000      -0.520119       -14.1532
 226   2.0000      -0.519743       -14.1429
 227   2.0000      -0.518257       -14.1025
 228   2.0000      -0.516239       -14.0476
 229   2.0000      -0.514906       -14.0113
 230   2.0000      -0.514083       -13.9889
 231   2.0000      -0.512989       -13.9591
 232   2.0000      -0.511753       -13.9255
 233   2.0000      -0.507966       -13.8225
 234   2.0000      -0.506296       -13.7770
 235   2.0000      -0.500260       -13.6128
 236   2.0000      -0.498174       -13.5560
 237   2.0000      -0.497557       -13.5392
 238   2.0000      -0.497359       -13.5338
 239   2.0000      -0.496224       -13.5029
 240   2.0000      -0.495102       -13.4724
 241   2.0000      -0.493033       -13.4161
 242   2.0000      -0.492531       -13.4025
 243   2.0000      -0.491026       -13.3615
 244   2.0000      -0.487823       -13.2743
 245   2.0000      -0.487181       -13.2569
 246   2.0000      -0.483085       -13.1454
 247   2.0000      -0.481038       -13.0897
 248   2.0000      -0.477854       -13.0031
 249   2.0000      -0.473782       -12.8923
 250   2.0000      -0.464060       -12.6277
 251   2.0000      -0.461788       -12.5659
 252   2.0000      -0.461657       -12.5623
 253   2.0000      -0.458198       -12.4682
 254   2.0000      -0.458099       -12.4655
 255   2.0000      -0.452432       -12.3113
 256   2.0000      -0.451057       -12.2739
 257   2.0000      -0.450281       -12.2528
 258   2.0000      -0.447557       -12.1787
 259   2.0000      -0.447058       -12.1651
 260   2.0000      -0.446565       -12.1516
 261   2.0000      -0.445845       -12.1321
 262   2.0000      -0.442508       -12.0413
 263   2.0000      -0.442085       -12.0298
 264   2.0000      -0.439620       -11.9627
 265   2.0000      -0.431267       -11.7354
 266   2.0000      -0.430992       -11.7279
 267   2.0000      -0.430416       -11.7122
 268   2.0000      -0.429281       -11.6813
 269   2.0000      -0.427303       -11.6275
 270   2.0000      -0.422921       -11.5083
 271   2.0000      -0.422080       -11.4854
 272   2.0000      -0.420264       -11.4360
 273   2.0000      -0.418041       -11.3755
 274   2.0000      -0.414031       -11.2664
 275   2.0000      -0.411751       -11.2043
 276   2.0000      -0.406941       -11.0734
 277   2.0000      -0.401078       -10.9139
 278   2.0000      -0.395699       -10.7675
 279   2.0000      -0.389842       -10.6081
 280   2.0000      -0.388351       -10.5676
 281   2.0000      -0.384387       -10.4597
 282   2.0000      -0.383384       -10.4324
 283   2.0000      -0.377066       -10.2605
 284   2.0000      -0.376247       -10.2382
 285   2.0000      -0.370540       -10.0829
 286   2.0000      -0.367196        -9.9919
 287   2.0000      -0.363502        -9.8914
 288   2.0000      -0.359905        -9.7935
 289   2.0000      -0.357628        -9.7316
 290   2.0000      -0.352982        -9.6051
 291   2.0000      -0.351672        -9.5695
 292   2.0000      -0.341164        -9.2835
 293   2.0000      -0.337774        -9.1913
 294   2.0000      -0.318517        -8.6673
 295   2.0000      -0.317885        -8.6501
 296   2.0000      -0.314719        -8.5639
 297   2.0000      -0.307959        -8.3800
 298   2.0000      -0.297154        -8.0860
 299   2.0000      -0.286938        -7.8080
 300   2.0000      -0.253526        -6.8988
 301   0.0000      -0.126543        -3.4434
 302   0.0000      -0.110545        -3.0081
 303   0.0000      -0.106340        -2.8937
 304   0.0000      -0.086368        -2.3502
 305   0.0000      -0.068611        -1.8670

MULLIKEN ATOMIC CHARGES
-----------------------
   0 C :   -0.079411
   1 C :    0.010145
   2 C :   -0.025739
   3 N :    0.048899
   4 C :   -0.122081
   5 C :   -0.142382
   6 N :    0.064000
   7 C :   -0.198718
   8 N :    0.237375
   9 C :   -0.205398
  10 N :    0.247842
  11 C :    0.049833
  12 C :   -0.009051
  13 C :    0.121434
  14 N :   -0.263575
  15 S :    0.568284
  16 N :   -0.274714
  17 C :   -0.017707
  18 C :    0.044442
  19 C :    0.051732
  20 O :   -0.129680
  21 S :    0.043833
  22 C :    0.032384
  23 O :   -0.139488
  24 C :    0.021405
  25 C :    0.070392
  26 C :   -0.078529
  27 C :   -0.044919
  28 C :    0.245227
  29 O :   -0.107769
  30 O :   -0.227251
  31 C :    0.238748
  32 O :   -0.095831
  33 C :   -0.051484
  34 C :    0.018519
  35 C :    0.128791
  36 C :    0.201132
  37 O :   -0.248837
  38 C :    0.215237
  39 C :    0.220868
  40 C :   -0.168277
  41 S :    0.121994
  42 C :   -0.168908
  43 O :   -0.242888
  44 C :   -0.074551
  45 C :    0.078115
  46 C :   -0.077020
  47 S :    0.181539
  48 C :   -0.119234
  49 C :    0.033501
  50 C :   -0.010391
  51 C :    0.019456
  52 O :   -0.128188
  53 C :    0.474474
  54 F :   -0.167367
  55 F :   -0.132472
  56 F :   -0.168587
  57 C :    0.058553
  58 C :    0.032083
  59 C :   -0.048204
  60 C :   -0.062511
  61 C :    0.320158
  62 C :   -0.348427
  63 C :   -0.182778
  64 N :    0.152696
  65 C :   -0.190261
  66 N :    0.147034
  67 C :    0.016169
  68 C :   -0.013373
  69 C :    0.149815
  70 O :   -0.147688
  71 C :   -0.065393
  72 C :    0.117739
  73 C :   -0.091698
  74 C :   -0.019676
  75 S :    0.189125
  76 C :   -0.123506
  77 C :    0.039479
  78 Br:    0.027216
  79 H :   -0.010464
  80 H :    0.032382
  81 H :    0.005731
  82 H :    0.035309
  83 H :    0.028523
  84 H :    0.017162
  85 H :   -0.001123
  86 H :    0.016289
  87 H :    0.011498
  88 H :    0.039898
  89 H :    0.014565
  90 H :   -0.008234
  91 H :   -0.005119
  92 H :   -0.002119
Sum of atomic charges:   -0.0000000

LOEWDIN ATOMIC CHARGES
----------------------
   0 C :    0.020912
   1 C :   -0.008660
   2 C :    0.006251
   3 N :   -0.003138
   4 C :   -0.017177
   5 C :   -0.024226
   6 N :    0.008183
   7 C :   -0.035565
   8 N :    0.001294
   9 C :   -0.036800
  10 N :    0.002559
  11 C :   -0.016571
  12 C :   -0.034515
  13 C :   -0.044421
  14 N :   -0.280073
  15 S :    0.712666
  16 N :   -0.297589
  17 C :    0.026448
  18 C :   -0.031749
  19 C :   -0.046658
  20 O :   -0.113379
  21 S :    0.331566
  22 C :   -0.036042
  23 O :   -0.124511
  24 C :   -0.062816
  25 C :    0.042223
  26 C :   -0.048246
  27 C :   -0.025699
  28 C :    0.108730
  29 O :   -0.103961
  30 O :   -0.050512
  31 C :    0.112229
  32 O :   -0.090551
  33 C :   -0.043496
  34 C :    0.018798
  35 C :    0.019049
  36 C :    0.042713
  37 O :   -0.047197
  38 C :   -0.008513
  39 C :   -0.007002
  40 C :   -0.202579
  41 S :    0.448185
  42 C :   -0.205419
  43 O :   -0.045644
  44 C :   -0.024971
  45 C :   -0.025253
  46 C :   -0.164746
  47 S :    0.485131
  48 C :   -0.136513
  49 C :   -0.103340
  50 C :   -0.031148
  51 C :    0.041075
  52 O :   -0.089819
  53 C :    0.137499
  54 F :   -0.060261
  55 F :   -0.033392
  56 F :   -0.058437
  57 C :   -0.007733
  58 C :    0.002295
  59 C :    0.064093
  60 C :   -0.081489
  61 C :    0.074597
  62 C :   -0.136568
  63 C :   -0.018222
  64 N :   -0.050569
  65 C :   -0.019601
  66 N :   -0.051404
  67 C :   -0.020463
  68 C :   -0.050436
  69 C :    0.087139
  70 O :   -0.137507
  71 C :    0.023973
  72 C :   -0.031246
  73 C :   -0.142977
  74 C :   -0.009197
  75 S :    0.434588
  76 C :   -0.270487
  77 C :   -0.069881
  78 Br:    0.139572
  79 H :    0.052130
  80 H :    0.039759
  81 H :    0.033037
  82 H :    0.033833
  83 H :    0.030984
  84 H :    0.036525
  85 H :    0.034157
  86 H :    0.030014
  87 H :    0.037116
  88 H :    0.033932
  89 H :    0.042496
  90 H :    0.041859
  91 H :    0.041303
  92 H :    0.039458

  Mayer bond orders larger than 0.100000
B(  0-C ,  1-C ) :   1.2846 B(  0-C , 11-C ) :   0.1517 B(  0-C , 13-C ) :   1.1703
B(  0-C , 79-H ) :   1.0651 B(  1-C ,  2-C ) :   1.1300 B(  1-C ,  6-N ) :   1.3409
B(  2-C ,  3-N ) :   1.4153 B(  2-C , 11-C ) :   1.3865 B(  3-N ,  4-C ) :   1.7548
B(  4-C ,  5-C ) :   1.1723 B(  4-C ,  9-C ) :   1.1493 B(  5-C ,  6-N ) :   1.7961
B(  5-C ,  7-C ) :   1.1485 B(  7-C ,  8-N ) :   3.0505 B(  9-C , 10-N ) :   3.0538
B( 11-C , 12-C ) :   1.3197 B( 11-C , 17-C ) :   0.9207 B( 12-C , 13-C ) :   1.1181
B( 12-C , 16-N ) :   1.4972 B( 13-C , 14-N ) :   1.4384 B( 14-N , 15-S ) :   1.3385
B( 14-N , 16-N ) :   0.1626 B( 15-S , 16-N ) :   1.2999 B( 17-C , 18-C ) :   1.4571
B( 17-C , 27-C ) :   1.4071 B( 18-C , 19-C ) :   0.8295 B( 18-C , 24-C ) :   1.3159
B( 19-C , 20-O ) :   2.1744 B( 19-C , 21-S ) :   1.0324 B( 20-O , 21-S ) :   0.1063
B( 21-S , 22-C ) :   1.0442 B( 22-C , 23-O ) :   2.1150 B( 22-C , 24-C ) :   0.8527
B( 24-C , 25-C ) :   1.3027 B( 25-C , 26-C ) :   1.3023 B( 25-C , 33-C ) :   1.1269
B( 26-C , 27-C ) :   1.3689 B( 26-C , 31-C ) :   0.9135 B( 27-C , 28-C ) :   0.8833
B( 28-C , 29-O ) :   2.2468 B( 28-C , 30-O ) :   1.0702 B( 30-O , 31-C ) :   1.0456
B( 31-C , 32-O ) :   2.2364 B( 33-C , 34-C ) :   1.6405 B( 33-C , 80-H ) :   0.9546
B( 34-C , 35-C ) :   1.2104 B( 34-C , 81-H ) :   0.9405 B( 35-C , 36-C ) :   1.4309
B( 35-C , 43-O ) :   1.0779 B( 36-C , 37-O ) :   1.0954 B( 36-C , 44-C ) :   1.1794
B( 37-O , 38-C ) :   1.0339 B( 38-C , 39-C ) :   1.2037 B( 38-C , 42-C ) :   1.5726
B( 39-C , 40-C ) :   1.5750 B( 39-C , 43-O ) :   1.0425 B( 40-C , 41-S ) :   1.1478
B( 40-C , 82-H ) :   0.9714 B( 41-S , 42-C ) :   1.1492 B( 42-C , 83-H ) :   0.9730
B( 44-C , 45-C ) :   1.6732 B( 44-C , 84-H ) :   0.9466 B( 45-C , 46-C ) :   1.0816
B( 45-C , 85-H ) :   0.9785 B( 46-C , 47-S ) :   1.1176 B( 46-C , 50-C ) :   1.4974
B( 47-S , 48-C ) :   1.1780 B( 48-C , 49-C ) :   1.4112 B( 48-C , 57-C ) :   1.1114
B( 49-C , 50-C ) :   1.2722 B( 49-C , 51-C ) :   0.9529 B( 50-C , 86-H ) :   0.9614
B( 51-C , 52-O ) :   2.2078 B( 51-C , 53-C ) :   0.8733 B( 53-C , 54-F ) :   1.1275
B( 53-C , 55-F ) :   1.1952 B( 53-C , 56-F ) :   1.0933 B( 57-C , 58-C ) :   1.6215
B( 57-C , 87-H ) :   0.9585 B( 58-C , 59-C ) :   1.1672 B( 58-C , 88-H ) :   0.9600
B( 59-C , 60-C ) :   1.5705 B( 59-C , 89-H ) :   0.9623 B( 60-C , 61-C ) :   1.0535
B( 60-C , 69-C ) :   0.9369 B( 61-C , 62-C ) :   1.6357 B( 61-C , 67-C ) :   1.0078
B( 62-C , 63-C ) :   1.1398 B( 62-C , 65-C ) :   1.1466 B( 63-C , 64-N ) :   2.9706
B( 65-C , 66-N ) :   2.9671 B( 67-C , 68-C ) :   1.2719 B( 67-C , 74-C ) :   1.4065
B( 68-C , 69-C ) :   0.9472 B( 68-C , 71-C ) :   1.4230 B( 69-C , 70-O ) :   2.1922
B( 71-C , 72-C ) :   1.2483 B( 71-C , 90-H ) :   1.0162 B( 72-C , 73-C ) :   1.3002
B( 72-C , 77-C ) :   1.1651 B( 73-C , 74-C ) :   1.3348 B( 73-C , 75-S ) :   1.0886
B( 74-C , 91-H ) :   0.9795 B( 75-S , 76-C ) :   1.0860 B( 76-C , 77-C ) :   1.6172
B( 76-C , 78-Br) :   1.0209 B( 77-C , 92-H ) :   0.9997

-----------------------------------------------------------------------------
         ABSORPTION SPECTRUM VIA TRANSITION ELECTRIC DIPOLE MOMENTS
-----------------------------------------------------------------------------
State   Energy  Wavelength   fosc         T2         TX        TY        TZ
        (cm-1)    (nm)                  (au**2)     (au)      (au)      (au)
-----------------------------------------------------------------------------
   0   15220.6    657.0   0.353022114   7.63563   0.95700   2.54085   0.51366
   1   15994.2    625.2   0.252815724   5.20377  -0.52773  -2.19738  -0.31110
   2   17884.7    559.1   0.776295998  14.28964   0.47401   3.26402  -1.84692
   3   21104.0    473.8   0.206818508   3.22626   0.27474   0.34496   1.74120
   4   22993.7    434.9   0.148107523   2.12052   0.41146   0.45927   1.31920
   5   24017.3    416.4   0.287546363   3.94148  -0.29618  -1.63758   1.08264
   6   24584.0    406.8   0.008775150   0.11751  -0.22457  -0.08595  -0.24432
   7   25720.6    388.8   0.145275909   1.85946   0.26151  -0.20892   1.32190
   8   26109.4    383.0   0.016859860   0.21259  -0.01144   0.22284  -0.40348
   9   26564.0    376.4   0.014679437   0.18192   0.37489   0.19072  -0.07077
  10   26935.1    371.3   0.023459351   0.28673   0.05972  -0.22875   0.48046
  11   26996.8    370.4   0.004473748   0.05456   0.07570   0.21713  -0.04100
  12   27159.4    368.2   0.005981386   0.07250   0.03588  -0.17806   0.19877
  13   27477.8    363.9   0.095124528   1.13969  -0.04271   0.13338  -1.05834
  14   27999.0    357.2   0.066242172   0.77888  -0.00306  -0.39936  -0.78701
  15   28820.5    347.0   0.013237472   0.15121  -0.06705  -0.29340  -0.24623
  16   29299.5    341.3   0.064676261   0.72671   0.45267  -0.44371   0.57002
  17   29561.8    338.3   0.261159009   2.90837   1.64224  -0.45980   0.00058
  18   30087.6    332.4   0.501396452   5.48616  -0.17640   0.84658  -2.17678
  19   30301.7    330.0   0.190116059   2.06551   0.25505  -1.40527   0.16022
  20   30658.7    326.2   0.018598187   0.19971  -0.03809   0.23529   0.37801
  21   30782.3    324.9   0.069986506   0.74849  -0.56860   0.65201  -0.00886
  22   30858.4    324.1   0.038761841   0.41353  -0.27895   0.27247  -0.51135
  23   31205.5    320.5   0.012532775   0.13222   0.22674  -0.27352  -0.07744
  24   31507.8    317.4   0.039760553   0.41544  -0.24838  -0.23130  -0.54795
  25   31774.8    314.7   0.011857969   0.12286  -0.12475   0.19599  -0.26246
  26   31933.4    313.2   0.015601638   0.16084  -0.07726  -0.34798   0.18381
  27   32172.6    310.8   0.011091898   0.11350  -0.16762  -0.04132   0.28930
  28   32506.4    307.6   0.582355437   5.89786  -0.48786  -0.62184  -2.29634
  29   32595.6    306.8   0.026828342   0.27096   0.09094   0.50015   0.11201
  30   32793.3    304.9   0.055467820   0.55684  -0.08093  -0.49031  -0.55668
  31   32873.8    304.2   0.023893704   0.23928  -0.09483   0.25220  -0.40827
  32   33183.4    301.4   0.049064806   0.48677  -0.58994   0.34394   0.14299
  33   33507.5    298.4   0.015776032   0.15500  -0.36676   0.13405  -0.05014
  34   33673.0    297.0   0.024525808   0.23978   0.00889   0.31208   0.37724
  35   33890.0    295.1   0.002726001   0.02648   0.11237  -0.01411  -0.11685
  36   34251.3    292.0   0.007588758   0.07294   0.10089  -0.17934  -0.17492
  37   34323.7    291.3   0.007285745   0.06988   0.19357   0.16302   0.07638
  38   34371.0    290.9   0.004159601   0.03984   0.13720   0.01743   0.14392
  39   34556.4    289.4   0.025881463   0.24657  -0.01493   0.48952  -0.08193
  40   34642.1    288.7   0.000374919   0.00356  -0.00137  -0.01170  -0.05852
  41   35144.9    284.5   0.013065758   0.12239   0.02901  -0.25475  -0.23801
  42   35193.6    284.1   0.006364282   0.05953  -0.05197  -0.15886  -0.17775
  43   35379.3    282.7   0.018025436   0.16773  -0.21014  -0.35121   0.01478
  44   35863.8    278.8   0.018161193   0.16671  -0.00185   0.09696   0.39662
  45   36285.8    275.6   0.022842705   0.20725   0.05483  -0.38360   0.23893
  46   36380.4    274.9   0.144521327   1.30780  -0.49636   0.26191  -0.99641
  47   36521.3    273.8   0.005774367   0.05205  -0.16785  -0.10171  -0.11633
  48   36751.3    272.1   0.043637064   0.39089  -0.10662   0.58285  -0.19952
  49   36905.6    271.0   0.004027220   0.03592  -0.08127   0.04132   0.16617
  50   37110.1    269.5   0.072113972   0.63974   0.36283   0.69602   0.15377
  51   37707.8    265.2   0.011701593   0.10216   0.06542   0.17389   0.26008
  52   38028.9    263.0   0.034028356   0.29458  -0.21709   0.45655  -0.19753
  53   38140.0    262.2   0.002650266   0.02288   0.09480   0.09748  -0.06624
  54   38309.5    261.0   0.019896765   0.17098  -0.08524  -0.23246   0.33118
  55   38441.4    260.1   0.095125886   0.81466   0.37212   0.66553   0.48296
  56   38453.0    260.1   0.014325708   0.12265  -0.19543  -0.21821   0.19193
  57   38615.0    259.0   0.045975414   0.39196  -0.20417  -0.53987   0.24252
  58   38722.8    258.2   0.032316900   0.27475   0.19625   0.38589   0.29552
  59   39097.2    255.8   0.079917245   0.67293  -0.30456   0.75951   0.05759
  60   39126.3    255.6   0.046292476   0.38951  -0.41782   0.13391  -0.44385
  61   39511.0    253.1   0.039197131   0.32660  -0.43052   0.33131   0.17742
  62   39616.4    252.4   0.022442642   0.18650   0.29695  -0.28895  -0.12177
  63   39917.5    250.5   0.254272221   2.09706  -1.16707   0.26758   0.81450
  64   40173.1    248.9   0.337695470   2.76736  -1.06929   1.19327  -0.44730
  65   40261.7    248.4   0.114437317   0.93573  -0.73777  -0.07234   0.62144

FINAL SINGLE POINT ENERGY     -8002.668144068974

DIPOLE MOMENT
-------------
                                X             Y             Z
Electronic contribution:      7.35064     -78.64843     101.00243
Nuclear contribution   :     -5.29889      78.51280    -101.76814
                        -----------------------------------------
Total Dipole Moment    :      2.05175      -0.13562      -0.76571
                        -----------------------------------------
Magnitude (a.u.)       :      2.19417
Magnitude (Debye)      :      5.57713

Rotational constants in cm-1:     0.000709     0.000274     0.000213
Rotational constants in MHz :    21.268094     8.214397     6.384292

                             ****ORCA TERMINATED NORMALLY****
TOTAL RUN TIME: 0 days 0 hours 16 minutes 40 seconds 86 msec
