                         Program Version 4.2.0 -  RELEASE  -
|  1> # ORCA input file
|  2> # SCF done       -197.356661194743          0.000671096411
|  3> ! CAM-B3LYP def2-SVP def2/J RIJCOSX Grid4 TightSCF
|  4> %maxcore 5000
|  5> %tddft
|  6>     Mode sTDDFT
|  7>     Ethresh 5.0
|  8>     maxcore 5000
|  9> end
| 10>
| 11> %pal
| 12>   nprocs 6
| 13>   end
| 14> * xyz 0 1
| 15>    C        5.27542         0.73814         1.83468
| 16>    C        3.90941         0.47725         1.90719
| 17>    C        3.39967        -0.86925         1.82387
| 18>    N        2.07978        -1.10677         1.96022
| 19>    C        1.27233        -0.09143         2.09907
| 20>    C        1.77459         1.26087         2.12424
| 21>    N        3.05173         1.50901         2.05353
| 22>    C        0.85716         2.33615         2.25582
| 23>    N        0.08481         3.17326         2.36997
| 24>    C       -0.11731        -0.33717         2.24179
| 25>    N       -1.24242        -0.51477         2.35886
| 26>    C        4.25853        -1.96069         1.62828
| 27>    C        5.62348        -1.69417         1.54298
| 28>    C        6.13051        -0.33948         1.65887
| 29>    N        7.46848        -0.31286         1.55564
| 30>    S        7.99972        -1.79751         1.33604
| 31>    N        6.60830        -2.57898         1.33842
| 32>    C        3.71632        -3.31230         1.57628
| 33>    C        2.67477        -3.67939         0.71444
| 34>    C        2.14509        -2.77153        -0.32800
| 35>    O        2.62537        -1.74995        -0.72403
| 36>    S        0.65514        -3.48001        -1.00232
| 37>    C        0.83103        -5.00659        -0.05898
| 38>    O       -0.00241        -5.85881        -0.08223
| 39>    C        2.06985        -4.93662         0.74774
| 40>    C        2.52744        -5.96540         1.60335
| 41>    C        3.55989        -5.57408         2.47175
| 42>    C        4.12430        -4.30396         2.46536
| 43>    C        5.11786        -4.25347         3.56590
| 44>    O        5.78471        -3.34825         3.96124
| 45>    O        5.14127        -5.49859         4.13963
| 46>    C        4.23082        -6.34498         3.54128
| 47>    O        4.07544        -7.47169         3.89529
| 48>    C        2.00014        -7.30033         1.65035
| 49>    C        1.60515        -8.01025         0.57312
| 50>    C        1.01219        -9.29576         0.64251
| 51>    C        0.61474       -10.07454        -0.42122
| 52>    C        0.66793        -9.98279        -1.89025
| 53>    O        1.19658        -9.16388        -2.59990
| 54>    N       -0.05375       -11.08325        -2.33135
| 55>    C       -0.28335       -11.37308        -3.72495
| 56>    C       -0.59432       -11.85330        -1.30498
| 57>    O       -1.36995       -12.76231        -1.48023
| 58>    C       -0.08080       -11.24633        -0.06585
| 59>    C       -0.20529       -11.41446         1.30265
| 60>    S        0.52180       -10.06489         2.14003
| 61>    C       -0.84620       -12.45290         2.02657
| 62>    C       -1.04820       -13.74144         1.48222
| 63>    C       -1.96337       -14.68951         2.07117
| 64>    N       -2.20058       -15.83038         1.42651
| 65>    C       -1.56480       -16.10510         0.30617
| 66>    C       -0.52871       -15.24348        -0.16387
| 67>    N       -0.30596       -14.09714         0.42626
| 68>    C        0.28284       -15.62125        -1.26248
| 69>    N        0.91283       -15.94743        -2.16142
| 70>    C       -1.90362       -17.29322        -0.38249
| 71>    N       -2.18485       -18.25055        -0.94693
| 72>    C       -2.59878       -14.43738         3.32746
| 73>    C       -2.17054       -13.23892         3.97477
| 74>    C       -1.33734       -12.25827         3.33169
| 75>    N       -1.13254       -11.18983         4.09914
| 76>    S       -1.89383       -11.40309         5.50082
| 77>    N       -2.53485       -12.84420         5.19235
| 78>    C       -3.57380       -15.18398         4.00712
| 79>    C       -4.39285       -16.24176         3.66108
| 80>    C       -4.60584       -16.96317         2.46502
| 81>    C       -5.59033       -17.90168         2.54283
| 82>    C       -6.21639       -17.98022         3.80854
| 83>    S       -5.50049       -16.81817         4.89782
| 84>    C       -7.25356       -18.80918         4.18880
| 85>    C       -7.91529       -19.77659         3.37998
| 86>    C       -8.91414       -20.43400         4.00970
| 87>    C       -9.11637       -20.03355         5.37276
| 88>    S       -7.94473       -18.77057         5.78794
| 89>    C      -10.02627       -20.49825         6.23983
| 90>    H        5.64060         1.74911         1.90264
| 91>    H        1.99290        -7.77087         2.62528
| 92>    H        1.72614        -7.62682        -0.43142
| 93>    H        0.11474       -10.54426        -4.30743
| 94>    H       -1.35249       -11.48481        -3.90745
| 95>    H        0.22079       -12.29994        -4.00383
| 96>    H       -3.74671       -14.79800         5.00672
| 97>    H       -4.02363       -16.76892         1.58510
| 98>    H       -5.87811       -18.53189         1.72094
| 99>    H       -7.62494       -19.94695         2.35902
|100>    H       -9.52805       -21.19585         3.56391
|101>    H      -10.72150       -21.26559         5.94819
|102>    H      -10.09240       -20.12419         7.24516
|103> *
|104>
|105>                          ****END OF INPUT****

CARTESIAN COORDINATES (ANGSTROEM)
---------------------------------
  C      5.275420    0.738140    1.834680
  C      3.909410    0.477250    1.907190
  C      3.399670   -0.869250    1.823870
  N      2.079780   -1.106770    1.960220
  C      1.272330   -0.091430    2.099070
  C      1.774590    1.260870    2.124240
  N      3.051730    1.509010    2.053530
  C      0.857160    2.336150    2.255820
  N      0.084810    3.173260    2.369970
  C     -0.117310   -0.337170    2.241790
  N     -1.242420   -0.514770    2.358860
  C      4.258530   -1.960690    1.628280
  C      5.623480   -1.694170    1.542980
  C      6.130510   -0.339480    1.658870
  N      7.468480   -0.312860    1.555640
  S      7.999720   -1.797510    1.336040
  N      6.608300   -2.578980    1.338420
  C      3.716320   -3.312300    1.576280
  C      2.674770   -3.679390    0.714440
  C      2.145090   -2.771530   -0.328000
  O      2.625370   -1.749950   -0.724030
  S      0.655140   -3.480010   -1.002320
  C      0.831030   -5.006590   -0.058980
  O     -0.002410   -5.858810   -0.082230
  C      2.069850   -4.936620    0.747740
  C      2.527440   -5.965400    1.603350
  C      3.559890   -5.574080    2.471750
  C      4.124300   -4.303960    2.465360
  C      5.117860   -4.253470    3.565900
  O      5.784710   -3.348250    3.961240
  O      5.141270   -5.498590    4.139630
  C      4.230820   -6.344980    3.541280
  O      4.075440   -7.471690    3.895290
  C      2.000140   -7.300330    1.650350
  C      1.605150   -8.010250    0.573120
  C      1.012190   -9.295760    0.642510
  C      0.614740  -10.074540   -0.421220
  C      0.667930   -9.982790   -1.890250
  O      1.196580   -9.163880   -2.599900
  N     -0.053750  -11.083250   -2.331350
  C     -0.283350  -11.373080   -3.724950
  C     -0.594320  -11.853300   -1.304980
  O     -1.369950  -12.762310   -1.480230
  C     -0.080800  -11.246330   -0.065850
  C     -0.205290  -11.414460    1.302650
  S      0.521800  -10.064890    2.140030
  C     -0.846200  -12.452900    2.026570
  C     -1.048200  -13.741440    1.482220
  C     -1.963370  -14.689510    2.071170
  N     -2.200580  -15.830380    1.426510
  C     -1.564800  -16.105100    0.306170
  C     -0.528710  -15.243480   -0.163870
  N     -0.305960  -14.097140    0.426260
  C      0.282840  -15.621250   -1.262480
  N      0.912830  -15.947430   -2.161420
  C     -1.903620  -17.293220   -0.382490
  N     -2.184850  -18.250550   -0.946930
  C     -2.598780  -14.437380    3.327460
  C     -2.170540  -13.238920    3.974770
  C     -1.337340  -12.258270    3.331690
  N     -1.132540  -11.189830    4.099140
  S     -1.893830  -11.403090    5.500820
  N     -2.534850  -12.844200    5.192350
  C     -3.573800  -15.183980    4.007120
  C     -4.392850  -16.241760    3.661080
  C     -4.605840  -16.963170    2.465020
  C     -5.590330  -17.901680    2.542830
  C     -6.216390  -17.980220    3.808540
  S     -5.500490  -16.818170    4.897820
  C     -7.253560  -18.809180    4.188800
  C     -7.915290  -19.776590    3.379980
  C     -8.914140  -20.434000    4.009700
  C     -9.116370  -20.033550    5.372760
  S     -7.944730  -18.770570    5.787940
  C    -10.026270  -20.498250    6.239830
  H      5.640600    1.749110    1.902640
  H      1.992900   -7.770870    2.625280
  H      1.726140   -7.626820   -0.431420
  H      0.114740  -10.544260   -4.307430
  H     -1.352490  -11.484810   -3.907450
  H      0.220790  -12.299940   -4.003830
  H     -3.746710  -14.798000    5.006720
  H     -4.023630  -16.768920    1.585100
  H     -5.878110  -18.531890    1.720940
  H     -7.624940  -19.946950    2.359020
  H     -9.528050  -21.195850    3.563910
  H    -10.721500  -21.265590    5.948190
  H    -10.092400  -20.124190    7.245160

 Total Charge           Charge          ....    0
 Multiplicity           Mult            ....    1
 Number of Electrons    NEL             ....  550
 Basis Dimension        Dim             .... 1139

ORBITAL ENERGIES
----------------

  NO   OCC          E(Eh)            E(eV)
   0   2.0000     -89.055870     -2423.3334
   1   2.0000     -89.038622     -2422.8641
   2   2.0000     -88.969604     -2420.9860
   3   2.0000     -88.967816     -2420.9373
   4   2.0000     -88.966946     -2420.9137
   5   2.0000     -88.955794     -2420.6102
   6   2.0000     -19.297789      -525.1195
   7   2.0000     -19.247541      -523.7522
   8   2.0000     -19.246302      -523.7185
   9   2.0000     -19.245948      -523.7089
  10   2.0000     -19.245768      -523.7040
  11   2.0000     -19.206021      -522.6224
  12   2.0000     -19.204668      -522.5856
  13   2.0000     -14.470560      -393.7640
  14   2.0000     -14.467586      -393.6830
  15   2.0000     -14.458093      -393.4247
  16   2.0000     -14.457827      -393.4175
  17   2.0000     -14.455853      -393.3638
  18   2.0000     -14.454171      -393.3180
  19   2.0000     -14.449560      -393.1925
  20   2.0000     -14.447706      -393.1421
  21   2.0000     -14.446951      -393.1215
  22   2.0000     -14.435390      -392.8069
  23   2.0000     -14.432177      -392.7195
  24   2.0000     -14.423693      -392.4886
  25   2.0000     -14.421582      -392.4312
  26   2.0000     -10.440036      -284.0878
  27   2.0000     -10.438876      -284.0562
  28   2.0000     -10.411626      -283.3148
  29   2.0000     -10.410934      -283.2959
  30   2.0000     -10.390229      -282.7325
  31   2.0000     -10.388360      -282.6816
  32   2.0000     -10.387505      -282.6584
  33   2.0000     -10.387338      -282.6538
  34   2.0000     -10.371500      -282.2229
  35   2.0000     -10.368727      -282.1474
  36   2.0000     -10.356125      -281.8045
  37   2.0000     -10.353434      -281.7312
  38   2.0000     -10.349845      -281.6336
  39   2.0000     -10.348228      -281.5896
  40   2.0000     -10.346491      -281.5423
  41   2.0000     -10.344560      -281.4898
  42   2.0000     -10.344250      -281.4813
  43   2.0000     -10.343251      -281.4542
  44   2.0000     -10.343127      -281.4508
  45   2.0000     -10.339587      -281.3545
  46   2.0000     -10.339240      -281.3450
  47   2.0000     -10.337650      -281.3018
  48   2.0000     -10.337546      -281.2989
  49   2.0000     -10.335738      -281.2497
  50   2.0000     -10.334387      -281.2130
  51   2.0000     -10.334365      -281.2124
  52   2.0000     -10.330338      -281.1028
  53   2.0000     -10.330331      -281.1026
  54   2.0000     -10.330283      -281.1013
  55   2.0000     -10.329636      -281.0837
  56   2.0000     -10.328137      -281.0429
  57   2.0000     -10.325183      -280.9625
  58   2.0000     -10.325124      -280.9609
  59   2.0000     -10.318423      -280.7786
  60   2.0000     -10.318363      -280.7769
  61   2.0000     -10.316912      -280.7374
  62   2.0000     -10.315364      -280.6953
  63   2.0000     -10.315265      -280.6926
  64   2.0000     -10.314647      -280.6758
  65   2.0000     -10.309075      -280.5242
  66   2.0000     -10.303890      -280.3831
  67   2.0000     -10.303476      -280.3718
  68   2.0000     -10.303386      -280.3694
  69   2.0000     -10.296891      -280.1926
  70   2.0000     -10.295979      -280.1678
  71   2.0000     -10.292052      -280.0610
  72   2.0000     -10.289859      -280.0013
  73   2.0000     -10.289239      -279.9844
  74   2.0000     -10.287405      -279.9345
  75   2.0000      -8.147003      -221.6912
  76   2.0000      -8.130058      -221.2301
  77   2.0000      -8.066374      -219.4972
  78   2.0000      -8.063439      -219.4173
  79   2.0000      -8.062147      -219.3822
  80   2.0000      -8.055099      -219.1904
  81   2.0000      -6.117731      -166.4719
  82   2.0000      -6.110562      -166.2768
  83   2.0000      -6.109894      -166.2587
  84   2.0000      -6.101235      -166.0230
  85   2.0000      -6.093540      -165.8136
  86   2.0000      -6.092506      -165.7855
  87   2.0000      -6.036085      -164.2502
  88   2.0000      -6.033032      -164.1672
  89   2.0000      -6.032134      -164.1427
  90   2.0000      -6.031561      -164.1271
  91   2.0000      -6.029010      -164.0577
  92   2.0000      -6.027137      -164.0067
  93   2.0000      -6.027097      -164.0057
  94   2.0000      -6.024550      -163.9363
  95   2.0000      -6.024251      -163.9282
  96   2.0000      -6.023912      -163.9190
  97   2.0000      -6.020670      -163.8308
  98   2.0000      -6.016175      -163.7084
  99   2.0000      -1.246940       -33.9310
 100   2.0000      -1.173609       -31.9355
 101   2.0000      -1.173447       -31.9311
 102   2.0000      -1.169384       -31.8205
 103   2.0000      -1.151706       -31.3395
 104   2.0000      -1.149687       -31.2846
 105   2.0000      -1.138462       -30.9791
 106   2.0000      -1.135404       -30.8959
 107   2.0000      -1.128414       -30.7057
 108   2.0000      -1.126788       -30.6615
 109   2.0000      -1.112320       -30.2678
 110   2.0000      -1.054716       -28.7003
 111   2.0000      -1.043339       -28.3907
 112   2.0000      -1.038672       -28.2637
 113   2.0000      -1.026841       -27.9418
 114   2.0000      -1.018624       -27.7182
 115   2.0000      -1.017507       -27.6878
 116   2.0000      -1.007779       -27.4231
 117   2.0000      -1.007625       -27.4189
 118   2.0000      -1.002730       -27.2857
 119   2.0000      -1.000303       -27.2196
 120   2.0000      -0.995968       -27.1017
 121   2.0000      -0.995146       -27.0793
 122   2.0000      -0.989250       -26.9189
 123   2.0000      -0.984333       -26.7851
 124   2.0000      -0.970233       -26.4014
 125   2.0000      -0.958381       -26.0789
 126   2.0000      -0.937651       -25.5148
 127   2.0000      -0.916159       -24.9299
 128   2.0000      -0.911974       -24.8161
 129   2.0000      -0.906924       -24.6786
 130   2.0000      -0.902659       -24.5626
 131   2.0000      -0.896419       -24.3928
 132   2.0000      -0.885861       -24.1055
 133   2.0000      -0.877124       -23.8678
 134   2.0000      -0.871686       -23.7198
 135   2.0000      -0.869556       -23.6618
 136   2.0000      -0.857906       -23.3448
 137   2.0000      -0.841380       -22.8951
 138   2.0000      -0.838852       -22.8263
 139   2.0000      -0.831148       -22.6167
 140   2.0000      -0.821269       -22.3479
 141   2.0000      -0.809168       -22.0186
 142   2.0000      -0.806419       -21.9438
 143   2.0000      -0.803750       -21.8712
 144   2.0000      -0.791648       -21.5418
 145   2.0000      -0.789024       -21.4704
 146   2.0000      -0.782216       -21.2852
 147   2.0000      -0.769779       -20.9467
 148   2.0000      -0.758768       -20.6471
 149   2.0000      -0.752945       -20.4887
 150   2.0000      -0.742576       -20.2065
 151   2.0000      -0.732361       -19.9286
 152   2.0000      -0.729984       -19.8639
 153   2.0000      -0.721184       -19.6244
 154   2.0000      -0.709057       -19.2944
 155   2.0000      -0.706399       -19.2221
 156   2.0000      -0.699861       -19.0442
 157   2.0000      -0.695224       -18.9180
 158   2.0000      -0.694288       -18.8925
 159   2.0000      -0.686212       -18.6728
 160   2.0000      -0.683378       -18.5957
 161   2.0000      -0.676100       -18.3976
 162   2.0000      -0.662316       -18.0225
 163   2.0000      -0.658101       -17.9078
 164   2.0000      -0.651870       -17.7383
 165   2.0000      -0.649103       -17.6630
 166   2.0000      -0.647898       -17.6302
 167   2.0000      -0.643715       -17.5164
 168   2.0000      -0.641716       -17.4620
 169   2.0000      -0.636367       -17.3164
 170   2.0000      -0.633371       -17.2349
 171   2.0000      -0.628116       -17.0919
 172   2.0000      -0.621909       -16.9230
 173   2.0000      -0.619861       -16.8673
 174   2.0000      -0.612824       -16.6758
 175   2.0000      -0.608423       -16.5560
 176   2.0000      -0.602247       -16.3880
 177   2.0000      -0.601950       -16.3799
 178   2.0000      -0.593885       -16.1604
 179   2.0000      -0.585841       -15.9415
 180   2.0000      -0.582210       -15.8427
 181   2.0000      -0.575667       -15.6647
 182   2.0000      -0.574975       -15.6459
 183   2.0000      -0.573678       -15.6106
 184   2.0000      -0.571863       -15.5612
 185   2.0000      -0.566401       -15.4126
 186   2.0000      -0.561075       -15.2676
 187   2.0000      -0.557541       -15.1715
 188   2.0000      -0.555572       -15.1179
 189   2.0000      -0.554159       -15.0794
 190   2.0000      -0.551767       -15.0143
 191   2.0000      -0.549970       -14.9655
 192   2.0000      -0.547971       -14.9111
 193   2.0000      -0.542707       -14.7678
 194   2.0000      -0.541912       -14.7462
 195   2.0000      -0.539315       -14.6755
 196   2.0000      -0.537117       -14.6157
 197   2.0000      -0.535651       -14.5758
 198   2.0000      -0.530379       -14.4323
 199   2.0000      -0.529275       -14.4023
 200   2.0000      -0.523343       -14.2409
 201   2.0000      -0.519755       -14.1432
 202   2.0000      -0.518696       -14.1144
 203   2.0000      -0.516056       -14.0426
 204   2.0000      -0.513659       -13.9774
 205   2.0000      -0.512403       -13.9432
 206   2.0000      -0.510616       -13.8946
 207   2.0000      -0.505052       -13.7432
 208   2.0000      -0.502398       -13.6710
 209   2.0000      -0.499396       -13.5893
 210   2.0000      -0.494955       -13.4684
 211   2.0000      -0.493635       -13.4325
 212   2.0000      -0.490686       -13.3522
 213   2.0000      -0.489299       -13.3145
 214   2.0000      -0.485348       -13.2070
 215   2.0000      -0.484477       -13.1833
 216   2.0000      -0.482561       -13.1312
 217   2.0000      -0.479669       -13.0525
 218   2.0000      -0.478759       -13.0277
 219   2.0000      -0.475998       -12.9526
 220   2.0000      -0.473783       -12.8923
 221   2.0000      -0.472667       -12.8619
 222   2.0000      -0.469022       -12.7627
 223   2.0000      -0.467783       -12.7290
 224   2.0000      -0.465285       -12.6611
 225   2.0000      -0.459925       -12.5152
 226   2.0000      -0.459373       -12.5002
 227   2.0000      -0.456504       -12.4221
 228   2.0000      -0.452178       -12.3044
 229   2.0000      -0.450637       -12.2625
 230   2.0000      -0.448394       -12.2014
 231   2.0000      -0.447699       -12.1825
 232   2.0000      -0.447357       -12.1732
 233   2.0000      -0.445626       -12.1261
 234   2.0000      -0.443189       -12.0598
 235   2.0000      -0.441651       -12.0179
 236   2.0000      -0.440187       -11.9781
 237   2.0000      -0.436325       -11.8730
 238   2.0000      -0.428713       -11.6659
 239   2.0000      -0.426936       -11.6175
 240   2.0000      -0.424411       -11.5488
 241   2.0000      -0.423072       -11.5124
 242   2.0000      -0.422455       -11.4956
 243   2.0000      -0.420936       -11.4543
 244   2.0000      -0.419301       -11.4097
 245   2.0000      -0.414410       -11.2767
 246   2.0000      -0.410431       -11.1684
 247   2.0000      -0.409814       -11.1516
 248   2.0000      -0.405949       -11.0464
 249   2.0000      -0.401773       -10.9328
 250   2.0000      -0.401388       -10.9223
 251   2.0000      -0.398554       -10.8452
 252   2.0000      -0.389986       -10.6121
 253   2.0000      -0.381171       -10.3722
 254   2.0000      -0.378321       -10.2946
 255   2.0000      -0.377639       -10.2761
 256   2.0000      -0.374477       -10.1900
 257   2.0000      -0.369209       -10.0467
 258   2.0000      -0.365643        -9.9497
 259   2.0000      -0.362122        -9.8538
 260   2.0000      -0.357727        -9.7342
 261   2.0000      -0.354799        -9.6546
 262   2.0000      -0.352921        -9.6035
 263   2.0000      -0.352035        -9.5794
 264   2.0000      -0.350982        -9.5507
 265   2.0000      -0.346751        -9.4356
 266   2.0000      -0.345898        -9.4124
 267   2.0000      -0.343302        -9.3417
 268   2.0000      -0.339711        -9.2440
 269   2.0000      -0.336529        -9.1574
 270   2.0000      -0.322093        -8.7646
 271   2.0000      -0.312896        -8.5143
 272   2.0000      -0.304539        -8.2869
 273   2.0000      -0.279870        -7.6157
 274   2.0000      -0.230996        -6.2857
 275   0.0000      -0.130258        -3.5445
 276   0.0000      -0.122666        -3.3379
 277   0.0000      -0.097948        -2.6653
 278   0.0000      -0.079260        -2.1568
 279   0.0000      -0.071463        -1.9446

MULLIKEN ATOMIC CHARGES
-----------------------
   0 C :   -0.081977
   1 C :    0.016090
   2 C :   -0.032454
   3 N :    0.041867
   4 C :   -0.119814
   5 C :   -0.141925
   6 N :    0.065809
   7 C :   -0.202212
   8 N :    0.236532
   9 C :   -0.206992
  10 N :    0.246353
  11 C :    0.052025
  12 C :   -0.009422
  13 C :    0.119195
  14 N :   -0.265693
  15 S :    0.573230
  16 N :   -0.265502
  17 C :   -0.013366
  18 C :    0.056953
  19 C :    0.047179
  20 O :   -0.137823
  21 S :    0.037719
  22 C :    0.032464
  23 O :   -0.107700
  24 C :    0.004278
  25 C :    0.061023
  26 C :   -0.069384
  27 C :   -0.047332
  28 C :    0.244626
  29 O :   -0.105421
  30 O :   -0.233941
  31 C :    0.231311
  32 O :   -0.098702
  33 C :   -0.067898
  34 C :    0.078186
  35 C :   -0.140778
  36 C :   -0.003937
  37 C :    0.192111
  38 O :   -0.165332
  39 N :   -0.308167
  40 C :    0.137147
  41 C :    0.188801
  42 O :   -0.182449
  43 C :    0.055340
  44 C :   -0.225510
  45 S :    0.196574
  46 C :    0.107338
  47 C :   -0.052040
  48 C :   -0.058261
  49 N :    0.013449
  50 C :   -0.111071
  51 C :   -0.094440
  52 N :    0.044815
  53 C :   -0.215579
  54 N :    0.230968
  55 C :   -0.239802
  56 N :    0.226389
  57 C :    0.122330
  58 C :    0.002517
  59 C :   -0.008951
  60 N :   -0.304006
  61 S :    0.535084
  62 N :   -0.274749
  63 C :   -0.053529
  64 C :   -0.038788
  65 C :    0.056034
  66 C :    0.029276
  67 C :   -0.052336
  68 S :    0.115387
  69 C :   -0.046328
  70 C :    0.029910
  71 C :    0.070473
  72 C :   -0.077463
  73 S :    0.115884
  74 C :   -0.004232
  75 H :   -0.011233
  76 H :    0.027038
  77 H :    0.018796
  78 H :    0.049681
  79 H :    0.038822
  80 H :    0.044478
  81 H :    0.005171
  82 H :   -0.003196
  83 H :    0.000067
  84 H :    0.004461
  85 H :    0.003962
  86 H :    0.036228
  87 H :    0.036364
Sum of atomic charges:   -0.0000000

LOEWDIN ATOMIC CHARGES
----------------------
   0 C :    0.018831
   1 C :   -0.008889
   2 C :    0.005149
   3 N :   -0.003862
   4 C :   -0.019041
   5 C :   -0.025945
   6 N :    0.008007
   7 C :   -0.035743
   8 N :    0.000061
   9 C :   -0.037907
  10 N :    0.002180
  11 C :   -0.014472
  12 C :   -0.033766
  13 C :   -0.043109
  14 N :   -0.282897
  15 S :    0.719108
  16 N :   -0.290579
  17 C :    0.027352
  18 C :   -0.030393
  19 C :   -0.048702
  20 O :   -0.123485
  21 S :    0.321235
  22 C :   -0.040482
  23 O :   -0.097708
  24 C :   -0.055540
  25 C :    0.040294
  26 C :   -0.049658
  27 C :   -0.029896
  28 C :    0.109244
  29 O :   -0.102194
  30 O :   -0.056160
  31 C :    0.110080
  32 O :   -0.094223
  33 C :   -0.046776
  34 C :    0.024205
  35 C :   -0.149612
  36 C :   -0.075522
  37 C :    0.088678
  38 O :   -0.165697
  39 N :   -0.036328
  40 C :    0.036378
  41 C :    0.093831
  42 O :   -0.172641
  43 C :   -0.091783
  44 C :   -0.114763
  45 S :    0.493100
  46 C :   -0.084919
  47 C :    0.016515
  48 C :   -0.017298
  49 N :    0.002391
  50 C :   -0.040891
  51 C :   -0.013967
  52 N :    0.008769
  53 C :   -0.030267
  54 N :   -0.012638
  55 C :   -0.039451
  56 N :   -0.022758
  57 C :   -0.002302
  58 C :   -0.045236
  59 C :   -0.041805
  60 N :   -0.307306
  61 S :    0.662218
  62 N :   -0.273878
  63 C :   -0.060711
  64 C :   -0.100157
  65 C :   -0.035905
  66 C :   -0.004115
  67 C :   -0.193315
  68 S :    0.406131
  69 C :   -0.144993
  70 C :   -0.025258
  71 C :   -0.007143
  72 C :   -0.143126
  73 S :    0.383983
  74 C :   -0.037732
  75 H :    0.051801
  76 H :    0.032854
  77 H :    0.041532
  78 H :    0.036749
  79 H :    0.032868
  80 H :    0.034106
  81 H :    0.036746
  82 H :    0.032412
  83 H :    0.037957
  84 H :    0.038705
  85 H :    0.040152
  86 H :    0.036097
  87 H :    0.033226

  Mayer bond orders larger than 0.100000
B(  0-C ,  1-C ) :   1.2801 B(  0-C , 11-C ) :   0.1505 B(  0-C , 13-C ) :   1.1755
B(  0-C , 75-H ) :   1.0661 B(  1-C ,  2-C ) :   1.1357 B(  1-C ,  6-N ) :   1.3429
B(  2-C ,  3-N ) :   1.4160 B(  2-C , 11-C ) :   1.3661 B(  3-N ,  4-C ) :   1.7418
B(  4-C ,  5-C ) :   1.1767 B(  4-C ,  9-C ) :   1.1495 B(  5-C ,  6-N ) :   1.7908
B(  5-C ,  7-C ) :   1.1505 B(  7-C ,  8-N ) :   3.0508 B(  9-C , 10-N ) :   3.0523
B( 11-C , 12-C ) :   1.3335 B( 11-C , 17-C ) :   0.9328 B( 12-C , 13-C ) :   1.1110
B( 12-C , 16-N ) :   1.4910 B( 13-C , 14-N ) :   1.4358 B( 14-N , 15-S ) :   1.3389
B( 14-N , 16-N ) :   0.1640 B( 15-S , 16-N ) :   1.3096 B( 17-C , 18-C ) :   1.4338
B( 17-C , 27-C ) :   1.4193 B( 18-C , 19-C ) :   0.8276 B( 18-C , 24-C ) :   1.3326
B( 19-C , 20-O ) :   2.1675 B( 19-C , 21-S ) :   1.0452 B( 20-O , 21-S ) :   0.1105
B( 21-S , 22-C ) :   1.0179 B( 21-S , 23-O ) :   0.1038 B( 22-C , 23-O ) :   2.2007
B( 22-C , 24-C ) :   0.8450 B( 24-C , 25-C ) :   1.3302 B( 25-C , 26-C ) :   1.3246
B( 25-C , 33-C ) :   1.1181 B( 26-C , 27-C ) :   1.3470 B( 26-C , 31-C ) :   0.9127
B( 27-C , 28-C ) :   0.8860 B( 28-C , 29-O ) :   2.2540 B( 28-C , 30-O ) :   1.0634
B( 30-O , 31-C ) :   1.0450 B( 31-C , 32-O ) :   2.2456 B( 33-C , 34-C ) :   1.6527
B( 33-C , 76-H ) :   0.9451 B( 34-C , 35-C ) :   1.2053 B( 34-C , 77-H ) :   0.9592
B( 35-C , 36-C ) :   1.4990 B( 35-C , 45-S ) :   1.0812 B( 36-C , 37-C ) :   0.8966
B( 36-C , 43-C ) :   1.2753 B( 37-C , 38-O ) :   2.1805 B( 37-C , 39-N ) :   1.0812
B( 39-N , 40-C ) :   0.9414 B( 39-N , 41-C ) :   1.0717 B( 40-C , 78-H ) :   0.9613
B( 40-C , 79-H ) :   0.9707 B( 40-C , 80-H ) :   0.9788 B( 41-C , 42-O ) :   2.1482
B( 41-C , 43-C ) :   0.8982 B( 43-C , 44-C ) :   1.4727 B( 44-C , 45-S ) :   1.1732
B( 44-C , 46-C ) :   1.1574 B( 46-C , 47-C ) :   1.2708 B( 46-C , 57-C ) :   0.1067
B( 46-C , 59-C ) :   1.1980 B( 47-C , 48-C ) :   1.0986 B( 47-C , 52-N ) :   1.4395
B( 48-C , 49-N ) :   1.4848 B( 48-C , 57-C ) :   1.1406 B( 49-N , 50-C ) :   1.6521
B( 50-C , 51-C ) :   1.2240 B( 50-C , 55-C ) :   1.1560 B( 51-C , 52-N ) :   1.6939
B( 51-C , 53-C ) :   1.1583 B( 53-C , 54-N ) :   3.0489 B( 55-C , 56-N ) :   3.0427
B( 57-C , 58-C ) :   1.1553 B( 57-C , 63-C ) :   1.3795 B( 58-C , 59-C ) :   1.1203
B( 58-C , 62-N ) :   1.5495 B( 59-C , 60-N ) :   1.5158 B( 60-N , 61-S ) :   1.2427
B( 60-N , 62-N ) :   0.1434 B( 61-S , 62-N ) :   1.2793 B( 63-C , 64-C ) :   1.3972
B( 63-C , 81-H ) :   0.9207 B( 64-C , 65-C ) :   1.2065 B( 64-C , 68-S ) :   1.0979
B( 65-C , 66-C ) :   1.5437 B( 65-C , 82-H ) :   0.9816 B( 66-C , 67-C ) :   1.2007
B( 66-C , 83-H ) :   0.9949 B( 67-C , 68-S ) :   1.0473 B( 67-C , 69-C ) :   1.4869
B( 69-C , 70-C ) :   1.1614 B( 69-C , 73-S ) :   1.0855 B( 70-C , 71-C ) :   1.6530
B( 70-C , 84-H ) :   0.9926 B( 71-C , 72-C ) :   1.0783 B( 71-C , 85-H ) :   0.9944
B( 72-C , 73-S ) :   1.0034 B( 72-C , 74-C ) :   1.8604 B( 74-C , 86-H ) :   0.9517
B( 74-C , 87-H ) :   0.9418

-----------------------------------------------------------------------------
         ABSORPTION SPECTRUM VIA TRANSITION ELECTRIC DIPOLE MOMENTS
-----------------------------------------------------------------------------
State   Energy  Wavelength   fosc         T2         TX        TY        TZ
        (cm-1)    (nm)                  (au**2)     (au)      (au)      (au)
-----------------------------------------------------------------------------
   0    8266.2   1209.7   0.836268321  33.30543  -3.81125  -3.98504   1.70273
   1   15480.9    646.0   0.099921882   2.12491  -0.41444  -1.38356  -0.19726
   2   17626.8    567.3   0.019721912   0.36834  -0.09533   0.53464  -0.27096
   3   18564.8    538.7   0.023803396   0.42211  -0.59785   0.21738   0.13203
   4   20143.8    496.4   0.623747472  10.19394  -2.26789  -2.12634   0.72751
   5   20461.0    488.7   0.317170079   5.10317  -0.30768  -2.13938  -0.65692
   6   21889.0    456.8   0.116692561   1.75506   0.41974   1.25088   0.11912
   7   24234.3    412.6   0.004820477   0.06548  -0.16310  -0.10542   0.16664
   8   24379.3    410.2   0.129008110   1.74209  -0.48200  -1.10166   0.54416
   9   24431.6    409.3   0.042046661   0.56657   0.51763   0.54473   0.04354
  10   24519.4    407.8   0.010661314   0.14315   0.35545   0.02703   0.12678
  11   25223.3    396.5   0.009802337   0.12794   0.20267   0.19039   0.22498
  12   25419.8    393.4   0.030759901   0.39837  -0.40941  -0.41123  -0.24829
  13   26151.7    382.4   0.078316519   0.98589   0.73865   0.55176  -0.36857
  14   27046.4    369.7   0.000395016   0.00481   0.01523  -0.06723  -0.00751
  15   27309.8    366.2   0.005644809   0.06805   0.06422  -0.08484   0.23817
  16   28128.1    355.5   0.026585399   0.31116   0.11680  -0.52319   0.15425
  17   28651.7    349.0   0.045711730   0.52523   0.27129   0.54624  -0.39148
  18   28994.7    344.9   0.126666986   1.43820   0.40838   1.12186  -0.11341
  19   29194.8    342.5   0.116200946   1.31033  -0.78852  -0.75121  -0.35248
  20   29400.6    340.1   0.178221740   1.99563  -1.26393   0.61377   0.14623
  21   30023.6    333.1   0.004042026   0.04432  -0.18581  -0.00229   0.09895
  22   30437.0    328.5   0.055953919   0.60521  -0.09019   0.44507   0.63166
  23   30504.2    327.8   0.026509110   0.28610   0.23722  -0.47321  -0.07680
  24   30580.5    327.0   0.126164991   1.35822   0.88654  -0.59185  -0.47115
  25   30798.4    324.7   0.431125303   4.60840   0.13300   1.50589   1.52414
  26   31185.6    320.7   0.075077869   0.79256  -0.13645   0.41630   0.77501
  27   31457.3    317.9   0.057599645   0.60280   0.01837  -0.68554  -0.36401
  28   31745.2    315.0   0.003880593   0.04024   0.19352   0.05278  -0.00283
  29   31856.7    313.9   0.016817268   0.17379  -0.35183   0.13560   0.17782
  30   32087.7    311.6   0.006056475   0.06214  -0.13640  -0.04511   0.20371
  31   32210.8    310.5   0.024493068   0.25033   0.15848  -0.41014  -0.23874
  32   32290.0    309.7   0.017436062   0.17777  -0.15229  -0.39219  -0.02757
  33   32610.1    306.7   0.033288716   0.33606  -0.39326   0.40359   0.13611
  34   32877.6    304.2   0.008675451   0.08687   0.21091  -0.18904   0.08155
  35   33223.7    301.0   0.030753169   0.30473  -0.12721  -0.08932  -0.52969
  36   33419.6    299.2   0.014166518   0.13955  -0.13234  -0.00880   0.34923
  37   33660.8    297.1   0.195958200   1.91653   0.30031   0.91639   0.99326
  38   33960.3    294.5   0.022315380   0.21633   0.15876   0.23445   0.36899
  39   34102.5    293.2   0.023047223   0.22249   0.07769  -0.07132  -0.45975
  40   34262.2    291.9   0.001113931   0.01070  -0.09694   0.02777   0.02312
  41   34448.5    290.3   0.001912378   0.01828   0.03986  -0.02205   0.12728
  42   34716.5    288.0   0.013827990   0.13113   0.06984  -0.24175   0.26040
  43   34742.6    287.8   0.001086069   0.01029   0.03817  -0.02955   0.08923
  44   34862.4    286.8   0.001400099   0.01322   0.05707   0.09980  -0.00210
  45   35044.5    285.4   0.025523762   0.23977   0.06653   0.48124   0.06124
  46   35309.1    283.2   0.000063232   0.00059   0.01022   0.01870   0.01165
  47   35696.7    280.1   0.022053589   0.20339   0.34835  -0.02600  -0.28524
  48   35807.4    279.3   0.008521435   0.07835  -0.10960  -0.11671   0.22959
  49   35903.9    278.5   0.000904773   0.00830   0.00024   0.08501   0.03269
  50   36141.9    276.7   0.057744636   0.52599   0.57157   0.31010  -0.32114
  51   36420.3    274.6   0.044224640   0.39976   0.24949   0.37235   0.44595
  52   36742.9    272.2   0.002593564   0.02324   0.07282  -0.11787  -0.06359
  53   36880.4    271.1   0.017169682   0.15326   0.34621   0.06135  -0.17216
  54   37103.4    269.5   0.025838713   0.22926   0.10965   0.37707   0.27397
  55   37228.0    268.6   0.009669038   0.08550   0.24232  -0.16337  -0.00985
  56   37309.5    268.0   0.022174984   0.19567  -0.42546   0.11304   0.04326
  57   37642.9    265.7   0.023127354   0.20226   0.30514  -0.12631  -0.30528
  58   37741.7    265.0   0.024181952   0.21093   0.29939  -0.17637   0.30032
  59   38067.1    262.7   0.000915097   0.00791   0.03001   0.02547   0.07978
  60   38100.0    262.5   0.074060875   0.63994   0.19270  -0.34176  -0.69714
  61   38333.1    260.9   0.080658643   0.69271  -0.73478  -0.30566  -0.24368
  62   38373.2    260.6   0.260768863   2.23719   1.47456  -0.11012  -0.22524
  63   38415.9    260.3   0.032263536   0.27649   0.02950   0.52339  -0.04096
  64   38492.7    259.8   0.063804161   0.54569  -0.59862   0.40729   0.14652
  65   38810.5    257.7   0.025085383   0.21279  -0.38221   0.19091   0.17394
  66   39157.1    255.4   0.015499988   0.13032  -0.25692   0.16548   0.19216
  67   39202.7    255.1   0.028119134   0.23614   0.23630  -0.31851   0.28080
  68   39445.7    253.5   0.078111873   0.65192  -0.66737   0.45078   0.05776
  69   39534.3    252.9   0.083267116   0.69339   0.44826  -0.66246  -0.23151
  70   39947.3    250.3   0.302775693   2.49522   1.49784  -0.31312  -0.39200
  71   39998.2    250.0   0.115793392   0.95306   0.72336  -0.57562  -0.31379
  72   40074.2    249.5   0.023078447   0.18959   0.08944  -0.39395  -0.16246
  73   40271.2    248.3   0.031915618   0.26091  -0.49063   0.13920   0.02853

FINAL SINGLE POINT ENERGY     -5497.879873663853

DIPOLE MOMENT
-------------
                                X             Y             Z
Electronic contribution:     38.45109      54.68327       7.04618
Nuclear contribution   :    -40.41293     -57.88153      -4.80467
                        -----------------------------------------
Total Dipole Moment    :     -1.96183      -3.19827       2.24151
                        -----------------------------------------
Magnitude (a.u.)       :      4.37059
Magnitude (Debye)      :     11.10916

Rotational constants in cm-1:     0.001730     0.000255     0.000244
Rotational constants in MHz :    51.850687     7.644077     7.309460

                             ****ORCA TERMINATED NORMALLY****
TOTAL RUN TIME: 0 days 0 hours 9 minutes 22 seconds 588 msec
