                         Program Version 4.2.0 -  RELEASE  -
|  1> # ORCA input file
|  2> # SCF done       -182.094446277277          0.000827038831
|  3> ! CAM-B3LYP def2-SVP def2/J RIJCOSX Grid4 TightSCF
|  4> %maxcore 5000
|  5> %tddft
|  6>     Mode sTDDFT
|  7>     Ethresh 5.0
|  8>     maxcore 5000
|  9> end
| 10>
| 11> %pal
| 12>   nprocs 6
| 13>   end
| 14> * xyz 0 1
| 15>    C       -2.77192         0.45312         0.96053
| 16>    C       -2.96380        -0.20614         2.17059
| 17>    C       -2.47201        -1.54622         2.38229
| 18>    N       -2.58954        -2.13025         3.59094
| 19>    C       -3.24249        -1.49962         4.52743
| 20>    C       -3.81675        -0.19713         4.28884
| 21>    N       -3.64059         0.42170         3.15616
| 22>    C       -4.56272         0.43079         5.32012
| 23>    N       -5.15074         0.90615         6.17989
| 24>    C       -3.37055        -2.10341         5.80393
| 25>    N       -3.49005        -2.56594         6.84472
| 26>    C       -1.83201        -2.25459         1.35635
| 27>    C       -1.66002        -1.59624         0.13586
| 28>    C       -2.11576        -0.23308        -0.05186
| 29>    N       -1.84473         0.20423        -1.29069
| 30>    S       -1.11944        -0.95917        -2.10303
| 31>    N       -1.10370        -2.09368        -0.97561
| 32>    C       -1.41005        -3.63326         1.54829
| 33>    C       -0.10469        -4.08217         1.30135
| 34>    C        0.99404        -3.13129         1.01993
| 35>    O        0.94978        -1.93598         1.02167
| 36>    S        2.49519        -4.04616         0.74702
| 37>    C        1.72090        -5.62139         1.17274
| 38>    O        2.37591        -6.61549         1.27968
| 39>    C        0.28076        -5.41961         1.38823
| 40>    C       -0.64369        -6.44725         1.74675
| 41>    C       -1.92183        -5.94824         2.11724
| 42>    C       -2.29191        -4.61616         1.99907
| 43>    C       -3.73447        -4.52336         2.32670
| 44>    O       -4.48894        -3.60194         2.26135
| 45>    O       -4.14006        -5.77976         2.69916
| 46>    C       -3.11248        -6.68209         2.58079
| 47>    O       -3.26701        -7.84699         2.82368
| 48>    C       -0.49231        -7.85197         1.74138
| 49>    C        0.40554        -8.65964         1.09813
| 50>    C        0.23530       -10.04694         1.04566
| 51>    S        1.37756       -11.03905         0.15972
| 52>    C        0.48818       -12.51825         0.39755
| 53>    C       -0.64872       -12.25431         1.17937
| 54>    C       -0.78767       -10.88121         1.52832
| 55>    N       -1.93392       -10.78665         2.23943
| 56>    N       -2.52328       -11.98230         2.36776
| 57>    C       -1.78527       -12.87285         1.75474
| 58>    C        0.92131       -13.69203        -0.23308
| 59>    C        0.23781       -14.87758        -0.20769
| 60>    C        0.61794       -16.00316        -0.95266
| 61>    S       -0.35554       -17.46425        -0.98874
| 62>    C        0.63720       -18.27533        -2.19098
| 63>    C        1.73327       -17.44269        -2.49607
| 64>    C        1.69437       -16.20042        -1.80951
| 65>    O        2.77025       -15.44895        -2.10479
| 66>    C        3.51944       -16.20910        -2.94921
| 67>    N        4.73325       -15.67698        -3.42831
| 68>    O        5.36925       -16.38554        -4.19068
| 69>    O        5.05511       -14.56648        -3.05959
| 70>    C        2.94865       -17.42971        -3.21705
| 71>    C        0.23674       -19.53079        -2.63823
| 72>    C        0.61002       -20.18051        -3.80030
| 73>    C        1.29465       -19.69639        -4.93699
| 74>    C        1.39948       -20.59939        -5.95272
| 75>    C        0.80572       -21.85089        -5.67462
| 76>    S        0.09781       -21.83344        -4.07304
| 77>    C        0.72871       -22.95077        -6.50448
| 78>    C        1.25761       -23.06685        -7.82111
| 79>    C        1.01287       -24.25659        -8.41391
| 80>    C        0.26958       -25.17814        -7.60365
| 81>    S       -0.08607       -24.42212        -6.04072
| 82>    C       -0.12302       -26.41945        -7.92085
| 83>    H       -3.14161         1.45489         0.82036
| 84>    H       -1.29934        -8.35859         2.24312
| 85>    H        1.25641        -8.26023         0.56996
| 86>    H       -2.40273        -9.97670         2.62091
| 87>    H       -2.08359       -13.90101         1.75228
| 88>    H        1.83228       -13.62356        -0.81097
| 89>    H       -0.66797       -14.96537         0.37158
| 90>    H        3.39314       -18.19233        -3.82200
| 91>    H       -0.49760       -20.03262        -2.02155
| 92>    H        1.63258       -18.68013        -5.00496
| 93>    H        1.87363       -20.38895        -6.89415
| 94>    H        1.79946       -22.26039        -8.28150
| 95>    H        1.32819       -24.52746        -9.40560
| 96>    H        0.11400       -26.84124        -8.88172
| 97>    H       -0.68186       -27.02926        -7.23476
| 98> *
| 99>
|100>                          ****END OF INPUT****

CARTESIAN COORDINATES (ANGSTROEM)
---------------------------------
  C     -2.771920    0.453120    0.960530
  C     -2.963800   -0.206140    2.170590
  C     -2.472010   -1.546220    2.382290
  N     -2.589540   -2.130250    3.590940
  C     -3.242490   -1.499620    4.527430
  C     -3.816750   -0.197130    4.288840
  N     -3.640590    0.421700    3.156160
  C     -4.562720    0.430790    5.320120
  N     -5.150740    0.906150    6.179890
  C     -3.370550   -2.103410    5.803930
  N     -3.490050   -2.565940    6.844720
  C     -1.832010   -2.254590    1.356350
  C     -1.660020   -1.596240    0.135860
  C     -2.115760   -0.233080   -0.051860
  N     -1.844730    0.204230   -1.290690
  S     -1.119440   -0.959170   -2.103030
  N     -1.103700   -2.093680   -0.975610
  C     -1.410050   -3.633260    1.548290
  C     -0.104690   -4.082170    1.301350
  C      0.994040   -3.131290    1.019930
  O      0.949780   -1.935980    1.021670
  S      2.495190   -4.046160    0.747020
  C      1.720900   -5.621390    1.172740
  O      2.375910   -6.615490    1.279680
  C      0.280760   -5.419610    1.388230
  C     -0.643690   -6.447250    1.746750
  C     -1.921830   -5.948240    2.117240
  C     -2.291910   -4.616160    1.999070
  C     -3.734470   -4.523360    2.326700
  O     -4.488940   -3.601940    2.261350
  O     -4.140060   -5.779760    2.699160
  C     -3.112480   -6.682090    2.580790
  O     -3.267010   -7.846990    2.823680
  C     -0.492310   -7.851970    1.741380
  C      0.405540   -8.659640    1.098130
  C      0.235300  -10.046940    1.045660
  S      1.377560  -11.039050    0.159720
  C      0.488180  -12.518250    0.397550
  C     -0.648720  -12.254310    1.179370
  C     -0.787670  -10.881210    1.528320
  N     -1.933920  -10.786650    2.239430
  N     -2.523280  -11.982300    2.367760
  C     -1.785270  -12.872850    1.754740
  C      0.921310  -13.692030   -0.233080
  C      0.237810  -14.877580   -0.207690
  C      0.617940  -16.003160   -0.952660
  S     -0.355540  -17.464250   -0.988740
  C      0.637200  -18.275330   -2.190980
  C      1.733270  -17.442690   -2.496070
  C      1.694370  -16.200420   -1.809510
  O      2.770250  -15.448950   -2.104790
  C      3.519440  -16.209100   -2.949210
  N      4.733250  -15.676980   -3.428310
  O      5.369250  -16.385540   -4.190680
  O      5.055110  -14.566480   -3.059590
  C      2.948650  -17.429710   -3.217050
  C      0.236740  -19.530790   -2.638230
  C      0.610020  -20.180510   -3.800300
  C      1.294650  -19.696390   -4.936990
  C      1.399480  -20.599390   -5.952720
  C      0.805720  -21.850890   -5.674620
  S      0.097810  -21.833440   -4.073040
  C      0.728710  -22.950770   -6.504480
  C      1.257610  -23.066850   -7.821110
  C      1.012870  -24.256590   -8.413910
  C      0.269580  -25.178140   -7.603650
  S     -0.086070  -24.422120   -6.040720
  C     -0.123020  -26.419450   -7.920850
  H     -3.141610    1.454890    0.820360
  H     -1.299340   -8.358590    2.243120
  H      1.256410   -8.260230    0.569960
  H     -2.402730   -9.976700    2.620910
  H     -2.083590  -13.901010    1.752280
  H      1.832280  -13.623560   -0.810970
  H     -0.667970  -14.965370    0.371580
  H      3.393140  -18.192330   -3.822000
  H     -0.497600  -20.032620   -2.021550
  H      1.632580  -18.680130   -5.004960
  H      1.873630  -20.388950   -6.894150
  H      1.799460  -22.260390   -8.281500
  H      1.328190  -24.527460   -9.405600
  H      0.114000  -26.841240   -8.881720
  H     -0.681860  -27.029260   -7.234760

 Total Charge           Charge          ....    0
 Multiplicity           Mult            ....    1
 Number of Electrons    NEL             ....  508
 Basis Dimension        Dim             .... 1051

ORBITAL ENERGIES
----------------

  NO   OCC          E(Eh)            E(eV)
   0   2.0000     -89.050348     -2423.1832
   1   2.0000     -88.980729     -2421.2887
   2   2.0000     -88.971055     -2421.0255
   3   2.0000     -88.962227     -2420.7853
   4   2.0000     -88.959913     -2420.7223
   5   2.0000     -88.950437     -2420.4644
   6   2.0000     -19.323374      -525.8157
   7   2.0000     -19.296894      -525.0952
   8   2.0000     -19.249216      -523.7978
   9   2.0000     -19.247905      -523.7621
  10   2.0000     -19.246492      -523.7237
  11   2.0000     -19.244131      -523.6594
  12   2.0000     -19.242838      -523.6242
  13   2.0000     -19.242753      -523.6219
  14   2.0000     -14.661040      -398.9472
  15   2.0000     -14.487013      -394.2117
  16   2.0000     -14.462237      -393.5375
  17   2.0000     -14.460284      -393.4843
  18   2.0000     -14.453988      -393.3130
  19   2.0000     -14.453656      -393.3040
  20   2.0000     -14.438414      -392.8892
  21   2.0000     -14.428456      -392.6182
  22   2.0000     -14.426295      -392.5594
  23   2.0000     -10.440137      -284.0906
  24   2.0000     -10.437693      -284.0241
  25   2.0000     -10.406251      -283.1685
  26   2.0000     -10.405509      -283.1483
  27   2.0000     -10.393840      -282.8308
  28   2.0000     -10.381709      -282.5007
  29   2.0000     -10.380357      -282.4639
  30   2.0000     -10.361416      -281.9485
  31   2.0000     -10.348173      -281.5881
  32   2.0000     -10.346316      -281.5376
  33   2.0000     -10.343891      -281.4716
  34   2.0000     -10.342547      -281.4350
  35   2.0000     -10.340071      -281.3676
  36   2.0000     -10.337277      -281.2916
  37   2.0000     -10.334687      -281.2211
  38   2.0000     -10.332550      -281.1630
  39   2.0000     -10.331128      -281.1243
  40   2.0000     -10.330716      -281.1131
  41   2.0000     -10.330176      -281.0984
  42   2.0000     -10.329857      -281.0897
  43   2.0000     -10.326379      -280.9951
  44   2.0000     -10.326054      -280.9862
  45   2.0000     -10.325587      -280.9735
  46   2.0000     -10.324437      -280.9422
  47   2.0000     -10.324199      -280.9357
  48   2.0000     -10.323318      -280.9118
  49   2.0000     -10.322845      -280.8989
  50   2.0000     -10.321680      -280.8672
  51   2.0000     -10.321274      -280.8561
  52   2.0000     -10.319297      -280.8023
  53   2.0000     -10.310736      -280.5694
  54   2.0000     -10.310154      -280.5536
  55   2.0000     -10.310064      -280.5511
  56   2.0000     -10.309985      -280.5490
  57   2.0000     -10.307823      -280.4901
  58   2.0000     -10.307142      -280.4716
  59   2.0000     -10.305549      -280.4283
  60   2.0000     -10.303135      -280.3626
  61   2.0000     -10.302782      -280.3529
  62   2.0000     -10.301543      -280.3192
  63   2.0000     -10.300426      -280.2889
  64   2.0000     -10.294511      -280.1279
  65   2.0000     -10.292224      -280.0656
  66   2.0000     -10.285458      -279.8816
  67   2.0000     -10.277827      -279.6739
  68   2.0000      -8.141447      -221.5400
  69   2.0000      -8.075752      -219.7524
  70   2.0000      -8.066063      -219.4887
  71   2.0000      -8.058808      -219.2913
  72   2.0000      -8.056654      -219.2327
  73   2.0000      -8.049744      -219.0447
  74   2.0000      -6.112219      -166.3219
  75   2.0000      -6.104895      -166.1226
  76   2.0000      -6.104461      -166.1108
  77   2.0000      -6.045131      -164.4964
  78   2.0000      -6.041147      -164.3880
  79   2.0000      -6.037585      -164.2910
  80   2.0000      -6.035363      -164.2306
  81   2.0000      -6.031189      -164.1170
  82   2.0000      -6.028553      -164.0453
  83   2.0000      -6.028267      -164.0375
  84   2.0000      -6.026402      -163.9867
  85   2.0000      -6.024510      -163.9353
  86   2.0000      -6.022504      -163.8807
  87   2.0000      -6.019636      -163.8026
  88   2.0000      -6.018595      -163.7743
  89   2.0000      -6.017288      -163.7387
  90   2.0000      -6.015385      -163.6869
  91   2.0000      -6.010763      -163.5612
  92   2.0000      -1.331046       -36.2196
  93   2.0000      -1.247390       -33.9432
  94   2.0000      -1.243036       -33.8247
  95   2.0000      -1.172180       -31.8967
  96   2.0000      -1.168966       -31.8092
  97   2.0000      -1.164838       -31.6969
  98   2.0000      -1.148664       -31.2567
  99   2.0000      -1.147459       -31.2239
 100   2.0000      -1.143958       -31.1287
 101   2.0000      -1.134372       -30.8678
 102   2.0000      -1.118794       -30.4439
 103   2.0000      -1.046974       -28.4896
 104   2.0000      -1.018247       -27.7079
 105   2.0000      -1.014376       -27.6026
 106   2.0000      -1.010648       -27.5011
 107   2.0000      -1.006791       -27.3962
 108   2.0000      -1.001203       -27.2441
 109   2.0000      -0.995176       -27.0801
 110   2.0000      -0.992962       -27.0199
 111   2.0000      -0.989009       -26.9123
 112   2.0000      -0.977302       -26.5937
 113   2.0000      -0.953247       -25.9392
 114   2.0000      -0.948754       -25.8169
 115   2.0000      -0.935244       -25.4493
 116   2.0000      -0.923105       -25.1190
 117   2.0000      -0.915982       -24.9251
 118   2.0000      -0.907647       -24.6983
 119   2.0000      -0.905538       -24.6409
 120   2.0000      -0.897129       -24.4121
 121   2.0000      -0.892603       -24.2890
 122   2.0000      -0.880193       -23.9513
 123   2.0000      -0.871949       -23.7269
 124   2.0000      -0.864043       -23.5118
 125   2.0000      -0.863562       -23.4987
 126   2.0000      -0.856660       -23.3109
 127   2.0000      -0.845226       -22.9998
 128   2.0000      -0.833914       -22.6919
 129   2.0000      -0.830881       -22.6094
 130   2.0000      -0.811554       -22.0835
 131   2.0000      -0.803431       -21.8625
 132   2.0000      -0.802465       -21.8362
 133   2.0000      -0.795138       -21.6368
 134   2.0000      -0.786578       -21.4039
 135   2.0000      -0.771026       -20.9807
 136   2.0000      -0.765617       -20.8335
 137   2.0000      -0.747537       -20.3415
 138   2.0000      -0.744579       -20.2610
 139   2.0000      -0.735350       -20.0099
 140   2.0000      -0.725433       -19.7400
 141   2.0000      -0.714592       -19.4450
 142   2.0000      -0.710036       -19.3211
 143   2.0000      -0.706363       -19.2211
 144   2.0000      -0.702180       -19.1073
 145   2.0000      -0.701102       -19.0780
 146   2.0000      -0.695528       -18.9263
 147   2.0000      -0.691858       -18.8264
 148   2.0000      -0.681424       -18.5425
 149   2.0000      -0.677680       -18.4406
 150   2.0000      -0.664607       -18.0849
 151   2.0000      -0.655851       -17.8466
 152   2.0000      -0.650843       -17.7103
 153   2.0000      -0.647001       -17.6058
 154   2.0000      -0.646568       -17.5940
 155   2.0000      -0.641573       -17.4581
 156   2.0000      -0.638682       -17.3794
 157   2.0000      -0.636600       -17.3228
 158   2.0000      -0.633575       -17.2404
 159   2.0000      -0.626720       -17.0539
 160   2.0000      -0.624260       -16.9870
 161   2.0000      -0.623424       -16.9642
 162   2.0000      -0.617186       -16.7945
 163   2.0000      -0.606919       -16.5151
 164   2.0000      -0.606484       -16.5033
 165   2.0000      -0.599289       -16.3075
 166   2.0000      -0.597035       -16.2461
 167   2.0000      -0.593471       -16.1492
 168   2.0000      -0.584413       -15.9027
 169   2.0000      -0.580990       -15.8095
 170   2.0000      -0.579925       -15.7806
 171   2.0000      -0.577869       -15.7246
 172   2.0000      -0.575915       -15.6714
 173   2.0000      -0.570217       -15.5164
 174   2.0000      -0.565760       -15.3951
 175   2.0000      -0.560064       -15.2401
 176   2.0000      -0.556272       -15.1369
 177   2.0000      -0.552946       -15.0464
 178   2.0000      -0.552006       -15.0209
 179   2.0000      -0.550200       -14.9717
 180   2.0000      -0.546170       -14.8620
 181   2.0000      -0.540076       -14.6962
 182   2.0000      -0.538766       -14.6606
 183   2.0000      -0.538037       -14.6407
 184   2.0000      -0.535578       -14.5738
 185   2.0000      -0.534045       -14.5321
 186   2.0000      -0.531668       -14.4674
 187   2.0000      -0.525869       -14.3096
 188   2.0000      -0.520655       -14.1677
 189   2.0000      -0.517992       -14.0953
 190   2.0000      -0.514555       -14.0018
 191   2.0000      -0.514444       -13.9987
 192   2.0000      -0.512745       -13.9525
 193   2.0000      -0.507944       -13.8219
 194   2.0000      -0.504629       -13.7316
 195   2.0000      -0.503816       -13.7095
 196   2.0000      -0.499953       -13.6044
 197   2.0000      -0.493316       -13.4238
 198   2.0000      -0.489935       -13.3318
 199   2.0000      -0.485507       -13.2113
 200   2.0000      -0.484559       -13.1855
 201   2.0000      -0.480363       -13.0713
 202   2.0000      -0.479231       -13.0405
 203   2.0000      -0.476769       -12.9735
 204   2.0000      -0.475930       -12.9507
 205   2.0000      -0.474908       -12.9229
 206   2.0000      -0.471998       -12.8437
 207   2.0000      -0.468339       -12.7442
 208   2.0000      -0.464787       -12.6475
 209   2.0000      -0.455197       -12.3865
 210   2.0000      -0.453523       -12.3410
 211   2.0000      -0.450777       -12.2663
 212   2.0000      -0.449526       -12.2322
 213   2.0000      -0.446985       -12.1631
 214   2.0000      -0.443802       -12.0765
 215   2.0000      -0.442222       -12.0335
 216   2.0000      -0.442085       -12.0297
 217   2.0000      -0.441877       -12.0241
 218   2.0000      -0.441011       -12.0005
 219   2.0000      -0.437165       -11.8959
 220   2.0000      -0.436259       -11.8712
 221   2.0000      -0.423358       -11.5202
 222   2.0000      -0.421437       -11.4679
 223   2.0000      -0.419415       -11.4128
 224   2.0000      -0.417699       -11.3662
 225   2.0000      -0.413441       -11.2503
 226   2.0000      -0.412685       -11.2297
 227   2.0000      -0.408962       -11.1284
 228   2.0000      -0.402767       -10.9598
 229   2.0000      -0.399221       -10.8634
 230   2.0000      -0.395536       -10.7631
 231   2.0000      -0.389361       -10.5950
 232   2.0000      -0.385839       -10.4992
 233   2.0000      -0.383734       -10.4419
 234   2.0000      -0.377014       -10.2591
 235   2.0000      -0.376542       -10.2462
 236   2.0000      -0.375684       -10.2229
 237   2.0000      -0.369295       -10.0490
 238   2.0000      -0.368854       -10.0370
 239   2.0000      -0.366117        -9.9625
 240   2.0000      -0.360486        -9.8093
 241   2.0000      -0.355957        -9.6861
 242   2.0000      -0.350908        -9.5487
 243   2.0000      -0.348265        -9.4768
 244   2.0000      -0.347671        -9.4606
 245   2.0000      -0.341476        -9.2920
 246   2.0000      -0.339300        -9.2328
 247   2.0000      -0.332614        -9.0509
 248   2.0000      -0.330948        -9.0056
 249   2.0000      -0.322499        -8.7757
 250   2.0000      -0.304733        -8.2922
 251   2.0000      -0.294298        -8.0082
 252   2.0000      -0.253022        -6.8851
 253   2.0000      -0.218135        -5.9358
 254   0.0000      -0.118479        -3.2240
 255   0.0000      -0.108686        -2.9575
 256   0.0000      -0.095495        -2.5985
 257   0.0000      -0.079281        -2.1574
 258   0.0000      -0.059417        -1.6168

MULLIKEN ATOMIC CHARGES
-----------------------
   0 C :   -0.083020
   1 C :    0.013052
   2 C :   -0.036918
   3 N :    0.048962
   4 C :   -0.120155
   5 C :   -0.144323
   6 N :    0.064280
   7 C :   -0.199237
   8 N :    0.233892
   9 C :   -0.206036
  10 N :    0.241558
  11 C :    0.064725
  12 C :   -0.011351
  13 C :    0.116889
  14 N :   -0.265099
  15 S :    0.557529
  16 N :   -0.271734
  17 C :   -0.033390
  18 C :    0.071920
  19 C :    0.042805
  20 O :   -0.135785
  21 S :    0.022022
  22 C :    0.023112
  23 O :   -0.132905
  24 C :   -0.000528
  25 C :    0.127111
  26 C :   -0.106934
  27 C :   -0.045929
  28 C :    0.240923
  29 O :   -0.107972
  30 O :   -0.222010
  31 C :    0.255762
  32 O :   -0.143797
  33 C :   -0.104842
  34 C :    0.133394
  35 C :   -0.229188
  36 S :    0.172223
  37 C :   -0.096220
  38 C :    0.002999
  39 C :    0.169773
  40 N :   -0.044343
  41 N :   -0.053949
  42 C :   -0.019755
  43 C :    0.029246
  44 C :    0.075958
  45 C :   -0.188725
  46 S :    0.156833
  47 C :   -0.146782
  48 C :    0.137389
  49 C :    0.171230
  50 O :   -0.180970
  51 C :    0.235470
  52 N :    0.277517
  53 O :   -0.255242
  54 O :   -0.233278
  55 C :   -0.118431
  56 C :    0.060437
  57 C :   -0.065286
  58 C :    0.019186
  59 C :    0.022636
  60 C :   -0.053692
  61 S :    0.105933
  62 C :   -0.055036
  63 C :    0.027104
  64 C :    0.064874
  65 C :   -0.073084
  66 S :    0.099970
  67 C :   -0.013988
  68 H :   -0.013276
  69 H :   -0.039743
  70 H :   -0.008110
  71 H :    0.158288
  72 H :    0.004830
  73 H :    0.001103
  74 H :   -0.041174
  75 H :    0.018015
  76 H :   -0.007148
  77 H :   -0.006835
  78 H :   -0.006345
  79 H :   -0.004310
  80 H :   -0.002861
  81 H :    0.029526
  82 H :    0.031265
Sum of atomic charges:   -0.0000000

LOEWDIN ATOMIC CHARGES
----------------------
   0 C :    0.014822
   1 C :   -0.008531
   2 C :    0.003524
   3 N :    0.000102
   4 C :   -0.020310
   5 C :   -0.024572
   6 N :    0.006053
   7 C :   -0.034854
   8 N :   -0.002138
   9 C :   -0.036298
  10 N :   -0.001321
  11 C :   -0.012865
  12 C :   -0.035047
  13 C :   -0.045140
  14 N :   -0.282665
  15 S :    0.703465
  16 N :   -0.294723
  17 C :    0.009443
  18 C :   -0.027324
  19 C :   -0.046143
  20 O :   -0.118956
  21 S :    0.306534
  22 C :   -0.037631
  23 O :   -0.115616
  24 C :   -0.073082
  25 C :    0.043513
  26 C :   -0.061759
  27 C :   -0.025286
  28 C :    0.112025
  29 O :   -0.104121
  30 O :   -0.047612
  31 C :    0.122220
  32 O :   -0.124902
  33 C :   -0.089532
  34 C :    0.025342
  35 C :   -0.220964
  36 S :    0.473414
  37 C :   -0.134956
  38 C :   -0.102152
  39 C :    0.000647
  40 N :    0.105866
  41 N :   -0.048929
  42 C :   -0.039556
  43 C :   -0.054050
  44 C :   -0.019297
  45 C :   -0.209043
  46 S :    0.456235
  47 C :   -0.142644
  48 C :   -0.089311
  49 C :    0.032857
  50 O :    0.011897
  51 C :    0.018454
  52 N :    0.271929
  53 O :   -0.216574
  54 O :   -0.195414
  55 C :   -0.010370
  56 C :   -0.097525
  57 C :   -0.130183
  58 C :   -0.051737
  59 C :   -0.010908
  60 C :   -0.191253
  61 S :    0.387793
  62 C :   -0.160458
  63 C :   -0.027729
  64 C :   -0.017101
  65 C :   -0.141599
  66 S :    0.369929
  67 C :   -0.053317
  68 H :    0.050592
  69 H :    0.022020
  70 H :    0.030303
  71 H :    0.085098
  72 H :    0.020686
  73 H :    0.033800
  74 H :    0.032056
  75 H :    0.045848
  76 H :    0.032629
  77 H :    0.034850
  78 H :    0.035292
  79 H :    0.034977
  80 H :    0.037379
  81 H :    0.033237
  82 H :    0.030669

  Mayer bond orders larger than 0.100000
B(  0-C ,  1-C ) :   1.2898 B(  0-C , 11-C ) :   0.1497 B(  0-C , 13-C ) :   1.1697
B(  0-C , 68-H ) :   1.0627 B(  1-C ,  2-C ) :   1.1274 B(  1-C ,  6-N ) :   1.3389
B(  2-C ,  3-N ) :   1.4148 B(  2-C , 11-C ) :   1.3756 B(  3-N ,  4-C ) :   1.7499
B(  4-C ,  5-C ) :   1.1729 B(  4-C ,  9-C ) :   1.1481 B(  5-C ,  6-N ) :   1.7961
B(  5-C ,  7-C ) :   1.1477 B(  7-C ,  8-N ) :   3.0515 B(  9-C , 10-N ) :   3.0517
B( 11-C , 12-C ) :   1.3071 B( 11-C , 17-C ) :   0.9340 B( 12-C , 13-C ) :   1.1208
B( 12-C , 16-N ) :   1.5011 B( 13-C , 14-N ) :   1.4430 B( 14-N , 15-S ) :   1.3312
B( 14-N , 16-N ) :   0.1630 B( 15-S , 16-N ) :   1.2984 B( 17-C , 18-C ) :   1.4244
B( 17-C , 27-C ) :   1.4030 B( 18-C , 19-C ) :   0.8244 B( 18-C , 24-C ) :   1.3451
B( 19-C , 20-O ) :   2.1665 B( 19-C , 21-S ) :   1.0420 B( 20-O , 21-S ) :   0.1082
B( 21-S , 22-C ) :   1.0184 B( 22-C , 23-O ) :   2.1553 B( 22-C , 24-C ) :   0.8565
B( 24-C , 25-C ) :   1.2293 B( 25-C , 26-C ) :   1.2431 B( 25-C , 33-C ) :   1.2700
B( 26-C , 27-C ) :   1.3803 B( 26-C , 31-C ) :   0.9466 B( 27-C , 28-C ) :   0.8874
B( 28-C , 29-O ) :   2.2450 B( 28-C , 30-O ) :   1.0578 B( 30-O , 31-C ) :   1.0694
B( 31-C , 32-O ) :   2.1274 B( 33-C , 34-C ) :   1.5072 B( 33-C , 69-H ) :   0.9423
B( 34-C , 35-C ) :   1.2750 B( 34-C , 70-H ) :   0.9360 B( 35-C , 36-S ) :   1.0673
B( 35-C , 39-C ) :   1.2752 B( 36-S , 37-C ) :   1.1733 B( 37-C , 38-C ) :   1.2643
B( 37-C , 43-C ) :   1.2083 B( 38-C , 39-C ) :   1.2835 B( 38-C , 42-C ) :   1.1651
B( 39-C , 40-N ) :   1.1957 B( 40-N , 41-N ) :   1.1374 B( 40-N , 71-H ) :   0.9242
B( 41-N , 42-C ) :   1.7333 B( 42-C , 72-H ) :   0.9966 B( 43-C , 44-C ) :   1.5856
B( 43-C , 73-H ) :   0.9560 B( 44-C , 45-C ) :   1.2006 B( 44-C , 74-H ) :   0.9557
B( 45-C , 46-S ) :   1.0767 B( 45-C , 49-C ) :   1.4034 B( 46-S , 47-C ) :   1.1432
B( 47-C , 48-C ) :   1.2744 B( 47-C , 56-C ) :   1.2723 B( 48-C , 49-C ) :   1.2554
B( 48-C , 55-C ) :   1.1029 B( 49-C , 50-O ) :   1.1206 B( 50-O , 51-C ) :   1.1135
B( 51-C , 52-N ) :   0.9297 B( 51-C , 55-C ) :   1.5391 B( 52-N , 53-O ) :   1.5209
B( 52-N , 54-O ) :   1.5029 B( 53-O , 54-O ) :   0.2755 B( 55-C , 75-H ) :   1.0169
B( 56-C , 57-C ) :   1.5089 B( 56-C , 76-H ) :   0.9326 B( 57-C , 58-C ) :   1.1823
B( 57-C , 61-S ) :   1.0669 B( 58-C , 59-C ) :   1.5827 B( 58-C , 77-H ) :   0.9868
B( 59-C , 60-C ) :   1.2006 B( 59-C , 78-H ) :   0.9926 B( 60-C , 61-S ) :   1.0397
B( 60-C , 62-C ) :   1.5146 B( 62-C , 63-C ) :   1.1596 B( 62-C , 66-S ) :   1.0682
B( 63-C , 64-C ) :   1.6576 B( 63-C , 79-H ) :   0.9916 B( 64-C , 65-C ) :   1.0800
B( 64-C , 80-H ) :   0.9930 B( 65-C , 66-S ) :   1.0045 B( 65-C , 67-C ) :   1.8623
B( 67-C , 81-H ) :   0.9510 B( 67-C , 82-H ) :   0.9423

-----------------------------------------------------------------------------
         ABSORPTION SPECTRUM VIA TRANSITION ELECTRIC DIPOLE MOMENTS
-----------------------------------------------------------------------------
State   Energy  Wavelength   fosc         T2         TX        TY        TZ
        (cm-1)    (nm)                  (au**2)     (au)      (au)      (au)
-----------------------------------------------------------------------------
   0   10647.6    939.2   2.262068509  69.94085   0.36789  -7.67411  -3.30356
   1   12598.0    793.8   0.107896395   2.81956   0.84935   1.04778   1.00016
   2   13543.5    738.4   0.035505594   0.86306   0.14801  -0.21544  -0.89148
   3   16677.0    599.6   0.316846016   6.25469   1.15794  -2.11133  -0.67541
   4   18351.1    544.9   0.053669166   0.96281  -0.66675   0.58976  -0.41282
   5   20307.0    492.4   0.051111279   0.82860  -0.08881   0.44428  -0.78951
   6   20899.6    478.5   0.115655894   1.82182   0.03134  -0.52611  -1.24260
   7   22795.4    438.7   0.036584210   0.52835   0.58978   0.42463   0.01392
   8   23464.3    426.2   0.044429324   0.62336   0.34192  -0.69745   0.14146
   9   24961.7    400.6   0.104604052   1.37959   0.39871   1.10295  -0.06427
  10   25360.6    394.3   0.019686501   0.25555   0.13351   0.48051  -0.08270
  11   25722.1    388.8   0.030425672   0.38941  -0.14312   0.52004   0.31383
  12   27082.1    369.2   0.006495476   0.07896  -0.20965  -0.18557   0.02387
  13   27454.3    364.2   0.011942616   0.14321  -0.03936   0.37599  -0.01706
  14   28369.6    352.5   0.016086928   0.18668   0.08461  -0.18744  -0.37998
  15   28715.2    348.2   0.006066087   0.06955   0.14288   0.19365   0.10784
  16   28898.3    346.0   0.050400383   0.57417  -0.43030   0.07757   0.61886
  17   29814.2    335.4   0.079189094   0.87441   0.08619   0.16734  -0.91596
  18   30021.2    333.1   0.098754892   1.08295  -0.36438   0.31612   0.92208
  19   30257.1    330.5   0.015647670   0.17025   0.14530  -0.02573  -0.38533
  20   30580.1    327.0   0.036650900   0.39457  -0.10864   0.23132   0.57381
  21   30686.7    325.9   0.039239109   0.42096  -0.21622   0.12528   0.59876
  22   31163.3    320.9   0.034555622   0.36505  -0.02948  -0.33027   0.50508
  23   31446.3    318.0   0.056526929   0.59178   0.60612   0.14300  -0.45161
  24   31816.2    314.3   0.113614221   1.17560  -0.74116   0.26434   0.74593
  25   31886.7    313.6   0.006323347   0.06528  -0.09730  -0.18793   0.14318
  26   32481.6    307.9   0.008821337   0.08941  -0.04376   0.29517   0.01919
  27   32656.5    306.2   0.036213089   0.36507  -0.59453  -0.00746   0.10744
  28   32835.3    304.6   0.190003347   1.90500  -1.17847  -0.24017   0.67716
  29   32950.7    303.5   0.004612209   0.04608   0.10820  -0.17851  -0.05010
  30   33249.9    300.8   0.007498762   0.07425  -0.03989  -0.25288  -0.09332
  31   33444.5    299.0   0.014992135   0.14758  -0.16349   0.28449   0.19978
  32   33898.8    295.0   0.029038120   0.28201  -0.48347   0.02016   0.21876
  33   34129.4    293.0   0.003294574   0.03178  -0.16659  -0.00890  -0.06283
  34   34284.6    291.7   0.019894563   0.19103   0.27236   0.00671  -0.34178
  35   34401.3    290.7   0.003812979   0.03649  -0.17972   0.02437   0.05998
  36   34731.9    287.9   0.003527048   0.03343  -0.11080  -0.06991   0.12754
  37   34881.6    286.7   0.006893311   0.06506  -0.10799   0.22180  -0.06483
  38   35276.4    283.5   0.011650228   0.10872  -0.25654  -0.05861   0.19869
  39   35380.3    282.6   0.003312261   0.03082   0.05132   0.12035   0.11705
  40   35863.1    278.8   0.007396468   0.06790   0.12281   0.04929  -0.22447
  41   36347.7    275.1   0.061771546   0.55948  -0.18852  -0.12984   0.71210
  42   36558.4    273.5   0.032947614   0.29670  -0.06038  -0.53511   0.08187
  43   36644.5    272.9   0.006667663   0.05990   0.01848  -0.02755   0.24249
  44   36732.4    272.2   0.012020205   0.10773  -0.08905   0.28412  -0.13812
  45   36862.6    271.3   0.037242575   0.33261   0.27705  -0.34913  -0.36601
  46   37082.4    269.7   0.032108643   0.28506   0.01543  -0.25819  -0.46707
  47   37185.3    268.9   0.005961337   0.05278   0.17995  -0.13499   0.04663
  48   37275.6    268.3   0.125477218   1.10819   0.48206   0.05647  -0.93414
  49   37523.8    266.5   0.021001159   0.18425  -0.11079   0.33229   0.24812
  50   37706.5    265.2   0.019022468   0.16608  -0.33295  -0.11388   0.20557
  51   37805.1    264.5   0.032588920   0.28379   0.27130  -0.19924  -0.41290
  52   38091.2    262.5   0.033894162   0.29294   0.14001   0.49346   0.17271
  53   38276.7    261.3   0.114325249   0.98329  -0.41667   0.30752   0.84564
  54   38598.3    259.1   0.038183624   0.32568   0.56109   0.07332  -0.07404
  55   38721.8    258.3   0.020330506   0.17285  -0.06435  -0.39248   0.12111
  56   38939.4    256.8   0.019748910   0.16697   0.12992  -0.28370  -0.26382
  57   39250.8    254.8   0.072890172   0.61136   0.59954   0.38575  -0.32110
  58   39672.7    252.1   0.001572351   0.01305  -0.09340   0.02305   0.06158
  59   39772.7    251.4   0.024863715   0.20581   0.03622   0.40994   0.19091
  60   40030.2    249.8   0.180135746   1.48145   0.28108  -0.14148  -1.17577
  61   40267.8    248.3   0.020739308   0.16956   0.13041   0.05490   0.38670
  62   40320.5    248.0   0.243294621   1.98647  -1.14320  -0.43557   0.69989

FINAL SINGLE POINT ENERGY     -5203.112724655315

DIPOLE MOMENT
-------------
                                X             Y             Z
Electronic contribution:     -6.39633      77.65019      29.47842
Nuclear contribution   :      7.17523     -82.96870     -34.67982
                        -----------------------------------------
Total Dipole Moment    :      0.77891      -5.31851      -5.20141
                        -----------------------------------------
Magnitude (a.u.)       :      7.47983
Magnitude (Debye)      :     19.01221

Rotational constants in cm-1:     0.002350     0.000214     0.000208
Rotational constants in MHz :    70.458227     6.411123     6.234321

                             ****ORCA TERMINATED NORMALLY****
TOTAL RUN TIME: 0 days 0 hours 8 minutes 38 seconds 97 msec
