                         Program Version 4.2.0 -  RELEASE  -
|  1> # ORCA input file
|  2> # SCF done       -204.812160283904          0.000568950603
|  3> ! CAM-B3LYP def2-SVP def2/J RIJCOSX Grid4 TightSCF
|  4> %maxcore 5000
|  5> %tddft
|  6>     Mode sTDDFT
|  7>     Ethresh 5.0
|  8>     maxcore 5000
|  9> end
| 10>
| 11> %pal
| 12>   nprocs 6
| 13>   end
| 14> * xyz 0 1
| 15>    C       -3.92265        -5.14399        -2.73364
| 16>    C       -3.86307        -4.59092        -4.00998
| 17>    C       -5.10100        -4.12507        -4.72408
| 18>    O       -5.07622        -3.21913        -5.50687
| 19>    O       -6.23740        -4.76892        -4.43777
| 20>    C       -2.62446        -4.39360        -4.64511
| 21>    C       -2.53532        -3.86669        -5.95929
| 22>    N       -2.34996        -3.48946        -7.02450
| 23>    C       -1.43501        -4.74107        -3.99929
| 24>    C       -1.51336        -5.29581        -2.74052
| 25>    C       -2.74512        -5.51342        -2.09914
| 26>    C       -2.50740        -6.13796        -0.79853
| 27>    C       -3.47904        -6.56538         0.06689
| 28>    C       -4.86161        -6.44930        -0.18949
| 29>    N       -5.99338        -6.38882        -0.37051
| 30>    C       -3.24222        -7.19844         1.30643
| 31>    N       -3.12716        -7.72116         2.32122
| 32>    C       -1.07600        -6.32344        -0.65880
| 33>    C       -0.40941        -5.71200        -1.84967
| 34>    O        0.76179        -5.45574        -1.98928
| 35>    C       -0.40702        -6.88874         0.38171
| 36>    C        0.94226        -7.32682         0.28817
| 37>    C        1.58575        -7.84440        -0.81516
| 38>    C        1.25313        -8.20867        -2.20765
| 39>    O        0.21588        -8.10443        -2.81633
| 40>    N        2.41693        -8.76650        -2.71320
| 41>    C        2.53747        -9.24151        -4.06956
| 42>    C        3.45946        -8.82842        -1.79272
| 43>    O        4.55706        -9.27547        -2.01645
| 44>    C        2.90251        -8.25861        -0.55979
| 45>    C        3.31120        -8.07353         0.74667
| 46>    S        2.00306        -7.38831         1.68311
| 47>    C        4.57018        -8.38091         1.31665
| 48>    C        4.95824        -8.24865         2.63130
| 49>    C        4.35200        -7.79284         3.88683
| 50>    O        3.24038        -7.36669         4.09757
| 51>    N        5.34594        -7.95209         4.83849
| 52>    C        5.16840        -7.62087         6.23079
| 53>    C        6.53866        -8.46518         4.32455
| 54>    O        7.52710        -8.68044         4.98165
| 55>    C        6.27653        -8.66410         2.89417
| 56>    C        6.94140        -9.13273         1.78181
| 57>    S        5.89899        -9.03205         0.37973
| 58>    C        8.29161        -9.55602         1.62911
| 59>    S        9.10153        -9.01716         0.20898
| 60>    C       10.63113        -9.62000         0.75847
| 61>    C       10.48114       -10.25851         2.02059
| 62>    C        9.13560       -10.26811         2.49950
| 63>    C        8.80972       -10.97859         3.68558
| 64>    C        7.42734       -11.28429         4.09340
| 65>    O        6.45512       -11.25256         3.37367
| 66>    O        7.33519       -11.69928         5.36444
| 67>    C        9.84115       -11.52016         4.42721
| 68>    C       11.16455       -11.43330         4.01249
| 69>    C       11.50350       -10.84644         2.80907
| 70>    O       12.77531       -10.82814         2.37381
| 71>    C       11.84666        -9.49324         0.07267
| 72>    C       12.11878        -8.94779        -1.15944
| 73>    C       13.42781        -8.88530        -1.78382
| 74>    C       14.62270        -9.32178        -1.27112
| 75>    C       15.85720        -9.21194        -1.94699
| 76>    N       16.89381        -9.15529        -2.43669
| 77>    C       14.83044        -9.93805        -0.01924
| 78>    N       15.11708       -10.44865         0.96926
| 79>    C       13.25901        -8.25714        -3.09197
| 80>    C       11.89016        -7.93634        -3.26952
| 81>    C       11.14321        -8.34877        -2.07148
| 82>    O        9.94532        -8.21087        -1.88334
| 83>    C       11.40583        -7.33537        -4.40564
| 84>    C       12.31870        -7.03503        -5.42208
| 85>    C       13.68445        -7.35838        -5.23876
| 86>    C       14.17243        -7.96581        -4.08763
| 87>    S       14.63891        -6.90388        -6.61683
| 88>    C       13.21107        -6.29377        -7.41017
| 89>    C       12.07630        -6.42283        -6.68172
| 90>   Br       13.35302        -5.54628        -9.12379
| 91>    H       -4.87213        -5.24754        -2.23044
| 92>    H       -6.13872        -5.49574        -3.80735
| 93>    H       -0.47885        -4.58467        -4.47452
| 94>    H       -0.90191        -7.05783         1.32898
| 95>    H        2.40530        -8.41492        -4.76865
| 96>    H        1.77652        -9.99672        -4.26855
| 97>    H        3.53126        -9.67039        -4.18364
| 98>    H        5.03136        -6.54502         6.34906
| 99>    H        6.06212        -7.94025         6.76410
|100>    H        4.28961        -8.13250         6.62382
|101>    H        6.41314       -11.92038         5.56788
|102>    H        9.60903       -12.04299         5.34059
|103>    H       11.94382       -11.86713         4.62339
|104>    H       13.37808       -11.24689         3.00327
|105>    H       12.69307        -9.90138         0.60468
|106>    H       10.35689        -7.10545        -4.50706
|107>    H       15.22198        -8.19045        -4.00077
|108>    H       11.10777        -6.10039        -7.01769
|109> *
|110>
|111>                          ****END OF INPUT****

CARTESIAN COORDINATES (ANGSTROEM)
---------------------------------
  C     -3.922650   -5.143990   -2.733640
  C     -3.863070   -4.590920   -4.009980
  C     -5.101000   -4.125070   -4.724080
  O     -5.076220   -3.219130   -5.506870
  O     -6.237400   -4.768920   -4.437770
  C     -2.624460   -4.393600   -4.645110
  C     -2.535320   -3.866690   -5.959290
  N     -2.349960   -3.489460   -7.024500
  C     -1.435010   -4.741070   -3.999290
  C     -1.513360   -5.295810   -2.740520
  C     -2.745120   -5.513420   -2.099140
  C     -2.507400   -6.137960   -0.798530
  C     -3.479040   -6.565380    0.066890
  C     -4.861610   -6.449300   -0.189490
  N     -5.993380   -6.388820   -0.370510
  C     -3.242220   -7.198440    1.306430
  N     -3.127160   -7.721160    2.321220
  C     -1.076000   -6.323440   -0.658800
  C     -0.409410   -5.712000   -1.849670
  O      0.761790   -5.455740   -1.989280
  C     -0.407020   -6.888740    0.381710
  C      0.942260   -7.326820    0.288170
  C      1.585750   -7.844400   -0.815160
  C      1.253130   -8.208670   -2.207650
  O      0.215880   -8.104430   -2.816330
  N      2.416930   -8.766500   -2.713200
  C      2.537470   -9.241510   -4.069560
  C      3.459460   -8.828420   -1.792720
  O      4.557060   -9.275470   -2.016450
  C      2.902510   -8.258610   -0.559790
  C      3.311200   -8.073530    0.746670
  S      2.003060   -7.388310    1.683110
  C      4.570180   -8.380910    1.316650
  C      4.958240   -8.248650    2.631300
  C      4.352000   -7.792840    3.886830
  O      3.240380   -7.366690    4.097570
  N      5.345940   -7.952090    4.838490
  C      5.168400   -7.620870    6.230790
  C      6.538660   -8.465180    4.324550
  O      7.527100   -8.680440    4.981650
  C      6.276530   -8.664100    2.894170
  C      6.941400   -9.132730    1.781810
  S      5.898990   -9.032050    0.379730
  C      8.291610   -9.556020    1.629110
  S      9.101530   -9.017160    0.208980
  C     10.631130   -9.620000    0.758470
  C     10.481140  -10.258510    2.020590
  C      9.135600  -10.268110    2.499500
  C      8.809720  -10.978590    3.685580
  C      7.427340  -11.284290    4.093400
  O      6.455120  -11.252560    3.373670
  O      7.335190  -11.699280    5.364440
  C      9.841150  -11.520160    4.427210
  C     11.164550  -11.433300    4.012490
  C     11.503500  -10.846440    2.809070
  O     12.775310  -10.828140    2.373810
  C     11.846660   -9.493240    0.072670
  C     12.118780   -8.947790   -1.159440
  C     13.427810   -8.885300   -1.783820
  C     14.622700   -9.321780   -1.271120
  C     15.857200   -9.211940   -1.946990
  N     16.893810   -9.155290   -2.436690
  C     14.830440   -9.938050   -0.019240
  N     15.117080  -10.448650    0.969260
  C     13.259010   -8.257140   -3.091970
  C     11.890160   -7.936340   -3.269520
  C     11.143210   -8.348770   -2.071480
  O      9.945320   -8.210870   -1.883340
  C     11.405830   -7.335370   -4.405640
  C     12.318700   -7.035030   -5.422080
  C     13.684450   -7.358380   -5.238760
  C     14.172430   -7.965810   -4.087630
  S     14.638910   -6.903880   -6.616830
  C     13.211070   -6.293770   -7.410170
  C     12.076300   -6.422830   -6.681720
  Br    13.353020   -5.546280   -9.123790
  H     -4.872130   -5.247540   -2.230440
  H     -6.138720   -5.495740   -3.807350
  H     -0.478850   -4.584670   -4.474520
  H     -0.901910   -7.057830    1.328980
  H      2.405300   -8.414920   -4.768650
  H      1.776520   -9.996720   -4.268550
  H      3.531260   -9.670390   -4.183640
  H      5.031360   -6.545020    6.349060
  H      6.062120   -7.940250    6.764100
  H      4.289610   -8.132500    6.623820
  H      6.413140  -11.920380    5.567880
  H      9.609030  -12.042990    5.340590
  H     11.943820  -11.867130    4.623390
  H     13.378080  -11.246890    3.003270
  H     12.693070   -9.901380    0.604680
  H     10.356890   -7.105450   -4.507060
  H     15.221980   -8.190450   -4.000770
  H     11.107770   -6.100390   -7.017690

 Total Charge           Charge          ....    0
 Multiplicity           Mult            ....    1
 Number of Electrons    NEL             ....  572
 Basis Dimension        Dim             .... 1188

ORBITAL ENERGIES
----------------

  NO   OCC          E(Eh)            E(eV)
   0   2.0000    -482.888084    -13140.0528
   1   2.0000     -88.993312     -2421.6311
   2   2.0000     -88.990212     -2421.5468
   3   2.0000     -88.986766     -2421.4530
   4   2.0000     -88.978701     -2421.2335
   5   2.0000     -62.565803     -1702.5020
   6   2.0000     -56.399758     -1534.7154
   7   2.0000     -56.397033     -1534.6413
   8   2.0000     -56.397001     -1534.6404
   9   2.0000     -19.276808      -524.5486
  10   2.0000     -19.275625      -524.5164
  11   2.0000     -19.265494      -524.2407
  12   2.0000     -19.235412      -523.4222
  13   2.0000     -19.231164      -523.3066
  14   2.0000     -19.230506      -523.2887
  15   2.0000     -19.227780      -523.2145
  16   2.0000     -19.227193      -523.1985
  17   2.0000     -19.222879      -523.0811
  18   2.0000     -19.215766      -522.8876
  19   2.0000     -19.208442      -522.6883
  20   2.0000     -14.474125      -393.8610
  21   2.0000     -14.468998      -393.7214
  22   2.0000     -14.438007      -392.8782
  23   2.0000     -14.436088      -392.8259
  24   2.0000     -14.421115      -392.4185
  25   2.0000     -14.417292      -392.3145
  26   2.0000     -14.412339      -392.1797
  27   2.0000     -10.421599      -283.5861
  28   2.0000     -10.413261      -283.3592
  29   2.0000     -10.412078      -283.3271
  30   2.0000     -10.409936      -283.2688
  31   2.0000     -10.408045      -283.2173
  32   2.0000     -10.405001      -283.1345
  33   2.0000     -10.390240      -282.7328
  34   2.0000     -10.374203      -282.2964
  35   2.0000     -10.368790      -282.1491
  36   2.0000     -10.367064      -282.1022
  37   2.0000     -10.364032      -282.0196
  38   2.0000     -10.361890      -281.9614
  39   2.0000     -10.358333      -281.8646
  40   2.0000     -10.351159      -281.6694
  41   2.0000     -10.346873      -281.5527
  42   2.0000     -10.345555      -281.5169
  43   2.0000     -10.344948      -281.5003
  44   2.0000     -10.342905      -281.4447
  45   2.0000     -10.341289      -281.4008
  46   2.0000     -10.340965      -281.3920
  47   2.0000     -10.340366      -281.3757
  48   2.0000     -10.338114      -281.3144
  49   2.0000     -10.337987      -281.3109
  50   2.0000     -10.337319      -281.2927
  51   2.0000     -10.332187      -281.1531
  52   2.0000     -10.332057      -281.1496
  53   2.0000     -10.331905      -281.1454
  54   2.0000     -10.328788      -281.0606
  55   2.0000     -10.328393      -281.0499
  56   2.0000     -10.323646      -280.9207
  57   2.0000     -10.323021      -280.9037
  58   2.0000     -10.322043      -280.8771
  59   2.0000     -10.321167      -280.8532
  60   2.0000     -10.320552      -280.8365
  61   2.0000     -10.316456      -280.7250
  62   2.0000     -10.315811      -280.7075
  63   2.0000     -10.314387      -280.6687
  64   2.0000     -10.313880      -280.6549
  65   2.0000     -10.312612      -280.6204
  66   2.0000     -10.312201      -280.6093
  67   2.0000     -10.311746      -280.5969
  68   2.0000     -10.311165      -280.5811
  69   2.0000     -10.310963      -280.5756
  70   2.0000     -10.308865      -280.5185
  71   2.0000     -10.307643      -280.4852
  72   2.0000     -10.305262      -280.4204
  73   2.0000     -10.302213      -280.3375
  74   2.0000     -10.301834      -280.3271
  75   2.0000     -10.299746      -280.2703
  76   2.0000     -10.298877      -280.2467
  77   2.0000     -10.296350      -280.1779
  78   2.0000     -10.295712      -280.1606
  79   2.0000     -10.291133      -280.0360
  80   2.0000      -8.795234      -239.3305
  81   2.0000      -8.087284      -220.0662
  82   2.0000      -8.082977      -219.9490
  83   2.0000      -8.080877      -219.8918
  84   2.0000      -8.074705      -219.7239
  85   2.0000      -6.631570      -180.4542
  86   2.0000      -6.616964      -180.0567
  87   2.0000      -6.616738      -180.0506
  88   2.0000      -6.056801      -164.8139
  89   2.0000      -6.052165      -164.6878
  90   2.0000      -6.052046      -164.6845
  91   2.0000      -6.050438      -164.6408
  92   2.0000      -6.049296      -164.6097
  93   2.0000      -6.047315      -164.5558
  94   2.0000      -6.046126      -164.5235
  95   2.0000      -6.045755      -164.5134
  96   2.0000      -6.044367      -164.4756
  97   2.0000      -6.042816      -164.4334
  98   2.0000      -6.040115      -164.3599
  99   2.0000      -6.035948      -164.2465
 100   2.0000      -2.747409       -74.7608
 101   2.0000      -2.743337       -74.6500
 102   2.0000      -2.743198       -74.6462
 103   2.0000      -2.731580       -74.3301
 104   2.0000      -2.731557       -74.3294
 105   2.0000      -1.200788       -32.6751
 106   2.0000      -1.195694       -32.5365
 107   2.0000      -1.177392       -32.0385
 108   2.0000      -1.175172       -31.9781
 109   2.0000      -1.171177       -31.8694
 110   2.0000      -1.157495       -31.4970
 111   2.0000      -1.149447       -31.2780
 112   2.0000      -1.148033       -31.2396
 113   2.0000      -1.143089       -31.1050
 114   2.0000      -1.115847       -30.3637
 115   2.0000      -1.097471       -29.8637
 116   2.0000      -1.068427       -29.0734
 117   2.0000      -1.062664       -28.9166
 118   2.0000      -1.042084       -28.3565
 119   2.0000      -1.029527       -28.0149
 120   2.0000      -1.026614       -27.9356
 121   2.0000      -1.024308       -27.8728
 122   2.0000      -1.020326       -27.7645
 123   2.0000      -1.016968       -27.6731
 124   2.0000      -1.015464       -27.6322
 125   2.0000      -1.002435       -27.2776
 126   2.0000      -0.999185       -27.1892
 127   2.0000      -0.997623       -27.1467
 128   2.0000      -0.993578       -27.0366
 129   2.0000      -0.975991       -26.5581
 130   2.0000      -0.954903       -25.9842
 131   2.0000      -0.945721       -25.7344
 132   2.0000      -0.932588       -25.3770
 133   2.0000      -0.924869       -25.1670
 134   2.0000      -0.919466       -25.0199
 135   2.0000      -0.912139       -24.8206
 136   2.0000      -0.909719       -24.7547
 137   2.0000      -0.901728       -24.5373
 138   2.0000      -0.899061       -24.4647
 139   2.0000      -0.890717       -24.2376
 140   2.0000      -0.889333       -24.2000
 141   2.0000      -0.875921       -23.8350
 142   2.0000      -0.864194       -23.5159
 143   2.0000      -0.855927       -23.2909
 144   2.0000      -0.848074       -23.0773
 145   2.0000      -0.833033       -22.6680
 146   2.0000      -0.820715       -22.3328
 147   2.0000      -0.817450       -22.2439
 148   2.0000      -0.809207       -22.0196
 149   2.0000      -0.806798       -21.9541
 150   2.0000      -0.803539       -21.8654
 151   2.0000      -0.777571       -21.1588
 152   2.0000      -0.771293       -20.9879
 153   2.0000      -0.768771       -20.9193
 154   2.0000      -0.764802       -20.8113
 155   2.0000      -0.757831       -20.6216
 156   2.0000      -0.748052       -20.3555
 157   2.0000      -0.739731       -20.1291
 158   2.0000      -0.729702       -19.8562
 159   2.0000      -0.719599       -19.5813
 160   2.0000      -0.718287       -19.5456
 161   2.0000      -0.714220       -19.4349
 162   2.0000      -0.713404       -19.4127
 163   2.0000      -0.708128       -19.2691
 164   2.0000      -0.698862       -19.0170
 165   2.0000      -0.694179       -18.8896
 166   2.0000      -0.689244       -18.7553
 167   2.0000      -0.688476       -18.7344
 168   2.0000      -0.685500       -18.6534
 169   2.0000      -0.680248       -18.5105
 170   2.0000      -0.668094       -18.1798
 171   2.0000      -0.664009       -18.0686
 172   2.0000      -0.656590       -17.8667
 173   2.0000      -0.654646       -17.8138
 174   2.0000      -0.632269       -17.2049
 175   2.0000      -0.629021       -17.1165
 176   2.0000      -0.628002       -17.0888
 177   2.0000      -0.619628       -16.8609
 178   2.0000      -0.612566       -16.6688
 179   2.0000      -0.605439       -16.4748
 180   2.0000      -0.600823       -16.3492
 181   2.0000      -0.598806       -16.2943
 182   2.0000      -0.596853       -16.2412
 183   2.0000      -0.594308       -16.1719
 184   2.0000      -0.592794       -16.1308
 185   2.0000      -0.590833       -16.0774
 186   2.0000      -0.582473       -15.8499
 187   2.0000      -0.575822       -15.6689
 188   2.0000      -0.573770       -15.6131
 189   2.0000      -0.570169       -15.5151
 190   2.0000      -0.569568       -15.4987
 191   2.0000      -0.567315       -15.4374
 192   2.0000      -0.566162       -15.4061
 193   2.0000      -0.561603       -15.2820
 194   2.0000      -0.559648       -15.2288
 195   2.0000      -0.555517       -15.1164
 196   2.0000      -0.553661       -15.0659
 197   2.0000      -0.551043       -14.9946
 198   2.0000      -0.550009       -14.9665
 199   2.0000      -0.548837       -14.9346
 200   2.0000      -0.545814       -14.8524
 201   2.0000      -0.543951       -14.8017
 202   2.0000      -0.541053       -14.7228
 203   2.0000      -0.539661       -14.6849
 204   2.0000      -0.537883       -14.6366
 205   2.0000      -0.535260       -14.5652
 206   2.0000      -0.533200       -14.5091
 207   2.0000      -0.530590       -14.4381
 208   2.0000      -0.527920       -14.3654
 209   2.0000      -0.526636       -14.3305
 210   2.0000      -0.525173       -14.2907
 211   2.0000      -0.521389       -14.1877
 212   2.0000      -0.521213       -14.1829
 213   2.0000      -0.517435       -14.0801
 214   2.0000      -0.515670       -14.0321
 215   2.0000      -0.512512       -13.9461
 216   2.0000      -0.511103       -13.9078
 217   2.0000      -0.507941       -13.8218
 218   2.0000      -0.504178       -13.7194
 219   2.0000      -0.502733       -13.6801
 220   2.0000      -0.501644       -13.6504
 221   2.0000      -0.500543       -13.6205
 222   2.0000      -0.494073       -13.4444
 223   2.0000      -0.493581       -13.4310
 224   2.0000      -0.491487       -13.3740
 225   2.0000      -0.490260       -13.3407
 226   2.0000      -0.489329       -13.3153
 227   2.0000      -0.487090       -13.2544
 228   2.0000      -0.486348       -13.2342
 229   2.0000      -0.483528       -13.1575
 230   2.0000      -0.480114       -13.0646
 231   2.0000      -0.477951       -13.0057
 232   2.0000      -0.470341       -12.7986
 233   2.0000      -0.469837       -12.7849
 234   2.0000      -0.468337       -12.7441
 235   2.0000      -0.467189       -12.7128
 236   2.0000      -0.464414       -12.6374
 237   2.0000      -0.463117       -12.6020
 238   2.0000      -0.462874       -12.5955
 239   2.0000      -0.455650       -12.3989
 240   2.0000      -0.452799       -12.3213
 241   2.0000      -0.451936       -12.2978
 242   2.0000      -0.448694       -12.2096
 243   2.0000      -0.447560       -12.1787
 244   2.0000      -0.447191       -12.1687
 245   2.0000      -0.446934       -12.1617
 246   2.0000      -0.442592       -12.0435
 247   2.0000      -0.439819       -11.9681
 248   2.0000      -0.438182       -11.9235
 249   2.0000      -0.434719       -11.8293
 250   2.0000      -0.431680       -11.7466
 251   2.0000      -0.430011       -11.7012
 252   2.0000      -0.428474       -11.6594
 253   2.0000      -0.426239       -11.5985
 254   2.0000      -0.424382       -11.5480
 255   2.0000      -0.419232       -11.4079
 256   2.0000      -0.416919       -11.3449
 257   2.0000      -0.409610       -11.1461
 258   2.0000      -0.408417       -11.1136
 259   2.0000      -0.404687       -11.0121
 260   2.0000      -0.399655       -10.8752
 261   2.0000      -0.391334       -10.6487
 262   2.0000      -0.386717       -10.5231
 263   2.0000      -0.385852       -10.4996
 264   2.0000      -0.377490       -10.2720
 265   2.0000      -0.374591       -10.1931
 266   2.0000      -0.374313       -10.1856
 267   2.0000      -0.373656       -10.1677
 268   2.0000      -0.369946       -10.0667
 269   2.0000      -0.363792        -9.8993
 270   2.0000      -0.362389        -9.8611
 271   2.0000      -0.361652        -9.8411
 272   2.0000      -0.360803        -9.8179
 273   2.0000      -0.358540        -9.7564
 274   2.0000      -0.354080        -9.6350
 275   2.0000      -0.347102        -9.4451
 276   2.0000      -0.344873        -9.3845
 277   2.0000      -0.341797        -9.3008
 278   2.0000      -0.339165        -9.2292
 279   2.0000      -0.337013        -9.1706
 280   2.0000      -0.330651        -8.9975
 281   2.0000      -0.323428        -8.8009
 282   2.0000      -0.319353        -8.6900
 283   2.0000      -0.297606        -8.0983
 284   2.0000      -0.293254        -7.9799
 285   2.0000      -0.261460        -7.1147
 286   0.0000      -0.120808        -3.2873
 287   0.0000      -0.108107        -2.9417
 288   0.0000      -0.093092        -2.5332
 289   0.0000      -0.072614        -1.9759
 290   0.0000      -0.068336        -1.8595

MULLIKEN ATOMIC CHARGES
-----------------------
   0 C :   -0.092947
   1 C :    0.015967
   2 C :    0.183251
   3 O :   -0.146471
   4 O :   -0.140613
   5 C :   -0.076019
   6 C :   -0.153536
   7 N :    0.144003
   8 C :   -0.027467
   9 C :    0.006011
  10 C :    0.048975
  11 C :    0.309906
  12 C :   -0.332721
  13 C :   -0.178893
  14 N :    0.147216
  15 C :   -0.186420
  16 N :    0.169194
  17 C :   -0.070201
  18 C :    0.163801
  19 O :   -0.132256
  20 C :    0.010374
  21 C :   -0.155324
  22 C :    0.079644
  23 C :    0.192745
  24 O :   -0.177054
  25 N :   -0.302994
  26 C :    0.136067
  27 C :    0.199270
  28 O :   -0.157857
  29 C :   -0.051417
  30 C :   -0.119533
  31 S :    0.245607
  32 C :   -0.125161
  33 C :   -0.038813
  34 C :    0.190134
  35 O :   -0.172800
  36 N :   -0.306363
  37 C :    0.136898
  38 C :    0.167468
  39 O :   -0.159655
  40 C :    0.090681
  41 C :   -0.135032
  42 S :    0.238783
  43 C :   -0.163571
  44 S :    0.255008
  45 C :   -0.111938
  46 C :    0.076422
  47 C :    0.161861
  48 C :   -0.002953
  49 C :    0.104384
  50 O :   -0.205647
  51 O :   -0.167348
  52 C :    0.009432
  53 C :   -0.050371
  54 C :    0.131727
  55 O :   -0.153039
  56 C :   -0.039820
  57 C :   -0.097925
  58 C :    0.331822
  59 C :   -0.358395
  60 C :   -0.190408
  61 N :    0.147615
  62 C :   -0.186005
  63 N :    0.143738
  64 C :    0.012203
  65 C :   -0.009423
  66 C :    0.163515
  67 O :   -0.187781
  68 C :   -0.074857
  69 C :    0.122843
  70 C :   -0.092134
  71 C :   -0.023005
  72 S :    0.189128
  73 C :   -0.122414
  74 C :    0.035674
  75 Br:    0.026412
  76 H :   -0.004835
  77 H :    0.190943
  78 H :    0.013444
  79 H :    0.036326
  80 H :    0.044650
  81 H :    0.043718
  82 H :    0.056445
  83 H :    0.042456
  84 H :    0.053890
  85 H :    0.040518
  86 H :    0.188001
  87 H :    0.005976
  88 H :   -0.028188
  89 H :    0.200612
  90 H :    0.023537
  91 H :   -0.008845
  92 H :   -0.007116
  93 H :   -0.002732
Sum of atomic charges:   -0.0000000

LOEWDIN ATOMIC CHARGES
----------------------
   0 C :   -0.001827
   1 C :   -0.036204
   2 C :    0.080730
   3 O :   -0.118258
   4 O :   -0.013313
   5 C :   -0.021444
   6 C :   -0.033852
   7 N :   -0.024299
   8 C :    0.053872
   9 C :   -0.021970
  10 C :    0.002708
  11 C :    0.072797
  12 C :   -0.124769
  13 C :   -0.015811
  14 N :   -0.047433
  15 C :   -0.021607
  16 N :   -0.032958
  17 C :   -0.072460
  18 C :    0.090942
  19 O :   -0.125244
  20 C :    0.052980
  21 C :   -0.160937
  22 C :   -0.054238
  23 C :    0.096307
  24 O :   -0.159545
  25 N :   -0.030536
  26 C :    0.038310
  27 C :    0.089472
  28 O :   -0.158141
  29 C :   -0.099852
  30 C :   -0.136540
  31 S :    0.530768
  32 C :   -0.165756
  33 C :   -0.081906
  34 C :    0.085430
  35 O :   -0.169963
  36 N :   -0.035313
  37 C :    0.036671
  38 C :    0.089418
  39 O :   -0.153603
  40 C :   -0.085855
  41 C :   -0.142458
  42 S :    0.521561
  43 C :   -0.182009
  44 S :    0.585068
  45 C :   -0.180967
  46 C :   -0.040478
  47 C :   -0.016632
  48 C :   -0.079447
  49 C :    0.083835
  50 O :   -0.188015
  51 O :   -0.031090
  52 C :    0.032164
  53 C :   -0.079704
  54 C :    0.078298
  55 O :   -0.013165
  56 C :    0.050336
  57 C :   -0.106697
  58 C :    0.077358
  59 C :   -0.142186
  60 C :   -0.017778
  61 N :   -0.055215
  62 C :   -0.019016
  63 N :   -0.057863
  64 C :   -0.020296
  65 C :   -0.050904
  66 C :    0.083436
  67 O :   -0.172370
  68 C :    0.022456
  69 C :   -0.032636
  70 C :   -0.144125
  71 C :   -0.009027
  72 S :    0.435120
  73 C :   -0.271223
  74 C :   -0.070081
  75 Br:    0.138909
  76 H :    0.034890
  77 H :    0.098881
  78 H :    0.052972
  79 H :    0.048085
  80 H :    0.034819
  81 H :    0.035109
  82 H :    0.039562
  83 H :    0.033721
  84 H :    0.038275
  85 H :    0.033661
  86 H :    0.099396
  87 H :    0.039339
  88 H :    0.031386
  89 H :    0.108415
  90 H :    0.047808
  91 H :    0.041507
  92 H :    0.041189
  93 H :    0.039050

  Mayer bond orders larger than 0.100000
B(  0-C ,  1-C ) :   1.3290 B(  0-C , 10-C ) :   1.3741 B(  0-C , 76-H ) :   0.9595
B(  1-C ,  2-C ) :   0.8680 B(  1-C ,  5-C ) :   1.3902 B(  2-C ,  3-O ) :   2.1677
B(  2-C ,  4-O ) :   1.2559 B(  4-O , 77-H ) :   0.9472 B(  5-C ,  6-C ) :   1.0646
B(  5-C ,  8-C ) :   1.3662 B(  6-C ,  7-N ) :   3.0383 B(  8-C ,  9-C ) :   1.3510
B(  8-C , 78-H ) :   1.0168 B(  9-C , 10-C ) :   1.3522 B(  9-C , 18-C ) :   0.9151
B( 10-C , 11-C ) :   0.9861 B( 11-C , 12-C ) :   1.6473 B( 11-C , 17-C ) :   1.0879
B( 12-C , 13-C ) :   1.1412 B( 12-C , 15-C ) :   1.1384 B( 13-C , 14-N ) :   2.9627
B( 15-C , 16-N ) :   2.9753 B( 17-C , 18-C ) :   0.9145 B( 17-C , 20-C ) :   1.6545
B( 18-C , 19-O ) :   2.2482 B( 20-C , 21-C ) :   1.1158 B( 20-C , 79-H ) :   0.9318
B( 21-C , 22-C ) :   1.4935 B( 21-C , 31-S ) :   1.0903 B( 22-C , 23-C ) :   0.8839
B( 22-C , 29-C ) :   1.3187 B( 23-C , 24-O ) :   2.1548 B( 23-C , 25-N ) :   1.0925
B( 25-N , 26-C ) :   0.9374 B( 25-N , 27-C ) :   1.0773 B( 26-C , 80-H ) :   0.9768
B( 26-C , 81-H ) :   0.9735 B( 26-C , 82-H ) :   0.9606 B( 27-C , 28-O ) :   2.1614
B( 27-C , 29-C ) :   0.8981 B( 29-C , 30-C ) :   1.4563 B( 30-C , 31-S ) :   1.1802
B( 30-C , 32-C ) :   1.1980 B( 32-C , 33-C ) :   1.4890 B( 32-C , 42-S ) :   1.1371
B( 33-C , 34-C ) :   0.8932 B( 33-C , 40-C ) :   1.2904 B( 34-C , 35-O ) :   2.1527
B( 34-C , 36-N ) :   1.0949 B( 36-N , 37-C ) :   0.9409 B( 36-N , 38-C ) :   1.0656
B( 37-C , 83-H ) :   0.9774 B( 37-C , 84-H ) :   0.9602 B( 37-C , 85-H ) :   0.9731
B( 38-C , 39-O ) :   2.1692 B( 38-C , 40-C ) :   0.8962 B( 40-C , 41-C ) :   1.5090
B( 41-C , 42-S ) :   1.1381 B( 41-C , 43-C ) :   1.1090 B( 43-C , 44-S ) :   1.1900
B( 43-C , 45-C ) :   0.1087 B( 43-C , 47-C ) :   1.3332 B( 44-S , 45-C ) :   1.1339
B( 45-C , 46-C ) :   1.2466 B( 45-C , 56-C ) :   1.2822 B( 46-C , 47-C ) :   1.2622
B( 46-C , 54-C ) :   1.1882 B( 47-C , 48-C ) :   1.2081 B( 48-C , 49-C ) :   0.9271
B( 48-C , 52-C ) :   1.4831 B( 49-C , 50-O ) :   2.1026 B( 49-C , 51-O ) :   1.2839
B( 51-O , 86-H ) :   0.9428 B( 52-C , 53-C ) :   1.2370 B( 52-C , 87-H ) :   0.9842
B( 53-C , 54-C ) :   1.4200 B( 53-C , 88-H ) :   0.9859 B( 54-C , 55-O ) :   1.2484
B( 55-O , 89-H ) :   0.9297 B( 56-C , 57-C ) :   1.4991 B( 56-C , 90-H ) :   0.9199
B( 57-C , 58-C ) :   1.0815 B( 57-C , 66-C ) :   0.9786 B( 58-C , 59-C ) :   1.6149
B( 58-C , 64-C ) :   0.9956 B( 59-C , 60-C ) :   1.1470 B( 59-C , 62-C ) :   1.1509
B( 60-C , 61-N ) :   2.9653 B( 62-C , 63-N ) :   2.9706 B( 64-C , 65-C ) :   1.2742
B( 64-C , 71-C ) :   1.4119 B( 65-C , 66-C ) :   0.9627 B( 65-C , 68-C ) :   1.4220
B( 66-C , 67-O ) :   2.1046 B( 68-C , 69-C ) :   1.2398 B( 68-C , 91-H ) :   1.0182
B( 69-C , 70-C ) :   1.3055 B( 69-C , 74-C ) :   1.1629 B( 70-C , 71-C ) :   1.3272
B( 70-C , 72-S ) :   1.0887 B( 71-C , 92-H ) :   0.9799 B( 72-S , 73-C ) :   1.0872
B( 73-C , 74-C ) :   1.6171 B( 73-C , 75-Br) :   1.0201 B( 74-C , 93-H ) :   1.0010

-----------------------------------------------------------------------------
         ABSORPTION SPECTRUM VIA TRANSITION ELECTRIC DIPOLE MOMENTS
-----------------------------------------------------------------------------
State   Energy  Wavelength   fosc         T2         TX        TY        TZ
        (cm-1)    (nm)                  (au**2)     (au)      (au)      (au)
-----------------------------------------------------------------------------
   0   16341.8    611.9   1.302527817  26.23992  -4.94100   0.37420   1.29861
   1   19030.2    525.5   0.293202078   5.07223   0.67863  -1.03798   1.87997
   2   22815.0    438.3   0.108961876   1.57228  -1.17599   0.42675   0.08491
   3   24065.8    415.5   0.047273234   0.64668   0.78696  -0.06911   0.15033
   4   24497.1    408.2   0.027044715   0.36345  -0.12906  -0.31964   0.49460
   5   24871.1    402.1   0.008064668   0.10675   0.32588  -0.00560  -0.02280
   6   26080.4    383.4   0.042599195   0.53773   0.12194   0.43158  -0.58017
   7   26456.9    378.0   0.265266319   3.30080   0.85489  -0.36666   1.56062
   8   27131.1    368.6   0.020667680   0.25078   0.47829  -0.00313   0.14838
   9   27261.1    366.8   0.136133352   1.64398   1.01309  -0.38250   0.68652
  10   28707.0    348.3   0.022649523   0.25974   0.45833  -0.18595  -0.12287
  11   29225.8    342.2   0.004997142   0.05629  -0.03020  -0.08292   0.22023
  12   29479.8    339.2   0.051998540   0.58069  -0.05632  -0.48469   0.58532
  13   29607.5    337.8   0.069484696   0.77261   0.55195  -0.06614  -0.68088
  14   29789.2    335.7   0.465826955   5.14803   0.14362   0.98127  -2.04071
  15   30616.6    326.6   0.027751067   0.29840  -0.49209   0.09935   0.21535
  16   31213.4    320.4   0.039681133   0.41852   0.33765  -0.12888   0.53657
  17   31458.9    317.9   0.105621054   1.10531   0.37699  -0.46357   0.86504
  18   31672.4    315.7   0.060614987   0.63005  -0.56096  -0.20814   0.52159
  19   31926.8    313.2   0.035326153   0.36426   0.10329   0.49764  -0.32550
  20   32091.5    311.6   0.044276384   0.45421  -0.50367   0.17851  -0.41068
  21   32501.1    307.7   0.300804141   3.04693  -0.91263   0.44792  -1.41894
  22   32850.0    304.4   0.487010859   4.88066  -0.72091   1.32425  -1.61472
  23   33102.5    302.1   0.013412129   0.13339   0.00170  -0.01349   0.36497
  24   33299.8    300.3   0.018774274   0.18561   0.27574   0.32054   0.08264
  25   33372.8    299.6   0.077501850   0.76453   0.42258  -0.02704   0.76500
  26   33640.5    297.3   0.078301669   0.76627  -0.62807   0.31519   0.52197
  27   34130.8    293.0   0.064580287   0.62292  -0.13388  -0.01065   0.77774
  28   34578.0    289.2   0.073497266   0.69976  -0.58035  -0.23166   0.55614
  29   34904.7    286.5   0.346375336   3.26692  -0.17991   0.89694  -1.55886
  30   35251.4    283.7   0.119682657   1.11771   0.67089   0.32731  -0.74866
  31   35388.0    282.6   0.024523495   0.22814  -0.25829   0.18866  -0.35474
  32   35634.7    280.6   0.059769780   0.55218  -0.49213   0.32178  -0.45437
  33   35759.9    279.6   0.009751135   0.08977   0.23631  -0.13618   0.12403
  34   36038.8    277.5   0.043622362   0.39849   0.60513   0.15391  -0.09282
  35   36353.1    275.1   0.023036780   0.20862   0.09153   0.24194  -0.37644
  36   36428.5    274.5   0.054755077   0.49483   0.06896   0.33921  -0.61238
  37   36573.6    273.4   0.006260952   0.05636   0.06730  -0.09439   0.20716
  38   36754.7    272.1   0.017890710   0.16025  -0.34781  -0.17306   0.09657
  39   37033.8    270.0   0.029901996   0.26581  -0.35778   0.22993   0.29144
  40   37204.0    268.8   0.007831392   0.06930   0.07424   0.11937  -0.22257
  41   37412.2    267.3   0.014148852   0.12450   0.14187  -0.24700   0.20825
  42   37522.8    266.5   0.026292711   0.23068  -0.39247   0.27559  -0.02641
  43   37703.5    265.2   0.008609679   0.07518   0.21781  -0.03357  -0.16311
  44   37791.6    264.6   0.049645101   0.43247  -0.17499  -0.17233   0.61004
  45   38021.4    263.0   0.038470609   0.33310   0.47361   0.01106  -0.32966
  46   38093.8    262.5   0.048067389   0.41541  -0.61646  -0.09847   0.16028
  47   38181.6    261.9   0.037425795   0.32269  -0.40142  -0.19916   0.34913
  48   38358.3    260.7   0.012942386   0.11108   0.04926  -0.03956   0.32724
  49   38387.4    260.5   0.005397382   0.04629  -0.10317   0.01901  -0.18783
  50   38787.1    257.8   0.159929354   1.35743   0.37565  -0.52602   0.96934
  51   38905.3    257.0   0.065170386   0.55146  -0.09800  -0.03969  -0.73504
  52   39380.5    253.9   0.104228097   0.87132   0.64945   0.06571  -0.66725
  53   39499.7    253.2   0.068018665   0.56690  -0.74120   0.07082   0.11182
  54   39589.5    252.6   0.029121879   0.24217  -0.34207   0.16002   0.31551
  55   39862.8    250.9   0.016661785   0.13760   0.25298  -0.22695  -0.14864
  56   39965.0    250.2   0.138250018   1.13883  -0.94218   0.27913  -0.41620
  57   40235.2    248.5   0.072253488   0.59119  -0.64823   0.14740  -0.38634

FINAL SINGLE POINT ENERGY     -7403.491890620451

DIPOLE MOMENT
-------------
                                X             Y             Z
Electronic contribution:     77.06802      29.89140     -93.09364
Nuclear contribution   :    -75.12797     -31.60188      95.07991
                        -----------------------------------------
Total Dipole Moment    :      1.94004      -1.71047       1.98626
                        -----------------------------------------
Magnitude (a.u.)       :      3.26109
Magnitude (Debye)      :      8.28904

Rotational constants in cm-1:     0.000810     0.000335     0.000243
Rotational constants in MHz :    24.286041    10.041976     7.291032

                             ****ORCA TERMINATED NORMALLY****
TOTAL RUN TIME: 0 days 0 hours 9 minutes 46 seconds 825 msec
